<event>
 7    1  0.1714203E-010  0.4778727E+02  0.7816164E-02  0.1312668E+00
        -11   -1    0    0    0    0  0.00000000000E+00  0.00000000000E+00  0.45593999997E+02  0.45594000000E+02  0.51100000000E-03 0.  1.
         11   -1    0    0    0    0 -0.00000000000E+00 -0.00000000000E+00 -0.45593999997E+02  0.45594000000E+02  0.51100000000E-03 0. -1.
    9900012    2    1    2    0    0 -0.14596311131E+02 -0.25378602953E+02 -0.32039000600E+02  0.47787270214E+02  0.19999996214E+02 0.  0.
        -12    1    1    2    0    0  0.14596311131E+02  0.25378602953E+02  0.32039000600E+02  0.43400729786E+02  0.00000000000E+00 0.  1.
         11    1    3    3    0    0  0.29151444539E+00 -0.86290930591E+01 -0.33667622382E+01  0.92672172697E+01  0.51100000000E-03 0.  1.
        -11    1    3    3    0    0 -0.16023486609E+02 -0.17904579090E+02 -0.27514059474E+02  0.36528749561E+02  0.51100000000E-03 0. -1.
         12    1    3    3    0    0  0.11356610326E+01  0.11550691957E+01 -0.11581788877E+01  0.19913033831E+01  0.00000000000E+00 0. -1.
</event>
<event>
 7    1  0.1714203E-010  0.4778727E+02  0.7816164E-02  0.1312668E+00
        -11   -1    0    0    0    0  0.00000000000E+00  0.00000000000E+00  0.45593999997E+02  0.45594000000E+02  0.51100000000E-03 0.  1.
         11   -1    0    0    0    0 -0.00000000000E+00 -0.00000000000E+00 -0.45593999997E+02  0.45594000000E+02  0.51100000000E-03 0. -1.
    9900012    2    1    2    0    0  0.37906004152E+02 -0.15468088461E+02 -0.14404728132E+02  0.47787273002E+02  0.20000008925E+02 0.  0.
        -12    1    1    2    0    0 -0.37906004152E+02  0.15468088461E+02  0.14404728132E+02  0.43400726998E+02  0.00000000000E+00 0.  1.
         11    1    3    3    0    0  0.26779299064E+02 -0.16700476393E+02 -0.80545971139E+01  0.32571664143E+02  0.51100000000E-03 0. -1.
        -11    1    3    3    0    0 -0.99878048629E+00 -0.89874844217E+00 -0.14168634233E+01  0.19526426820E+01  0.51100000000E-03 0.  1.
         12    1    3    3    0    0  0.12125485574E+02  0.21311363738E+01 -0.49332675952E+01  0.13262966177E+02  0.00000000000E+00 0. -1.
</event>
<event>
 7    1  0.1714203E-010  0.4778727E+02  0.7816164E-02  0.1312668E+00
        -11   -1    0    0    0    0  0.00000000000E+00  0.00000000000E+00  0.45593999997E+02  0.45594000000E+02  0.51100000000E-03 0. -1.
         11   -1    0    0    0    0 -0.00000000000E+00 -0.00000000000E+00 -0.45593999997E+02  0.45594000000E+02  0.51100000000E-03 0.  1.
    9900012    2    1    2    0    0  0.95875656318E+01  0.33296870926E+02  0.26134654143E+02  0.47787272179E+02  0.20000005174E+02 0.  0.
        -12    1    1    2    0    0 -0.95875656318E+01 -0.33296870926E+02 -0.26134654143E+02  0.43400727821E+02  0.00000000000E+00 0.  1.
         11    1    3    3    0    0  0.31994844128E+01  0.15883315623E+02  0.12780069084E+02  0.20636050537E+02  0.51100000000E-03 0. -1.
        -11    1    3    3    0    0  0.37837248168E+01  0.13078718935E+02  0.82548468642E+00  0.13640047203E+02  0.51100000000E-03 0.  1.
         12    1    3    3    0    0  0.26043564023E+01  0.43348363683E+01  0.12529100372E+02  0.13511174440E+02  0.00000000000E+00 0. -1.
</event>
<event>
 7    1  0.1714203E-010  0.4778727E+02  0.7816164E-02  0.1312668E+00
        -11   -1    0    0    0    0  0.00000000000E+00  0.00000000000E+00  0.45593999997E+02  0.45594000000E+02  0.51100000000E-03 0.  1.
         11   -1    0    0    0    0 -0.00000000000E+00 -0.00000000000E+00 -0.45593999997E+02  0.45594000000E+02  0.51100000000E-03 0. -1.
    9900012    2    1    2    0    0 -0.68049917791E+01  0.27911177032E+02 -0.32531238478E+02  0.47787271972E+02  0.20000004228E+02 0.  0.
        -12    1    1    2    0    0  0.68049917791E+01 -0.27911177032E+02  0.32531238478E+02  0.43400728028E+02  0.00000000000E+00 0.  1.
         11    1    3    3    0    0 -0.86100520536E+01  0.79537932673E+01 -0.92382169272E+01  0.14924492486E+02  0.51100000000E-03 0. -1.
        -11    1    3    3    0    0  0.23851369679E+01  0.63446874146E+01 -0.11667194496E+01  0.68778754917E+01  0.51100000000E-03 0.  1.
        -12    1    3    3    0    0 -0.58007669344E+00  0.13612696350E+02 -0.22126302102E+02  0.25984903994E+02  0.00000000000E+00 0.  1.
</event>
<event>
 7    1  0.1714203E-010  0.4778727E+02  0.7816164E-02  0.1312668E+00
        -11   -1    0    0    0    0  0.00000000000E+00  0.00000000000E+00  0.45593999997E+02  0.45594000000E+02  0.51100000000E-03 0. -1.
         11   -1    0    0    0    0 -0.00000000000E+00 -0.00000000000E+00 -0.45593999997E+02  0.45594000000E+02  0.51100000000E-03 0.  1.
    9900012    2    1    2    0    0  0.12606919125E+02 -0.41484356446E+02  0.19331613652E+01  0.47787270139E+02  0.19999995872E+02 0.  0.
        -12    1    1    2    0    0 -0.12606919125E+02  0.41484356446E+02 -0.19331613652E+01  0.43400729861E+02  0.00000000000E+00 0.  1.
         11    1    3    3    0    0  0.89657341569E+01 -0.12600294575E+02  0.30828147598E+00  0.15467606475E+02  0.51100000000E-03 0. -1.
        -11    1    3    3    0    0 -0.15738603103E+01 -0.19034503022E+02 -0.44720103144E+01  0.19616019425E+02  0.51100000000E-03 0.  1.
         12    1    3    3    0    0  0.52150452785E+01 -0.98495588502E+01  0.60968902036E+01  0.12703644239E+02  0.00000000000E+00 0. -1.
</event>
<event>
 7    1  0.1714203E-010  0.4778727E+02  0.7816164E-02  0.1312668E+00
        -11   -1    0    0    0    0  0.00000000000E+00  0.00000000000E+00  0.45593999997E+02  0.45594000000E+02  0.51100000000E-03 0.  1.
         11   -1    0    0    0    0 -0.00000000000E+00 -0.00000000000E+00 -0.45593999997E+02  0.45594000000E+02  0.51100000000E-03 0. -1.
    9900012    2    1    2    0    0 -0.39370086964E+02 -0.17210893210E+02 -0.61159405896E+01  0.47787270490E+02  0.19999997474E+02 0.  0.
        -12    1    1    2    0    0  0.39370086964E+02  0.17210893210E+02  0.61159405896E+01  0.43400729510E+02  0.00000000000E+00 0.  1.
         11    1    3    3    0    0  0.38061981583E+00  0.42641780433E+00  0.23302773605E+01  0.23993533350E+01  0.51100000000E-03 0. -1.
        -11    1    3    3    0    0 -0.10759017754E+02 -0.70407174121E+01 -0.66307255456E+01  0.14467020641E+02  0.51100000000E-03 0.  1.
         12    1    3    3    0    0 -0.28991689027E+02 -0.10596593602E+02 -0.18154924046E+01  0.30920896514E+02  0.00000000000E+00 0. -1.
</event>
<event>
 7    1  0.1714203E-010  0.4778727E+02  0.7816164E-02  0.1312668E+00
        -11   -1    0    0    0    0  0.00000000000E+00  0.00000000000E+00  0.45593999997E+02  0.45594000000E+02  0.51100000000E-03 0.  1.
         11   -1    0    0    0    0 -0.00000000000E+00 -0.00000000000E+00 -0.45593999997E+02  0.45594000000E+02  0.51100000000E-03 0. -1.
    9900012    2    1    2    0    0 -0.26896969249E+02  0.26742656328E+02  0.21095174886E+02  0.47787273903E+02  0.20000013032E+02 0.  0.
        -12    1    1    2    0    0  0.26896969249E+02 -0.26742656328E+02 -0.21095174886E+02  0.43400726097E+02  0.00000000000E+00 0.  1.
         11    1    3    3    0    0 -0.75534942004E+01  0.14222341106E+01  0.21839504594E+01  0.79904733508E+01  0.51100000000E-03 0. -1.
        -11    1    3    3    0    0 -0.69816677592E+01  0.16900993023E+02  0.16533265752E+02  0.24652304691E+02  0.51100000000E-03 0.  1.
         12    1    3    3    0    0 -0.12361807290E+02  0.84194291946E+01  0.23779586747E+01  0.15144495861E+02  0.00000000000E+00 0. -1.
</event>
<event>
 7    1  0.1714203E-010  0.4778727E+02  0.7816164E-02  0.1312668E+00
        -11   -1    0    0    0    0  0.00000000000E+00  0.00000000000E+00  0.45593999997E+02  0.45594000000E+02  0.51100000000E-03 0.  1.
         11   -1    0    0    0    0 -0.00000000000E+00 -0.00000000000E+00 -0.45593999997E+02  0.45594000000E+02  0.51100000000E-03 0. -1.
    9900012    2    1    2    0    0 -0.35529221294E+02  0.18874732613E+02 -0.16280115875E+02  0.47787271091E+02  0.20000000211E+02 0.  0.
        -12    1    1    2    0    0  0.35529221294E+02 -0.18874732613E+02  0.16280115875E+02  0.43400728909E+02  0.00000000000E+00 0.  1.
         11    1    3    3    0    0 -0.11329401886E+01  0.57721547778E+01 -0.25967719384E+01  0.64299727069E+01  0.51100000000E-03 0. -1.
        -11    1    3    3    0    0 -0.23644467685E+01  0.53230434610E+01 -0.37609898375E+01  0.69332852983E+01  0.51100000000E-03 0.  1.
        -12    1    3    3    0    0 -0.32031834337E+02  0.77795343744E+01 -0.99223540988E+01  0.34424013086E+02  0.00000000000E+00 0.  1.
</event>
<event>
 7    1  0.1714203E-010  0.4778727E+02  0.7816164E-02  0.1312668E+00
        -11   -1    0    0    0    0  0.00000000000E+00  0.00000000000E+00  0.45593999997E+02  0.45594000000E+02  0.51100000000E-03 0.  1.
         11   -1    0    0    0    0 -0.00000000000E+00 -0.00000000000E+00 -0.45593999997E+02  0.45594000000E+02  0.51100000000E-03 0. -1.
    9900012    2    1    2    0    0  0.16976179038E+02 -0.36545045316E+02 -0.16121170544E+02  0.47787272683E+02  0.20000007472E+02 0.  0.
        -12    1    1    2    0    0 -0.16976179038E+02  0.36545045316E+02  0.16121170544E+02  0.43400727317E+02  0.00000000000E+00 0.  1.
         11    1    3    3    0    0  0.23878578318E+01 -0.12456798451E+02 -0.77320193745E+01  0.14854555414E+02  0.51100000000E-03 0. -1.
        -11    1    3    3    0    0  0.97101403738E+01 -0.16394601428E+02  0.19486646736E+01  0.19153774467E+02  0.51100000000E-03 0.  1.
        -12    1    3    3    0    0  0.48781808329E+01 -0.76936454380E+01 -0.10337815843E+02  0.13778942803E+02  0.00000000000E+00 0.  1.
</event>
<event>
 7    1  0.1714203E-010  0.4778729E+02  0.7816164E-02  0.1312668E+00
        -11   -1    0    0    0    0  0.00000000000E+00  0.00000000000E+00  0.45593999997E+02  0.45594000000E+02  0.51100000000E-03 0. -1.
         11   -1    0    0    0    0 -0.00000000000E+00 -0.00000000000E+00 -0.45593999997E+02  0.45594000000E+02  0.51100000000E-03 0.  1.
    9900012    2    1    2    0    0 -0.13762697495E+02  0.38603408177E+02  0.14282389213E+02  0.47787290249E+02  0.20000087562E+02 0.  0.
        -12    1    1    2    0    0  0.13762697495E+02 -0.38603408177E+02 -0.14282389213E+02  0.43400709751E+02  0.00000000000E+00 0.  1.
         11    1    3    3    0    0  0.17106319688E+00  0.13473224618E+02 -0.10953105848E+01  0.13518755482E+02  0.51100000000E-03 0. -1.
        -11    1    3    3    0    0 -0.24958148629E+01  0.29907392604E+00  0.38517200801E+01  0.45993787493E+01  0.51100000000E-03 0.  1.
         12    1    3    3    0    0 -0.11437945829E+02  0.24831109633E+02  0.11525979718E+02  0.29669156018E+02  0.00000000000E+00 0. -1.
</event>
<event>
 7    1  0.1714203E-010  0.4778727E+02  0.7816164E-02  0.1312668E+00
        -11   -1    0    0    0    0  0.00000000000E+00  0.00000000000E+00  0.45593999997E+02  0.45594000000E+02  0.51100000000E-03 0.  1.
         11   -1    0    0    0    0 -0.00000000000E+00 -0.00000000000E+00 -0.45593999997E+02  0.45594000000E+02  0.51100000000E-03 0. -1.
    9900012    2    1    2    0    0  0.17366510628E+00 -0.28763678481E+02 -0.32499912646E+02  0.47787266350E+02  0.19999978597E+02 0.  0.
        -12    1    1    2    0    0 -0.17366510628E+00  0.28763678481E+02  0.32499912646E+02  0.43400733650E+02  0.00000000000E+00 0.  1.
         11    1    3    3    0    0 -0.82789745448E+00 -0.31741361526E+02 -0.30144054186E+02  0.43781999140E+02  0.51100000000E-03 0. -1.
        -11    1    3    3    0    0 -0.53178616825E-01  0.95894396921E+00 -0.65222047521E+00  0.11609450076E+01  0.51100000000E-03 0.  1.
         12    1    3    3    0    0  0.10547411776E+01  0.20187390753E+01 -0.17036379854E+01  0.28443222024E+01  0.00000000000E+00 0. -1.
</event>
<event>
 7    1  0.1714203E-010  0.4778727E+02  0.7816164E-02  0.1312668E+00
        -11   -1    0    0    0    0  0.00000000000E+00  0.00000000000E+00  0.45593999997E+02  0.45594000000E+02  0.51100000000E-03 0.  1.
         11   -1    0    0    0    0 -0.00000000000E+00 -0.00000000000E+00 -0.45593999997E+02  0.45594000000E+02  0.51100000000E-03 0. -1.
    9900012    2    1    2    0    0 -0.33664383410E+02 -0.15669337548E+02 -0.22467851938E+02  0.47787271662E+02  0.20000002816E+02 0.  0.
        -12    1    1    2    0    0  0.33664383410E+02  0.15669337548E+02  0.22467851938E+02  0.43400728338E+02  0.00000000000E+00 0.  1.
         11    1    3    3    0    0 -0.77438626747E+01  0.18145776732E+01 -0.85688845813E+01  0.11691273861E+02  0.51100000000E-03 0. -1.
        -11    1    3    3    0    0 -0.57834674066E+01 -0.53343876839E+01  0.14660887897E+01  0.80033495366E+01  0.51100000000E-03 0.  1.
         12    1    3    3    0    0 -0.20137053329E+02 -0.12149527538E+02 -0.15365056146E+02  0.28092648265E+02  0.00000000000E+00 0. -1.
</event>
<event>
 7    1  0.1714203E-010  0.4778726E+02  0.7816164E-02  0.1312668E+00
        -11   -1    0    0    0    0  0.00000000000E+00  0.00000000000E+00  0.45593999997E+02  0.45594000000E+02  0.51100000000E-03 0. -1.
         11   -1    0    0    0    0 -0.00000000000E+00 -0.00000000000E+00 -0.45593999997E+02  0.45594000000E+02  0.51100000000E-03 0.  1.
    9900012    2    1    2    0    0 -0.42258318054E+02 -0.98278235468E+01 -0.11282900535E+01  0.47787255779E+02  0.19999930401E+02 0.  0.
        -12    1    1    2    0    0  0.42258318054E+02  0.98278235468E+01  0.11282900535E+01  0.43400744221E+02  0.00000000000E+00 0.  1.
         11    1    3    3    0    0 -0.21817524233E+02 -0.95290232836E+01 -0.61687640680E+00  0.23815691994E+02  0.51100000000E-03 0. -1.
        -11    1    3    3    0    0 -0.18360961820E+02  0.24272862936E+01  0.33351176120E+01  0.18818598446E+02  0.51100000000E-03 0.  1.
        -12    1    3    3    0    0 -0.20798320015E+01 -0.27260865568E+01 -0.38465312587E+01  0.51529653398E+01  0.00000000000E+00 0.  1.
</event>
<event>
 7    1  0.1714203E-010  0.4778727E+02  0.7816164E-02  0.1312668E+00
        -11   -1    0    0    0    0  0.00000000000E+00  0.00000000000E+00  0.45593999997E+02  0.45594000000E+02  0.51100000000E-03 0.  1.
         11   -1    0    0    0    0 -0.00000000000E+00 -0.00000000000E+00 -0.45593999997E+02  0.45594000000E+02  0.51100000000E-03 0. -1.
    9900012    2    1    2    0    0  0.24336687590E+02 -0.35923754511E+02 -0.91253448347E+00  0.47787271662E+02  0.20000002817E+02 0.  0.
        -12    1    1    2    0    0 -0.24336687590E+02  0.35923754511E+02  0.91253448347E+00  0.43400728338E+02  0.00000000000E+00 0.  1.
         11    1    3    3    0    0  0.98388633837E+01 -0.15908128044E+02  0.59288097750E+01  0.19621991646E+02  0.51100000000E-03 0. -1.
        -11    1    3    3    0    0  0.97756769966E+01 -0.75141442341E+01  0.14865539521E+01  0.12419181423E+02  0.51100000000E-03 0.  1.
         12    1    3    3    0    0  0.47221472102E+01 -0.12501482233E+02 -0.83278982105E+01  0.15746098593E+02  0.00000000000E+00 0. -1.
</event>
<event>
 7    1  0.1714203E-010  0.4778727E+02  0.7816164E-02  0.1312668E+00
        -11   -1    0    0    0    0  0.00000000000E+00  0.00000000000E+00  0.45593999997E+02  0.45594000000E+02  0.51100000000E-03 0.  1.
         11   -1    0    0    0    0 -0.00000000000E+00 -0.00000000000E+00 -0.45593999997E+02  0.45594000000E+02  0.51100000000E-03 0. -1.
    9900012    2    1    2    0    0  0.42765153479E+02 -0.72502551979E+01 -0.14827959876E+01  0.47787271475E+02  0.20000001965E+02 0.  0.
        -12    1    1    2    0    0 -0.42765153479E+02  0.72502551979E+01  0.14827959876E+01  0.43400728525E+02  0.00000000000E+00 0.  1.
         11    1    3    3    0    0  0.15685067164E+02  0.20931629280E+01  0.49891726947E+01  0.16592001309E+02  0.51100000000E-03 0.  1.
        -11    1    3    3    0    0  0.25183525489E+02 -0.75782544886E+01 -0.24525321548E+01  0.26413156028E+02  0.51100000000E-03 0. -1.
        -12    1    3    3    0    0  0.18965608259E+01 -0.17651636373E+01 -0.40194365275E+01  0.47821141383E+01  0.00000000000E+00 0.  1.
</event>
<event>
 7    1  0.1714203E-010  0.4778727E+02  0.7816164E-02  0.1312668E+00
        -11   -1    0    0    0    0  0.00000000000E+00  0.00000000000E+00  0.45593999997E+02  0.45594000000E+02  0.51100000000E-03 0. -1.
         11   -1    0    0    0    0 -0.00000000000E+00 -0.00000000000E+00 -0.45593999997E+02  0.45594000000E+02  0.51100000000E-03 0.  1.
    9900012    2    1    2    0    0 -0.35947569520E+02 -0.24109222354E+02  0.31844863136E+01  0.47787270628E+02  0.19999998103E+02 0.  0.
        -12    1    1    2    0    0  0.35947569520E+02  0.24109222354E+02 -0.31844863136E+01  0.43400729372E+02  0.00000000000E+00 0.  1.
         11    1    3    3    0    0 -0.17656210547E+02 -0.83726535047E+01  0.35533297288E+01  0.19861249961E+02  0.51100000000E-03 0. -1.
        -11    1    3    3    0    0 -0.15920867849E+02 -0.17225290898E+02 -0.35115838809E+01  0.23717417676E+02  0.51100000000E-03 0.  1.
         12    1    3    3    0    0 -0.23704911241E+01  0.14887220490E+01  0.31427404658E+01  0.42086029920E+01  0.00000000000E+00 0. -1.
</event>
<event>
 7    1  0.1714203E-010  0.4778727E+02  0.7816164E-02  0.1312668E+00
        -11   -1    0    0    0    0  0.00000000000E+00  0.00000000000E+00  0.45593999997E+02  0.45594000000E+02  0.51100000000E-03 0.  1.
         11   -1    0    0    0    0 -0.00000000000E+00 -0.00000000000E+00 -0.45593999997E+02  0.45594000000E+02  0.51100000000E-03 0. -1.
    9900012    2    1    2    0    0  0.20494474527E+01 -0.31691902768E+02 -0.29581179769E+02  0.47787272673E+02  0.20000007427E+02 0.  0.
        -12    1    1    2    0    0 -0.20494474527E+01  0.31691902768E+02  0.29581179769E+02  0.43400727327E+02  0.00000000000E+00 0.  1.
         11    1    3    3    0    0  0.38769841905E+01 -0.16394207574E+02 -0.20719950784E+02  0.26704258259E+02  0.51100000000E-03 0. -1.
        -11    1    3    3    0    0 -0.35247266472E+01 -0.24686218399E+00 -0.36123290760E+01  0.50530743603E+01  0.51100000000E-03 0.  1.
         12    1    3    3    0    0  0.16971899094E+01 -0.15050833010E+02 -0.52488999089E+01  0.16029940054E+02  0.00000000000E+00 0. -1.
</event>
<event>
 7    1  0.1714203E-010  0.4778723E+02  0.7816164E-02  0.1312668E+00
        -11   -1    0    0    0    0  0.00000000000E+00  0.00000000000E+00  0.45593999997E+02  0.45594000000E+02  0.51100000000E-03 0.  1.
         11   -1    0    0    0    0 -0.00000000000E+00 -0.00000000000E+00 -0.45593999997E+02  0.45594000000E+02  0.51100000000E-03 0. -1.
    9900012    2    1    2    0    0  0.41331672487E+01 -0.26670855925E+02 -0.33988367162E+02  0.47787231232E+02  0.19999818478E+02 0.  0.
        -12    1    1    2    0    0 -0.41331672487E+01  0.26670855925E+02  0.33988367162E+02  0.43400768768E+02  0.00000000000E+00 0.  1.
         11    1    3    3    0    0  0.28627730177E+01 -0.15512259193E+02 -0.88307603665E+01  0.18077831273E+02  0.51100000000E-03 0. -1.
        -11    1    3    3    0    0 -0.49260550291E+01 -0.55492593652E+01 -0.12662707566E+02  0.14676663817E+02  0.51100000000E-03 0.  1.
         12    1    3    3    0    0  0.61964492602E+01 -0.56093373671E+01 -0.12494899230E+02  0.15032736142E+02  0.00000000000E+00 0. -1.
</event>
<event>
 7    1  0.1714203E-010  0.4778727E+02  0.7816164E-02  0.1312668E+00
        -11   -1    0    0    0    0  0.00000000000E+00  0.00000000000E+00  0.45593999997E+02  0.45594000000E+02  0.51100000000E-03 0.  1.
         11   -1    0    0    0    0 -0.00000000000E+00 -0.00000000000E+00 -0.45593999997E+02  0.45594000000E+02  0.51100000000E-03 0. -1.
    9900012    2    1    2    0    0 -0.22394982881E+02 -0.21227471922E+02 -0.30520194901E+02  0.47787272826E+02  0.20000008122E+02 0.  0.
        -12    1    1    2    0    0  0.22394982881E+02  0.21227471922E+02  0.30520194901E+02  0.43400727174E+02  0.00000000000E+00 0.  1.
         11    1    3    3    0    0 -0.10154123066E+02 -0.11796680941E+02 -0.11892792670E+02  0.19588425516E+02  0.51100000000E-03 0. -1.
        -11    1    3    3    0    0 -0.10158650074E+02  0.22486940371E+00 -0.48837425748E+01  0.11273849359E+02  0.51100000000E-03 0.  1.
         12    1    3    3    0    0 -0.20822097414E+01 -0.96556603850E+01 -0.13743659656E+02  0.16924997950E+02  0.00000000000E+00 0. -1.
</event>
<event>
 7    1  0.1714203E-010  0.4778727E+02  0.7816164E-02  0.1312668E+00
        -11   -1    0    0    0    0  0.00000000000E+00  0.00000000000E+00  0.45593999997E+02  0.45594000000E+02  0.51100000000E-03 0. -1.
         11   -1    0    0    0    0 -0.00000000000E+00 -0.00000000000E+00 -0.45593999997E+02  0.45594000000E+02  0.51100000000E-03 0.  1.
    9900012    2    1    2    0    0 -0.23370516532E+02 -0.30122562287E+02  0.20738206723E+02  0.47787273971E+02  0.20000013345E+02 0.  0.
        -12    1    1    2    0    0  0.23370516532E+02  0.30122562287E+02 -0.20738206723E+02  0.43400726029E+02  0.00000000000E+00 0.  1.
         11    1    3    3    0    0 -0.41368426486E+01 -0.11776014384E+02 -0.43017887959E+00  0.12488916527E+02  0.51100000000E-03 0. -1.
        -11    1    3    3    0    0 -0.10222016731E+02 -0.44717805683E+01  0.52181105323E+01  0.12317269393E+02  0.51100000000E-03 0.  1.
        -12    1    3    3    0    0 -0.90116571523E+01 -0.13874767334E+02  0.15950275071E+02  0.22981088052E+02  0.00000000000E+00 0.  1.
</event>
<event>
 7    1  0.1714203E-010  0.4778728E+02  0.7816164E-02  0.1312668E+00
        -11   -1    0    0    0    0  0.00000000000E+00  0.00000000000E+00  0.45593999997E+02  0.45594000000E+02  0.51100000000E-03 0.  1.
         11   -1    0    0    0    0 -0.00000000000E+00 -0.00000000000E+00 -0.45593999997E+02  0.45594000000E+02  0.51100000000E-03 0. -1.
    9900012    2    1    2    0    0  0.25841784917E+02  0.34177823326E+02 -0.69065743196E+01  0.47787283141E+02  0.20000055155E+02 0.  0.
        -12    1    1    2    0    0 -0.25841784917E+02 -0.34177823326E+02  0.69065743196E+01  0.43400716859E+02  0.00000000000E+00 0.  1.
         11    1    3    3    0    0 -0.16100764037E+01  0.85004350792E+01 -0.27981500722E+01  0.90928206102E+01  0.51100000000E-03 0.  1.
        -11    1    3    3    0    0  0.10407184320E+02  0.78178743924E+01 -0.51170166564E+01  0.13986154054E+02  0.51100000000E-03 0. -1.
        -12    1    3    3    0    0  0.17044677000E+02  0.17859513854E+02  0.10085924091E+01  0.24708308477E+02  0.00000000000E+00 0.  1.
</event>
<event>
 7    1  0.1714203E-010  0.4778727E+02  0.7816164E-02  0.1312668E+00
        -11   -1    0    0    0    0  0.00000000000E+00  0.00000000000E+00  0.45593999997E+02  0.45594000000E+02  0.51100000000E-03 0.  1.
         11   -1    0    0    0    0 -0.00000000000E+00 -0.00000000000E+00 -0.45593999997E+02  0.45594000000E+02  0.51100000000E-03 0. -1.
    9900012    2    1    2    0    0  0.38788122814E+01  0.14079028361E+02 -0.40870025789E+02  0.47787271523E+02  0.20000002182E+02 0.  0.
        -12    1    1    2    0    0 -0.38788122814E+01 -0.14079028361E+02  0.40870025789E+02  0.43400728477E+02  0.00000000000E+00 0.  1.
         11    1    3    3    0    0  0.23971569076E+01 -0.42932142741E+01 -0.10023078810E+02  0.11164235716E+02  0.51100000000E-03 0. -1.
        -11    1    3    3    0    0  0.30268165980E+01  0.31983127098E+01 -0.55638490569E+01  0.70955788697E+01  0.51100000000E-03 0.  1.
         12    1    3    3    0    0 -0.15451612242E+01  0.15173929925E+02 -0.25283097923E+02  0.29527456937E+02  0.00000000000E+00 0. -1.
</event>
<event>
 7    1  0.1714203E-010  0.4778727E+02  0.7816164E-02  0.1312668E+00
        -11   -1    0    0    0    0  0.00000000000E+00  0.00000000000E+00  0.45593999997E+02  0.45594000000E+02  0.51100000000E-03 0.  1.
         11   -1    0    0    0    0 -0.00000000000E+00 -0.00000000000E+00 -0.45593999997E+02  0.45594000000E+02  0.51100000000E-03 0. -1.
    9900012    2    1    2    0    0 -0.18308556013E+02  0.17620003801E+02 -0.35184594580E+02  0.47787268980E+02  0.19999990589E+02 0.  0.
        -12    1    1    2    0    0  0.18308556013E+02 -0.17620003801E+02  0.35184594580E+02  0.43400731020E+02  0.00000000000E+00 0.  1.
         11    1    3    3    0    0 -0.12648517187E+02  0.10622886676E+02 -0.18203525395E+02  0.24580460643E+02  0.51100000000E-03 0. -1.
        -11    1    3    3    0    0 -0.72141795536E+00  0.83683964792E+01 -0.41065701038E+01  0.93495679995E+01  0.51100000000E-03 0.  1.
        -12    1    3    3    0    0 -0.49386208713E+01 -0.13712793539E+01 -0.12874499082E+02  0.13857240338E+02  0.00000000000E+00 0.  1.
</event>
<event>
 7    1  0.1714203E-010  0.4778727E+02  0.7816164E-02  0.1312668E+00
        -11   -1    0    0    0    0  0.00000000000E+00  0.00000000000E+00  0.45593999997E+02  0.45594000000E+02  0.51100000000E-03 0.  1.
         11   -1    0    0    0    0 -0.00000000000E+00 -0.00000000000E+00 -0.45593999997E+02  0.45594000000E+02  0.51100000000E-03 0. -1.
    9900012    2    1    2    0    0 -0.30352214453E+02 -0.18815043761E+02 -0.24664970334E+02  0.47787267800E+02  0.19999985207E+02 0.  0.
        -12    1    1    2    0    0  0.30352214453E+02  0.18815043761E+02  0.24664970334E+02  0.43400732200E+02  0.00000000000E+00 0.  1.
         11    1    3    3    0    0 -0.34130604861E+01  0.14251474165E+01  0.10310280179E+01  0.38396674433E+01  0.51100000000E-03 0.  1.
        -11    1    3    3    0    0 -0.22100054672E+02 -0.10009348001E+02 -0.18820927512E+02  0.30705484470E+02  0.51100000000E-03 0. -1.
        -12    1    3    3    0    0 -0.48390992953E+01 -0.10230843177E+02 -0.68750708400E+01  0.13242115886E+02  0.00000000000E+00 0.  1.
</event>
<event>
 7    1  0.1714203E-010  0.4778727E+02  0.7816164E-02  0.1312668E+00
        -11   -1    0    0    0    0  0.00000000000E+00  0.00000000000E+00  0.45593999997E+02  0.45594000000E+02  0.51100000000E-03 0.  1.
         11   -1    0    0    0    0 -0.00000000000E+00 -0.00000000000E+00 -0.45593999997E+02  0.45594000000E+02  0.51100000000E-03 0. -1.
    9900012    2    1    2    0    0 -0.89747967418E+01 -0.22146310041E+02 -0.36230059866E+02  0.47787271171E+02  0.20000000576E+02 0.  0.
        -12    1    1    2    0    0  0.89747967418E+01  0.22146310041E+02  0.36230059866E+02  0.43400728829E+02  0.00000000000E+00 0.  1.
         11    1    3    3    0    0  0.14371105298E+01  0.13591789649E+00 -0.79491379625E+01  0.80791432069E+01  0.51100000000E-03 0. -1.
        -11    1    3    3    0    0 -0.72978924767E+01 -0.11510069651E+02 -0.62620577041E+01  0.14998476754E+02  0.51100000000E-03 0.  1.
         12    1    3    3    0    0 -0.31140147948E+01 -0.10772158286E+02 -0.22018864200E+02  0.24709651210E+02  0.00000000000E+00 0. -1.
</event>
<event>
 7    1  0.1714203E-010  0.4778730E+02  0.7816164E-02  0.1312668E+00
        -11   -1    0    0    0    0  0.00000000000E+00  0.00000000000E+00  0.45593999997E+02  0.45594000000E+02  0.51100000000E-03 0.  1.
         11   -1    0    0    0    0 -0.00000000000E+00 -0.00000000000E+00 -0.45593999997E+02  0.45594000000E+02  0.51100000000E-03 0. -1.
    9900012    2    1    2    0    0 -0.16903088575E+02  0.35977392466E+02 -0.17422210714E+02  0.47787301870E+02  0.20000140544E+02 0.  0.
        -12    1    1    2    0    0  0.16903088575E+02 -0.35977392466E+02  0.17422210714E+02  0.43400698130E+02  0.00000000000E+00 0.  1.
         11    1    3    3    0    0 -0.96911572372E+00  0.11661916718E+02 -0.68211631582E+01  0.13545026907E+02  0.51100000000E-03 0. -1.
        -11    1    3    3    0    0 -0.92482817941E+00  0.13186121164E+02 -0.78000705652E+01  0.15348296309E+02  0.51100000000E-03 0.  1.
         12    1    3    3    0    0 -0.15009144672E+02  0.11129354584E+02 -0.28009769907E+01  0.18893978653E+02  0.00000000000E+00 0. -1.
</event>
<event>
 7    1  0.2364115E-010  0.4778727E+02  0.7816164E-02  0.1312668E+00
        -11   -1    0    0    0    0  0.00000000000E+00  0.00000000000E+00  0.45593999997E+02  0.45594000000E+02  0.51100000000E-03 0.  1.
         11   -1    0    0    0    0 -0.00000000000E+00 -0.00000000000E+00 -0.45593999997E+02  0.45594000000E+02  0.51100000000E-03 0. -1.
    9900012    2    1    2    0    0  0.38922697865E+02 -0.60415475016E+01 -0.18224892840E+02  0.47787269311E+02  0.19999992097E+02 0.  0.
        -12    1    1    2    0    0 -0.38922697865E+02  0.60415475016E+01  0.18224892840E+02  0.43400730689E+02  0.00000000000E+00 0.  1.
         11    1    3    3    0    0  0.17845050295E+02  0.35358435925E+01 -0.94785405590E+01  0.20513184574E+02  0.51100000000E-03 0. -1.
        -11    1    3    3    0    0  0.64834692860E+01 -0.17726479919E+01  0.26014261099E+01  0.72072930391E+01  0.51100000000E-03 0.  1.
        -12    1    3    3    0    0  0.14594178284E+02 -0.78047431022E+01 -0.11347778390E+02  0.20066791698E+02  0.00000000000E+00 0.  1.
</event>
<event>
 7    1  0.1714203E-010  0.4778727E+02  0.7816164E-02  0.1312668E+00
        -11   -1    0    0    0    0  0.00000000000E+00  0.00000000000E+00  0.45593999997E+02  0.45594000000E+02  0.51100000000E-03 0.  1.
         11   -1    0    0    0    0 -0.00000000000E+00 -0.00000000000E+00 -0.45593999997E+02  0.45594000000E+02  0.51100000000E-03 0. -1.
    9900012    2    1    2    0    0 -0.80158509185E+01 -0.29691061356E+02 -0.30623696785E+02  0.47787265038E+02  0.19999972616E+02 0.  0.
        -12    1    1    2    0    0  0.80158509185E+01  0.29691061356E+02  0.30623696785E+02  0.43400734962E+02  0.00000000000E+00 0.  1.
         11    1    3    3    0    0 -0.72530523483E+01 -0.81065750873E+01 -0.20502445487E+02  0.23209342929E+02  0.51100000000E-03 0. -1.
        -11    1    3    3    0    0  0.18423179510E+00 -0.13211050287E+02 -0.92022141411E+01  0.16101134631E+02  0.51100000000E-03 0.  1.
         12    1    3    3    0    0 -0.94703036531E+00 -0.83734359820E+01 -0.91903715762E+00  0.84767874784E+01  0.00000000000E+00 0. -1.
</event>
<event>
 7    1  0.1714203E-010  0.4778728E+02  0.7816164E-02  0.1312668E+00
        -11   -1    0    0    0    0  0.00000000000E+00  0.00000000000E+00  0.45593999997E+02  0.45594000000E+02  0.51100000000E-03 0. -1.
         11   -1    0    0    0    0 -0.00000000000E+00 -0.00000000000E+00 -0.45593999997E+02  0.45594000000E+02  0.51100000000E-03 0.  1.
    9900012    2    1    2    0    0 -0.19063668506E+02 -0.26403100087E+02  0.28689289611E+02  0.47787280081E+02  0.20000041203E+02 0.  0.
        -12    1    1    2    0    0  0.19063668506E+02  0.26403100087E+02 -0.28689289611E+02  0.43400719919E+02  0.00000000000E+00 0.  1.
         11    1    3    3    0    0 -0.25438775146E+01 -0.12299345720E+02  0.62124490613E+01  0.14012128373E+02  0.51100000000E-03 0. -1.
        -11    1    3    3    0    0 -0.17280189822E+01 -0.99749921590E+00 -0.16487902304E+01  0.25883515552E+01  0.51100000000E-03 0.  1.
         12    1    3    3    0    0 -0.14791772009E+02 -0.13106255150E+02  0.24125630780E+02  0.31186800153E+02  0.00000000000E+00 0. -1.
</event>
<event>
 7    1  0.1714203E-010  0.4778727E+02  0.7816164E-02  0.1312668E+00
        -11   -1    0    0    0    0  0.00000000000E+00  0.00000000000E+00  0.45593999997E+02  0.45594000000E+02  0.51100000000E-03 0.  1.
         11   -1    0    0    0    0 -0.00000000000E+00 -0.00000000000E+00 -0.45593999997E+02  0.45594000000E+02  0.51100000000E-03 0. -1.
    9900012    2    1    2    0    0  0.30519325039E+02 -0.72071495267E+01 -0.30004184565E+02  0.47787270784E+02  0.19999998810E+02 0.  0.
        -12    1    1    2    0    0 -0.30519325039E+02  0.72071495267E+01  0.30004184565E+02  0.43400729216E+02  0.00000000000E+00 0.  1.
         11    1    3    3    0    0  0.54045691173E+01 -0.44589380050E+01 -0.13577587648E+02  0.15278821357E+02  0.51100000000E-03 0. -1.
        -11    1    3    3    0    0  0.16665227555E+02  0.35189494118E+01 -0.71139322594E+01  0.18458625270E+02  0.51100000000E-03 0.  1.
         12    1    3    3    0    0  0.84495283669E+01 -0.62671609335E+01 -0.93126646574E+01  0.14049824156E+02  0.00000000000E+00 0. -1.
</event>
<event>
 7    1  0.1714203E-010  0.4778727E+02  0.7816164E-02  0.1312668E+00
        -11   -1    0    0    0    0  0.00000000000E+00  0.00000000000E+00  0.45593999997E+02  0.45594000000E+02  0.51100000000E-03 0.  1.
         11   -1    0    0    0    0 -0.00000000000E+00 -0.00000000000E+00 -0.45593999997E+02  0.45594000000E+02  0.51100000000E-03 0. -1.
    9900012    2    1    2    0    0  0.36583359720E+02 -0.18418121807E+02  0.14354585280E+02  0.47787268003E+02  0.19999986132E+02 0.  0.
        -12    1    1    2    0    0 -0.36583359720E+02  0.18418121807E+02 -0.14354585280E+02  0.43400731997E+02  0.00000000000E+00 0.  1.
         11    1    3    3    0    0  0.12899149904E+02 -0.56474156669E+01  0.53055455744E+01  0.15047597352E+02  0.51100000000E-03 0. -1.
        -11    1    3    3    0    0  0.58724403348E+01 -0.47908852461E+01 -0.46524810629E+01  0.88929026324E+01  0.51100000000E-03 0.  1.
        -12    1    3    3    0    0  0.17811769482E+02 -0.79798208937E+01  0.13701520769E+02  0.23846768019E+02  0.00000000000E+00 0.  1.
</event>
<event>
 7    1  0.1714203E-010  0.4778727E+02  0.7816164E-02  0.1312668E+00
        -11   -1    0    0    0    0  0.00000000000E+00  0.00000000000E+00  0.45593999997E+02  0.45594000000E+02  0.51100000000E-03 0. -1.
         11   -1    0    0    0    0 -0.00000000000E+00 -0.00000000000E+00 -0.45593999997E+02  0.45594000000E+02  0.51100000000E-03 0.  1.
    9900012    2    1    2    0    0  0.18155046295E+01 -0.40032148657E+02 -0.16665957690E+02  0.47787272715E+02  0.20000007615E+02 0.  0.
        -12    1    1    2    0    0 -0.18155046295E+01  0.40032148657E+02  0.16665957690E+02  0.43400727285E+02  0.00000000000E+00 0.  1.
         11    1    3    3    0    0  0.68129647486E+00 -0.80460831905E+01 -0.12228790583E+02  0.14654246449E+02  0.51100000000E-03 0. -1.
        -11    1    3    3    0    0 -0.10844927836E+01 -0.48903839526E+01  0.16491993201E+01  0.52736930571E+01  0.51100000000E-03 0.  1.
         12    1    3    3    0    0  0.22187009382E+01 -0.27095681514E+02 -0.60863664273E+01  0.27859333209E+02  0.00000000000E+00 0. -1.
</event>
<event>
 7    1  0.1714203E-010  0.4778727E+02  0.7816164E-02  0.1312668E+00
        -11   -1    0    0    0    0  0.00000000000E+00  0.00000000000E+00  0.45593999997E+02  0.45594000000E+02  0.51100000000E-03 0.  1.
         11   -1    0    0    0    0 -0.00000000000E+00 -0.00000000000E+00 -0.45593999997E+02  0.45594000000E+02  0.51100000000E-03 0. -1.
    9900012    2    1    2    0    0  0.13593841551E+02  0.13279553384E+02 -0.39019024381E+02  0.47787270400E+02  0.19999997061E+02 0.  0.
        -12    1    1    2    0    0 -0.13593841551E+02 -0.13279553384E+02  0.39019024381E+02  0.43400729600E+02  0.00000000000E+00 0.  1.
         11    1    3    3    0    0  0.89438115831E+01  0.24750526446E+01 -0.13240912915E+02  0.16169088605E+02  0.51100000000E-03 0. -1.
        -11    1    3    3    0    0  0.68373009585E+01 -0.44157559027E+00 -0.96903019723E+01  0.11867839988E+02  0.51100000000E-03 0.  1.
        -12    1    3    3    0    0 -0.21872709904E+01  0.11246076329E+02 -0.16087809494E+02  0.19750341807E+02  0.00000000000E+00 0.  1.
</event>
<event>
 7    1  0.1714203E-010  0.4778728E+02  0.7816164E-02  0.1312668E+00
        -11   -1    0    0    0    0  0.00000000000E+00  0.00000000000E+00  0.45593999997E+02  0.45594000000E+02  0.51100000000E-03 0. -1.
         11   -1    0    0    0    0 -0.00000000000E+00 -0.00000000000E+00 -0.45593999997E+02  0.45594000000E+02  0.51100000000E-03 0.  1.
    9900012    2    1    2    0    0 -0.69039789398E+01 -0.39644105654E+02  0.16257385629E+02  0.47787278511E+02  0.20000034041E+02 0.  0.
        -12    1    1    2    0    0  0.69039789398E+01  0.39644105654E+02 -0.16257385629E+02  0.43400721489E+02  0.00000000000E+00 0.  1.
         11    1    3    3    0    0 -0.86499258359E+01 -0.21657714739E+02  0.13928404351E+02  0.27163914901E+02  0.51100000000E-03 0. -1.
        -11    1    3    3    0    0  0.15796438179E+01  0.46748978055E+00  0.13721043749E+01  0.21439430877E+01  0.51100000000E-03 0.  1.
         12    1    3    3    0    0  0.16630307812E+00 -0.18453880695E+02  0.95687690263E+00  0.18479420522E+02  0.00000000000E+00 0. -1.
</event>
<event>
 7    1  0.1714203E-010  0.4778727E+02  0.7816164E-02  0.1312668E+00
        -11   -1    0    0    0    0  0.00000000000E+00  0.00000000000E+00  0.45593999997E+02  0.45594000000E+02  0.51100000000E-03 0.  1.
         11   -1    0    0    0    0 -0.00000000000E+00 -0.00000000000E+00 -0.45593999997E+02  0.45594000000E+02  0.51100000000E-03 0. -1.
    9900012    2    1    2    0    0  0.14084794968E+02 -0.15615518819E+02 -0.37965740323E+02  0.47787270564E+02  0.19999997811E+02 0.  0.
        -12    1    1    2    0    0 -0.14084794968E+02  0.15615518819E+02  0.37965740323E+02  0.43400729436E+02  0.00000000000E+00 0.  1.
         11    1    3    3    0    0  0.75441636533E+01 -0.88425692498E+01 -0.14200252736E+02  0.18350820532E+02  0.51100000000E-03 0. -1.
        -11    1    3    3    0    0  0.35014478997E+01  0.17551488457E+01 -0.18610622209E+02  0.19018305502E+02  0.51100000000E-03 0.  1.
        -12    1    3    3    0    0  0.30391834151E+01 -0.85280984148E+01 -0.51548653772E+01  0.10418144531E+02  0.00000000000E+00 0.  1.
</event>
<event>
 7    1  0.1714203E-010  0.4778727E+02  0.7816164E-02  0.1312668E+00
        -11   -1    0    0    0    0  0.00000000000E+00  0.00000000000E+00  0.45593999997E+02  0.45594000000E+02  0.51100000000E-03 0.  1.
         11   -1    0    0    0    0 -0.00000000000E+00 -0.00000000000E+00 -0.45593999997E+02  0.45594000000E+02  0.51100000000E-03 0. -1.
    9900012    2    1    2    0    0  0.26882508121E+01 -0.11342670288E+01 -0.43302541788E+02  0.47787269829E+02  0.19999994457E+02 0.  0.
        -12    1    1    2    0    0 -0.26882508121E+01  0.11342670288E+01  0.43302541788E+02  0.43400730171E+02  0.00000000000E+00 0.  1.
         11    1    3    3    0    0 -0.11666099220E+01  0.31980585409E+01 -0.33171555844E+02  0.33345774462E+02  0.51100000000E-03 0. -1.
        -11    1    3    3    0    0 -0.17786730424E+01 -0.20169627130E+01 -0.71927688542E+01  0.76790455415E+01  0.51100000000E-03 0.  1.
        -12    1    3    3    0    0  0.56335337764E+01 -0.23153628567E+01 -0.29382170900E+01  0.67624498250E+01  0.00000000000E+00 0.  1.
</event>
<event>
 7    1  0.1714203E-010  0.4778727E+02  0.7816164E-02  0.1312668E+00
        -11   -1    0    0    0    0  0.00000000000E+00  0.00000000000E+00  0.45593999997E+02  0.45594000000E+02  0.51100000000E-03 0.  1.
         11   -1    0    0    0    0 -0.00000000000E+00 -0.00000000000E+00 -0.45593999997E+02  0.45594000000E+02  0.51100000000E-03 0. -1.
    9900012    2    1    2    0    0  0.28455701237E+02 -0.21785402538E+02 -0.24480454363E+02  0.47787270254E+02  0.19999996396E+02 0.  0.
        -12    1    1    2    0    0 -0.28455701237E+02  0.21785402538E+02  0.24480454363E+02  0.43400729746E+02  0.00000000000E+00 0.  1.
         11    1    3    3    0    0  0.73955288887E+00 -0.35892373333E+01 -0.69081150697E+01  0.78199499479E+01  0.51100000000E-03 0. -1.
        -11    1    3    3    0    0 -0.82354841649E+00 -0.20895575017E+01  0.81623331845E+00  0.23897112040E+01  0.51100000000E-03 0.  1.
         12    1    3    3    0    0  0.28539696765E+02 -0.16106607703E+02 -0.18388572611E+02  0.37577609102E+02  0.00000000000E+00 0. -1.
</event>
<event>
 7    1  0.1714203E-010  0.4778727E+02  0.7816164E-02  0.1312668E+00
        -11   -1    0    0    0    0  0.00000000000E+00  0.00000000000E+00  0.45593999997E+02  0.45594000000E+02  0.51100000000E-03 0.  1.
         11   -1    0    0    0    0 -0.00000000000E+00 -0.00000000000E+00 -0.45593999997E+02  0.45594000000E+02  0.51100000000E-03 0. -1.
    9900012    2    1    2    0    0  0.44493463352E+01 -0.27291627685E+02 -0.33451358793E+02  0.47787273858E+02  0.20000012829E+02 0.  0.
        -12    1    1    2    0    0 -0.44493463352E+01  0.27291627685E+02  0.33451358793E+02  0.43400726142E+02  0.00000000000E+00 0.  1.
         11    1    3    3    0    0 -0.40569491402E+01 -0.14065039094E+02 -0.16507241653E+02  0.22062936983E+02  0.51100000000E-03 0. -1.
        -11    1    3    3    0    0  0.54251863939E+01 -0.13545856942E+02 -0.88697030962E+01  0.17076138936E+02  0.51100000000E-03 0.  1.
         12    1    3    3    0    0  0.30811090815E+01  0.31926835011E+00 -0.80744140436E+01  0.86481979394E+01  0.00000000000E+00 0. -1.
</event>
<event>
 7    1  0.1714203E-010  0.4778727E+02  0.7816164E-02  0.1312668E+00
        -11   -1    0    0    0    0  0.00000000000E+00  0.00000000000E+00  0.45593999997E+02  0.45594000000E+02  0.51100000000E-03 0. -1.
         11   -1    0    0    0    0 -0.00000000000E+00 -0.00000000000E+00 -0.45593999997E+02  0.45594000000E+02  0.51100000000E-03 0.  1.
    9900012    2    1    2    0    0 -0.10114191895E+02 -0.17498265610E+02  0.38407515002E+02  0.47787269756E+02  0.19999994127E+02 0.  0.
        -12    1    1    2    0    0  0.10114191895E+02  0.17498265610E+02 -0.38407515002E+02  0.43400730244E+02  0.00000000000E+00 0.  1.
         11    1    3    3    0    0 -0.30114799291E+01 -0.10124855183E+02  0.31199800851E+02  0.32939479007E+02  0.51100000000E-03 0. -1.
        -11    1    3    3    0    0 -0.77884931050E+01 -0.37855683399E+01  0.70919483857E+01  0.11193162407E+02  0.51100000000E-03 0.  1.
        -12    1    3    3    0    0  0.68578113936E+00 -0.35878420869E+01  0.11576576593E+00  0.36546283428E+01  0.00000000000E+00 0.  1.
</event>
<event>
 7    1  0.1714203E-010  0.4778727E+02  0.7816164E-02  0.1312668E+00
        -11   -1    0    0    0    0  0.00000000000E+00  0.00000000000E+00  0.45593999997E+02  0.45594000000E+02  0.51100000000E-03 0. -1.
         11   -1    0    0    0    0 -0.00000000000E+00 -0.00000000000E+00 -0.45593999997E+02  0.45594000000E+02  0.51100000000E-03 0.  1.
    9900012    2    1    2    0    0  0.36513905393E+02  0.14018806378E+02  0.18810399909E+02  0.47787270005E+02  0.19999995263E+02 0.  0.
        -12    1    1    2    0    0 -0.36513905393E+02 -0.14018806378E+02 -0.18810399909E+02  0.43400729995E+02  0.00000000000E+00 0.  1.
         11    1    3    3    0    0  0.39818192925E+01  0.39962426639E+01 -0.88339573291E+00  0.57100988248E+01  0.51100000000E-03 0.  1.
        -11    1    3    3    0    0  0.30309761639E+02  0.12086171526E+02  0.20968963112E+02  0.38787299559E+02  0.51100000000E-03 0. -1.
         12    1    3    3    0    0  0.22223244613E+01 -0.20636078120E+01 -0.12751674701E+01  0.32898716221E+01  0.00000000000E+00 0. -1.
</event>
<event>
 7    1  0.1714203E-010  0.4778727E+02  0.7816164E-02  0.1312668E+00
        -11   -1    0    0    0    0  0.00000000000E+00  0.00000000000E+00  0.45593999997E+02  0.45594000000E+02  0.51100000000E-03 0.  1.
         11   -1    0    0    0    0 -0.00000000000E+00 -0.00000000000E+00 -0.45593999997E+02  0.45594000000E+02  0.51100000000E-03 0. -1.
    9900012    2    1    2    0    0  0.16100723924E+02 -0.27018083090E+02 -0.29906743706E+02  0.47787269086E+02  0.19999991072E+02 0.  0.
        -12    1    1    2    0    0 -0.16100723924E+02  0.27018083090E+02  0.29906743706E+02  0.43400730914E+02  0.00000000000E+00 0.  1.
         11    1    3    3    0    0  0.18860822049E+02 -0.27111655326E+02 -0.23741666417E+02  0.40674797939E+02  0.51100000000E-03 0. -1.
        -11    1    3    3    0    0 -0.35729939576E+00  0.91359248549E+00 -0.21311380117E+01  0.23460740768E+01  0.51100000000E-03 0.  1.
         12    1    3    3    0    0 -0.24027987288E+01 -0.82002024957E+00 -0.40339392770E+01  0.47663970702E+01  0.00000000000E+00 0. -1.
</event>
<event>
 7    1  0.1714203E-010  0.4778727E+02  0.7816164E-02  0.1312668E+00
        -11   -1    0    0    0    0  0.00000000000E+00  0.00000000000E+00  0.45593999997E+02  0.45594000000E+02  0.51100000000E-03 0. -1.
         11   -1    0    0    0    0 -0.00000000000E+00 -0.00000000000E+00 -0.45593999997E+02  0.45594000000E+02  0.51100000000E-03 0.  1.
    9900012    2    1    2    0    0 -0.25178127364E+02  0.34809878210E+02  0.61609681522E+01  0.47787271353E+02  0.20000001406E+02 0.  0.
        -12    1    1    2    0    0  0.25178127364E+02 -0.34809878210E+02 -0.61609681522E+01  0.43400728647E+02  0.00000000000E+00 0.  1.
         11    1    3    3    0    0 -0.21005712950E+02  0.19917095416E+02 -0.14695424150E+01  0.28984309919E+02  0.51100000000E-03 0. -1.
        -11    1    3    3    0    0 -0.40861491574E+01  0.55070497737E+01  0.63203640094E+01  0.93258358135E+01  0.51100000000E-03 0.  1.
        -12    1    3    3    0    0 -0.86265257020E-01  0.93857330198E+01  0.13101465578E+01  0.94771256200E+01  0.00000000000E+00 0.  1.
</event>
<event>
 7    1  0.1714203E-010  0.4778727E+02  0.7816164E-02  0.1312668E+00
        -11   -1    0    0    0    0  0.00000000000E+00  0.00000000000E+00  0.45593999997E+02  0.45594000000E+02  0.51100000000E-03 0.  1.
         11   -1    0    0    0    0 -0.00000000000E+00 -0.00000000000E+00 -0.45593999997E+02  0.45594000000E+02  0.51100000000E-03 0. -1.
    9900012    2    1    2    0    0  0.12336909482E+02 -0.30918556615E+02 -0.27847200746E+02  0.47787273415E+02  0.20000010809E+02 0.  0.
        -12    1    1    2    0    0 -0.12336909482E+02  0.30918556615E+02  0.27847200746E+02  0.43400726585E+02  0.00000000000E+00 0.  1.
         11    1    3    3    0    0  0.44652246903E+01 -0.11127769999E+02 -0.65982476543E+01  0.13685845573E+02  0.51100000000E-03 0. -1.
        -11    1    3    3    0    0 -0.24326259087E+01 -0.22578498539E+01 -0.10676952609E+02  0.11180915528E+02  0.51100000000E-03 0.  1.
        -12    1    3    3    0    0  0.10304310700E+02 -0.17532936762E+02 -0.10572000483E+02  0.22920512313E+02  0.00000000000E+00 0.  1.
</event>
<event>
 7    1  0.1714203E-010  0.4778727E+02  0.7816164E-02  0.1312668E+00
        -11   -1    0    0    0    0  0.00000000000E+00  0.00000000000E+00  0.45593999997E+02  0.45594000000E+02  0.51100000000E-03 0.  1.
         11   -1    0    0    0    0 -0.00000000000E+00 -0.00000000000E+00 -0.45593999997E+02  0.45594000000E+02  0.51100000000E-03 0. -1.
    9900012    2    1    2    0    0 -0.64593699561E+01  0.48628139911E+01 -0.42640978156E+02  0.47787269151E+02  0.19999991368E+02 0.  0.
        -12    1    1    2    0    0  0.64593699561E+01 -0.48628139911E+01  0.42640978156E+02  0.43400730849E+02  0.00000000000E+00 0.  1.
         11    1    3    3    0    0  0.64477696482E+00  0.49147545634E+01 -0.23142522486E+02  0.23667422696E+02  0.51100000000E-03 0. -1.
        -11    1    3    3    0    0 -0.23429438659E+01 -0.48462513228E+01 -0.15166989636E+02  0.16093884326E+02  0.51100000000E-03 0.  1.
         12    1    3    3    0    0 -0.47612030551E+01  0.47943107505E+01 -0.43314660335E+01  0.80259621294E+01  0.00000000000E+00 0. -1.
</event>
<event>
 7    1  0.1714203E-010  0.4778727E+02  0.7816164E-02  0.1312668E+00
        -11   -1    0    0    0    0  0.00000000000E+00  0.00000000000E+00  0.45593999997E+02  0.45594000000E+02  0.51100000000E-03 0. -1.
         11   -1    0    0    0    0 -0.00000000000E+00 -0.00000000000E+00 -0.45593999997E+02  0.45594000000E+02  0.51100000000E-03 0.  1.
    9900012    2    1    2    0    0 -0.50005133289E+01 -0.42530194293E+02 -0.70569479868E+01  0.47787273335E+02  0.20000010444E+02 0.  0.
        -12    1    1    2    0    0  0.50005133289E+01  0.42530194293E+02  0.70569479868E+01  0.43400726665E+02  0.00000000000E+00 0.  1.
         11    1    3    3    0    0 -0.25722640217E+01 -0.34524752565E+02  0.32604101635E+00  0.34621978350E+02  0.51100000000E-03 0. -1.
        -11    1    3    3    0    0 -0.18194830314E+01  0.56223585981E+00 -0.10511565017E+00  0.19072695732E+01  0.51100000000E-03 0.  1.
         12    1    3    3    0    0 -0.60876627577E+00 -0.85676775878E+01 -0.72778733530E+01  0.11258025412E+02  0.00000000000E+00 0. -1.
</event>
<event>
 7    1  0.1714203E-010  0.4778727E+02  0.7816164E-02  0.1312668E+00
        -11   -1    0    0    0    0  0.00000000000E+00  0.00000000000E+00  0.45593999997E+02  0.45594000000E+02  0.51100000000E-03 0.  1.
         11   -1    0    0    0    0 -0.00000000000E+00 -0.00000000000E+00 -0.45593999997E+02  0.45594000000E+02  0.51100000000E-03 0. -1.
    9900012    2    1    2    0    0 -0.31791514517E+02 -0.18535142188E+02 -0.23008075457E+02  0.47787269275E+02  0.19999991933E+02 0.  0.
        -12    1    1    2    0    0  0.31791514517E+02  0.18535142188E+02  0.23008075457E+02  0.43400730725E+02  0.00000000000E+00 0.  1.
         11    1    3    3    0    0 -0.23147040666E+01 -0.74064211084E+01 -0.31933717600E+01  0.83910995709E+01  0.51100000000E-03 0. -1.
        -11    1    3    3    0    0 -0.12723848475E+02 -0.12243357557E+01 -0.18598550373E+01  0.12917212512E+02  0.51100000000E-03 0.  1.
         12    1    3    3    0    0 -0.16752961975E+02 -0.99043853240E+01 -0.17954848660E+02  0.26478957192E+02  0.00000000000E+00 0. -1.
</event>
<event>
 7    1  0.1714203E-010  0.4778727E+02  0.7816164E-02  0.1312668E+00
        -11   -1    0    0    0    0  0.00000000000E+00  0.00000000000E+00  0.45593999997E+02  0.45594000000E+02  0.51100000000E-03 0. -1.
         11   -1    0    0    0    0 -0.00000000000E+00 -0.00000000000E+00 -0.45593999997E+02  0.45594000000E+02  0.51100000000E-03 0.  1.
    9900012    2    1    2    0    0  0.13135822118E+02 -0.96160712317E+01  0.40231890839E+02  0.47787266260E+02  0.19999978187E+02 0.  0.
        -12    1    1    2    0    0 -0.13135822118E+02  0.96160712317E+01 -0.40231890839E+02  0.43400733740E+02  0.00000000000E+00 0.  1.
         11    1    3    3    0    0  0.64252585099E+01 -0.54699155826E+01  0.25845079890E+01  0.88251688486E+01  0.51100000000E-03 0. -1.
        -11    1    3    3    0    0 -0.62206667799E+00  0.49538364608E+00  0.88464388431E+01  0.88821085545E+01  0.51100000000E-03 0.  1.
         12    1    3    3    0    0  0.73326302857E+01 -0.46415392952E+01  0.28800944007E+02  0.30079988857E+02  0.00000000000E+00 0. -1.
</event>
<event>
 7    1  0.1714203E-010  0.4778727E+02  0.7816164E-02  0.1312668E+00
        -11   -1    0    0    0    0  0.00000000000E+00  0.00000000000E+00  0.45593999997E+02  0.45594000000E+02  0.51100000000E-03 0. -1.
         11   -1    0    0    0    0 -0.00000000000E+00 -0.00000000000E+00 -0.45593999997E+02  0.45594000000E+02  0.51100000000E-03 0.  1.
    9900012    2    1    2    0    0  0.37609626111E+02  0.16724750904E+02  0.13763055548E+02  0.47787274580E+02  0.20000016119E+02 0.  0.
        -12    1    1    2    0    0 -0.37609626111E+02 -0.16724750904E+02 -0.13763055548E+02  0.43400725420E+02  0.00000000000E+00 0.  1.
         11    1    3    3    0    0  0.21713150679E+02  0.17958171417E+02  0.63990446437E+01  0.28894715878E+02  0.51100000000E-03 0. -1.
        -11    1    3    3    0    0  0.38501388083E+00  0.66436897518E+00 -0.92578985212E+00  0.12027921412E+01  0.51100000000E-03 0.  1.
         12    1    3    3    0    0  0.15511461551E+02 -0.18977894887E+01  0.82898007561E+01  0.17689766561E+02  0.00000000000E+00 0. -1.
</event>
<event>
 7    1  0.1714203E-010  0.4778728E+02  0.7816164E-02  0.1312668E+00
        -11   -1    0    0    0    0  0.00000000000E+00  0.00000000000E+00  0.45593999997E+02  0.45594000000E+02  0.51100000000E-03 0.  1.
         11   -1    0    0    0    0 -0.00000000000E+00 -0.00000000000E+00 -0.45593999997E+02  0.45594000000E+02  0.51100000000E-03 0. -1.
    9900012    2    1    2    0    0  0.37961718144E+02  0.20949645815E+02 -0.19084969124E+01  0.47787284975E+02  0.20000063516E+02 0.  0.
        -12    1    1    2    0    0 -0.37961718144E+02 -0.20949645815E+02  0.19084969124E+01  0.43400715025E+02  0.00000000000E+00 0.  1.
         11    1    3    3    0    0  0.69671982709E+01  0.77546644012E+01  0.28778199498E+00  0.10428781830E+02  0.51100000000E-03 0. -1.
        -11    1    3    3    0    0 -0.16302785174E+01  0.22984960371E+01  0.47844110143E+00  0.28582858894E+01  0.51100000000E-03 0.  1.
        -12    1    3    3    0    0  0.32624798390E+02  0.10896485377E+02 -0.26747200088E+01  0.34500217256E+02  0.00000000000E+00 0.  1.
</event>
<event>
 7    1  0.1714203E-010  0.4778726E+02  0.7816164E-02  0.1312668E+00
        -11   -1    0    0    0    0  0.00000000000E+00  0.00000000000E+00  0.45593999997E+02  0.45594000000E+02  0.51100000000E-03 0. -1.
         11   -1    0    0    0    0 -0.00000000000E+00 -0.00000000000E+00 -0.45593999997E+02  0.45594000000E+02  0.51100000000E-03 0.  1.
    9900012    2    1    2    0    0 -0.16279844635E+02  0.40187271556E+02  0.18904305413E+01  0.47787264244E+02  0.19999968996E+02 0.  0.
        -12    1    1    2    0    0  0.16279844635E+02 -0.40187271556E+02 -0.18904305413E+01  0.43400735756E+02  0.00000000000E+00 0.  1.
         11    1    3    3    0    0 -0.78970242111E+01  0.14150258992E+02  0.26849119845E+01  0.16425637691E+02  0.51100000000E-03 0. -1.
        -11    1    3    3    0    0 -0.68501029053E+00  0.20678485930E+02 -0.46748392879E+01  0.21211391800E+02  0.51100000000E-03 0.  1.
        -12    1    3    3    0    0 -0.76978101337E+01  0.53585266339E+01  0.38803578447E+01  0.10150234753E+02  0.00000000000E+00 0.  1.
</event>
<event>
 7    1  0.1714203E-010  0.4778727E+02  0.7816164E-02  0.1312668E+00
        -11   -1    0    0    0    0  0.00000000000E+00  0.00000000000E+00  0.45593999997E+02  0.45594000000E+02  0.51100000000E-03 0. -1.
         11   -1    0    0    0    0 -0.00000000000E+00 -0.00000000000E+00 -0.45593999997E+02  0.45594000000E+02  0.51100000000E-03 0.  1.
    9900012    2    1    2    0    0 -0.31067789266E+02  0.43129602377E+01  0.29996901502E+02  0.47787271255E+02  0.20000000960E+02 0.  0.
        -12    1    1    2    0    0  0.31067789266E+02 -0.43129602377E+01 -0.29996901502E+02  0.43400728745E+02  0.00000000000E+00 0.  1.
         11    1    3    3    0    0 -0.21498346423E+02  0.10023479134E+02  0.15307107509E+02  0.28230419293E+02  0.51100000000E-03 0.  1.
        -11    1    3    3    0    0 -0.88996554982E+01 -0.20844693674E+01  0.11428259904E+02  0.14634001682E+02  0.51100000000E-03 0. -1.
        -12    1    3    3    0    0 -0.66978734469E+00 -0.36260495291E+01  0.32615340889E+01  0.49228502809E+01  0.00000000000E+00 0.  1.
</event>
<event>
 7    1  0.1714203E-010  0.4778727E+02  0.7816164E-02  0.1312668E+00
        -11   -1    0    0    0    0  0.00000000000E+00  0.00000000000E+00  0.45593999997E+02  0.45594000000E+02  0.51100000000E-03 0.  1.
         11   -1    0    0    0    0 -0.00000000000E+00 -0.00000000000E+00 -0.45593999997E+02  0.45594000000E+02  0.51100000000E-03 0. -1.
    9900012    2    1    2    0    0 -0.98552650502E+01  0.14717182128E+02 -0.39621983079E+02  0.47787271411E+02  0.20000001670E+02 0.  0.
        -12    1    1    2    0    0  0.98552650502E+01 -0.14717182128E+02  0.39621983079E+02  0.43400728589E+02  0.00000000000E+00 0.  1.
         11    1    3    3    0    0 -0.82771043064E+01  0.81172027149E+01 -0.19842941844E+02  0.22981335403E+02  0.51100000000E-03 0. -1.
        -11    1    3    3    0    0  0.20188976988E+01  0.34572308683E+00  0.13672563917E+01  0.24626941898E+01  0.51100000000E-03 0.  1.
        -12    1    3    3    0    0 -0.35970584427E+01  0.62542563261E+01 -0.21146297627E+02  0.22343241818E+02  0.00000000000E+00 0.  1.
</event>
<event>
 7    1  0.1714203E-010  0.4778727E+02  0.7816164E-02  0.1312668E+00
        -11   -1    0    0    0    0  0.00000000000E+00  0.00000000000E+00  0.45593999997E+02  0.45594000000E+02  0.51100000000E-03 0.  1.
         11   -1    0    0    0    0 -0.00000000000E+00 -0.00000000000E+00 -0.45593999997E+02  0.45594000000E+02  0.51100000000E-03 0. -1.
    9900012    2    1    2    0    0  0.22513711184E+01  0.19526113762E+02 -0.38694771882E+02  0.47787272338E+02  0.20000005897E+02 0.  0.
        -12    1    1    2    0    0 -0.22513711184E+01 -0.19526113762E+02  0.38694771882E+02  0.43400727662E+02  0.00000000000E+00 0.  1.
         11    1    3    3    0    0 -0.16045408455E+01  0.91791737774E+01 -0.12491073144E+02  0.15583924124E+02  0.51100000000E-03 0. -1.
        -11    1    3    3    0    0 -0.15316860208E+01  0.12734743164E+02 -0.17950771600E+02  0.22062410268E+02  0.51100000000E-03 0.  1.
        -12    1    3    3    0    0  0.53875979846E+01 -0.23878031792E+01 -0.82529271385E+01  0.10140937946E+02  0.00000000000E+00 0.  1.
</event>
<event>
 7    1  0.1714203E-010  0.4778722E+02  0.7816164E-02  0.1312668E+00
        -11   -1    0    0    0    0  0.00000000000E+00  0.00000000000E+00  0.45593999997E+02  0.45594000000E+02  0.51100000000E-03 0.  1.
         11   -1    0    0    0    0 -0.00000000000E+00 -0.00000000000E+00 -0.45593999997E+02  0.45594000000E+02  0.51100000000E-03 0. -1.
    9900012    2    1    2    0    0 -0.88175327409E+01  0.22329936736E+02 -0.36155950176E+02  0.47787220152E+02  0.19999767960E+02 0.  0.
        -12    1    1    2    0    0  0.88175327409E+01 -0.22329936736E+02  0.36155950176E+02  0.43400779848E+02  0.00000000000E+00 0.  1.
         11    1    3    3    0    0 -0.52738221623E+01  0.50463504773E+01 -0.19587516847E+02  0.20903341116E+02  0.51100000000E-03 0. -1.
        -11    1    3    3    0    0  0.33653936124E+01  0.13269628531E+01 -0.16631999425E+01  0.39815749258E+01  0.51100000000E-03 0.  1.
         12    1    3    3    0    0 -0.69091041909E+01  0.15956623406E+02 -0.14905233387E+02  0.22902304110E+02  0.00000000000E+00 0. -1.
</event>
<event>
 7    1  0.1714203E-010  0.4778727E+02  0.7816164E-02  0.1312668E+00
        -11   -1    0    0    0    0  0.00000000000E+00  0.00000000000E+00  0.45593999997E+02  0.45594000000E+02  0.51100000000E-03 0. -1.
         11   -1    0    0    0    0 -0.00000000000E+00 -0.00000000000E+00 -0.45593999997E+02  0.45594000000E+02  0.51100000000E-03 0.  1.
    9900012    2    1    2    0    0  0.26920355898E+02  0.23118001835E+02  0.24989512785E+02  0.47787270516E+02  0.19999997590E+02 0.  0.
        -12    1    1    2    0    0 -0.26920355898E+02 -0.23118001835E+02 -0.24989512785E+02  0.43400729484E+02  0.00000000000E+00 0.  1.
         11    1    3    3    0    0  0.39686990334E+00 -0.12029603937E+00 -0.20940511658E+01  0.21347195140E+01  0.51100000000E-03 0. -1.
        -11    1    3    3    0    0  0.13519023714E+01  0.59249119029E+00 -0.89780123257E+00  0.17276380254E+01  0.51100000000E-03 0.  1.
         12    1    3    3    0    0  0.25171583623E+02  0.22645806684E+02  0.27981365183E+02  0.43924912977E+02  0.00000000000E+00 0. -1.
</event>
<event>
 7    1  0.1714203E-010  0.4778727E+02  0.7816164E-02  0.1312668E+00
        -11   -1    0    0    0    0  0.00000000000E+00  0.00000000000E+00  0.45593999997E+02  0.45594000000E+02  0.51100000000E-03 0.  1.
         11   -1    0    0    0    0 -0.00000000000E+00 -0.00000000000E+00 -0.45593999997E+02  0.45594000000E+02  0.51100000000E-03 0. -1.
    9900012    2    1    2    0    0 -0.14494460927E+02  0.38136293079E+02 -0.14803944170E+02  0.47787274080E+02  0.20000013842E+02 0.  0.
        -12    1    1    2    0    0  0.14494460927E+02 -0.38136293079E+02  0.14803944170E+02  0.43400725920E+02  0.00000000000E+00 0.  1.
         11    1    3    3    0    0 -0.12206497842E+01 -0.11675264629E+01 -0.71580683229E+00  0.18345254480E+01  0.51100000000E-03 0.  1.
        -11    1    3    3    0    0 -0.69331519243E+01  0.24351540849E+02 -0.15439598760E+02  0.29655477529E+02  0.51100000000E-03 0. -1.
         12    1    3    3    0    0 -0.63406592189E+01  0.14952278693E+02  0.13514614229E+01  0.16297271103E+02  0.00000000000E+00 0. -1.
</event>
<event>
 7    1  0.1714203E-010  0.4778728E+02  0.7816164E-02  0.1312668E+00
        -11   -1    0    0    0    0  0.00000000000E+00  0.00000000000E+00  0.45593999997E+02  0.45594000000E+02  0.51100000000E-03 0.  1.
         11   -1    0    0    0    0 -0.00000000000E+00 -0.00000000000E+00 -0.45593999997E+02  0.45594000000E+02  0.51100000000E-03 0. -1.
    9900012    2    1    2    0    0  0.10029012412E+01  0.26427786061E+02 -0.34412044071E+02  0.47787280373E+02  0.20000042535E+02 0.  0.
        -12    1    1    2    0    0 -0.10029012412E+01 -0.26427786061E+02  0.34412044071E+02  0.43400719627E+02  0.00000000000E+00 0.  1.
         11    1    3    3    0    0 -0.10298843829E+00 -0.30556392654E+00 -0.64148814996E+01  0.64229806824E+01  0.51100000000E-03 0. -1.
        -11    1    3    3    0    0  0.52646076657E+00 -0.72937202594E+00  0.10521878807E+01  0.13842846847E+01  0.51100000000E-03 0.  1.
         12    1    3    3    0    0  0.57942891296E+00  0.27462722013E+02 -0.29049350452E+02  0.39980015006E+02  0.00000000000E+00 0. -1.
</event>
<event>
 7    1  0.1714203E-010  0.4778727E+02  0.7816164E-02  0.1312668E+00
        -11   -1    0    0    0    0  0.00000000000E+00  0.00000000000E+00  0.45593999997E+02  0.45594000000E+02  0.51100000000E-03 0.  1.
         11   -1    0    0    0    0 -0.00000000000E+00 -0.00000000000E+00 -0.45593999997E+02  0.45594000000E+02  0.51100000000E-03 0. -1.
    9900012    2    1    2    0    0  0.88418707226E+01 -0.20785525124E+02 -0.37059497677E+02  0.47787273041E+02  0.20000009102E+02 0.  0.
        -12    1    1    2    0    0 -0.88418707226E+01  0.20785525124E+02  0.37059497677E+02  0.43400726959E+02  0.00000000000E+00 0.  1.
         11    1    3    3    0    0 -0.20332126213E+01 -0.41258651663E+01 -0.97396121500E+01  0.10771107744E+02  0.51100000000E-03 0. -1.
        -11    1    3    3    0    0 -0.30815224213E+01 -0.57547669422E+00 -0.13018898537E+01  0.33943882087E+01  0.51100000000E-03 0.  1.
         12    1    3    3    0    0  0.13956605765E+02 -0.16084183263E+02 -0.26017995673E+02  0.33621777088E+02  0.00000000000E+00 0. -1.
</event>
<event>
 7    1  0.1714203E-010  0.4778727E+02  0.7816164E-02  0.1312668E+00
        -11   -1    0    0    0    0  0.00000000000E+00  0.00000000000E+00  0.45593999997E+02  0.45594000000E+02  0.51100000000E-03 0.  1.
         11   -1    0    0    0    0 -0.00000000000E+00 -0.00000000000E+00 -0.45593999997E+02  0.45594000000E+02  0.51100000000E-03 0. -1.
    9900012    2    1    2    0    0 -0.19488309052E+02 -0.28884064767E+02 -0.25875468776E+02  0.47787271071E+02  0.20000000121E+02 0.  0.
        -12    1    1    2    0    0  0.19488309052E+02  0.28884064767E+02  0.25875468776E+02  0.43400728929E+02  0.00000000000E+00 0.  1.
         11    1    3    3    0    0 -0.92335658036E+01 -0.15251595306E+02 -0.81753950470E+01  0.19613948640E+02  0.51100000000E-03 0. -1.
        -11    1    3    3    0    0 -0.80962755791E+01 -0.13304085501E+02 -0.19768168301E+02  0.25166025660E+02  0.51100000000E-03 0.  1.
        -12    1    3    3    0    0 -0.21584676698E+01 -0.32838395982E+00  0.20680945723E+01  0.30072967706E+01  0.00000000000E+00 0.  1.
</event>
<event>
 7    1  0.1714203E-010  0.4778727E+02  0.7816164E-02  0.1312668E+00
        -11   -1    0    0    0    0  0.00000000000E+00  0.00000000000E+00  0.45593999997E+02  0.45594000000E+02  0.51100000000E-03 0.  1.
         11   -1    0    0    0    0 -0.00000000000E+00 -0.00000000000E+00 -0.45593999997E+02  0.45594000000E+02  0.51100000000E-03 0. -1.
    9900012    2    1    2    0    0 -0.17430440223E+02 -0.21316549116E+02 -0.33547098523E+02  0.47787270376E+02  0.19999996953E+02 0.  0.
        -12    1    1    2    0    0  0.17430440223E+02  0.21316549116E+02  0.33547098523E+02  0.43400729624E+02  0.00000000000E+00 0.  1.
         11    1    3    3    0    0 -0.41014210407E+00 -0.92433369797E+01 -0.21361091778E+02  0.23278825943E+02  0.51100000000E-03 0. -1.
        -11    1    3    3    0    0 -0.71055546038E+01 -0.47840333212E+01 -0.27345583782E+01  0.89918680390E+01  0.51100000000E-03 0.  1.
         12    1    3    3    0    0 -0.99147435149E+01 -0.72891788149E+01 -0.94514483666E+01  0.15516576394E+02  0.00000000000E+00 0. -1.
</event>
<event>
 7    1  0.1714203E-010  0.4778727E+02  0.7816164E-02  0.1312668E+00
        -11   -1    0    0    0    0  0.00000000000E+00  0.00000000000E+00  0.45593999997E+02  0.45594000000E+02  0.51100000000E-03 0.  1.
         11   -1    0    0    0    0 -0.00000000000E+00 -0.00000000000E+00 -0.45593999997E+02  0.45594000000E+02  0.51100000000E-03 0. -1.
    9900012    2    1    2    0    0 -0.41124393031E+02  0.13058734704E+02 -0.46772988449E+01  0.47787269837E+02  0.19999994493E+02 0.  0.
        -12    1    1    2    0    0  0.41124393031E+02 -0.13058734704E+02  0.46772988449E+01  0.43400730163E+02  0.00000000000E+00 0.  1.
         11    1    3    3    0    0 -0.63792620424E+01 -0.64137250807E+00  0.44351328481E+01  0.77959442367E+01  0.51100000000E-03 0. -1.
        -11    1    3    3    0    0 -0.37032563439E+00  0.25742353009E+01  0.39576601235E+00  0.26306766159E+01  0.51100000000E-03 0.  1.
         12    1    3    3    0    0 -0.34374805354E+02  0.11125871911E+02 -0.95081977053E+01  0.37360648984E+02  0.00000000000E+00 0. -1.
</event>
<event>
 7    1  0.1714203E-010  0.4778727E+02  0.7816164E-02  0.1312668E+00
        -11   -1    0    0    0    0  0.00000000000E+00  0.00000000000E+00  0.45593999997E+02  0.45594000000E+02  0.51100000000E-03 0.  1.
         11   -1    0    0    0    0 -0.00000000000E+00 -0.00000000000E+00 -0.45593999997E+02  0.45594000000E+02  0.51100000000E-03 0. -1.
    9900012    2    1    2    0    0 -0.11773181212E+02  0.18710949062E+02 -0.37348575316E+02  0.47787268568E+02  0.19999988710E+02 0.  0.
        -12    1    1    2    0    0  0.11773181212E+02 -0.18710949062E+02  0.37348575316E+02  0.43400731432E+02  0.00000000000E+00 0.  1.
         11    1    3    3    0    0 -0.77266117499E+00  0.50266130335E+01 -0.13757937261E+01  0.52684582677E+01  0.51100000000E-03 0. -1.
        -11    1    3    3    0    0  0.34677684203E+01  0.19332536122E+01 -0.75341106846E+01  0.85162028754E+01  0.51100000000E-03 0.  1.
         12    1    3    3    0    0 -0.14468288457E+02  0.11751082417E+02 -0.28438670906E+02  0.34002607425E+02  0.00000000000E+00 0. -1.
</event>
<event>
 7    1  0.1714203E-010  0.4778727E+02  0.7816164E-02  0.1312668E+00
        -11   -1    0    0    0    0  0.00000000000E+00  0.00000000000E+00  0.45593999997E+02  0.45594000000E+02  0.51100000000E-03 0.  1.
         11   -1    0    0    0    0 -0.00000000000E+00 -0.00000000000E+00 -0.45593999997E+02  0.45594000000E+02  0.51100000000E-03 0. -1.
    9900012    2    1    2    0    0 -0.29684280803E+02  0.12584088495E+02 -0.29053532926E+02  0.47787267454E+02  0.19999983630E+02 0.  0.
        -12    1    1    2    0    0  0.29684280803E+02 -0.12584088495E+02  0.29053532926E+02  0.43400732546E+02  0.00000000000E+00 0.  1.
         11    1    3    3    0    0 -0.13913057778E+02  0.76927383324E+01 -0.12112632682E+02  0.19986677326E+02  0.51100000000E-03 0. -1.
        -11    1    3    3    0    0  0.27095541021E+01  0.47075728160E+00 -0.38267404770E+01  0.47124557069E+01  0.51100000000E-03 0.  1.
         12    1    3    3    0    0 -0.18480777127E+02  0.44205928806E+01 -0.13114159767E+02  0.23088134421E+02  0.00000000000E+00 0. -1.
</event>
<event>
 7    1  0.1714203E-010  0.4778727E+02  0.7816164E-02  0.1312668E+00
        -11   -1    0    0    0    0  0.00000000000E+00  0.00000000000E+00  0.45593999997E+02  0.45594000000E+02  0.51100000000E-03 0.  1.
         11   -1    0    0    0    0 -0.00000000000E+00 -0.00000000000E+00 -0.45593999997E+02  0.45594000000E+02  0.51100000000E-03 0. -1.
    9900012    2    1    2    0    0  0.29626288408E+02 -0.12922418864E+02 -0.28964069948E+02  0.47787271641E+02  0.20000002720E+02 0.  0.
        -12    1    1    2    0    0 -0.29626288408E+02  0.12922418864E+02  0.28964069948E+02  0.43400728359E+02  0.00000000000E+00 0.  1.
         11    1    3    3    0    0  0.11913905810E+02 -0.15676570539E+01 -0.45862918487E+01  0.12862067231E+02  0.51100000000E-03 0. -1.
        -11    1    3    3    0    0 -0.22549204009E+01 -0.13733024600E+01 -0.19570763830E+01  0.32864530867E+01  0.51100000000E-03 0.  1.
        -12    1    3    3    0    0  0.19967302999E+02 -0.99814593499E+01 -0.22420701717E+02  0.31638751323E+02  0.00000000000E+00 0.  1.
</event>
<event>
 7    1  0.1714203E-010  0.4778726E+02  0.7816164E-02  0.1312668E+00
        -11   -1    0    0    0    0  0.00000000000E+00  0.00000000000E+00  0.45593999997E+02  0.45594000000E+02  0.51100000000E-03 0.  1.
         11   -1    0    0    0    0 -0.00000000000E+00 -0.00000000000E+00 -0.45593999997E+02  0.45594000000E+02  0.51100000000E-03 0. -1.
    9900012    2    1    2    0    0  0.25814845229E+02 -0.16921982171E+02 -0.30510073382E+02  0.47787259308E+02  0.19999946490E+02 0.  0.
        -12    1    1    2    0    0 -0.25814845229E+02  0.16921982171E+02  0.30510073382E+02  0.43400740692E+02  0.00000000000E+00 0.  1.
         11    1    3    3    0    0  0.24290875113E+02 -0.12535856672E+02 -0.14560684442E+02  0.30971080833E+02  0.51100000000E-03 0. -1.
        -11    1    3    3    0    0  0.19328740034E+01 -0.26109973666E+01 -0.75112354840E+01  0.81836402608E+01  0.51100000000E-03 0.  1.
        -12    1    3    3    0    0 -0.40890388744E+00 -0.17751281325E+01 -0.84381534561E+01  0.86325382145E+01  0.00000000000E+00 0.  1.
</event>
<event>
 7    1  0.1714203E-010  0.4778727E+02  0.7816164E-02  0.1312668E+00
        -11   -1    0    0    0    0  0.00000000000E+00  0.00000000000E+00  0.45593999997E+02  0.45594000000E+02  0.51100000000E-03 0. -1.
         11   -1    0    0    0    0 -0.00000000000E+00 -0.00000000000E+00 -0.45593999997E+02  0.45594000000E+02  0.51100000000E-03 0.  1.
    9900012    2    1    2    0    0  0.17006833845E+02 -0.62167325678E+01  0.39442907374E+02  0.47787273009E+02  0.20000008956E+02 0.  0.
        -12    1    1    2    0    0 -0.17006833845E+02  0.62167325678E+01 -0.39442907374E+02  0.43400726991E+02  0.00000000000E+00 0.  1.
         11    1    3    3    0    0  0.50082412004E+01  0.20499426922E+01  0.74888002459E+01  0.92394195893E+01  0.51100000000E-03 0. -1.
        -11    1    3    3    0    0  0.33246138293E+01 -0.99453191442E+01  0.25602392622E+02  0.27666675591E+02  0.51100000000E-03 0.  1.
        -12    1    3    3    0    0  0.86739788153E+01  0.16786438842E+01  0.63517145058E+01  0.10881177829E+02  0.00000000000E+00 0.  1.
</event>
<event>
 7    1  0.1714203E-010  0.4778727E+02  0.7816164E-02  0.1312668E+00
        -11   -1    0    0    0    0  0.00000000000E+00  0.00000000000E+00  0.45593999997E+02  0.45594000000E+02  0.51100000000E-03 0.  1.
         11   -1    0    0    0    0 -0.00000000000E+00 -0.00000000000E+00 -0.45593999997E+02  0.45594000000E+02  0.51100000000E-03 0. -1.
    9900012    2    1    2    0    0  0.57960786868E+01  0.38270996563E+02 -0.19630572896E+02  0.47787273067E+02  0.20000009223E+02 0.  0.
        -12    1    1    2    0    0 -0.57960786868E+01 -0.38270996563E+02  0.19630572896E+02  0.43400726933E+02  0.00000000000E+00 0.  1.
         11    1    3    3    0    0 -0.17864538945E+01  0.59330719963E+01  0.89615585314E+00  0.62606594225E+01  0.51100000000E-03 0. -1.
        -11    1    3    3    0    0  0.72476711159E+01  0.77788244803E+01 -0.10665338121E+02  0.15059491505E+02  0.51100000000E-03 0.  1.
         12    1    3    3    0    0  0.33486146538E+00  0.24559100086E+02 -0.98613906288E+01  0.26467122140E+02  0.00000000000E+00 0. -1.
</event>
<event>
 7    1  0.1714203E-010  0.4778730E+02  0.7816164E-02  0.1312668E+00
        -11   -1    0    0    0    0  0.00000000000E+00  0.00000000000E+00  0.45593999997E+02  0.45594000000E+02  0.51100000000E-03 0.  1.
         11   -1    0    0    0    0 -0.00000000000E+00 -0.00000000000E+00 -0.45593999997E+02  0.45594000000E+02  0.51100000000E-03 0. -1.
    9900012    2    1    2    0    0  0.42299571702E+02 -0.79991656083E+00 -0.96812676444E+01  0.47787302127E+02  0.20000141716E+02 0.  0.
        -12    1    1    2    0    0 -0.42299571702E+02  0.79991656083E+00  0.96812676444E+01  0.43400697873E+02  0.00000000000E+00 0.  1.
         11    1    3    3    0    0  0.21137384652E+02  0.53296365707E+01 -0.19572802053E+01  0.21886639806E+02  0.51100000000E-03 0. -1.
        -11    1    3    3    0    0  0.16508688512E+02 -0.49467739137E+01 -0.51817115609E+00  0.17241689887E+02  0.51100000000E-03 0.  1.
         12    1    3    3    0    0  0.46534985377E+01 -0.11827792178E+01 -0.72058162830E+01  0.86589724346E+01  0.00000000000E+00 0. -1.
</event>
<event>
 7    1  0.1714203E-010  0.4778728E+02  0.7816164E-02  0.1312668E+00
        -11   -1    0    0    0    0  0.00000000000E+00  0.00000000000E+00  0.45593999997E+02  0.45594000000E+02  0.51100000000E-03 0.  1.
         11   -1    0    0    0    0 -0.00000000000E+00 -0.00000000000E+00 -0.45593999997E+02  0.45594000000E+02  0.51100000000E-03 0. -1.
    9900012    2    1    2    0    0 -0.19099823055E+02 -0.29785581230E+02 -0.25132417291E+02  0.47787280088E+02  0.20000041235E+02 0.  0.
        -12    1    1    2    0    0  0.19099823055E+02  0.29785581230E+02  0.25132417291E+02  0.43400719912E+02  0.00000000000E+00 0.  1.
         11    1    3    3    0    0  0.14963481409E-01 -0.21867536065E+01  0.16028799136E+01  0.27113353757E+01  0.51100000000E-03 0. -1.
        -11    1    3    3    0    0 -0.12352157086E+02 -0.25190533867E+02 -0.16417404977E+02  0.32506460398E+02  0.51100000000E-03 0.  1.
        -12    1    3    3    0    0 -0.67626294508E+01 -0.24082937565E+01 -0.10317892228E+02  0.12569484314E+02  0.00000000000E+00 0.  1.
</event>
<event>
 7    1  0.1714203E-010  0.4778727E+02  0.7816164E-02  0.1312668E+00
        -11   -1    0    0    0    0  0.00000000000E+00  0.00000000000E+00  0.45593999997E+02  0.45594000000E+02  0.51100000000E-03 0. -1.
         11   -1    0    0    0    0 -0.00000000000E+00 -0.00000000000E+00 -0.45593999997E+02  0.45594000000E+02  0.51100000000E-03 0.  1.
    9900012    2    1    2    0    0 -0.31215387371E+02 -0.14618934578E+02  0.26372517719E+02  0.47787270194E+02  0.19999996121E+02 0.  0.
        -12    1    1    2    0    0  0.31215387371E+02  0.14618934578E+02 -0.26372517719E+02  0.43400729806E+02  0.00000000000E+00 0.  1.
         11    1    3    3    0    0 -0.81120715482E+01 -0.80868945429E+01  0.10323106580E+02  0.15419795650E+02  0.51100000000E-03 0. -1.
        -11    1    3    3    0    0 -0.15870336291E+02  0.27228280948E+01  0.11426307912E+02  0.19744413883E+02  0.51100000000E-03 0.  1.
         12    1    3    3    0    0 -0.72329795319E+01 -0.92548681301E+01  0.46231032264E+01  0.12623060661E+02  0.00000000000E+00 0. -1.
</event>
<event>
 7    1  0.1714203E-010  0.4778727E+02  0.7816164E-02  0.1312668E+00
        -11   -1    0    0    0    0  0.00000000000E+00  0.00000000000E+00  0.45593999997E+02  0.45594000000E+02  0.51100000000E-03 0.  1.
         11   -1    0    0    0    0 -0.00000000000E+00 -0.00000000000E+00 -0.45593999997E+02  0.45594000000E+02  0.51100000000E-03 0. -1.
    9900012    2    1    2    0    0 -0.32213850101E+02  0.59713123447E+00 -0.29078079329E+02  0.47787269575E+02  0.19999993298E+02 0.  0.
        -12    1    1    2    0    0  0.32213850101E+02 -0.59713123447E+00  0.29078079329E+02  0.43400730425E+02  0.00000000000E+00 0.  1.
         11    1    3    3    0    0 -0.13950500544E+02  0.36990533145E+01 -0.12358819417E+02  0.19001049405E+02  0.51100000000E-03 0. -1.
        -11    1    3    3    0    0 -0.76504072366E+01 -0.69368231374E+01 -0.13603688786E+02  0.17079478768E+02  0.51100000000E-03 0.  1.
         12    1    3    3    0    0 -0.10612942320E+02  0.38349010573E+01 -0.31155711255E+01  0.11706741402E+02  0.00000000000E+00 0. -1.
</event>
<event>
 7    1  0.2145618E-010  0.4778726E+02  0.7816164E-02  0.1312668E+00
        -11   -1    0    0    0    0  0.00000000000E+00  0.00000000000E+00  0.45593999997E+02  0.45594000000E+02  0.51100000000E-03 0. -1.
         11   -1    0    0    0    0 -0.00000000000E+00 -0.00000000000E+00 -0.45593999997E+02  0.45594000000E+02  0.51100000000E-03 0.  1.
    9900012    2    1    2    0    0 -0.11338263961E+01 -0.15704930677E+02  0.40443711289E+02  0.47787260459E+02  0.19999951737E+02 0.  0.
        -12    1    1    2    0    0  0.11338263961E+01  0.15704930677E+02 -0.40443711289E+02  0.43400739541E+02  0.00000000000E+00 0.  1.
         11    1    3    3    0    0  0.16542060074E+01 -0.32553395593E+01  0.22572032623E+02  0.22865482505E+02  0.51100000000E-03 0. -1.
        -11    1    3    3    0    0 -0.46884639615E+01 -0.14498944784E+00  0.31948242146E+01  0.56753518201E+01  0.51100000000E-03 0.  1.
        -12    1    3    3    0    0  0.19004315580E+01 -0.12304601670E+02  0.14676854451E+02  0.19246426134E+02  0.00000000000E+00 0.  1.
</event>
<event>
 7    1  0.2624105E-010  0.4778727E+02  0.7816164E-02  0.1312668E+00
        -11   -1    0    0    0    0  0.00000000000E+00  0.00000000000E+00  0.45593999997E+02  0.45594000000E+02  0.51100000000E-03 0.  1.
         11   -1    0    0    0    0 -0.00000000000E+00 -0.00000000000E+00 -0.45593999997E+02  0.45594000000E+02  0.51100000000E-03 0. -1.
    9900012    2    1    2    0    0 -0.37769200446E+02 -0.44892207542E-01 -0.21380105529E+02  0.47787269245E+02  0.19999991794E+02 0.  0.
        -12    1    1    2    0    0  0.37769200446E+02  0.44892207542E-01  0.21380105529E+02  0.43400730755E+02  0.00000000000E+00 0.  1.
         11    1    3    3    0    0 -0.24927863022E+02 -0.34296527541E+01 -0.98993915728E+01  0.27039948717E+02  0.51100000000E-03 0.  1.
        -11    1    3    3    0    0  0.80357934693E+00 -0.22884195124E+01 -0.23473507443E+01  0.33753013806E+01  0.51100000000E-03 0. -1.
         12    1    3    3    0    0 -0.13644916771E+02  0.56731800590E+01 -0.91333632123E+01  0.17372019147E+02  0.00000000000E+00 0. -1.
</event>
<event>
 7    1  0.1714203E-010  0.4778727E+02  0.7816164E-02  0.1312668E+00
        -11   -1    0    0    0    0  0.00000000000E+00  0.00000000000E+00  0.45593999997E+02  0.45594000000E+02  0.51100000000E-03 0. -1.
         11   -1    0    0    0    0 -0.00000000000E+00 -0.00000000000E+00 -0.45593999997E+02  0.45594000000E+02  0.51100000000E-03 0.  1.
    9900012    2    1    2    0    0  0.12215196701E+02  0.38348452762E+02  0.16242172957E+02  0.47787273716E+02  0.20000012179E+02 0.  0.
        -12    1    1    2    0    0 -0.12215196701E+02 -0.38348452762E+02 -0.16242172957E+02  0.43400726284E+02  0.00000000000E+00 0.  1.
         11    1    3    3    0    0  0.36148184179E+01  0.22020491776E+02  0.15302667966E+02  0.27058097077E+02  0.51100000000E-03 0. -1.
        -11    1    3    3    0    0  0.73890016830E+01  0.57938609780E+01  0.31379532278E+01  0.99001475558E+01  0.51100000000E-03 0.  1.
        -12    1    3    3    0    0  0.12113766001E+01  0.10534100007E+02 -0.21984482372E+01  0.10829029083E+02  0.00000000000E+00 0.  1.
</event>
<event>
 7    1  0.1714203E-010  0.4778727E+02  0.7816164E-02  0.1312668E+00
        -11   -1    0    0    0    0  0.00000000000E+00  0.00000000000E+00  0.45593999997E+02  0.45594000000E+02  0.51100000000E-03 0.  1.
         11   -1    0    0    0    0 -0.00000000000E+00 -0.00000000000E+00 -0.45593999997E+02  0.45594000000E+02  0.51100000000E-03 0. -1.
    9900012    2    1    2    0    0  0.21977028428E+02 -0.11239334277E+02 -0.35697494820E+02  0.47787267864E+02  0.19999985500E+02 0.  0.
        -12    1    1    2    0    0 -0.21977028428E+02  0.11239334277E+02  0.35697494820E+02  0.43400732136E+02  0.00000000000E+00 0.  1.
         11    1    3    3    0    0 -0.38513583854E+00  0.13233810146E+01 -0.45421199235E+01  0.47466325520E+01  0.51100000000E-03 0. -1.
        -11    1    3    3    0    0  0.54188914900E-01 -0.65540852013E+01 -0.59988980167E+01  0.88851419201E+01  0.51100000000E-03 0.  1.
         12    1    3    3    0    0  0.22307975351E+02 -0.60086300902E+01 -0.25156476880E+02  0.34155493392E+02  0.00000000000E+00 0. -1.
</event>
<event>
 7    1  0.1714203E-010  0.4778727E+02  0.7816164E-02  0.1312668E+00
        -11   -1    0    0    0    0  0.00000000000E+00  0.00000000000E+00  0.45593999997E+02  0.45594000000E+02  0.51100000000E-03 0. -1.
         11   -1    0    0    0    0 -0.00000000000E+00 -0.00000000000E+00 -0.45593999997E+02  0.45594000000E+02  0.51100000000E-03 0.  1.
    9900012    2    1    2    0    0  0.19421109033E+02 -0.18074973105E+02  0.34347330360E+02  0.47787271531E+02  0.20000002216E+02 0.  0.
        -12    1    1    2    0    0 -0.19421109033E+02  0.18074973105E+02 -0.34347330360E+02  0.43400728469E+02  0.00000000000E+00 0.  1.
         11    1    3    3    0    0  0.60604184923E+01 -0.45127148339E+01  0.13157341988E+02  0.15172637079E+02  0.51100000000E-03 0. -1.
        -11    1    3    3    0    0  0.11074009176E+02 -0.14204904793E+02  0.23291413934E+02  0.29443215903E+02  0.51100000000E-03 0.  1.
        -12    1    3    3    0    0  0.22866813644E+01  0.64264652196E+00 -0.21014255623E+01  0.31714185483E+01  0.00000000000E+00 0.  1.
</event>
<event>
 7    1  0.1714203E-010  0.4778728E+02  0.7816164E-02  0.1312668E+00
        -11   -1    0    0    0    0  0.00000000000E+00  0.00000000000E+00  0.45593999997E+02  0.45594000000E+02  0.51100000000E-03 0.  1.
         11   -1    0    0    0    0 -0.00000000000E+00 -0.00000000000E+00 -0.45593999997E+02  0.45594000000E+02  0.51100000000E-03 0. -1.
    9900012    2    1    2    0    0  0.29943709214E+01  0.27151667782E+02 -0.33726005524E+02  0.47787276859E+02  0.20000026512E+02 0.  0.
        -12    1    1    2    0    0 -0.29943709214E+01 -0.27151667782E+02  0.33726005524E+02  0.43400723141E+02  0.00000000000E+00 0.  1.
         11    1    3    3    0    0  0.58073261616E+00  0.38442319512E+01  0.79005512252E+00  0.39673110571E+01  0.51100000000E-03 0. -1.
        -11    1    3    3    0    0  0.30421605517E+01  0.10350536115E+01 -0.64524045252E+00  0.32775619450E+01  0.51100000000E-03 0.  1.
         12    1    3    3    0    0 -0.62852224647E+00  0.22272382219E+02 -0.33870820194E+02  0.40542403857E+02  0.00000000000E+00 0. -1.
</event>
<event>
 7    1  0.1714203E-010  0.4778724E+02  0.7816164E-02  0.1312668E+00
        -11   -1    0    0    0    0  0.00000000000E+00  0.00000000000E+00  0.45593999997E+02  0.45594000000E+02  0.51100000000E-03 0.  1.
         11   -1    0    0    0    0 -0.00000000000E+00 -0.00000000000E+00 -0.45593999997E+02  0.45594000000E+02  0.51100000000E-03 0. -1.
    9900012    2    1    2    0    0  0.11330933297E+02 -0.41627997455E+02  0.47271246659E+01  0.47787240455E+02  0.19999860529E+02 0.  0.
        -12    1    1    2    0    0 -0.11330933297E+02  0.41627997455E+02 -0.47271246659E+01  0.43400759545E+02  0.00000000000E+00 0.  1.
         11    1    3    3    0    0  0.16637922981E+01 -0.22915111277E+02  0.69901177868E+00  0.22986064200E+02  0.51100000000E-03 0. -1.
        -11    1    3    3    0    0  0.22977912137E+01 -0.14019053321E+02  0.66408286308E+01  0.15681655067E+02  0.51100000000E-03 0.  1.
        -12    1    3    3    0    0  0.73693497850E+01 -0.46938328567E+01 -0.26127157436E+01  0.91195211879E+01  0.00000000000E+00 0.  1.
</event>
<event>
 7    1  0.1714203E-010  0.4778727E+02  0.7816164E-02  0.1312668E+00
        -11   -1    0    0    0    0  0.00000000000E+00  0.00000000000E+00  0.45593999997E+02  0.45594000000E+02  0.51100000000E-03 0.  1.
         11   -1    0    0    0    0 -0.00000000000E+00 -0.00000000000E+00 -0.45593999997E+02  0.45594000000E+02  0.51100000000E-03 0. -1.
    9900012    2    1    2    0    0  0.23176543101E+02  0.22474705550E+01 -0.36625402377E+02  0.47787269900E+02  0.19999994781E+02 0.  0.
        -12    1    1    2    0    0 -0.23176543101E+02 -0.22474705550E+01  0.36625402377E+02  0.43400730100E+02  0.00000000000E+00 0.  1.
         11    1    3    3    0    0  0.68989864931E+01  0.54978964136E+01 -0.15696595495E+02  0.18005721035E+02  0.51100000000E-03 0. -1.
        -11    1    3    3    0    0 -0.13371113521E+01 -0.29324759998E+01 -0.15011253978E+01  0.35553705825E+01  0.51100000000E-03 0.  1.
        -12    1    3    3    0    0  0.17614667960E+02 -0.31794985878E+00 -0.19427681484E+02  0.26226178282E+02  0.00000000000E+00 0.  1.
</event>
<event>
 7    1  0.1714203E-010  0.4778727E+02  0.7816164E-02  0.1312668E+00
        -11   -1    0    0    0    0  0.00000000000E+00  0.00000000000E+00  0.45593999997E+02  0.45594000000E+02  0.51100000000E-03 0. -1.
         11   -1    0    0    0    0 -0.00000000000E+00 -0.00000000000E+00 -0.45593999997E+02  0.45594000000E+02  0.51100000000E-03 0.  1.
    9900012    2    1    2    0    0  0.24847266668E+02  0.16399971194E+02  0.31579699407E+02  0.47787272694E+02  0.20000007522E+02 0.  0.
        -12    1    1    2    0    0 -0.24847266668E+02 -0.16399971194E+02 -0.31579699407E+02  0.43400727306E+02  0.00000000000E+00 0.  1.
         11    1    3    3    0    0  0.88571731379E+00  0.17437935887E+01  0.59375424342E-01  0.19567414091E+01  0.51100000000E-03 0. -1.
        -11    1    3    3    0    0  0.32430705725E+01  0.54061944462E+01 -0.78531714641E+00  0.63530440270E+01  0.51100000000E-03 0.  1.
         12    1    3    3    0    0  0.20718478781E+02  0.92499831595E+01  0.32305641129E+02  0.39477487258E+02  0.00000000000E+00 0. -1.
</event>
<event>
 7    1  0.2498487E-010  0.4778727E+02  0.7816164E-02  0.1312668E+00
        -11   -1    0    0    0    0  0.00000000000E+00  0.00000000000E+00  0.45593999997E+02  0.45594000000E+02  0.51100000000E-03 0. -1.
         11   -1    0    0    0    0 -0.00000000000E+00 -0.00000000000E+00 -0.45593999997E+02  0.45594000000E+02  0.51100000000E-03 0.  1.
    9900012    2    1    2    0    0  0.25886861436E+02 -0.59706975661E+01  0.34319738707E+02  0.47787270866E+02  0.19999999188E+02 0.  0.
        -12    1    1    2    0    0 -0.25886861436E+02  0.59706975661E+01 -0.34319738707E+02  0.43400729134E+02  0.00000000000E+00 0.  1.
         11    1    3    3    0    0  0.18561835611E+02 -0.61537803210E+01  0.23307656821E+02  0.30424621941E+02  0.51100000000E-03 0. -1.
        -11    1    3    3    0    0  0.46659881685E+01  0.45450836180E+01  0.10325131181E+02  0.12208094235E+02  0.51100000000E-03 0.  1.
        -12    1    3    3    0    0  0.26590376562E+01 -0.43620008631E+01  0.68695070468E+00  0.51545546905E+01  0.00000000000E+00 0.  1.
</event>
<event>
 7    1  0.1714203E-010  0.4778727E+02  0.7816164E-02  0.1312668E+00
        -11   -1    0    0    0    0  0.00000000000E+00  0.00000000000E+00  0.45593999997E+02  0.45594000000E+02  0.51100000000E-03 0.  1.
         11   -1    0    0    0    0 -0.00000000000E+00 -0.00000000000E+00 -0.45593999997E+02  0.45594000000E+02  0.51100000000E-03 0. -1.
    9900012    2    1    2    0    0 -0.35674279535E+02 -0.52598191988E+01 -0.24151678577E+02  0.47787268481E+02  0.19999988310E+02 0.  0.
        -12    1    1    2    0    0  0.35674279535E+02  0.52598191988E+01  0.24151678577E+02  0.43400731519E+02  0.00000000000E+00 0.  1.
         11    1    3    3    0    0 -0.15972886317E+02 -0.54327191916E+01 -0.41513082720E+01  0.17374720019E+02  0.51100000000E-03 0. -1.
        -11    1    3    3    0    0 -0.12925810815E+01 -0.33366196838E+01 -0.61286338093E+01  0.70967562587E+01  0.51100000000E-03 0.  1.
         12    1    3    3    0    0 -0.18408812136E+02  0.35095196765E+01 -0.13871736496E+02  0.23315792203E+02  0.00000000000E+00 0. -1.
</event>
<event>
 7    1  0.1714203E-010  0.4778727E+02  0.7816164E-02  0.1312668E+00
        -11   -1    0    0    0    0  0.00000000000E+00  0.00000000000E+00  0.45593999997E+02  0.45594000000E+02  0.51100000000E-03 0. -1.
         11   -1    0    0    0    0 -0.00000000000E+00 -0.00000000000E+00 -0.45593999997E+02  0.45594000000E+02  0.51100000000E-03 0.  1.
    9900012    2    1    2    0    0 -0.38209168243E+02  0.14658265797E+01  0.20531298376E+02  0.47787269610E+02  0.19999993459E+02 0.  0.
        -12    1    1    2    0    0  0.38209168243E+02 -0.14658265797E+01 -0.20531298376E+02  0.43400730390E+02  0.00000000000E+00 0.  1.
         11    1    3    3    0    0  0.27535926272E+00  0.14421113389E+01 -0.89474321184E+00  0.17193235628E+01  0.51100000000E-03 0.  1.
        -11    1    3    3    0    0 -0.31586215373E+02  0.74247475565E-01  0.10766365654E+02  0.33370782788E+02  0.51100000000E-03 0. -1.
         12    1    3    3    0    0 -0.68983121334E+01 -0.50532234813E-01  0.10659675934E+02  0.12697163259E+02  0.00000000000E+00 0. -1.
</event>
<event>
 7    1  0.1714203E-010  0.4778726E+02  0.7816164E-02  0.1312668E+00
        -11   -1    0    0    0    0  0.00000000000E+00  0.00000000000E+00  0.45593999997E+02  0.45594000000E+02  0.51100000000E-03 0. -1.
         11   -1    0    0    0    0 -0.00000000000E+00 -0.00000000000E+00 -0.45593999997E+02  0.45594000000E+02  0.51100000000E-03 0.  1.
    9900012    2    1    2    0    0 -0.31286505697E+02  0.29014878436E+02  0.79319288011E+01  0.47787261482E+02  0.19999956402E+02 0.  0.
        -12    1    1    2    0    0  0.31286505697E+02 -0.29014878436E+02 -0.79319288011E+01  0.43400738518E+02  0.00000000000E+00 0.  1.
         11    1    3    3    0    0 -0.12153163277E+02  0.16203988200E+02  0.31451543848E+01  0.20497819581E+02  0.51100000000E-03 0. -1.
        -11    1    3    3    0    0 -0.15857660043E+02  0.25234240654E+01  0.32743638039E+01  0.16387632826E+02  0.51100000000E-03 0.  1.
        -12    1    3    3    0    0 -0.32756823772E+01  0.10287466171E+02  0.15124106123E+01  0.10901809075E+02  0.00000000000E+00 0.  1.
</event>
<event>
 7    1  0.1714203E-010  0.4778727E+02  0.7816164E-02  0.1312668E+00
        -11   -1    0    0    0    0  0.00000000000E+00  0.00000000000E+00  0.45593999997E+02  0.45594000000E+02  0.51100000000E-03 0. -1.
         11   -1    0    0    0    0 -0.00000000000E+00 -0.00000000000E+00 -0.45593999997E+02  0.45594000000E+02  0.51100000000E-03 0.  1.
    9900012    2    1    2    0    0 -0.21847126260E+02  0.36161498717E+02  0.99334052702E+01  0.47787268952E+02  0.19999990458E+02 0.  0.
        -12    1    1    2    0    0  0.21847126260E+02 -0.36161498717E+02 -0.99334052702E+01  0.43400731048E+02  0.00000000000E+00 0.  1.
         11    1    3    3    0    0 -0.18340826420E+02  0.23474479998E+02  0.29073444858E+01  0.29931417894E+02  0.51100000000E-03 0. -1.
        -11    1    3    3    0    0 -0.55948818428E+01  0.27000812740E+01  0.26313192160E+01  0.67466275129E+01  0.51100000000E-03 0.  1.
        -12    1    3    3    0    0  0.20885820026E+01  0.99869374446E+01  0.43947415683E+01  0.11109223544E+02  0.00000000000E+00 0.  1.
</event>
<event>
 7    1  0.1714203E-010  0.4778727E+02  0.7816164E-02  0.1312668E+00
        -11   -1    0    0    0    0  0.00000000000E+00  0.00000000000E+00  0.45593999997E+02  0.45594000000E+02  0.51100000000E-03 0.  1.
         11   -1    0    0    0    0 -0.00000000000E+00 -0.00000000000E+00 -0.45593999997E+02  0.45594000000E+02  0.51100000000E-03 0. -1.
    9900012    2    1    2    0    0 -0.33711433916E+02 -0.12719531596E+02 -0.24194540111E+02  0.47787273833E+02  0.20000012713E+02 0.  0.
        -12    1    1    2    0    0  0.33711433916E+02  0.12719531596E+02  0.24194540111E+02  0.43400726167E+02  0.00000000000E+00 0.  1.
         11    1    3    3    0    0 -0.92568500750E+01 -0.89695275478E+01 -0.13246204769E+02  0.18482522522E+02  0.51100000000E-03 0. -1.
        -11    1    3    3    0    0 -0.22699659478E+02 -0.32802598105E+01 -0.13159867985E+02  0.26442707321E+02  0.51100000000E-03 0.  1.
        -12    1    3    3    0    0 -0.17549243629E+01 -0.46974423806E+00  0.22115326428E+01  0.28620439897E+01  0.00000000000E+00 0.  1.
</event>
<event>
 7    1  0.1714203E-010  0.4778727E+02  0.7816164E-02  0.1312668E+00
        -11   -1    0    0    0    0  0.00000000000E+00  0.00000000000E+00  0.45593999997E+02  0.45594000000E+02  0.51100000000E-03 0.  1.
         11   -1    0    0    0    0 -0.00000000000E+00 -0.00000000000E+00 -0.45593999997E+02  0.45594000000E+02  0.51100000000E-03 0. -1.
    9900012    2    1    2    0    0  0.15676681918E+01 -0.66838010199E+01 -0.42854321145E+02  0.47787267052E+02  0.19999981796E+02 0.  0.
        -12    1    1    2    0    0 -0.15676681918E+01  0.66838010199E+01  0.42854321145E+02  0.43400732948E+02  0.00000000000E+00 0.  1.
         11    1    3    3    0    0  0.34116722621E+01 -0.63042982091E+01 -0.43986506308E+02  0.44566763635E+02  0.51100000000E-03 0. -1.
        -11    1    3    3    0    0  0.39148746572E+00 -0.62621656156E+00  0.47231001027E+00  0.87663368901E+00  0.51100000000E-03 0.  1.
         12    1    3    3    0    0 -0.22354915361E+01  0.24671375081E+00  0.65987515218E+00  0.23438697274E+01  0.00000000000E+00 0. -1.
</event>
<event>
 7    1  0.1714203E-010  0.4778727E+02  0.7816164E-02  0.1312668E+00
        -11   -1    0    0    0    0  0.00000000000E+00  0.00000000000E+00  0.45593999997E+02  0.45594000000E+02  0.51100000000E-03 0.  1.
         11   -1    0    0    0    0 -0.00000000000E+00 -0.00000000000E+00 -0.45593999997E+02  0.45594000000E+02  0.51100000000E-03 0. -1.
    9900012    2    1    2    0    0 -0.98183068094E+01  0.70672595427E+01 -0.41680666698E+02  0.47787270946E+02  0.19999999550E+02 0.  0.
        -12    1    1    2    0    0  0.98183068094E+01 -0.70672595427E+01  0.41680666698E+02  0.43400729054E+02  0.00000000000E+00 0.  1.
         11    1    3    3    0    0  0.19065409210E+01  0.46970185604E+01 -0.17135430822E+02  0.17869523535E+02  0.51100000000E-03 0. -1.
        -11    1    3    3    0    0 -0.93544567527E+00  0.42485731497E+01 -0.14203721234E+02  0.14855003520E+02  0.51100000000E-03 0.  1.
        -12    1    3    3    0    0 -0.10789402055E+02 -0.18783321675E+01 -0.10341514642E+02  0.15062743891E+02  0.00000000000E+00 0.  1.
</event>
<event>
 7    1  0.1714203E-010  0.4778729E+02  0.7816164E-02  0.1312668E+00
        -11   -1    0    0    0    0  0.00000000000E+00  0.00000000000E+00  0.45593999997E+02  0.45594000000E+02  0.51100000000E-03 0.  1.
         11   -1    0    0    0    0 -0.00000000000E+00 -0.00000000000E+00 -0.45593999997E+02  0.45594000000E+02  0.51100000000E-03 0. -1.
    9900012    2    1    2    0    0 -0.35003377083E+02 -0.25630694007E+02  0.12052358027E+01  0.47787291759E+02  0.20000094445E+02 0.  0.
        -12    1    1    2    0    0  0.35003377083E+02  0.25630694007E+02 -0.12052358027E+01  0.43400708241E+02  0.00000000000E+00 0.  1.
         11    1    3    3    0    0 -0.85956333336E+01  0.51366000531E+00  0.18928315003E+01  0.88165509332E+01  0.51100000000E-03 0.  1.
        -11    1    3    3    0    0 -0.21775775931E+02 -0.15319973981E+02 -0.35321713354E+01  0.26858187853E+02  0.51100000000E-03 0. -1.
        -12    1    3    3    0    0 -0.46319678182E+01 -0.10824380032E+02  0.28445756377E+01  0.12112552972E+02  0.00000000000E+00 0.  1.
</event>
<event>
 7    1  0.1714203E-010  0.4778727E+02  0.7816164E-02  0.1312668E+00
        -11   -1    0    0    0    0  0.00000000000E+00  0.00000000000E+00  0.45593999997E+02  0.45594000000E+02  0.51100000000E-03 0. -1.
         11   -1    0    0    0    0 -0.00000000000E+00 -0.00000000000E+00 -0.45593999997E+02  0.45594000000E+02  0.51100000000E-03 0.  1.
    9900012    2    1    2    0    0  0.13625242080E+02 -0.21429422297E+02  0.35195963009E+02  0.47787272197E+02  0.20000005254E+02 0.  0.
        -12    1    1    2    0    0 -0.13625242080E+02  0.21429422297E+02 -0.35195963009E+02  0.43400727803E+02  0.00000000000E+00 0.  1.
         11    1    3    3    0    0  0.18416771191E+02 -0.15291576972E+02  0.27419975073E+02  0.36398692568E+02  0.51100000000E-03 0. -1.
        -11    1    3    3    0    0 -0.15727099912E+01 -0.41308787487E+01  0.50860958880E+01  0.67383935471E+01  0.51100000000E-03 0.  1.
         12    1    3    3    0    0 -0.32188191198E+01 -0.20069665766E+01  0.26898920475E+01  0.46501860815E+01  0.00000000000E+00 0. -1.
</event>
<event>
 7    1  0.1714203E-010  0.4778727E+02  0.7816164E-02  0.1312668E+00
        -11   -1    0    0    0    0  0.00000000000E+00  0.00000000000E+00  0.45593999997E+02  0.45594000000E+02  0.51100000000E-03 0. -1.
         11   -1    0    0    0    0 -0.00000000000E+00 -0.00000000000E+00 -0.45593999997E+02  0.45594000000E+02  0.51100000000E-03 0.  1.
    9900012    2    1    2    0    0 -0.21041934875E+02  0.16129613924E+02  0.34361253327E+02  0.47787271909E+02  0.20000003943E+02 0.  0.
        -12    1    1    2    0    0  0.21041934875E+02 -0.16129613924E+02 -0.34361253327E+02  0.43400728091E+02  0.00000000000E+00 0.  1.
         11    1    3    3    0    0  0.81586441889E+00  0.38057226278E+01  0.75434067236E+01  0.84883534757E+01  0.51100000000E-03 0. -1.
        -11    1    3    3    0    0 -0.76887114763E+01  0.46792191447E+01  0.12537340628E+01  0.90875313112E+01  0.51100000000E-03 0.  1.
         12    1    3    3    0    0 -0.14169087817E+02  0.76446721517E+01  0.25564112540E+02  0.30211387122E+02  0.00000000000E+00 0. -1.
</event>
<event>
 7    1  0.1714203E-010  0.4778727E+02  0.7816164E-02  0.1312668E+00
        -11   -1    0    0    0    0  0.00000000000E+00  0.00000000000E+00  0.45593999997E+02  0.45594000000E+02  0.51100000000E-03 0.  1.
         11   -1    0    0    0    0 -0.00000000000E+00 -0.00000000000E+00 -0.45593999997E+02  0.45594000000E+02  0.51100000000E-03 0. -1.
    9900012    2    1    2    0    0 -0.39362998518E+02 -0.16171653710E+02 -0.85238043017E+01  0.47787271022E+02  0.19999999897E+02 0.  0.
        -12    1    1    2    0    0  0.39362998518E+02  0.16171653710E+02  0.85238043017E+01  0.43400728978E+02  0.00000000000E+00 0.  1.
         11    1    3    3    0    0 -0.22180203637E+02 -0.59190863961E+01  0.27095085731E+00  0.22958014543E+02  0.51100000000E-03 0. -1.
        -11    1    3    3    0    0 -0.16956995009E+02 -0.66760619817E+01 -0.36924192553E+01  0.18594177678E+02  0.51100000000E-03 0.  1.
        -12    1    3    3    0    0 -0.22579987278E+00 -0.35765053318E+01 -0.51023359038E+01  0.62350788003E+01  0.00000000000E+00 0.  1.
</event>
<event>
 7    1  0.1714203E-010  0.4778728E+02  0.7816164E-02  0.1312668E+00
        -11   -1    0    0    0    0  0.00000000000E+00  0.00000000000E+00  0.45593999997E+02  0.45594000000E+02  0.51100000000E-03 0.  1.
         11   -1    0    0    0    0 -0.00000000000E+00 -0.00000000000E+00 -0.45593999997E+02  0.45594000000E+02  0.51100000000E-03 0. -1.
    9900012    2    1    2    0    0 -0.40243763392E+02 -0.64530676834E+01 -0.14913760264E+02  0.47787276277E+02  0.20000023857E+02 0.  0.
        -12    1    1    2    0    0  0.40243763392E+02  0.64530676834E+01  0.14913760264E+02  0.43400723723E+02  0.00000000000E+00 0.  1.
         11    1    3    3    0    0 -0.71244124596E+01  0.14854436595E+01 -0.62030352679E+01  0.95625018984E+01  0.51100000000E-03 0. -1.
        -11    1    3    3    0    0 -0.98873187708E+01  0.17031954524E+01 -0.83752204076E+01  0.13069210549E+02  0.51100000000E-03 0.  1.
        -12    1    3    3    0    0 -0.23232032161E+02 -0.96417067953E+01 -0.33550458852E+00  0.25155563830E+02  0.00000000000E+00 0.  1.
</event>
<event>
 7    1  0.1714203E-010  0.4778729E+02  0.7816164E-02  0.1312668E+00
        -11   -1    0    0    0    0  0.00000000000E+00  0.00000000000E+00  0.45593999997E+02  0.45594000000E+02  0.51100000000E-03 0.  1.
         11   -1    0    0    0    0 -0.00000000000E+00 -0.00000000000E+00 -0.45593999997E+02  0.45594000000E+02  0.51100000000E-03 0. -1.
    9900012    2    1    2    0    0  0.30216899737E+02  0.28840596090E+02 -0.11780531674E+02  0.47787286422E+02  0.20000070113E+02 0.  0.
        -12    1    1    2    0    0 -0.30216899737E+02 -0.28840596090E+02  0.11780531674E+02  0.43400713578E+02  0.00000000000E+00 0.  1.
         11    1    3    3    0    0  0.50914929948E+01  0.47842513101E+01 -0.59107677049E+01  0.91514772926E+01  0.51100000000E-03 0. -1.
        -11    1    3    3    0    0  0.25757320931E+02  0.20503730464E+02 -0.14822957340E+01  0.32955117135E+02  0.51100000000E-03 0.  1.
        -12    1    3    3    0    0 -0.63191418905E+00  0.35526143165E+01 -0.43874682353E+01  0.56806919948E+01  0.00000000000E+00 0.  1.
</event>
<event>
 7    1  0.1714203E-010  0.4778725E+02  0.7816164E-02  0.1312668E+00
        -11   -1    0    0    0    0  0.00000000000E+00  0.00000000000E+00  0.45593999997E+02  0.45594000000E+02  0.51100000000E-03 0.  1.
         11   -1    0    0    0    0 -0.00000000000E+00 -0.00000000000E+00 -0.45593999997E+02  0.45594000000E+02  0.51100000000E-03 0. -1.
    9900012    2    1    2    0    0  0.21664378052E+02 -0.30807960567E+02 -0.21567312251E+02  0.47787254978E+02  0.19999926747E+02 0.  0.
        -12    1    1    2    0    0 -0.21664378052E+02  0.30807960567E+02  0.21567312251E+02  0.43400745022E+02  0.00000000000E+00 0.  1.
         11    1    3    3    0    0  0.15429380849E+02 -0.18814083280E+02 -0.90573285683E+01  0.25962872031E+02  0.51100000000E-03 0.  1.
        -11    1    3    3    0    0 -0.60734508255E+00 -0.10467527604E+02 -0.52279766904E+01  0.11716217082E+02  0.51100000000E-03 0. -1.
        -12    1    3    3    0    0  0.68423422862E+01 -0.15263496841E+01 -0.72820069924E+01  0.10108165865E+02  0.00000000000E+00 0.  1.
</event>
<event>
 7    1  0.1714203E-010  0.4778727E+02  0.7816164E-02  0.1312668E+00
        -11   -1    0    0    0    0  0.00000000000E+00  0.00000000000E+00  0.45593999997E+02  0.45594000000E+02  0.51100000000E-03 0.  1.
         11   -1    0    0    0    0 -0.00000000000E+00 -0.00000000000E+00 -0.45593999997E+02  0.45594000000E+02  0.51100000000E-03 0. -1.
    9900012    2    1    2    0    0 -0.35992334265E+02  0.23743797807E+02 -0.49403635946E+01  0.47787271290E+02  0.20000001118E+02 0.  0.
        -12    1    1    2    0    0  0.35992334265E+02 -0.23743797807E+02  0.49403635946E+01  0.43400728710E+02  0.00000000000E+00 0.  1.
         11    1    3    3    0    0  0.59454371670E+00 -0.75454314838E+00 -0.11942645560E+01  0.15326727259E+01  0.51100000000E-03 0. -1.
        -11    1    3    3    0    0 -0.17745805186E+02  0.12948606763E+02  0.49283407105E+01  0.22513741609E+02  0.51100000000E-03 0.  1.
         12    1    3    3    0    0 -0.18841072796E+02  0.11549734192E+02 -0.86744397491E+01  0.23740856955E+02  0.00000000000E+00 0. -1.
</event>
<event>
 7    1  0.1714203E-010  0.4778727E+02  0.7816164E-02  0.1312668E+00
        -11   -1    0    0    0    0  0.00000000000E+00  0.00000000000E+00  0.45593999997E+02  0.45594000000E+02  0.51100000000E-03 0.  1.
         11   -1    0    0    0    0 -0.00000000000E+00 -0.00000000000E+00 -0.45593999997E+02  0.45594000000E+02  0.51100000000E-03 0. -1.
    9900012    2    1    2    0    0 -0.10117442889E+02 -0.41341908418E+02 -0.84916048317E+01  0.47787269650E+02  0.19999993644E+02 0.  0.
        -12    1    1    2    0    0  0.10117442889E+02  0.41341908418E+02  0.84916048317E+01  0.43400730350E+02  0.00000000000E+00 0.  1.
         11    1    3    3    0    0 -0.52370029843E+01 -0.30982044187E+02 -0.21372378287E+01  0.31494143076E+02  0.51100000000E-03 0. -1.
        -11    1    3    3    0    0 -0.44659821304E+00 -0.86269318195E+01 -0.74510655121E+01  0.11407970026E+02  0.51100000000E-03 0.  1.
        -12    1    3    3    0    0 -0.44338416915E+01 -0.17329324113E+01  0.10966985091E+01  0.48851565489E+01  0.00000000000E+00 0.  1.
</event>
<event>
 7    1  0.2137680E-010  0.4778726E+02  0.7816164E-02  0.1312668E+00
        -11   -1    0    0    0    0  0.00000000000E+00  0.00000000000E+00  0.45593999997E+02  0.45594000000E+02  0.51100000000E-03 0.  1.
         11   -1    0    0    0    0 -0.00000000000E+00 -0.00000000000E+00 -0.45593999997E+02  0.45594000000E+02  0.51100000000E-03 0. -1.
    9900012    2    1    2    0    0 -0.15577465904E+02  0.36992454426E+02 -0.16508322082E+02  0.47787264678E+02  0.19999970975E+02 0.  0.
        -12    1    1    2    0    0  0.15577465904E+02 -0.36992454426E+02  0.16508322082E+02  0.43400735322E+02  0.00000000000E+00 0.  1.
         11    1    3    3    0    0 -0.12265826451E+02  0.29376855259E+02 -0.10178649001E+02  0.33422373033E+02  0.51100000000E-03 0. -1.
        -11    1    3    3    0    0 -0.33481836458E+01  0.68761447965E+01 -0.88740626954E+01  0.11714977165E+02  0.51100000000E-03 0.  1.
        -12    1    3    3    0    0  0.36544192013E-01  0.73945437058E+00  0.25443896142E+01  0.26499144803E+01  0.00000000000E+00 0.  1.
</event>
<event>
 7    1  0.1714203E-010  0.4778727E+02  0.7816164E-02  0.1312668E+00
        -11   -1    0    0    0    0  0.00000000000E+00  0.00000000000E+00  0.45593999997E+02  0.45594000000E+02  0.51100000000E-03 0. -1.
         11   -1    0    0    0    0 -0.00000000000E+00 -0.00000000000E+00 -0.45593999997E+02  0.45594000000E+02  0.51100000000E-03 0.  1.
    9900012    2    1    2    0    0  0.42907702725E+02  0.64035076131E+01  0.12440121907E+01  0.47787269255E+02  0.19999991841E+02 0.  0.
        -12    1    1    2    0    0 -0.42907702725E+02 -0.64035076131E+01 -0.12440121907E+01  0.43400730745E+02  0.00000000000E+00 0.  1.
         11    1    3    3    0    0  0.19426478247E+02  0.34759868705E+01 -0.15620506708E+01  0.19796730649E+02  0.51100000000E-03 0. -1.
        -11    1    3    3    0    0  0.54002794284E+01  0.29227622490E+01  0.71199582578E+01  0.94020935393E+01  0.51100000000E-03 0.  1.
        -12    1    3    3    0    0  0.18080945049E+02  0.47584935970E-02 -0.43138953962E+01  0.18588445067E+02  0.00000000000E+00 0.  1.
</event>
<event>
 7    1  0.1714203E-010  0.4778727E+02  0.7816164E-02  0.1312668E+00
        -11   -1    0    0    0    0  0.00000000000E+00  0.00000000000E+00  0.45593999997E+02  0.45594000000E+02  0.51100000000E-03 0.  1.
         11   -1    0    0    0    0 -0.00000000000E+00 -0.00000000000E+00 -0.45593999997E+02  0.45594000000E+02  0.51100000000E-03 0. -1.
    9900012    2    1    2    0    0 -0.28294992784E+02  0.31198756074E+02  0.10471591719E+02  0.47787271545E+02  0.20000002284E+02 0.  0.
        -12    1    1    2    0    0  0.28294992784E+02 -0.31198756074E+02 -0.10471591719E+02  0.43400728455E+02  0.00000000000E+00 0.  1.
         11    1    3    3    0    0 -0.20366093222E+02  0.20308345803E+02 -0.41978147397E+00  0.28764263924E+02  0.51100000000E-03 0. -1.
        -11    1    3    3    0    0 -0.67367519789E+01  0.26940988231E+01  0.59098628685E+01  0.93578028981E+01  0.51100000000E-03 0.  1.
        -12    1    3    3    0    0 -0.11921475839E+01  0.81963114485E+01  0.49815103249E+01  0.96652047232E+01  0.00000000000E+00 0.  1.
</event>
<event>
 7    1  0.1714203E-010  0.4778727E+02  0.7816164E-02  0.1312668E+00
        -11   -1    0    0    0    0  0.00000000000E+00  0.00000000000E+00  0.45593999997E+02  0.45594000000E+02  0.51100000000E-03 0.  1.
         11   -1    0    0    0    0 -0.00000000000E+00 -0.00000000000E+00 -0.45593999997E+02  0.45594000000E+02  0.51100000000E-03 0. -1.
    9900012    2    1    2    0    0 -0.10295791436E+02  0.14093727724E+01 -0.42138268701E+02  0.47787270260E+02  0.19999996422E+02 0.  0.
        -12    1    1    2    0    0  0.10295791436E+02 -0.14093727724E+01  0.42138268701E+02  0.43400729740E+02  0.00000000000E+00 0.  1.
         11    1    3    3    0    0 -0.62232255931E+01  0.74638171556E+00 -0.26693732867E+02  0.27419719129E+02  0.51100000000E-03 0. -1.
        -11    1    3    3    0    0 -0.77417528268E+01 -0.23103462336E+01 -0.69894797500E+01  0.10682942665E+02  0.51100000000E-03 0.  1.
         12    1    3    3    0    0  0.36691869835E+01  0.29733372904E+01 -0.84550560834E+01  0.96846084658E+01  0.00000000000E+00 0. -1.
</event>
<event>
 7    1  0.1714203E-010  0.4778727E+02  0.7816164E-02  0.1312668E+00
        -11   -1    0    0    0    0  0.00000000000E+00  0.00000000000E+00  0.45593999997E+02  0.45594000000E+02  0.51100000000E-03 0.  1.
         11   -1    0    0    0    0 -0.00000000000E+00 -0.00000000000E+00 -0.45593999997E+02  0.45594000000E+02  0.51100000000E-03 0. -1.
    9900012    2    1    2    0    0  0.30696790887E+02 -0.14842809210E+02 -0.26851841881E+02  0.47787269955E+02  0.19999995035E+02 0.  0.
        -12    1    1    2    0    0 -0.30696790887E+02  0.14842809210E+02  0.26851841881E+02  0.43400730045E+02  0.00000000000E+00 0.  1.
         11    1    3    3    0    0  0.13386917412E+02 -0.52601120260E+01 -0.14097964629E+02  0.20140281608E+02  0.51100000000E-03 0. -1.
        -11    1    3    3    0    0  0.31448187109E+01 -0.98063753125E+01 -0.63619746601E+01  0.12104941277E+02  0.51100000000E-03 0.  1.
         12    1    3    3    0    0  0.14165054764E+02  0.22367812873E+00 -0.63919025923E+01  0.15542047070E+02  0.00000000000E+00 0. -1.
</event>
<event>
 7    1  0.1714203E-010  0.4778727E+02  0.7816164E-02  0.1312668E+00
        -11   -1    0    0    0    0  0.00000000000E+00  0.00000000000E+00  0.45593999997E+02  0.45594000000E+02  0.51100000000E-03 0.  1.
         11   -1    0    0    0    0 -0.00000000000E+00 -0.00000000000E+00 -0.45593999997E+02  0.45594000000E+02  0.51100000000E-03 0. -1.
    9900012    2    1    2    0    0  0.10320795237E+02 -0.34459107683E+02 -0.24283208628E+02  0.47787272611E+02  0.20000007144E+02 0.  0.
        -12    1    1    2    0    0 -0.10320795237E+02  0.34459107683E+02  0.24283208628E+02  0.43400727389E+02  0.00000000000E+00 0.  1.
         11    1    3    3    0    0 -0.53179498173E+01 -0.57481804323E+01 -0.73797170979E+01  0.10760222732E+02  0.51100000000E-03 0. -1.
        -11    1    3    3    0    0  0.42730358269E+01 -0.10914487215E+02 -0.46254897547E+01  0.12600794502E+02  0.51100000000E-03 0.  1.
         12    1    3    3    0    0  0.11365709227E+02 -0.17796440035E+02 -0.12278001775E+02  0.24426255377E+02  0.00000000000E+00 0. -1.
</event>
<event>
 7    1  0.1714203E-010  0.4778723E+02  0.7816164E-02  0.1312668E+00
        -11   -1    0    0    0    0  0.00000000000E+00  0.00000000000E+00  0.45593999997E+02  0.45594000000E+02  0.51100000000E-03 0. -1.
         11   -1    0    0    0    0 -0.00000000000E+00 -0.00000000000E+00 -0.45593999997E+02  0.45594000000E+02  0.51100000000E-03 0.  1.
    9900012    2    1    2    0    0 -0.28327302783E+01  0.77246715686E+01  0.42613751057E+02  0.47787231679E+02  0.19999820517E+02 0.  0.
        -12    1    1    2    0    0  0.28327302783E+01 -0.77246715686E+01 -0.42613751057E+02  0.43400768321E+02  0.00000000000E+00 0.  1.
         11    1    3    3    0    0  0.22181478922E+01  0.27464030610E+01  0.13374860036E+02  0.13832924170E+02  0.51100000000E-03 0. -1.
        -11    1    3    3    0    0  0.47862409484E+01  0.14249377472E+01  0.17652820958E+02  0.18345589062E+02  0.51100000000E-03 0.  1.
        -12    1    3    3    0    0 -0.98371191188E+01  0.35533307604E+01  0.11586070063E+02  0.15608718447E+02  0.00000000000E+00 0.  1.
</event>
<event>
 7    1  0.1714203E-010  0.4778727E+02  0.7816164E-02  0.1312668E+00
        -11   -1    0    0    0    0  0.00000000000E+00  0.00000000000E+00  0.45593999997E+02  0.45594000000E+02  0.51100000000E-03 0.  1.
         11   -1    0    0    0    0 -0.00000000000E+00 -0.00000000000E+00 -0.45593999997E+02  0.45594000000E+02  0.51100000000E-03 0. -1.
    9900012    2    1    2    0    0 -0.37937251566E+02  0.10048493563E+02  0.18531487260E+02  0.47787270752E+02  0.19999998665E+02 0.  0.
        -12    1    1    2    0    0  0.37937251566E+02 -0.10048493563E+02 -0.18531487260E+02  0.43400729248E+02  0.00000000000E+00 0.  1.
         11    1    3    3    0    0 -0.11971917904E+02  0.86270804089E+01  0.47572479729E+01  0.15504345946E+02  0.51100000000E-03 0. -1.
        -11    1    3    3    0    0 -0.11111526969E+02  0.94131462194E+00  0.13377878219E+02  0.17416076789E+02  0.51100000000E-03 0.  1.
        -12    1    3    3    0    0 -0.14853806692E+02  0.48009853180E+00  0.39636106820E+00  0.14866848017E+02  0.00000000000E+00 0.  1.
</event>
<event>
 7    1  0.1714203E-010  0.4778727E+02  0.7816164E-02  0.1312668E+00
        -11   -1    0    0    0    0  0.00000000000E+00  0.00000000000E+00  0.45593999997E+02  0.45594000000E+02  0.51100000000E-03 0.  1.
         11   -1    0    0    0    0 -0.00000000000E+00 -0.00000000000E+00 -0.45593999997E+02  0.45594000000E+02  0.51100000000E-03 0. -1.
    9900012    2    1    2    0    0  0.63286159252E+01  0.13292028601E+02 -0.40827613529E+02  0.47787269242E+02  0.19999991782E+02 0.  0.
        -12    1    1    2    0    0 -0.63286159252E+01 -0.13292028601E+02  0.40827613529E+02  0.43400730758E+02  0.00000000000E+00 0.  1.
         11    1    3    3    0    0 -0.32990369801E+01 -0.91473463771E+00 -0.59671364555E+01  0.68794696157E+01  0.51100000000E-03 0.  1.
        -11    1    3    3    0    0  0.36069728344E+01  0.10677687992E+02 -0.99364863481E+01  0.15025213312E+02  0.51100000000E-03 0. -1.
         12    1    3    3    0    0  0.60206800710E+01  0.35290752469E+01 -0.24923990725E+02  0.25882586314E+02  0.00000000000E+00 0. -1.
</event>
<event>
 7    1  0.1714203E-010  0.4778728E+02  0.7816164E-02  0.1312668E+00
        -11   -1    0    0    0    0  0.00000000000E+00  0.00000000000E+00  0.45593999997E+02  0.45594000000E+02  0.51100000000E-03 0.  1.
         11   -1    0    0    0    0 -0.00000000000E+00 -0.00000000000E+00 -0.45593999997E+02  0.45594000000E+02  0.51100000000E-03 0. -1.
    9900012    2    1    2    0    0  0.27548006366E+02 -0.30213395434E+02 -0.14556126651E+02  0.47787277178E+02  0.20000027966E+02 0.  0.
        -12    1    1    2    0    0 -0.27548006366E+02  0.30213395434E+02  0.14556126651E+02  0.43400722822E+02  0.00000000000E+00 0.  1.
         11    1    3    3    0    0  0.56342081376E+01 -0.12408517201E+02 -0.98130656234E+01  0.16793208676E+02  0.51100000000E-03 0. -1.
        -11    1    3    3    0    0  0.25687239245E+01  0.16617237004E+01  0.35685628976E+00  0.30800998246E+01  0.51100000000E-03 0.  1.
         12    1    3    3    0    0  0.19345074304E+02 -0.19466601933E+02 -0.50999173175E+01  0.27913968677E+02  0.00000000000E+00 0. -1.
</event>
<event>
 7    1  0.1714203E-010  0.4778727E+02  0.7816164E-02  0.1312668E+00
        -11   -1    0    0    0    0  0.00000000000E+00  0.00000000000E+00  0.45593999997E+02  0.45594000000E+02  0.51100000000E-03 0. -1.
         11   -1    0    0    0    0 -0.00000000000E+00 -0.00000000000E+00 -0.45593999997E+02  0.45594000000E+02  0.51100000000E-03 0.  1.
    9900012    2    1    2    0    0 -0.11051954625E+02  0.24695997045E+02  0.33935017453E+02  0.47787269815E+02  0.19999994394E+02 0.  0.
        -12    1    1    2    0    0  0.11051954625E+02 -0.24695997045E+02 -0.33935017453E+02  0.43400730185E+02  0.00000000000E+00 0.  1.
         11    1    3    3    0    0 -0.89120903332E+00  0.89518323099E+01  0.23047216907E+02  0.24740730844E+02  0.51100000000E-03 0. -1.
        -11    1    3    3    0    0  0.56464825594E+00  0.48898258104E+01  0.15675848133E+01  0.51659022946E+01  0.51100000000E-03 0.  1.
        -12    1    3    3    0    0 -0.10725393847E+02  0.10854338925E+02  0.93202157321E+01  0.17880636677E+02  0.00000000000E+00 0.  1.
</event>
<event>
 7    1  0.1714203E-010  0.4778727E+02  0.7816164E-02  0.1312668E+00
        -11   -1    0    0    0    0  0.00000000000E+00  0.00000000000E+00  0.45593999997E+02  0.45594000000E+02  0.51100000000E-03 0.  1.
         11   -1    0    0    0    0 -0.00000000000E+00 -0.00000000000E+00 -0.45593999997E+02  0.45594000000E+02  0.51100000000E-03 0. -1.
    9900012    2    1    2    0    0 -0.27564039513E+02  0.65343051267E+01 -0.32880842272E+02  0.47787271823E+02  0.20000003550E+02 0.  0.
        -12    1    1    2    0    0  0.27564039513E+02 -0.65343051267E+01  0.32880842272E+02  0.43400728177E+02  0.00000000000E+00 0.  1.
         11    1    3    3    0    0 -0.13393490310E+02  0.10528104953E+02 -0.21700637052E+02  0.27588842406E+02  0.51100000000E-03 0. -1.
        -11    1    3    3    0    0 -0.46889277086E-01 -0.26141240643E+01 -0.20720673798E+01  0.33360615575E+01  0.51100000000E-03 0.  1.
        -12    1    3    3    0    0 -0.14123659926E+02 -0.13796757625E+01 -0.91081378408E+01  0.16862367860E+02  0.00000000000E+00 0.  1.
</event>
<event>
 7    1  0.1714203E-010  0.4778728E+02  0.7816164E-02  0.1312668E+00
        -11   -1    0    0    0    0  0.00000000000E+00  0.00000000000E+00  0.45593999997E+02  0.45594000000E+02  0.51100000000E-03 0.  1.
         11   -1    0    0    0    0 -0.00000000000E+00 -0.00000000000E+00 -0.45593999997E+02  0.45594000000E+02  0.51100000000E-03 0. -1.
    9900012    2    1    2    0    0  0.12190324607E+02 -0.41628884171E+02  0.14334905585E+01  0.47787275276E+02  0.20000019294E+02 0.  0.
        -12    1    1    2    0    0 -0.12190324607E+02  0.41628884171E+02 -0.14334905585E+01  0.43400724724E+02  0.00000000000E+00 0.  1.
         11    1    3    3    0    0  0.42619809211E+01 -0.13469980281E+02 -0.10522907019E+01  0.14167292124E+02  0.51100000000E-03 0. -1.
        -11    1    3    3    0    0  0.11727769011E+02 -0.12738743314E+02 -0.10600456300E+01  0.17347617825E+02  0.51100000000E-03 0.  1.
         12    1    3    3    0    0 -0.37994253256E+01 -0.15420160577E+02  0.35458268904E+01  0.16272365327E+02  0.00000000000E+00 0. -1.
</event>
<event>
 7    1  0.1714203E-010  0.4778727E+02  0.7816164E-02  0.1312668E+00
        -11   -1    0    0    0    0  0.00000000000E+00  0.00000000000E+00  0.45593999997E+02  0.45594000000E+02  0.51100000000E-03 0. -1.
         11   -1    0    0    0    0 -0.00000000000E+00 -0.00000000000E+00 -0.45593999997E+02  0.45594000000E+02  0.51100000000E-03 0.  1.
    9900012    2    1    2    0    0  0.43048873801E+01  0.34796903780E+02  0.25578637258E+02  0.47787271296E+02  0.20000001147E+02 0.  0.
        -12    1    1    2    0    0 -0.43048873801E+01 -0.34796903780E+02 -0.25578637258E+02  0.43400728704E+02  0.00000000000E+00 0.  1.
         11    1    3    3    0    0 -0.21643632532E+01  0.68209498908E+01  0.93163338233E+01  0.11747506198E+02  0.51100000000E-03 0. -1.
        -11    1    3    3    0    0  0.13898837877E+01  0.25395930319E+02  0.16534797039E+02  0.30336192363E+02  0.51100000000E-03 0.  1.
        -12    1    3    3    0    0  0.50793668456E+01  0.25800235710E+01 -0.27249360435E+00  0.57035727350E+01  0.00000000000E+00 0.  1.
</event>
<event>
 7    1  0.1714203E-010  0.4778727E+02  0.7816164E-02  0.1312668E+00
        -11   -1    0    0    0    0  0.00000000000E+00  0.00000000000E+00  0.45593999997E+02  0.45594000000E+02  0.51100000000E-03 0. -1.
         11   -1    0    0    0    0 -0.00000000000E+00 -0.00000000000E+00 -0.45593999997E+02  0.45594000000E+02  0.51100000000E-03 0.  1.
    9900012    2    1    2    0    0 -0.33294107254E+02  0.25170762844E+02  0.11897829477E+02  0.47787271593E+02  0.20000002502E+02 0.  0.
        -12    1    1    2    0    0  0.33294107254E+02 -0.25170762844E+02 -0.11897829477E+02  0.43400728407E+02  0.00000000000E+00 0.  1.
         11    1    3    3    0    0 -0.18068383655E+02  0.55712879471E+01  0.15376580903E+01  0.18970243276E+02  0.51100000000E-03 0. -1.
        -11    1    3    3    0    0 -0.46286333044E+01  0.93199533208E+01 -0.60980473935E+00  0.10423897460E+02  0.51100000000E-03 0.  1.
        -12    1    3    3    0    0 -0.10597090295E+02  0.10279521576E+02  0.10969976126E+02  0.18393130858E+02  0.00000000000E+00 0.  1.
</event>
<event>
 7    1  0.1714203E-010  0.4778726E+02  0.7816164E-02  0.1312668E+00
        -11   -1    0    0    0    0  0.00000000000E+00  0.00000000000E+00  0.45593999997E+02  0.45594000000E+02  0.51100000000E-03 0.  1.
         11   -1    0    0    0    0 -0.00000000000E+00 -0.00000000000E+00 -0.45593999997E+02  0.45594000000E+02  0.51100000000E-03 0. -1.
    9900012    2    1    2    0    0 -0.32221044198E+02 -0.22413839005E+02 -0.18521553629E+02  0.47787264787E+02  0.19999971471E+02 0.  0.
        -12    1    1    2    0    0  0.32221044198E+02  0.22413839005E+02  0.18521553629E+02  0.43400735213E+02  0.00000000000E+00 0.  1.
         11    1    3    3    0    0  0.20531684492E+01 -0.79811233764E+00  0.13158834455E+01  0.25659371558E+01  0.51100000000E-03 0. -1.
        -11    1    3    3    0    0 -0.10337953835E+02 -0.52771897918E+01 -0.66979838900E+01  0.13400933178E+02  0.51100000000E-03 0.  1.
         12    1    3    3    0    0 -0.23936258812E+02 -0.16338536876E+02 -0.13139453184E+02  0.31820394453E+02  0.00000000000E+00 0. -1.
</event>
<event>
 7    1  0.1873992E-010  0.4778728E+02  0.7816164E-02  0.1312668E+00
        -11   -1    0    0    0    0  0.00000000000E+00  0.00000000000E+00  0.45593999997E+02  0.45594000000E+02  0.51100000000E-03 0.  1.
         11   -1    0    0    0    0 -0.00000000000E+00 -0.00000000000E+00 -0.45593999997E+02  0.45594000000E+02  0.51100000000E-03 0. -1.
    9900012    2    1    2    0    0 -0.28547760037E+02 -0.12925304771E+01 -0.32664611889E+02  0.47787284476E+02  0.20000061239E+02 0.  0.
        -12    1    1    2    0    0  0.28547760037E+02  0.12925304771E+01  0.32664611889E+02  0.43400715524E+02  0.00000000000E+00 0.  1.
         11    1    3    3    0    0 -0.11903480814E+02 -0.25481481125E+01 -0.13531482645E+02  0.18201289436E+02  0.51100000000E-03 0. -1.
        -11    1    3    3    0    0  0.21106022376E+01 -0.38940947005E+00 -0.66721576895E+01  0.70088494088E+01  0.51100000000E-03 0.  1.
        -12    1    3    3    0    0 -0.18754881460E+02  0.16450271055E+01 -0.12460971554E+02  0.22577145631E+02  0.00000000000E+00 0.  1.
</event>
<event>
 7    1  0.1714203E-010  0.4778725E+02  0.7816164E-02  0.1312668E+00
        -11   -1    0    0    0    0  0.00000000000E+00  0.00000000000E+00  0.45593999997E+02  0.45594000000E+02  0.51100000000E-03 0. -1.
         11   -1    0    0    0    0 -0.00000000000E+00 -0.00000000000E+00 -0.45593999997E+02  0.45594000000E+02  0.51100000000E-03 0.  1.
    9900012    2    1    2    0    0 -0.25531341265E+02 -0.31359255894E+02  0.15759836545E+02  0.47787253867E+02  0.19999921681E+02 0.  0.
        -12    1    1    2    0    0  0.25531341265E+02  0.31359255894E+02 -0.15759836545E+02  0.43400746133E+02  0.00000000000E+00 0.  1.
         11    1    3    3    0    0 -0.30457234167E+01  0.66910523425E+00  0.35121793923E+01  0.46967581682E+01  0.51100000000E-03 0. -1.
        -11    1    3    3    0    0 -0.31848120985E+01 -0.15332984133E+02  0.29878053346E+01  0.15942722838E+02  0.51100000000E-03 0.  1.
        -12    1    3    3    0    0 -0.19300805750E+02 -0.16695376995E+02  0.92598518177E+01  0.27147772861E+02  0.00000000000E+00 0.  1.
</event>
<event>
 7    1  0.1714203E-010  0.4778727E+02  0.7816164E-02  0.1312668E+00
        -11   -1    0    0    0    0  0.00000000000E+00  0.00000000000E+00  0.45593999997E+02  0.45594000000E+02  0.51100000000E-03 0.  1.
         11   -1    0    0    0    0 -0.00000000000E+00 -0.00000000000E+00 -0.45593999997E+02  0.45594000000E+02  0.51100000000E-03 0. -1.
    9900012    2    1    2    0    0  0.32762614666E+02  0.17366830376E+02 -0.22552771734E+02  0.47787271550E+02  0.20000002306E+02 0.  0.
        -12    1    1    2    0    0 -0.32762614666E+02 -0.17366830376E+02  0.22552771734E+02  0.43400728450E+02  0.00000000000E+00 0.  1.
         11    1    3    3    0    0  0.85043651120E+01  0.68290457356E+01 -0.86363841370E+01  0.13912125030E+02  0.51100000000E-03 0. -1.
        -11    1    3    3    0    0  0.12456284642E+02 -0.14602822726E+01 -0.85329322695E+00  0.12570583161E+02  0.51100000000E-03 0.  1.
        -12    1    3    3    0    0  0.11801964912E+02  0.11998066913E+02 -0.13063094370E+02  0.21304563360E+02  0.00000000000E+00 0.  1.
</event>
<event>
 7    1  0.1714203E-010  0.4778727E+02  0.7816164E-02  0.1312668E+00
        -11   -1    0    0    0    0  0.00000000000E+00  0.00000000000E+00  0.45593999997E+02  0.45594000000E+02  0.51100000000E-03 0. -1.
         11   -1    0    0    0    0 -0.00000000000E+00 -0.00000000000E+00 -0.45593999997E+02  0.45594000000E+02  0.51100000000E-03 0.  1.
    9900012    2    1    2    0    0 -0.47425732961E+01  0.24097291944E+02  0.35783401384E+02  0.47787270800E+02  0.19999998887E+02 0.  0.
        -12    1    1    2    0    0  0.47425732961E+01 -0.24097291944E+02 -0.35783401384E+02  0.43400729200E+02  0.00000000000E+00 0.  1.
         11    1    3    3    0    0 -0.74993794702E+01  0.64361380141E+01  0.69484685004E+01  0.12080802115E+02  0.51100000000E-03 0. -1.
        -11    1    3    3    0    0 -0.10032243519E+00  0.37139428516E+01  0.16362467107E+02  0.16778967971E+02  0.51100000000E-03 0.  1.
        -12    1    3    3    0    0  0.28571286093E+01  0.13947211078E+02  0.12472465777E+02  0.18927500714E+02  0.00000000000E+00 0.  1.
</event>
<event>
 7    1  0.1714203E-010  0.4778727E+02  0.7816164E-02  0.1312668E+00
        -11   -1    0    0    0    0  0.00000000000E+00  0.00000000000E+00  0.45593999997E+02  0.45594000000E+02  0.51100000000E-03 0.  1.
         11   -1    0    0    0    0 -0.00000000000E+00 -0.00000000000E+00 -0.45593999997E+02  0.45594000000E+02  0.51100000000E-03 0. -1.
    9900012    2    1    2    0    0  0.18474049953E+01  0.54135248581E+01 -0.43022140195E+02  0.47787266094E+02  0.19999977429E+02 0.  0.
        -12    1    1    2    0    0 -0.18474049953E+01 -0.54135248581E+01  0.43022140195E+02  0.43400733906E+02  0.00000000000E+00 0.  1.
         11    1    3    3    0    0  0.19139249326E+01 -0.39584076151E+01 -0.40063806584E+01  0.59483767311E+01  0.51100000000E-03 0. -1.
        -11    1    3    3    0    0  0.46505479174E+01  0.71667019647E+01 -0.14974675081E+02  0.17240362729E+02  0.51100000000E-03 0.  1.
        -12    1    3    3    0    0 -0.47170678546E+01  0.22052305085E+01 -0.24041084456E+02  0.24598526634E+02  0.00000000000E+00 0.  1.
</event>
<event>
 7    1  0.1714203E-010  0.4778727E+02  0.7816164E-02  0.1312668E+00
        -11   -1    0    0    0    0  0.00000000000E+00  0.00000000000E+00  0.45593999997E+02  0.45594000000E+02  0.51100000000E-03 0.  1.
         11   -1    0    0    0    0 -0.00000000000E+00 -0.00000000000E+00 -0.45593999997E+02  0.45594000000E+02  0.51100000000E-03 0. -1.
    9900012    2    1    2    0    0 -0.13030372161E+02  0.27303182041E+02 -0.31118631139E+02  0.47787267839E+02  0.19999985384E+02 0.  0.
        -12    1    1    2    0    0  0.13030372161E+02 -0.27303182041E+02  0.31118631139E+02  0.43400732161E+02  0.00000000000E+00 0.  1.
         11    1    3    3    0    0 -0.22680297936E+01  0.10615896898E+02 -0.11079488595E+02  0.15511166748E+02  0.51100000000E-03 0. -1.
        -11    1    3    3    0    0 -0.16209011516E+01  0.34421233356E+01  0.25209329253E+01  0.45640592323E+01  0.51100000000E-03 0.  1.
        -12    1    3    3    0    0 -0.91414412155E+01  0.13245161807E+02 -0.22560075469E+02  0.27712041858E+02  0.00000000000E+00 0.  1.
</event>
<event>
 7    1  0.1714203E-010  0.4778727E+02  0.7816164E-02  0.1312668E+00
        -11   -1    0    0    0    0  0.00000000000E+00  0.00000000000E+00  0.45593999997E+02  0.45594000000E+02  0.51100000000E-03 0.  1.
         11   -1    0    0    0    0 -0.00000000000E+00 -0.00000000000E+00 -0.45593999997E+02  0.45594000000E+02  0.51100000000E-03 0. -1.
    9900012    2    1    2    0    0  0.38132341908E+02 -0.18304450747E+01 -0.20644541955E+02  0.47787272574E+02  0.20000006976E+02 0.  0.
        -12    1    1    2    0    0 -0.38132341908E+02  0.18304450747E+01  0.20644541955E+02  0.43400727426E+02  0.00000000000E+00 0.  1.
         11    1    3    3    0    0  0.24926066859E+02 -0.31269729477E+00 -0.19139102726E+02  0.31427883194E+02  0.51100000000E-03 0. -1.
        -11    1    3    3    0    0 -0.11289230685E+01 -0.13203336357E+01 -0.10202775340E+01  0.20146252038E+01  0.51100000000E-03 0.  1.
        -12    1    3    3    0    0  0.14335198117E+02 -0.19741414422E+00 -0.48516169512E+00  0.14344764177E+02  0.00000000000E+00 0.  1.
</event>
<event>
 7    1  0.1714203E-010  0.4778727E+02  0.7816164E-02  0.1312668E+00
        -11   -1    0    0    0    0  0.00000000000E+00  0.00000000000E+00  0.45593999997E+02  0.45594000000E+02  0.51100000000E-03 0.  1.
         11   -1    0    0    0    0 -0.00000000000E+00 -0.00000000000E+00 -0.45593999997E+02  0.45594000000E+02  0.51100000000E-03 0. -1.
    9900012    2    1    2    0    0  0.39599448350E+02  0.13140616330E+02 -0.11951192278E+02  0.47787273001E+02  0.20000008921E+02 0.  0.
        -12    1    1    2    0    0 -0.39599448350E+02 -0.13140616330E+02  0.11951192278E+02  0.43400726999E+02  0.00000000000E+00 0.  1.
         11    1    3    3    0    0  0.25294543189E+01  0.27890370519E+01  0.16703144263E+01  0.41190796753E+01  0.51100000000E-03 0. -1.
        -11    1    3    3    0    0 -0.44891932749E+00  0.46391331007E+00  0.18027422810E+01  0.19148431045E+01  0.51100000000E-03 0.  1.
        -12    1    3    3    0    0  0.37518913359E+02  0.98876659684E+01 -0.15424248986E+02  0.41753350221E+02  0.00000000000E+00 0.  1.
</event>
<event>
 7    1  0.1714203E-010  0.4778727E+02  0.7816164E-02  0.1312668E+00
        -11   -1    0    0    0    0  0.00000000000E+00  0.00000000000E+00  0.45593999997E+02  0.45594000000E+02  0.51100000000E-03 0.  1.
         11   -1    0    0    0    0 -0.00000000000E+00 -0.00000000000E+00 -0.45593999997E+02  0.45594000000E+02  0.51100000000E-03 0. -1.
    9900012    2    1    2    0    0  0.37241605623E+02 -0.22044197665E+02  0.32771348341E+01  0.47787268984E+02  0.19999990605E+02 0.  0.
        -12    1    1    2    0    0 -0.37241605623E+02  0.22044197665E+02 -0.32771348341E+01  0.43400731016E+02  0.00000000000E+00 0.  1.
         11    1    3    3    0    0  0.32579515717E+02 -0.10228514402E+02  0.45192336529E+01  0.34445185793E+02  0.51100000000E-03 0. -1.
        -11    1    3    3    0    0  0.53553660061E+01 -0.10114086812E+02 -0.98408407033E+00  0.11486649591E+02  0.51100000000E-03 0.  1.
        -12    1    3    3    0    0 -0.69327610105E+00 -0.17015964511E+01 -0.25801474850E+00  0.18554336003E+01  0.00000000000E+00 0.  1.
</event>
<event>
 7    1  0.1714203E-010  0.4778728E+02  0.7816164E-02  0.1312668E+00
        -11   -1    0    0    0    0  0.00000000000E+00  0.00000000000E+00  0.45593999997E+02  0.45594000000E+02  0.51100000000E-03 0.  1.
         11   -1    0    0    0    0 -0.00000000000E+00 -0.00000000000E+00 -0.45593999997E+02  0.45594000000E+02  0.51100000000E-03 0. -1.
    9900012    2    1    2    0    0  0.30519415298E+02  0.18427474560E+02 -0.24751083403E+02  0.47787278135E+02  0.20000032329E+02 0.  0.
        -12    1    1    2    0    0 -0.30519415298E+02 -0.18427474560E+02  0.24751083403E+02  0.43400721865E+02  0.00000000000E+00 0.  1.
         11    1    3    3    0    0  0.17778709063E+02  0.15350587532E+02 -0.18778707342E+02  0.30072626810E+02  0.51100000000E-03 0. -1.
        -11    1    3    3    0    0 -0.33894195212E+00  0.30785794643E+01  0.47310491812E+00  0.31331073537E+01  0.51100000000E-03 0.  1.
         12    1    3    3    0    0  0.13079648187E+02 -0.16924357422E-02 -0.64454809789E+01  0.14581543972E+02  0.00000000000E+00 0. -1.
</event>
<event>
 7    1  0.1714203E-010  0.4778728E+02  0.7816164E-02  0.1312668E+00
        -11   -1    0    0    0    0  0.00000000000E+00  0.00000000000E+00  0.45593999997E+02  0.45594000000E+02  0.51100000000E-03 0. -1.
         11   -1    0    0    0    0 -0.00000000000E+00 -0.00000000000E+00 -0.45593999997E+02  0.45594000000E+02  0.51100000000E-03 0.  1.
    9900012    2    1    2    0    0 -0.26992194214E+02  0.17496238743E+02  0.29136330480E+02  0.47787277973E+02  0.20000031589E+02 0.  0.
        -12    1    1    2    0    0  0.26992194214E+02 -0.17496238743E+02 -0.29136330480E+02  0.43400722027E+02  0.00000000000E+00 0.  1.
         11    1    3    3    0    0 -0.24249231784E+02  0.16284142293E+02  0.29518192406E+02  0.41527367067E+02  0.51100000000E-03 0. -1.
        -11    1    3    3    0    0 -0.18595838544E+01 -0.20715446238E+01  0.27270908464E+00  0.27970913009E+01  0.51100000000E-03 0.  1.
        -12    1    3    3    0    0 -0.88337857534E+00  0.32836410733E+01 -0.65457101064E+00  0.34628196045E+01  0.00000000000E+00 0.  1.
</event>
<event>
 7    1  0.1714203E-010  0.4778727E+02  0.7816164E-02  0.1312668E+00
        -11   -1    0    0    0    0  0.00000000000E+00  0.00000000000E+00  0.45593999997E+02  0.45594000000E+02  0.51100000000E-03 0. -1.
         11   -1    0    0    0    0 -0.00000000000E+00 -0.00000000000E+00 -0.45593999997E+02  0.45594000000E+02  0.51100000000E-03 0.  1.
    9900012    2    1    2    0    0  0.92589115092E+01  0.24335928962E+02  0.34722591936E+02  0.47787271072E+02  0.20000000124E+02 0.  0.
        -12    1    1    2    0    0 -0.92589115092E+01 -0.24335928962E+02 -0.34722591936E+02  0.43400728928E+02  0.00000000000E+00 0.  1.
         11    1    3    3    0    0  0.52616571320E+00  0.50875406642E+01  0.19553146353E+02  0.20211023055E+02  0.51100000000E-03 0.  1.
        -11    1    3    3    0    0  0.55905213979E+01  0.12782978462E+02  0.14856751365E+02  0.20380910903E+02  0.51100000000E-03 0. -1.
        -12    1    3    3    0    0  0.31422243981E+01  0.64654098351E+01  0.31269421827E+00  0.71953371136E+01  0.00000000000E+00 0.  1.
</event>
<event>
 7    1  0.1714203E-010  0.4778727E+02  0.7816164E-02  0.1312668E+00
        -11   -1    0    0    0    0  0.00000000000E+00  0.00000000000E+00  0.45593999997E+02  0.45594000000E+02  0.51100000000E-03 0.  1.
         11   -1    0    0    0    0 -0.00000000000E+00 -0.00000000000E+00 -0.45593999997E+02  0.45594000000E+02  0.51100000000E-03 0. -1.
    9900012    2    1    2    0    0  0.40349090262E+02  0.32305346421E+01 -0.15656873154E+02  0.47787272863E+02  0.20000008292E+02 0.  0.
        -12    1    1    2    0    0 -0.40349090262E+02 -0.32305346421E+01  0.15656873154E+02  0.43400727137E+02  0.00000000000E+00 0.  1.
         11    1    3    3    0    0  0.58307638530E+01 -0.22826555608E+01 -0.35270217364E+01  0.71866686377E+01  0.51100000000E-03 0. -1.
        -11    1    3    3    0    0  0.11328885698E+02  0.16367398694E+01 -0.12680859303E+02  0.17082937730E+02  0.51100000000E-03 0.  1.
         12    1    3    3    0    0  0.23189440711E+02  0.38764503335E+01  0.55100788632E+00  0.23517666495E+02  0.00000000000E+00 0. -1.
</event>
<event>
 7    1  0.1714203E-010  0.4778727E+02  0.7816164E-02  0.1312668E+00
        -11   -1    0    0    0    0  0.00000000000E+00  0.00000000000E+00  0.45593999997E+02  0.45594000000E+02  0.51100000000E-03 0. -1.
         11   -1    0    0    0    0 -0.00000000000E+00 -0.00000000000E+00 -0.45593999997E+02  0.45594000000E+02  0.51100000000E-03 0.  1.
    9900012    2    1    2    0    0  0.42443614800E+02 -0.75709181129E+01 -0.49843502490E+01  0.47787274364E+02  0.20000015133E+02 0.  0.
        -12    1    1    2    0    0 -0.42443614800E+02  0.75709181129E+01  0.49843502490E+01  0.43400725636E+02  0.00000000000E+00 0.  1.
         11    1    3    3    0    0  0.20054685692E+02  0.31202084105E+01  0.24696043638E+00  0.20297465567E+02  0.51100000000E-03 0. -1.
        -11    1    3    3    0    0  0.86556877617E+01  0.12991958395E+01 -0.14811367680E+01  0.88770832397E+01  0.51100000000E-03 0.  1.
        -12    1    3    3    0    0  0.13733241346E+02 -0.11990322363E+02 -0.37501739174E+01  0.18612725557E+02  0.00000000000E+00 0.  1.
</event>
<event>
 7    1  0.1714203E-010  0.4778727E+02  0.7816164E-02  0.1312668E+00
        -11   -1    0    0    0    0  0.00000000000E+00  0.00000000000E+00  0.45593999997E+02  0.45594000000E+02  0.51100000000E-03 0.  1.
         11   -1    0    0    0    0 -0.00000000000E+00 -0.00000000000E+00 -0.45593999997E+02  0.45594000000E+02  0.51100000000E-03 0. -1.
    9900012    2    1    2    0    0  0.16758941831E+02  0.34454532292E+02 -0.20387409488E+02  0.47787269679E+02  0.19999993774E+02 0.  0.
        -12    1    1    2    0    0 -0.16758941831E+02 -0.34454532292E+02  0.20387409488E+02  0.43400730321E+02  0.00000000000E+00 0.  1.
         11    1    3    3    0    0  0.97589770830E+00  0.67088137513E+01  0.50458989908E+00  0.67981739838E+01  0.51100000000E-03 0. -1.
        -11    1    3    3    0    0  0.15353874159E+02  0.12182204370E+02 -0.13138093210E+02  0.23595699787E+02  0.51100000000E-03 0.  1.
         12    1    3    3    0    0  0.42916996417E+00  0.15563514171E+02 -0.77539061773E+01  0.17393395908E+02  0.00000000000E+00 0. -1.
</event>
<event>
 7    1  0.1714203E-010  0.4778727E+02  0.7816164E-02  0.1312668E+00
        -11   -1    0    0    0    0  0.00000000000E+00  0.00000000000E+00  0.45593999997E+02  0.45594000000E+02  0.51100000000E-03 0.  1.
         11   -1    0    0    0    0 -0.00000000000E+00 -0.00000000000E+00 -0.45593999997E+02  0.45594000000E+02  0.51100000000E-03 0. -1.
    9900012    2    1    2    0    0 -0.97839156433E+00  0.73860216911E+01 -0.42756433215E+02  0.47787272497E+02  0.20000006624E+02 0.  0.
        -12    1    1    2    0    0  0.97839156433E+00 -0.73860216911E+01  0.42756433215E+02  0.43400727503E+02  0.00000000000E+00 0.  1.
         11    1    3    3    0    0 -0.54741015374E+01  0.53449351019E+00 -0.23326978151E+02  0.23966630570E+02  0.51100000000E-03 0. -1.
        -11    1    3    3    0    0 -0.34212267820E+01  0.42311222559E+01 -0.75686500799E+01  0.93215692097E+01  0.51100000000E-03 0.  1.
         12    1    3    3    0    0  0.79169367550E+01  0.26204059250E+01 -0.11860804984E+02  0.14499072717E+02  0.00000000000E+00 0. -1.
</event>
<event>
 7    1  0.1714203E-010  0.4778727E+02  0.7816164E-02  0.1312668E+00
        -11   -1    0    0    0    0  0.00000000000E+00  0.00000000000E+00  0.45593999997E+02  0.45594000000E+02  0.51100000000E-03 0. -1.
         11   -1    0    0    0    0 -0.00000000000E+00 -0.00000000000E+00 -0.45593999997E+02  0.45594000000E+02  0.51100000000E-03 0.  1.
    9900012    2    1    2    0    0  0.19079825880E+02  0.16749557401E+02  0.35199943698E+02  0.47787268842E+02  0.19999989956E+02 0.  0.
        -12    1    1    2    0    0 -0.19079825880E+02 -0.16749557401E+02 -0.35199943698E+02  0.43400731158E+02  0.00000000000E+00 0.  1.
         11    1    3    3    0    0  0.40118428573E+01  0.29941535183E+01  0.14472071174E+02  0.15313415123E+02  0.51100000000E-03 0.  1.
        -11    1    3    3    0    0  0.92426410928E+01  0.54448397954E+01  0.19493521335E+02  0.22250170091E+02  0.51100000000E-03 0. -1.
        -12    1    3    3    0    0  0.58253419302E+01  0.83105640878E+01  0.12343511884E+01  0.10223683628E+02  0.00000000000E+00 0.  1.
</event>
<event>
 7    1  0.1714203E-010  0.4778727E+02  0.7816164E-02  0.1312668E+00
        -11   -1    0    0    0    0  0.00000000000E+00  0.00000000000E+00  0.45593999997E+02  0.45594000000E+02  0.51100000000E-03 0.  1.
         11   -1    0    0    0    0 -0.00000000000E+00 -0.00000000000E+00 -0.45593999997E+02  0.45594000000E+02  0.51100000000E-03 0. -1.
    9900012    2    1    2    0    0 -0.11774072796E+02  0.47963329698E+01 -0.41496860585E+02  0.47787273755E+02  0.20000012361E+02 0.  0.
        -12    1    1    2    0    0  0.11774072796E+02 -0.47963329698E+01  0.41496860585E+02  0.43400726245E+02  0.00000000000E+00 0.  1.
         11    1    3    3    0    0  0.23137518736E+01  0.11692640105E+01 -0.18340440825E+01  0.31755856179E+01  0.51100000000E-03 0. -1.
        -11    1    3    3    0    0 -0.39343393811E+01 -0.62734405103E+00 -0.60211758949E+00  0.40292844001E+01  0.51100000000E-03 0.  1.
         12    1    3    3    0    0 -0.10153485288E+02  0.42544130103E+01 -0.39060698913E+02  0.40582403738E+02  0.00000000000E+00 0. -1.
</event>
<event>
 7    1  0.1714203E-010  0.4778724E+02  0.7816164E-02  0.1312668E+00
        -11   -1    0    0    0    0  0.00000000000E+00  0.00000000000E+00  0.45593999997E+02  0.45594000000E+02  0.51100000000E-03 0.  1.
         11   -1    0    0    0    0 -0.00000000000E+00 -0.00000000000E+00 -0.45593999997E+02  0.45594000000E+02  0.51100000000E-03 0. -1.
    9900012    2    1    2    0    0 -0.42108344058E+02 -0.10512332495E+02  0.65492260480E-01  0.47787238912E+02  0.19999853496E+02 0.  0.
        -12    1    1    2    0    0  0.42108344058E+02  0.10512332495E+02 -0.65492260480E-01  0.43400761088E+02  0.00000000000E+00 0.  1.
         11    1    3    3    0    0 -0.91227440859E+01 -0.69054216443E+01 -0.73376721006E+01  0.13592304435E+02  0.51100000000E-03 0.  1.
        -11    1    3    3    0    0 -0.16820434094E+02 -0.20012984027E-01  0.34303780249E+01  0.17166679856E+02  0.51100000000E-03 0. -1.
        -12    1    3    3    0    0 -0.16165165878E+02 -0.35868978662E+01  0.39727863361E+01  0.17028254621E+02  0.00000000000E+00 0.  1.
</event>
<event>
 7    1  0.1714203E-010  0.4778726E+02  0.7816164E-02  0.1312668E+00
        -11   -1    0    0    0    0  0.00000000000E+00  0.00000000000E+00  0.45593999997E+02  0.45594000000E+02  0.51100000000E-03 0. -1.
         11   -1    0    0    0    0 -0.00000000000E+00 -0.00000000000E+00 -0.45593999997E+02  0.45594000000E+02  0.51100000000E-03 0.  1.
    9900012    2    1    2    0    0  0.65096741954E+01 -0.31777972194E+02  0.28834166164E+02  0.47787256766E+02  0.19999934900E+02 0.  0.
        -12    1    1    2    0    0 -0.65096741954E+01  0.31777972194E+02 -0.28834166164E+02  0.43400743234E+02  0.00000000000E+00 0.  1.
         11    1    3    3    0    0  0.59985939600E+00 -0.11186514515E+02  0.39389242529E+01  0.11874892118E+02  0.51100000000E-03 0.  1.
        -11    1    3    3    0    0  0.41297099083E+01 -0.22651222027E+02  0.21020203437E+02  0.31176614890E+02  0.51100000000E-03 0. -1.
        -12    1    3    3    0    0  0.17801048911E+01  0.20597643480E+01  0.38750384739E+01  0.47357497576E+01  0.00000000000E+00 0.  1.
</event>
<event>
 7    1  0.1714203E-010  0.4778727E+02  0.7816164E-02  0.1312668E+00
        -11   -1    0    0    0    0  0.00000000000E+00  0.00000000000E+00  0.45593999997E+02  0.45594000000E+02  0.51100000000E-03 0. -1.
         11   -1    0    0    0    0 -0.00000000000E+00 -0.00000000000E+00 -0.45593999997E+02  0.45594000000E+02  0.51100000000E-03 0.  1.
    9900012    2    1    2    0    0 -0.16245500311E+02 -0.28069680214E+02  0.28840944097E+02  0.47787270926E+02  0.19999999462E+02 0.  0.
        -12    1    1    2    0    0  0.16245500311E+02  0.28069680214E+02 -0.28840944097E+02  0.43400729074E+02  0.00000000000E+00 0.  1.
         11    1    3    3    0    0 -0.68654663581E+01 -0.85058819995E+01  0.32976515979E+01  0.11417493737E+02  0.51100000000E-03 0. -1.
        -11    1    3    3    0    0 -0.65126851179E+01 -0.75453363402E+00  0.42447329107E+01  0.78103870707E+01  0.51100000000E-03 0.  1.
         12    1    3    3    0    0 -0.28673488351E+01 -0.18809264581E+02  0.21298559589E+02  0.28559390119E+02  0.00000000000E+00 0. -1.
</event>
<event>
 7    1  0.1714203E-010  0.4778727E+02  0.7816164E-02  0.1312668E+00
        -11   -1    0    0    0    0  0.00000000000E+00  0.00000000000E+00  0.45593999997E+02  0.45594000000E+02  0.51100000000E-03 0. -1.
         11   -1    0    0    0    0 -0.00000000000E+00 -0.00000000000E+00 -0.45593999997E+02  0.45594000000E+02  0.51100000000E-03 0.  1.
    9900012    2    1    2    0    0 -0.11745231622E+02  0.41263705051E+02 -0.65558964121E+01  0.47787267308E+02  0.19999982965E+02 0.  0.
        -12    1    1    2    0    0  0.11745231622E+02 -0.41263705051E+02  0.65558964121E+01  0.43400732692E+02  0.00000000000E+00 0.  1.
         11    1    3    3    0    0  0.20660415311E+01  0.16792282361E+02  0.16473032274E+00  0.16919704810E+02  0.51100000000E-03 0. -1.
        -11    1    3    3    0    0  0.17433505801E+01  0.11332952342E+01 -0.53016909896E+00  0.21458585386E+01  0.51100000000E-03 0.  1.
        -12    1    3    3    0    0 -0.15554623733E+02  0.23338127456E+02 -0.61904576359E+01  0.28721703960E+02  0.00000000000E+00 0.  1.
</event>
<event>
 7    1  0.1714203E-010  0.4778727E+02  0.7816164E-02  0.1312668E+00
        -11   -1    0    0    0    0  0.00000000000E+00  0.00000000000E+00  0.45593999997E+02  0.45594000000E+02  0.51100000000E-03 0.  1.
         11   -1    0    0    0    0 -0.00000000000E+00 -0.00000000000E+00 -0.45593999997E+02  0.45594000000E+02  0.51100000000E-03 0. -1.
    9900012    2    1    2    0    0 -0.15424080173E+02 -0.27885597937E+02 -0.29463781212E+02  0.47787271610E+02  0.20000002580E+02 0.  0.
        -12    1    1    2    0    0  0.15424080173E+02  0.27885597937E+02  0.29463781212E+02  0.43400728390E+02  0.00000000000E+00 0.  1.
         11    1    3    3    0    0 -0.15031008294E+02 -0.23273264173E+02 -0.29566344716E+02  0.40518449819E+02  0.51100000000E-03 0. -1.
        -11    1    3    3    0    0  0.11371820710E+01 -0.52311352857E+01 -0.75902228932E+00  0.54068544031E+01  0.51100000000E-03 0.  1.
         12    1    3    3    0    0 -0.15302539497E+01  0.61880152136E+00  0.86158579419E+00  0.18619673880E+01  0.00000000000E+00 0. -1.
</event>
<event>
 7    1  0.1714203E-010  0.4778727E+02  0.7816164E-02  0.1312668E+00
        -11   -1    0    0    0    0  0.00000000000E+00  0.00000000000E+00  0.45593999997E+02  0.45594000000E+02  0.51100000000E-03 0.  1.
         11   -1    0    0    0    0 -0.00000000000E+00 -0.00000000000E+00 -0.45593999997E+02  0.45594000000E+02  0.51100000000E-03 0. -1.
    9900012    2    1    2    0    0  0.16706913563E+01 -0.25725799719E+01 -0.43292189536E+02  0.47787273599E+02  0.20000011648E+02 0.  0.
        -12    1    1    2    0    0 -0.16706913563E+01  0.25725799719E+01  0.43292189536E+02  0.43400726401E+02  0.00000000000E+00 0.  1.
         11    1    3    3    0    0 -0.51847309162E+01 -0.24633525794E+01 -0.17118830319E+02  0.18055577874E+02  0.51100000000E-03 0. -1.
        -11    1    3    3    0    0  0.41509559466E+01 -0.50316117217E+01 -0.62573720890E+01  0.90389301087E+01  0.51100000000E-03 0.  1.
        -12    1    3    3    0    0  0.27044663260E+01  0.49223843291E+01 -0.19915987128E+02  0.20692765617E+02  0.00000000000E+00 0.  1.
</event>
<event>
 7    1  0.1714203E-010  0.4778728E+02  0.7816164E-02  0.1312668E+00
        -11   -1    0    0    0    0  0.00000000000E+00  0.00000000000E+00  0.45593999997E+02  0.45594000000E+02  0.51100000000E-03 0.  1.
         11   -1    0    0    0    0 -0.00000000000E+00 -0.00000000000E+00 -0.45593999997E+02  0.45594000000E+02  0.51100000000E-03 0. -1.
    9900012    2    1    2    0    0 -0.21163213591E+02 -0.93149865749E+00 -0.37879720713E+02  0.47787279493E+02  0.20000038518E+02 0.  0.
        -12    1    1    2    0    0  0.21163213591E+02  0.93149865749E+00  0.37879720713E+02  0.43400720507E+02  0.00000000000E+00 0.  1.
         11    1    3    3    0    0 -0.14712653710E+01 -0.17267095673E+00 -0.30199341202E+01  0.33636943088E+01  0.51100000000E-03 0. -1.
        -11    1    3    3    0    0 -0.89831877311E+01  0.14803973956E+01 -0.31779409097E+02  0.33057829346E+02  0.51100000000E-03 0.  1.
        -12    1    3    3    0    0 -0.10708760489E+02 -0.22392250964E+01 -0.30803774960E+01  0.11365755838E+02  0.00000000000E+00 0.  1.
</event>
<event>
 7    1  0.1714203E-010  0.4778727E+02  0.7816164E-02  0.1312668E+00
        -11   -1    0    0    0    0  0.00000000000E+00  0.00000000000E+00  0.45593999997E+02  0.45594000000E+02  0.51100000000E-03 0.  1.
         11   -1    0    0    0    0 -0.00000000000E+00 -0.00000000000E+00 -0.45593999997E+02  0.45594000000E+02  0.51100000000E-03 0. -1.
    9900012    2    1    2    0    0  0.20906081364E+02  0.29231742480E+02 -0.24332377537E+02  0.47787267252E+02  0.19999982710E+02 0.  0.
        -12    1    1    2    0    0 -0.20906081364E+02 -0.29231742480E+02  0.24332377537E+02  0.43400732748E+02  0.00000000000E+00 0.  1.
         11    1    3    3    0    0  0.16007966876E+02  0.96733551832E+01 -0.77513719812E+01  0.20246297732E+02  0.51100000000E-03 0. -1.
        -11    1    3    3    0    0  0.10039570805E+01  0.71193584514E+01 -0.10513598637E+01  0.72662612397E+01  0.51100000000E-03 0.  1.
        -12    1    3    3    0    0  0.38941574073E+01  0.12439028845E+02 -0.15529645692E+02  0.20274708280E+02  0.00000000000E+00 0.  1.
</event>
<event>
 7    1  0.1714203E-010  0.4778727E+02  0.7816164E-02  0.1312668E+00
        -11   -1    0    0    0    0  0.00000000000E+00  0.00000000000E+00  0.45593999997E+02  0.45594000000E+02  0.51100000000E-03 0.  1.
         11   -1    0    0    0    0 -0.00000000000E+00 -0.00000000000E+00 -0.45593999997E+02  0.45594000000E+02  0.51100000000E-03 0. -1.
    9900012    2    1    2    0    0 -0.29333470141E+02  0.11423129515E+02 -0.29877802935E+02  0.47787268824E+02  0.19999989875E+02 0.  0.
        -12    1    1    2    0    0  0.29333470141E+02 -0.11423129515E+02  0.29877802935E+02  0.43400731176E+02  0.00000000000E+00 0.  1.
         11    1    3    3    0    0 -0.17241997712E+02  0.89127283870E+00 -0.12584894976E+02  0.21364934687E+02  0.51100000000E-03 0. -1.
        -11    1    3    3    0    0 -0.12971175278E+02  0.43155923408E+01 -0.11181110482E+02  0.17660491420E+02  0.51100000000E-03 0.  1.
        -12    1    3    3    0    0  0.87970284856E+00  0.62162643354E+01 -0.61117974768E+01  0.87618427164E+01  0.00000000000E+00 0.  1.
</event>
<event>
 7    1  0.1714203E-010  0.4778727E+02  0.7816164E-02  0.1312668E+00
        -11   -1    0    0    0    0  0.00000000000E+00  0.00000000000E+00  0.45593999997E+02  0.45594000000E+02  0.51100000000E-03 0.  1.
         11   -1    0    0    0    0 -0.00000000000E+00 -0.00000000000E+00 -0.45593999997E+02  0.45594000000E+02  0.51100000000E-03 0. -1.
    9900012    2    1    2    0    0 -0.41200477708E+02 -0.12321568880E+02 -0.58585759448E+01  0.47787270338E+02  0.19999996781E+02 0.  0.
        -12    1    1    2    0    0  0.41200477708E+02  0.12321568880E+02  0.58585759448E+01  0.43400729662E+02  0.00000000000E+00 0.  1.
         11    1    3    3    0    0 -0.13102169501E+02 -0.29072760113E+01  0.34744266552E+01  0.13863287499E+02  0.51100000000E-03 0. -1.
        -11    1    3    3    0    0 -0.27577390414E+02 -0.48708205906E+01 -0.85802101606E+01  0.29289202139E+02  0.51100000000E-03 0.  1.
         12    1    3    3    0    0 -0.52091779340E+00 -0.45434722776E+01 -0.75279243942E+00  0.46347807005E+01  0.00000000000E+00 0. -1.
</event>
<event>
 7    1  0.1714203E-010  0.4778727E+02  0.7816164E-02  0.1312668E+00
        -11   -1    0    0    0    0  0.00000000000E+00  0.00000000000E+00  0.45593999997E+02  0.45594000000E+02  0.51100000000E-03 0.  1.
         11   -1    0    0    0    0 -0.00000000000E+00 -0.00000000000E+00 -0.45593999997E+02  0.45594000000E+02  0.51100000000E-03 0. -1.
    9900012    2    1    2    0    0  0.32150831619E+02 -0.27914807060E+02 -0.84089994769E+01  0.47787266145E+02  0.19999977660E+02 0.  0.
        -12    1    1    2    0    0 -0.32150831619E+02  0.27914807060E+02  0.84089994769E+01  0.43400733855E+02  0.00000000000E+00 0.  1.
         11    1    3    3    0    0  0.78453209078E+00 -0.70658708364E+01 -0.26058406773E+01  0.75718179570E+01  0.51100000000E-03 0. -1.
        -11    1    3    3    0    0  0.27809062056E+02 -0.21657691082E+02 -0.25706244398E+01  0.35341301981E+02  0.51100000000E-03 0.  1.
         12    1    3    3    0    0  0.35572374725E+01  0.80875485860E+00 -0.32325343598E+01  0.48741462067E+01  0.00000000000E+00 0. -1.
</event>
<event>
 7    1  0.1714203E-010  0.4778727E+02  0.7816164E-02  0.1312668E+00
        -11   -1    0    0    0    0  0.00000000000E+00  0.00000000000E+00  0.45593999997E+02  0.45594000000E+02  0.51100000000E-03 0.  1.
         11   -1    0    0    0    0 -0.00000000000E+00 -0.00000000000E+00 -0.45593999997E+02  0.45594000000E+02  0.51100000000E-03 0. -1.
    9900012    2    1    2    0    0  0.25282017364E+02  0.40376156831E+01 -0.35044836331E+02  0.47787270791E+02  0.19999998844E+02 0.  0.
        -12    1    1    2    0    0 -0.25282017364E+02 -0.40376156831E+01  0.35044836331E+02  0.43400729209E+02  0.00000000000E+00 0.  1.
         11    1    3    3    0    0  0.59832745790E+01 -0.39478145261E+00 -0.12230745780E+02  0.13621547991E+02  0.51100000000E-03 0. -1.
        -11    1    3    3    0    0  0.14790918915E+02  0.38089028784E+01 -0.54523665601E+01  0.16217500574E+02  0.51100000000E-03 0.  1.
        -12    1    3    3    0    0  0.45078238699E+01  0.62349425735E+00 -0.17361723991E+02  0.17948222226E+02  0.00000000000E+00 0.  1.
</event>
<event>
 7    1  0.1714203E-010  0.4778725E+02  0.7816164E-02  0.1312668E+00
        -11   -1    0    0    0    0  0.00000000000E+00  0.00000000000E+00  0.45593999997E+02  0.45594000000E+02  0.51100000000E-03 0.  1.
         11   -1    0    0    0    0 -0.00000000000E+00 -0.00000000000E+00 -0.45593999997E+02  0.45594000000E+02  0.51100000000E-03 0. -1.
    9900012    2    1    2    0    0  0.27470278929E+02 -0.25009597045E+02 -0.22439451050E+02  0.47787249635E+02  0.19999902386E+02 0.  0.
        -12    1    1    2    0    0 -0.27470278929E+02  0.25009597045E+02  0.22439451050E+02  0.43400750365E+02  0.00000000000E+00 0.  1.
         11    1    3    3    0    0  0.94811184503E+01 -0.11387837679E+02 -0.17311872161E+02  0.22787614444E+02  0.51100000000E-03 0. -1.
        -11    1    3    3    0    0  0.13160170574E+02 -0.50705911976E+01 -0.55842642702E+01  0.15168552744E+02  0.51100000000E-03 0.  1.
         12    1    3    3    0    0  0.48289899042E+01 -0.85511681691E+01  0.45668538107E+00  0.98310824474E+01  0.00000000000E+00 0. -1.
</event>
<event>
 7    1  0.1714203E-010  0.4778727E+02  0.7816164E-02  0.1312668E+00
        -11   -1    0    0    0    0  0.00000000000E+00  0.00000000000E+00  0.45593999997E+02  0.45594000000E+02  0.51100000000E-03 0.  1.
         11   -1    0    0    0    0 -0.00000000000E+00 -0.00000000000E+00 -0.45593999997E+02  0.45594000000E+02  0.51100000000E-03 0. -1.
    9900012    2    1    2    0    0  0.29256002702E+01 -0.10241806339E+02 -0.42073383706E+02  0.47787270161E+02  0.19999995973E+02 0.  0.
        -12    1    1    2    0    0 -0.29256002702E+01  0.10241806339E+02  0.42073383706E+02  0.43400729839E+02  0.00000000000E+00 0.  1.
         11    1    3    3    0    0 -0.36851810071E+01 -0.21134896289E+01 -0.61840587285E+01  0.75026648655E+01  0.51100000000E-03 0.  1.
        -11    1    3    3    0    0  0.46967414322E+01  0.24876098805E+01 -0.22351264986E+02  0.22974477791E+02  0.51100000000E-03 0. -1.
         12    1    3    3    0    0  0.19140398451E+01 -0.10615926591E+02 -0.13538059991E+02  0.17310127505E+02  0.00000000000E+00 0. -1.
</event>
<event>
 7    1  0.1714203E-010  0.4778727E+02  0.7816164E-02  0.1312668E+00
        -11   -1    0    0    0    0  0.00000000000E+00  0.00000000000E+00  0.45593999997E+02  0.45594000000E+02  0.51100000000E-03 0.  1.
         11   -1    0    0    0    0 -0.00000000000E+00 -0.00000000000E+00 -0.45593999997E+02  0.45594000000E+02  0.51100000000E-03 0. -1.
    9900012    2    1    2    0    0 -0.60281869937E+01 -0.14049531667E+02 -0.40618897287E+02  0.47787271950E+02  0.20000004128E+02 0.  0.
        -12    1    1    2    0    0  0.60281869937E+01  0.14049531667E+02  0.40618897287E+02  0.43400728050E+02  0.00000000000E+00 0.  1.
         11    1    3    3    0    0  0.39644995370E+00 -0.18505051327E+01 -0.57983475025E+00  0.19793307987E+01  0.51100000000E-03 0. -1.
        -11    1    3    3    0    0 -0.54472874239E+01 -0.15556016369E+02 -0.22313570249E+02  0.27740908476E+02  0.51100000000E-03 0.  1.
         12    1    3    3    0    0 -0.97734952350E+00  0.33569898349E+01 -0.17725492288E+02  0.18067032675E+02  0.00000000000E+00 0. -1.
</event>
<event>
 7    1  0.1714203E-010  0.4778727E+02  0.7816164E-02  0.1312668E+00
        -11   -1    0    0    0    0  0.00000000000E+00  0.00000000000E+00  0.45593999997E+02  0.45594000000E+02  0.51100000000E-03 0. -1.
         11   -1    0    0    0    0 -0.00000000000E+00 -0.00000000000E+00 -0.45593999997E+02  0.45594000000E+02  0.51100000000E-03 0.  1.
    9900012    2    1    2    0    0  0.22358413532E+02  0.18871372886E+02  0.32056135177E+02  0.47787272209E+02  0.20000005311E+02 0.  0.
        -12    1    1    2    0    0 -0.22358413532E+02 -0.18871372886E+02 -0.32056135177E+02  0.43400727791E+02  0.00000000000E+00 0.  1.
         11    1    3    3    0    0  0.32912758654E+01  0.89981396764E+01  0.17002172699E+02  0.19515965034E+02  0.51100000000E-03 0.  1.
        -11    1    3    3    0    0  0.14817435268E+02  0.11405521907E+02  0.14614678401E+02  0.23732491292E+02  0.51100000000E-03 0. -1.
        -12    1    3    3    0    0  0.42497023982E+01 -0.15322886974E+01  0.43928407760E+00  0.45388158837E+01  0.00000000000E+00 0.  1.
</event>
<event>
 7    1  0.1714203E-010  0.4778727E+02  0.7816164E-02  0.1312668E+00
        -11   -1    0    0    0    0  0.00000000000E+00  0.00000000000E+00  0.45593999997E+02  0.45594000000E+02  0.51100000000E-03 0. -1.
         11   -1    0    0    0    0 -0.00000000000E+00 -0.00000000000E+00 -0.45593999997E+02  0.45594000000E+02  0.51100000000E-03 0.  1.
    9900012    2    1    2    0    0  0.32246009525E+02  0.98418133081E+01  0.27330511613E+02  0.47787270921E+02  0.19999999439E+02 0.  0.
        -12    1    1    2    0    0 -0.32246009525E+02 -0.98418133081E+01 -0.27330511613E+02  0.43400729079E+02  0.00000000000E+00 0.  1.
         11    1    3    3    0    0  0.16815567076E+01  0.45897323189E+01  0.50750549769E+01  0.70462372227E+01  0.51100000000E-03 0. -1.
        -11    1    3    3    0    0  0.29528880245E+02  0.76826140769E+01  0.22741678353E+02  0.38054714060E+02  0.51100000000E-03 0.  1.
        -12    1    3    3    0    0  0.10355725726E+01 -0.24305330877E+01 -0.48622171700E+00  0.26863196388E+01  0.00000000000E+00 0.  1.
</event>
<event>
 7    1  0.1714203E-010  0.4778727E+02  0.7816164E-02  0.1312668E+00
        -11   -1    0    0    0    0  0.00000000000E+00  0.00000000000E+00  0.45593999997E+02  0.45594000000E+02  0.51100000000E-03 0. -1.
         11   -1    0    0    0    0 -0.00000000000E+00 -0.00000000000E+00 -0.45593999997E+02  0.45594000000E+02  0.51100000000E-03 0.  1.
    9900012    2    1    2    0    0  0.24492449802E+02  0.32030091878E+02  0.16056656127E+02  0.47787273174E+02  0.20000009709E+02 0.  0.
        -12    1    1    2    0    0 -0.24492449802E+02 -0.32030091878E+02 -0.16056656127E+02  0.43400726826E+02  0.00000000000E+00 0.  1.
         11    1    3    3    0    0  0.43116750799E+01  0.15307004208E+02  0.30258579255E+01  0.16187981229E+02  0.51100000000E-03 0. -1.
        -11    1    3    3    0    0  0.85371850309E+01  0.37214431273E+01 -0.77587338571E+00  0.93453007963E+01  0.51100000000E-03 0.  1.
         12    1    3    3    0    0  0.11643589691E+02  0.13001644543E+02  0.13806671587E+02  0.22253991148E+02  0.00000000000E+00 0. -1.
</event>
<event>
 7    1  0.1714203E-010  0.4778727E+02  0.7816164E-02  0.1312668E+00
        -11   -1    0    0    0    0  0.00000000000E+00  0.00000000000E+00  0.45593999997E+02  0.45594000000E+02  0.51100000000E-03 0.  1.
         11   -1    0    0    0    0 -0.00000000000E+00 -0.00000000000E+00 -0.45593999997E+02  0.45594000000E+02  0.51100000000E-03 0. -1.
    9900012    2    1    2    0    0 -0.42709852100E+02  0.66099119506E+01 -0.39750601452E+01  0.47787268375E+02  0.19999987829E+02 0.  0.
        -12    1    1    2    0    0  0.42709852100E+02 -0.66099119506E+01  0.39750601452E+01  0.43400731625E+02  0.00000000000E+00 0.  1.
         11    1    3    3    0    0 -0.15689751564E+02  0.84310284112E+00 -0.28028549974E+01  0.15960423645E+02  0.51100000000E-03 0. -1.
        -11    1    3    3    0    0 -0.60826432181E+01  0.80934870719E+01 -0.33114395932E+01  0.10652169448E+02  0.51100000000E-03 0.  1.
        -12    1    3    3    0    0 -0.20937457318E+02 -0.23266779624E+01  0.21392344454E+01  0.21174675282E+02  0.00000000000E+00 0.  1.
</event>
<event>
 7    1  0.1714203E-010  0.4778727E+02  0.7816164E-02  0.1312668E+00
        -11   -1    0    0    0    0  0.00000000000E+00  0.00000000000E+00  0.45593999997E+02  0.45594000000E+02  0.51100000000E-03 0.  1.
         11   -1    0    0    0    0 -0.00000000000E+00 -0.00000000000E+00 -0.45593999997E+02  0.45594000000E+02  0.51100000000E-03 0. -1.
    9900012    2    1    2    0    0 -0.12540297853E+02 -0.39401704416E+02 -0.13185978207E+02  0.47787269564E+02  0.19999993251E+02 0.  0.
        -12    1    1    2    0    0  0.12540297853E+02  0.39401704416E+02  0.13185978207E+02  0.43400730436E+02  0.00000000000E+00 0.  1.
         11    1    3    3    0    0  0.18962863182E+01 -0.15576921697E+02 -0.26938776460E+01  0.15921475070E+02  0.51100000000E-03 0. -1.
        -11    1    3    3    0    0 -0.11844291807E+02 -0.24086760766E+02 -0.74412033850E+01  0.27853739438E+02  0.51100000000E-03 0.  1.
         12    1    3    3    0    0 -0.25922923641E+01  0.26197804739E+00 -0.30508971758E+01  0.40120550564E+01  0.00000000000E+00 0. -1.
</event>
<event>
 7    1  0.1714203E-010  0.4778727E+02  0.7816164E-02  0.1312668E+00
        -11   -1    0    0    0    0  0.00000000000E+00  0.00000000000E+00  0.45593999997E+02  0.45594000000E+02  0.51100000000E-03 0.  1.
         11   -1    0    0    0    0 -0.00000000000E+00 -0.00000000000E+00 -0.45593999997E+02  0.45594000000E+02  0.51100000000E-03 0. -1.
    9900012    2    1    2    0    0  0.24076943494E+02 -0.14602437015E+02 -0.33025638090E+02  0.47787272517E+02  0.20000006715E+02 0.  0.
        -12    1    1    2    0    0 -0.24076943494E+02  0.14602437015E+02  0.33025638090E+02  0.43400727483E+02  0.00000000000E+00 0.  1.
         11    1    3    3    0    0  0.14466701181E+02 -0.21854422516E+01 -0.13637275552E+02  0.20000922119E+02  0.51100000000E-03 0. -1.
        -11    1    3    3    0    0  0.11186622590E+00 -0.18041645723E+01 -0.11226081138E+02  0.11370682558E+02  0.51100000000E-03 0.  1.
        -12    1    3    3    0    0  0.94983760878E+01 -0.10612830191E+02 -0.81622813995E+01  0.16415667839E+02  0.00000000000E+00 0.  1.
</event>
<event>
 7    1  0.1714203E-010  0.4778727E+02  0.7816164E-02  0.1312668E+00
        -11   -1    0    0    0    0  0.00000000000E+00  0.00000000000E+00  0.45593999997E+02  0.45594000000E+02  0.51100000000E-03 0. -1.
         11   -1    0    0    0    0 -0.00000000000E+00 -0.00000000000E+00 -0.45593999997E+02  0.45594000000E+02  0.51100000000E-03 0.  1.
    9900012    2    1    2    0    0  0.20317787405E+02  0.35632756115E+02 -0.14181601579E+02  0.47787267094E+02  0.19999981990E+02 0.  0.
        -12    1    1    2    0    0 -0.20317787405E+02 -0.35632756115E+02  0.14181601579E+02  0.43400732906E+02  0.00000000000E+00 0.  1.
         11    1    3    3    0    0  0.81670526159E+01  0.33196151994E+01 -0.13850379577E+01  0.89240643156E+01  0.51100000000E-03 0. -1.
        -11    1    3    3    0    0 -0.34760745467E+00  0.93059434042E+01  0.82521683760E+00  0.93489248940E+01  0.51100000000E-03 0.  1.
        -12    1    3    3    0    0  0.12498342244E+02  0.23007197512E+02 -0.13621780459E+02  0.29514277885E+02  0.00000000000E+00 0.  1.
</event>
<event>
 7    1  0.1714203E-010  0.4778727E+02  0.7816164E-02  0.1312668E+00
        -11   -1    0    0    0    0  0.00000000000E+00  0.00000000000E+00  0.45593999997E+02  0.45594000000E+02  0.51100000000E-03 0. -1.
         11   -1    0    0    0    0 -0.00000000000E+00 -0.00000000000E+00 -0.45593999997E+02  0.45594000000E+02  0.51100000000E-03 0.  1.
    9900012    2    1    2    0    0 -0.17880602252E+02 -0.11920846894E+02  0.37706775157E+02  0.47787269358E+02  0.19999992310E+02 0.  0.
        -12    1    1    2    0    0  0.17880602252E+02  0.11920846894E+02 -0.37706775157E+02  0.43400730642E+02  0.00000000000E+00 0.  1.
         11    1    3    3    0    0 -0.41331282451E+01 -0.10679747034E+02  0.60780679860E+01  0.12964669548E+02  0.51100000000E-03 0. -1.
        -11    1    3    3    0    0 -0.59213417449E+01  0.11327643413E+01  0.97267233333E+01  0.11443539233E+02  0.51100000000E-03 0.  1.
         12    1    3    3    0    0 -0.78261322621E+01 -0.23738642015E+01  0.21901983837E+02  0.23379060577E+02  0.00000000000E+00 0. -1.
</event>
<event>
 7    1  0.1714203E-010  0.4778727E+02  0.7816164E-02  0.1312668E+00
        -11   -1    0    0    0    0  0.00000000000E+00  0.00000000000E+00  0.45593999997E+02  0.45594000000E+02  0.51100000000E-03 0.  1.
         11   -1    0    0    0    0 -0.00000000000E+00 -0.00000000000E+00 -0.45593999997E+02  0.45594000000E+02  0.51100000000E-03 0. -1.
    9900012    2    1    2    0    0 -0.19412611072E+02  0.17939243844E+02 -0.34423207561E+02  0.47787272389E+02  0.20000006131E+02 0.  0.
        -12    1    1    2    0    0  0.19412611072E+02 -0.17939243844E+02  0.34423207561E+02  0.43400727611E+02  0.00000000000E+00 0.  1.
         11    1    3    3    0    0 -0.19535536799E+01  0.39701826122E+01 -0.15518712820E+02  0.16137198325E+02  0.51100000000E-03 0. -1.
        -11    1    3    3    0    0 -0.97686848384E+01  0.44782389737E+00 -0.63406931523E+01  0.11654704613E+02  0.51100000000E-03 0.  1.
         12    1    3    3    0    0 -0.76903725536E+01  0.13521237335E+02 -0.12563801589E+02  0.19995369450E+02  0.00000000000E+00 0. -1.
</event>
<event>
 7    1  0.1714203E-010  0.4778727E+02  0.7816164E-02  0.1312668E+00
        -11   -1    0    0    0    0  0.00000000000E+00  0.00000000000E+00  0.45593999997E+02  0.45594000000E+02  0.51100000000E-03 0.  1.
         11   -1    0    0    0    0 -0.00000000000E+00 -0.00000000000E+00 -0.45593999997E+02  0.45594000000E+02  0.51100000000E-03 0. -1.
    9900012    2    1    2    0    0 -0.10683419712E+02  0.55454148064E+01 -0.41698156148E+02  0.47787270649E+02  0.19999998195E+02 0.  0.
        -12    1    1    2    0    0  0.10683419712E+02 -0.55454148064E+01  0.41698156148E+02  0.43400729351E+02  0.00000000000E+00 0.  1.
         11    1    3    3    0    0 -0.45348593836E+01  0.29705617473E+01 -0.23537284320E+02  0.24153528524E+02  0.51100000000E-03 0. -1.
        -11    1    3    3    0    0  0.97760745390E+00 -0.65358715238E+00 -0.15236284099E+02  0.15281598277E+02  0.51100000000E-03 0.  1.
         12    1    3    3    0    0 -0.71261677827E+01  0.32284402116E+01 -0.29245877282E+01  0.83521438473E+01  0.00000000000E+00 0. -1.
</event>
<event>
 7    1  0.1714203E-010  0.4778727E+02  0.7816164E-02  0.1312668E+00
        -11   -1    0    0    0    0  0.00000000000E+00  0.00000000000E+00  0.45593999997E+02  0.45594000000E+02  0.51100000000E-03 0.  1.
         11   -1    0    0    0    0 -0.00000000000E+00 -0.00000000000E+00 -0.45593999997E+02  0.45594000000E+02  0.51100000000E-03 0. -1.
    9900012    2    1    2    0    0  0.15187911272E+01 -0.80329674579E+00 -0.43366706909E+02  0.47787270971E+02  0.19999999664E+02 0.  0.
        -12    1    1    2    0    0 -0.15187911272E+01  0.80329674579E+00  0.43366706909E+02  0.43400729029E+02  0.00000000000E+00 0.  1.
         11    1    3    3    0    0 -0.13169062585E+01  0.58806436805E+01 -0.34586067150E+02  0.35107153877E+02  0.51100000000E-03 0. -1.
        -11    1    3    3    0    0  0.27711172621E+01 -0.41972039461E+00 -0.19657134339E+01  0.34233442210E+01  0.51100000000E-03 0.  1.
        -12    1    3    3    0    0  0.64580123557E-01 -0.62642200317E+01 -0.68149263250E+01  0.92567728725E+01  0.00000000000E+00 0.  1.
</event>
<event>
 7    1  0.1714203E-010  0.4778727E+02  0.7816164E-02  0.1312668E+00
        -11   -1    0    0    0    0  0.00000000000E+00  0.00000000000E+00  0.45593999997E+02  0.45594000000E+02  0.51100000000E-03 0.  1.
         11   -1    0    0    0    0 -0.00000000000E+00 -0.00000000000E+00 -0.45593999997E+02  0.45594000000E+02  0.51100000000E-03 0. -1.
    9900012    2    1    2    0    0  0.95773942023E+01 -0.23693262167E+02 -0.35078855723E+02  0.47787271082E+02  0.20000000172E+02 0.  0.
        -12    1    1    2    0    0 -0.95773942023E+01  0.23693262167E+02  0.35078855723E+02  0.43400728918E+02  0.00000000000E+00 0.  1.
         11    1    3    3    0    0  0.28551225675E+01  0.10581902331E+01 -0.14005867784E+01  0.33515869420E+01  0.51100000000E-03 0. -1.
        -11    1    3    3    0    0  0.61815954224E+01 -0.45114333938E+01 -0.15228564856E+02  0.17043307809E+02  0.51100000000E-03 0.  1.
         12    1    3    3    0    0  0.54067621237E+00 -0.20240019006E+02 -0.18449704088E+02  0.27392376331E+02  0.00000000000E+00 0. -1.
</event>
<event>
 7    1  0.1714203E-010  0.4778727E+02  0.7816164E-02  0.1312668E+00
        -11   -1    0    0    0    0  0.00000000000E+00  0.00000000000E+00  0.45593999997E+02  0.45594000000E+02  0.51100000000E-03 0.  1.
         11   -1    0    0    0    0 -0.00000000000E+00 -0.00000000000E+00 -0.45593999997E+02  0.45594000000E+02  0.51100000000E-03 0. -1.
    9900012    2    1    2    0    0  0.27999250072E+02  0.19939890466E+02 -0.26496531901E+02  0.47787269140E+02  0.19999991318E+02 0.  0.
        -12    1    1    2    0    0 -0.27999250072E+02 -0.19939890466E+02  0.26496531901E+02  0.43400730860E+02  0.00000000000E+00 0.  1.
         11    1    3    3    0    0  0.12108433007E+02  0.13956995435E+02 -0.21460691429E+02  0.28319130430E+02  0.51100000000E-03 0. -1.
        -11    1    3    3    0    0  0.84067676368E+00 -0.16363288253E+01  0.77548197293E-01  0.18412830933E+01  0.51100000000E-03 0.  1.
        -12    1    3    3    0    0  0.15050140301E+02  0.76192238562E+01 -0.51133886696E+01  0.17626855617E+02  0.00000000000E+00 0.  1.
</event>
<event>
 7    1  0.1714203E-010  0.4778728E+02  0.7816164E-02  0.1312668E+00
        -11   -1    0    0    0    0  0.00000000000E+00  0.00000000000E+00  0.45593999997E+02  0.45594000000E+02  0.51100000000E-03 0.  1.
         11   -1    0    0    0    0 -0.00000000000E+00 -0.00000000000E+00 -0.45593999997E+02  0.45594000000E+02  0.51100000000E-03 0. -1.
    9900012    2    1    2    0    0  0.37929317702E+02 -0.27188212785E+01  0.20918836181E+02  0.47787276070E+02  0.20000022915E+02 0.  0.
        -12    1    1    2    0    0 -0.37929317702E+02  0.27188212785E+01 -0.20918836181E+02  0.43400723930E+02  0.00000000000E+00 0.  1.
         11    1    3    3    0    0  0.38599928017E+01 -0.14789074476E+01 -0.30239139674E+01  0.51215981501E+01  0.51100000000E-03 0. -1.
        -11    1    3    3    0    0  0.68599651029E+01 -0.98100811650E+00  0.97904936675E+01  0.11994801568E+02  0.51100000000E-03 0.  1.
         12    1    3    3    0    0  0.27209359797E+02 -0.25890571442E+00  0.14152256480E+02  0.30670876352E+02  0.00000000000E+00 0. -1.
</event>
<event>
 7    1  0.1714203E-010  0.4778727E+02  0.7816164E-02  0.1312668E+00
        -11   -1    0    0    0    0  0.00000000000E+00  0.00000000000E+00  0.45593999997E+02  0.45594000000E+02  0.51100000000E-03 0.  1.
         11   -1    0    0    0    0 -0.00000000000E+00 -0.00000000000E+00 -0.45593999997E+02  0.45594000000E+02  0.51100000000E-03 0. -1.
    9900012    2    1    2    0    0  0.24861516707E+02  0.96915192274E+00 -0.35561057070E+02  0.47787273642E+02  0.20000011844E+02 0.  0.
        -12    1    1    2    0    0 -0.24861516707E+02 -0.96915192274E+00  0.35561057070E+02  0.43400726358E+02  0.00000000000E+00 0.  1.
         11    1    3    3    0    0  0.23281104511E+01  0.17730639311E+01 -0.90405118833E+01  0.95023528323E+01  0.51100000000E-03 0. -1.
        -11    1    3    3    0    0  0.22529572462E+02  0.48827018306E+00 -0.15884309872E+02  0.27570479565E+02  0.51100000000E-03 0.  1.
        -12    1    3    3    0    0  0.38337945009E-02 -0.12921821914E+01 -0.10636235315E+02  0.10714441245E+02  0.00000000000E+00 0.  1.
</event>
<event>
 7    1  0.1714203E-010  0.4778727E+02  0.7816164E-02  0.1312668E+00
        -11   -1    0    0    0    0  0.00000000000E+00  0.00000000000E+00  0.45593999997E+02  0.45594000000E+02  0.51100000000E-03 0. -1.
         11   -1    0    0    0    0 -0.00000000000E+00 -0.00000000000E+00 -0.45593999997E+02  0.45594000000E+02  0.51100000000E-03 0.  1.
    9900012    2    1    2    0    0  0.18169472609E+02 -0.38890224990E+02  0.64065738574E+01  0.47787268172E+02  0.19999986901E+02 0.  0.
        -12    1    1    2    0    0 -0.18169472609E+02  0.38890224990E+02 -0.64065738574E+01  0.43400731828E+02  0.00000000000E+00 0.  1.
         11    1    3    3    0    0  0.10628760179E+02 -0.18104104818E+02  0.32619304696E+01  0.21245454687E+02  0.51100000000E-03 0. -1.
        -11    1    3    3    0    0  0.19312609589E+01 -0.51694722309E+01 -0.55344358685E+01  0.78155737269E+01  0.51100000000E-03 0.  1.
         12    1    3    3    0    0  0.56094514709E+01 -0.15616647942E+02  0.86790792564E+01  0.18726239758E+02  0.00000000000E+00 0. -1.
</event>
<event>
 7    1  0.1714203E-010  0.4778726E+02  0.7816164E-02  0.1312668E+00
        -11   -1    0    0    0    0  0.00000000000E+00  0.00000000000E+00  0.45593999997E+02  0.45594000000E+02  0.51100000000E-03 0.  1.
         11   -1    0    0    0    0 -0.00000000000E+00 -0.00000000000E+00 -0.45593999997E+02  0.45594000000E+02  0.51100000000E-03 0. -1.
    9900012    2    1    2    0    0 -0.72907336433E+01  0.22770585934E+02 -0.36221120155E+02  0.47787263530E+02  0.19999965739E+02 0.  0.
        -12    1    1    2    0    0  0.72907336433E+01 -0.22770585934E+02  0.36221120155E+02  0.43400736470E+02  0.00000000000E+00 0.  1.
         11    1    3    3    0    0 -0.34047611915E+01 -0.23298291615E+01 -0.59580376515E+01  0.72469797578E+01  0.51100000000E-03 0. -1.
        -11    1    3    3    0    0 -0.18581105243E+01  0.10553422506E+02 -0.62895434470E+01  0.12425202547E+02  0.51100000000E-03 0.  1.
        -12    1    3    3    0    0 -0.20278619276E+01  0.14546992590E+02 -0.23973539056E+02  0.28115081225E+02  0.00000000000E+00 0.  1.
</event>
<event>
 7    1  0.1714203E-010  0.4778726E+02  0.7816164E-02  0.1312668E+00
        -11   -1    0    0    0    0  0.00000000000E+00  0.00000000000E+00  0.45593999997E+02  0.45594000000E+02  0.51100000000E-03 0.  1.
         11   -1    0    0    0    0 -0.00000000000E+00 -0.00000000000E+00 -0.45593999997E+02  0.45594000000E+02  0.51100000000E-03 0. -1.
    9900012    2    1    2    0    0  0.20313668360E+02  0.29170346639E+02 -0.24901205342E+02  0.47787259537E+02  0.19999947533E+02 0.  0.
        -12    1    1    2    0    0 -0.20313668360E+02 -0.29170346639E+02  0.24901205342E+02  0.43400740463E+02  0.00000000000E+00 0.  1.
         11    1    3    3    0    0  0.12385939995E+02  0.17132850247E+02 -0.24405037473E+02  0.32288572614E+02  0.51100000000E-03 0. -1.
        -11    1    3    3    0    0  0.17284545965E+01  0.15124238516E+00  0.10115890162E+01  0.20084178226E+01  0.51100000000E-03 0.  1.
         12    1    3    3    0    0  0.61992737688E+01  0.11886254007E+02 -0.15077568849E+01  0.13490269100E+02  0.00000000000E+00 0. -1.
</event>
<event>
 7    1  0.1714203E-010  0.4778727E+02  0.7816164E-02  0.1312668E+00
        -11   -1    0    0    0    0  0.00000000000E+00  0.00000000000E+00  0.45593999997E+02  0.45594000000E+02  0.51100000000E-03 0. -1.
         11   -1    0    0    0    0 -0.00000000000E+00 -0.00000000000E+00 -0.45593999997E+02  0.45594000000E+02  0.51100000000E-03 0.  1.
    9900012    2    1    2    0    0 -0.36191906739E+02  0.20243011403E+02  0.12805848271E+02  0.47787269890E+02  0.19999994738E+02 0.  0.
        -12    1    1    2    0    0  0.36191906739E+02 -0.20243011403E+02 -0.12805848271E+02  0.43400730110E+02  0.00000000000E+00 0.  1.
         11    1    3    3    0    0 -0.32758507228E+01  0.62761718302E+01  0.19699844483E+01  0.73486304702E+01  0.51100000000E-03 0.  1.
        -11    1    3    3    0    0 -0.32171642430E+02  0.83286817854E+01  0.85927151109E+01  0.34325155064E+02  0.51100000000E-03 0. -1.
         12    1    3    3    0    0 -0.74441358668E+00  0.56381577879E+01  0.22431487121E+01  0.61134843562E+01  0.00000000000E+00 0. -1.
</event>
<event>
 7    1  0.1714203E-010  0.4778727E+02  0.7816164E-02  0.1312668E+00
        -11   -1    0    0    0    0  0.00000000000E+00  0.00000000000E+00  0.45593999997E+02  0.45594000000E+02  0.51100000000E-03 0. -1.
         11   -1    0    0    0    0 -0.00000000000E+00 -0.00000000000E+00 -0.45593999997E+02  0.45594000000E+02  0.51100000000E-03 0.  1.
    9900012    2    1    2    0    0 -0.24882819868E+02 -0.32293224752E+02  0.14886770877E+02  0.47787273777E+02  0.20000012461E+02 0.  0.
        -12    1    1    2    0    0  0.24882819868E+02  0.32293224752E+02 -0.14886770877E+02  0.43400726223E+02  0.00000000000E+00 0.  1.
         11    1    3    3    0    0  0.15090368677E+01 -0.66704694744E+01  0.17650584227E+01  0.70631286816E+01  0.51100000000E-03 0. -1.
        -11    1    3    3    0    0 -0.11175174104E+02 -0.62366884886E+01 -0.12961634447E-01  0.12797693848E+02  0.51100000000E-03 0.  1.
         12    1    3    3    0    0 -0.15216682632E+02 -0.19386066789E+02  0.13134674089E+02  0.27926451248E+02  0.00000000000E+00 0. -1.
</event>
<event>
 7    1  0.1714203E-010  0.4778726E+02  0.7816164E-02  0.1312668E+00
        -11   -1    0    0    0    0  0.00000000000E+00  0.00000000000E+00  0.45593999997E+02  0.45594000000E+02  0.51100000000E-03 0.  1.
         11   -1    0    0    0    0 -0.00000000000E+00 -0.00000000000E+00 -0.45593999997E+02  0.45594000000E+02  0.51100000000E-03 0. -1.
    9900012    2    1    2    0    0 -0.30798288869E+02  0.32388399905E+01 -0.30407228057E+02  0.47787260377E+02  0.19999951363E+02 0.  0.
        -12    1    1    2    0    0  0.30798288869E+02 -0.32388399905E+01  0.30407228057E+02  0.43400739623E+02  0.00000000000E+00 0.  1.
         11    1    3    3    0    0 -0.16815908985E+02  0.10609060533E+01 -0.26745122838E+02  0.31610155212E+02  0.51100000000E-03 0. -1.
        -11    1    3    3    0    0 -0.62243676917E+01  0.44722962418E+01 -0.16374974364E+01  0.78374476044E+01  0.51100000000E-03 0.  1.
        -12    1    3    3    0    0 -0.77580121919E+01 -0.22943623045E+01 -0.20246077820E+01  0.83396575604E+01  0.00000000000E+00 0.  1.
</event>
<event>
 7    1  0.1714203E-010  0.4778727E+02  0.7816164E-02  0.1312668E+00
        -11   -1    0    0    0    0  0.00000000000E+00  0.00000000000E+00  0.45593999997E+02  0.45594000000E+02  0.51100000000E-03 0.  1.
         11   -1    0    0    0    0 -0.00000000000E+00 -0.00000000000E+00 -0.45593999997E+02  0.45594000000E+02  0.51100000000E-03 0. -1.
    9900012    2    1    2    0    0  0.91403680955E+01 -0.22931431806E+02 -0.35696306299E+02  0.47787272161E+02  0.20000005090E+02 0.  0.
        -12    1    1    2    0    0 -0.91403680955E+01  0.22931431806E+02  0.35696306299E+02  0.43400727839E+02  0.00000000000E+00 0.  1.
         11    1    3    3    0    0  0.34466400539E+01 -0.10760227294E+02 -0.27171223031E+02  0.29426810570E+02  0.51100000000E-03 0. -1.
        -11    1    3    3    0    0  0.60154198013E+01 -0.10462308103E+02 -0.10306974465E+02  0.15870692774E+02  0.51100000000E-03 0.  1.
        -12    1    3    3    0    0 -0.32169175971E+00 -0.17088964088E+01  0.17818911970E+01  0.24897688170E+01  0.00000000000E+00 0.  1.
</event>
<event>
 7    1  0.1714203E-010  0.4778728E+02  0.7816164E-02  0.1312668E+00
        -11   -1    0    0    0    0  0.00000000000E+00  0.00000000000E+00  0.45593999997E+02  0.45594000000E+02  0.51100000000E-03 0.  1.
         11   -1    0    0    0    0 -0.00000000000E+00 -0.00000000000E+00 -0.45593999997E+02  0.45594000000E+02  0.51100000000E-03 0. -1.
    9900012    2    1    2    0    0 -0.19771583531E+02 -0.17273170779E+02 -0.34559295309E+02  0.47787276086E+02  0.20000022984E+02 0.  0.
        -12    1    1    2    0    0  0.19771583531E+02  0.17273170779E+02  0.34559295309E+02  0.43400723914E+02  0.00000000000E+00 0.  1.
         11    1    3    3    0    0  0.35064820929E+00 -0.47835985653E+01 -0.13474056717E+01  0.49820951120E+01  0.51100000000E-03 0. -1.
        -11    1    3    3    0    0 -0.13748303931E+01  0.16127488516E+00  0.10599223087E+01  0.17434459441E+01  0.51100000000E-03 0.  1.
         12    1    3    3    0    0 -0.18747401347E+02 -0.12650847098E+02 -0.34271811946E+02  0.41061735029E+02  0.00000000000E+00 0. -1.
</event>
<event>
 7    1  0.1714203E-010  0.4778727E+02  0.7816164E-02  0.1312668E+00
        -11   -1    0    0    0    0  0.00000000000E+00  0.00000000000E+00  0.45593999997E+02  0.45594000000E+02  0.51100000000E-03 0.  1.
         11   -1    0    0    0    0 -0.00000000000E+00 -0.00000000000E+00 -0.45593999997E+02  0.45594000000E+02  0.51100000000E-03 0. -1.
    9900012    2    1    2    0    0 -0.33596272600E+01 -0.32792761209E+02 -0.28230675321E+02  0.47787270604E+02  0.19999997992E+02 0.  0.
        -12    1    1    2    0    0  0.33596272600E+01  0.32792761209E+02  0.28230675321E+02  0.43400729396E+02  0.00000000000E+00 0.  1.
         11    1    3    3    0    0 -0.75517053327E+01 -0.20439473762E+02 -0.25501698975E+02  0.33543061756E+02  0.51100000000E-03 0. -1.
        -11    1    3    3    0    0  0.29817162840E+00 -0.42143929607E+00  0.10216182072E+01  0.11446490391E+01  0.51100000000E-03 0.  1.
         12    1    3    3    0    0  0.38939064442E+01 -0.11931848150E+02 -0.37505945535E+01  0.13099559809E+02  0.00000000000E+00 0. -1.
</event>
<event>
 7    1  0.1714203E-010  0.4778727E+02  0.7816164E-02  0.1312668E+00
        -11   -1    0    0    0    0  0.00000000000E+00  0.00000000000E+00  0.45593999997E+02  0.45594000000E+02  0.51100000000E-03 0.  1.
         11   -1    0    0    0    0 -0.00000000000E+00 -0.00000000000E+00 -0.45593999997E+02  0.45594000000E+02  0.51100000000E-03 0. -1.
    9900012    2    1    2    0    0 -0.13997322471E+01 -0.39860310145E+02 -0.17111974168E+02  0.47787271490E+02  0.20000002034E+02 0.  0.
        -12    1    1    2    0    0  0.13997322471E+01  0.39860310145E+02  0.17111974168E+02  0.43400728510E+02  0.00000000000E+00 0.  1.
         11    1    3    3    0    0 -0.17958052077E+01 -0.23520706648E+02 -0.14929238245E+02  0.27916495346E+02  0.51100000000E-03 0. -1.
        -11    1    3    3    0    0 -0.52816059552E+01 -0.69274715233E+01 -0.28298462389E+00  0.87158076924E+01  0.51100000000E-03 0.  1.
        -12    1    3    3    0    0  0.56776789159E+01 -0.94121319737E+01 -0.18997512989E+01  0.11154968452E+02  0.00000000000E+00 0.  1.
</event>
<event>
 7    1  0.1714203E-010  0.4778727E+02  0.7816164E-02  0.1312668E+00
        -11   -1    0    0    0    0  0.00000000000E+00  0.00000000000E+00  0.45593999997E+02  0.45594000000E+02  0.51100000000E-03 0.  1.
         11   -1    0    0    0    0 -0.00000000000E+00 -0.00000000000E+00 -0.45593999997E+02  0.45594000000E+02  0.51100000000E-03 0. -1.
    9900012    2    1    2    0    0  0.30694706547E+02 -0.15504259567E+02  0.26477843687E+02  0.47787270962E+02  0.19999999626E+02 0.  0.
        -12    1    1    2    0    0 -0.30694706547E+02  0.15504259567E+02 -0.26477843687E+02  0.43400729038E+02  0.00000000000E+00 0.  1.
         11    1    3    3    0    0  0.81268012355E+01 -0.83502447396E+01  0.42128829014E+01  0.12390313480E+02  0.51100000000E-03 0. -1.
        -11    1    3    3    0    0  0.79493070861E+01 -0.66514966718E+01  0.16883345615E+02  0.19811139557E+02  0.51100000000E-03 0.  1.
         12    1    3    3    0    0  0.14618598225E+02 -0.50251815517E+00  0.53816151701E+01  0.15585817925E+02  0.00000000000E+00 0. -1.
</event>
<event>
 7    1  0.1714203E-010  0.4778727E+02  0.7816164E-02  0.1312668E+00
        -11   -1    0    0    0    0  0.00000000000E+00  0.00000000000E+00  0.45593999997E+02  0.45594000000E+02  0.51100000000E-03 0.  1.
         11   -1    0    0    0    0 -0.00000000000E+00 -0.00000000000E+00 -0.45593999997E+02  0.45594000000E+02  0.51100000000E-03 0. -1.
    9900012    2    1    2    0    0  0.32374615547E+02 -0.26823626248E+02  0.10770358095E+02  0.47787271085E+02  0.20000000183E+02 0.  0.
        -12    1    1    2    0    0 -0.32374615547E+02  0.26823626248E+02 -0.10770358095E+02  0.43400728915E+02  0.00000000000E+00 0.  1.
         11    1    3    3    0    0  0.21300896476E+02 -0.15679101428E+02  0.15357706557E+02  0.30584662222E+02  0.51100000000E-03 0. -1.
        -11    1    3    3    0    0  0.24427566610E+01 -0.54982830463E+01 -0.27252864632E+00  0.60226612628E+01  0.51100000000E-03 0.  1.
        -12    1    3    3    0    0  0.86309624103E+01 -0.56462417736E+01 -0.43148198163E+01  0.11179947600E+02  0.00000000000E+00 0.  1.
</event>
<event>
 7    1  0.1714203E-010  0.4778727E+02  0.7816164E-02  0.1312668E+00
        -11   -1    0    0    0    0  0.00000000000E+00  0.00000000000E+00  0.45593999997E+02  0.45594000000E+02  0.51100000000E-03 0.  1.
         11   -1    0    0    0    0 -0.00000000000E+00 -0.00000000000E+00 -0.45593999997E+02  0.45594000000E+02  0.51100000000E-03 0. -1.
    9900012    2    1    2    0    0 -0.39823853133E+02 -0.84842084834E+01 -0.15023386256E+02  0.47787271820E+02  0.20000003538E+02 0.  0.
        -12    1    1    2    0    0  0.39823853133E+02  0.84842084834E+01  0.15023386256E+02  0.43400728180E+02  0.00000000000E+00 0.  1.
         11    1    3    3    0    0 -0.19598838001E+02 -0.18926660591E+01 -0.38205225296E+01  0.20057243791E+02  0.51100000000E-03 0. -1.
        -11    1    3    3    0    0 -0.21663723351E+02 -0.77878443210E+01 -0.87112764214E+01  0.24614096890E+02  0.51100000000E-03 0.  1.
        -12    1    3    3    0    0  0.14387082193E+01  0.11963018967E+01 -0.24915873048E+01  0.31159311395E+01  0.00000000000E+00 0.  1.
</event>
<event>
 7    1  0.1714203E-010  0.4778727E+02  0.7816164E-02  0.1312668E+00
        -11   -1    0    0    0    0  0.00000000000E+00  0.00000000000E+00  0.45593999997E+02  0.45594000000E+02  0.51100000000E-03 0. -1.
         11   -1    0    0    0    0 -0.00000000000E+00 -0.00000000000E+00 -0.45593999997E+02  0.45594000000E+02  0.51100000000E-03 0.  1.
    9900012    2    1    2    0    0  0.19663808142E+02  0.35233509879E+02 -0.15986170524E+02  0.47787271699E+02  0.20000002984E+02 0.  0.
        -12    1    1    2    0    0 -0.19663808142E+02 -0.35233509879E+02  0.15986170524E+02  0.43400728301E+02  0.00000000000E+00 0.  1.
         11    1    3    3    0    0  0.24890102748E+01 -0.11379427084E+01 -0.14329616410E+01  0.30892499221E+01  0.51100000000E-03 0. -1.
        -11    1    3    3    0    0  0.25545068449E+01  0.20592624230E+02 -0.69926909558E+01  0.21897018175E+02  0.51100000000E-03 0.  1.
         12    1    3    3    0    0  0.14620291023E+02  0.15778828358E+02 -0.75605179273E+01  0.22801003602E+02  0.00000000000E+00 0. -1.
</event>
<event>
 7    1  0.1714203E-010  0.4778727E+02  0.7816164E-02  0.1312668E+00
        -11   -1    0    0    0    0  0.00000000000E+00  0.00000000000E+00  0.45593999997E+02  0.45594000000E+02  0.51100000000E-03 0. -1.
         11   -1    0    0    0    0 -0.00000000000E+00 -0.00000000000E+00 -0.45593999997E+02  0.45594000000E+02  0.51100000000E-03 0.  1.
    9900012    2    1    2    0    0  0.38207064473E+02 -0.20546017106E+02 -0.13056492865E+01  0.47787270575E+02  0.19999997861E+02 0.  0.
        -12    1    1    2    0    0 -0.38207064473E+02  0.20546017106E+02  0.13056492865E+01  0.43400729425E+02  0.00000000000E+00 0.  1.
         11    1    3    3    0    0  0.25323787486E+02 -0.64083871368E+01 -0.21535843836E+01  0.26210676533E+02  0.51100000000E-03 0. -1.
        -11    1    3    3    0    0  0.10151606473E+02 -0.10755633295E+02 -0.37407151833E+01  0.15255546922E+02  0.51100000000E-03 0.  1.
         12    1    3    3    0    0  0.27316705135E+01 -0.33819966747E+01  0.45886502804E+01  0.63210471204E+01  0.00000000000E+00 0. -1.
</event>
<event>
 7    1  0.1714203E-010  0.4778722E+02  0.7816164E-02  0.1312668E+00
        -11   -1    0    0    0    0  0.00000000000E+00  0.00000000000E+00  0.45593999997E+02  0.45594000000E+02  0.51100000000E-03 0.  1.
         11   -1    0    0    0    0 -0.00000000000E+00 -0.00000000000E+00 -0.45593999997E+02  0.45594000000E+02  0.51100000000E-03 0. -1.
    9900012    2    1    2    0    0 -0.21852329248E+01 -0.40970632621E+02 -0.14151328830E+02  0.47787215584E+02  0.19999747131E+02 0.  0.
        -12    1    1    2    0    0  0.21852329248E+01  0.40970632621E+02  0.14151328830E+02  0.43400784416E+02  0.00000000000E+00 0.  1.
         11    1    3    3    0    0  0.64496545739E+01 -0.23064802623E+02 -0.72742086099E+01  0.25029927594E+02  0.51100000000E-03 0. -1.
        -11    1    3    3    0    0 -0.41224882377E+01 -0.13432152921E+02 -0.97408572408E+00  0.14084263723E+02  0.51100000000E-03 0.  1.
         12    1    3    3    0    0 -0.45123992610E+01 -0.44736770760E+01 -0.59030344961E+01  0.86730242668E+01  0.00000000000E+00 0. -1.
</event>
<event>
 7    1  0.1714203E-010  0.4778729E+02  0.7816164E-02  0.1312668E+00
        -11   -1    0    0    0    0  0.00000000000E+00  0.00000000000E+00  0.45593999997E+02  0.45594000000E+02  0.51100000000E-03 0. -1.
         11   -1    0    0    0    0 -0.00000000000E+00 -0.00000000000E+00 -0.45593999997E+02  0.45594000000E+02  0.51100000000E-03 0.  1.
    9900012    2    1    2    0    0 -0.17962286553E+02  0.12148898422E+02  0.37594976187E+02  0.47787289113E+02  0.20000082380E+02 0.  0.
        -12    1    1    2    0    0  0.17962286553E+02 -0.12148898422E+02 -0.37594976187E+02  0.43400710887E+02  0.00000000000E+00 0.  1.
         11    1    3    3    0    0 -0.56569475222E+01  0.11872184451E+02  0.15250812427E+02  0.20137951705E+02  0.51100000000E-03 0. -1.
        -11    1    3    3    0    0  0.58551160228E+00 -0.11655754135E+01  0.87983657492E+01  0.88945280931E+01  0.51100000000E-03 0.  1.
        -12    1    3    3    0    0 -0.12890850633E+02  0.14422893842E+01  0.13545798010E+02  0.18754809315E+02  0.00000000000E+00 0.  1.
</event>
<event>
 7    1  0.1714203E-010  0.4778727E+02  0.7816164E-02  0.1312668E+00
        -11   -1    0    0    0    0  0.00000000000E+00  0.00000000000E+00  0.45593999997E+02  0.45594000000E+02  0.51100000000E-03 0.  1.
         11   -1    0    0    0    0 -0.00000000000E+00 -0.00000000000E+00 -0.45593999997E+02  0.45594000000E+02  0.51100000000E-03 0. -1.
    9900012    2    1    2    0    0 -0.38614171720E+02 -0.14606692255E+02  0.13387072624E+02  0.47787269249E+02  0.19999991813E+02 0.  0.
        -12    1    1    2    0    0  0.38614171720E+02  0.14606692255E+02 -0.13387072624E+02  0.43400730751E+02  0.00000000000E+00 0.  1.
         11    1    3    3    0    0 -0.22810293922E+02 -0.22592778378E+01  0.64931719013E+01  0.23823835266E+02  0.51100000000E-03 0. -1.
        -11    1    3    3    0    0  0.74898643975E+00  0.10558155354E+01 -0.54259653530E+00  0.14036161844E+01  0.51100000000E-03 0.  1.
        -12    1    3    3    0    0 -0.16552864238E+02 -0.13403229953E+02  0.74364972578E+01  0.22559817799E+02  0.00000000000E+00 0.  1.
</event>
<event>
 7    1  0.1714203E-010  0.4778727E+02  0.7816164E-02  0.1312668E+00
        -11   -1    0    0    0    0  0.00000000000E+00  0.00000000000E+00  0.45593999997E+02  0.45594000000E+02  0.51100000000E-03 0.  1.
         11   -1    0    0    0    0 -0.00000000000E+00 -0.00000000000E+00 -0.45593999997E+02  0.45594000000E+02  0.51100000000E-03 0. -1.
    9900012    2    1    2    0    0 -0.17496660959E+02  0.11528620321E+01 -0.39700895655E+02  0.47787270151E+02  0.19999995929E+02 0.  0.
        -12    1    1    2    0    0  0.17496660959E+02 -0.11528620321E+01  0.39700895655E+02  0.43400729849E+02  0.00000000000E+00 0.  1.
         11    1    3    3    0    0 -0.71082674826E+01  0.62513518551E+00 -0.44647763617E+01  0.84173920442E+01  0.51100000000E-03 0. -1.
        -11    1    3    3    0    0  0.30872713294E+01  0.19949244163E+01 -0.11035029996E+02  0.11631115809E+02  0.51100000000E-03 0.  1.
        -12    1    3    3    0    0 -0.13475664806E+02 -0.14671975697E+01 -0.24201089297E+02  0.27738762298E+02  0.00000000000E+00 0.  1.
</event>
<event>
 7    1  0.1714203E-010  0.4778727E+02  0.7816164E-02  0.1312668E+00
        -11   -1    0    0    0    0  0.00000000000E+00  0.00000000000E+00  0.45593999997E+02  0.45594000000E+02  0.51100000000E-03 0.  1.
         11   -1    0    0    0    0 -0.00000000000E+00 -0.00000000000E+00 -0.45593999997E+02  0.45594000000E+02  0.51100000000E-03 0. -1.
    9900012    2    1    2    0    0 -0.15980794040E+02 -0.22201138857E+02 -0.33694908939E+02  0.47787271514E+02  0.20000002140E+02 0.  0.
        -12    1    1    2    0    0  0.15980794040E+02  0.22201138857E+02  0.33694908939E+02  0.43400728486E+02  0.00000000000E+00 0.  1.
         11    1    3    3    0    0 -0.76691529180E+01 -0.11049994047E+02 -0.14906312341E+02  0.20077759406E+02  0.51100000000E-03 0. -1.
        -11    1    3    3    0    0 -0.18299950379E+01 -0.13277211042E+02 -0.10859776243E+02  0.17250158122E+02  0.51100000000E-03 0.  1.
         12    1    3    3    0    0 -0.64816460840E+01  0.21260662318E+01 -0.79288203553E+01  0.10459353986E+02  0.00000000000E+00 0. -1.
</event>
<event>
 7    1  0.1714203E-010  0.4778727E+02  0.7816164E-02  0.1312668E+00
        -11   -1    0    0    0    0  0.00000000000E+00  0.00000000000E+00  0.45593999997E+02  0.45594000000E+02  0.51100000000E-03 0.  1.
         11   -1    0    0    0    0 -0.00000000000E+00 -0.00000000000E+00 -0.45593999997E+02  0.45594000000E+02  0.51100000000E-03 0. -1.
    9900012    2    1    2    0    0 -0.10934897255E+02  0.19976427003E+02 -0.36945820708E+02  0.47787270956E+02  0.19999999596E+02 0.  0.
        -12    1    1    2    0    0  0.10934897255E+02 -0.19976427003E+02  0.36945820708E+02  0.43400729044E+02  0.00000000000E+00 0.  1.
         11    1    3    3    0    0  0.33795333018E+01  0.39548234165E+01 -0.56081271631E+01  0.76493767153E+01  0.51100000000E-03 0. -1.
        -11    1    3    3    0    0 -0.81883964887E+01  0.31657316931E+01 -0.20310919740E+02  0.22127023188E+02  0.51100000000E-03 0.  1.
         12    1    3    3    0    0 -0.61260340678E+01  0.12855871893E+02 -0.11026773805E+02  0.18010871053E+02  0.00000000000E+00 0. -1.
</event>
<event>
 7    1  0.1714203E-010  0.4778727E+02  0.7816164E-02  0.1312668E+00
        -11   -1    0    0    0    0  0.00000000000E+00  0.00000000000E+00  0.45593999997E+02  0.45594000000E+02  0.51100000000E-03 0. -1.
         11   -1    0    0    0    0 -0.00000000000E+00 -0.00000000000E+00 -0.45593999997E+02  0.45594000000E+02  0.51100000000E-03 0.  1.
    9900012    2    1    2    0    0  0.40223793419E+02  0.13194167026E+02  0.95699499306E+01  0.47787267953E+02  0.19999985906E+02 0.  0.
        -12    1    1    2    0    0 -0.40223793419E+02 -0.13194167026E+02 -0.95699499306E+01  0.43400732047E+02  0.00000000000E+00 0.  1.
         11    1    3    3    0    0  0.40678282596E+02  0.10406126482E+02  0.91430130596E+01  0.42972140177E+02  0.51100000000E-03 0. -1.
        -11    1    3    3    0    0 -0.63155264052E+00 -0.43401602885E+00 -0.10223743950E+01  0.12776847481E+01  0.51100000000E-03 0.  1.
        -12    1    3    3    0    0  0.17706346323E+00  0.32220565731E+01  0.14493112660E+01  0.35374430279E+01  0.00000000000E+00 0.  1.
</event>
<event>
 7    1  0.1714203E-010  0.4778727E+02  0.7816164E-02  0.1312668E+00
        -11   -1    0    0    0    0  0.00000000000E+00  0.00000000000E+00  0.45593999997E+02  0.45594000000E+02  0.51100000000E-03 0.  1.
         11   -1    0    0    0    0 -0.00000000000E+00 -0.00000000000E+00 -0.45593999997E+02  0.45594000000E+02  0.51100000000E-03 0. -1.
    9900012    2    1    2    0    0 -0.11270923776E+02  0.19413132695E+02 -0.37144577850E+02  0.47787272962E+02  0.20000008742E+02 0.  0.
        -12    1    1    2    0    0  0.11270923776E+02 -0.19413132695E+02  0.37144577850E+02  0.43400727038E+02  0.00000000000E+00 0.  1.
         11    1    3    3    0    0 -0.38372743741E+01  0.42450094682E+01 -0.18927176663E+02  0.19773284924E+02  0.51100000000E-03 0.  1.
        -11    1    3    3    0    0 -0.37227736993E+01  0.22275553030E+01  0.10933132789E+01  0.44739670127E+01  0.51100000000E-03 0. -1.
         12    1    3    3    0    0 -0.37108757030E+01  0.12940567924E+02 -0.19310714466E+02  0.23540021025E+02  0.00000000000E+00 0. -1.
</event>
<event>
 7    1  0.1769071E-010  0.4778727E+02  0.7816164E-02  0.1312668E+00
        -11   -1    0    0    0    0  0.00000000000E+00  0.00000000000E+00  0.45593999997E+02  0.45594000000E+02  0.51100000000E-03 0. -1.
         11   -1    0    0    0    0 -0.00000000000E+00 -0.00000000000E+00 -0.45593999997E+02  0.45594000000E+02  0.51100000000E-03 0.  1.
    9900012    2    1    2    0    0 -0.27629703114E+02  0.25261494037E+02  0.21956318412E+02  0.47787268516E+02  0.19999988472E+02 0.  0.
        -12    1    1    2    0    0  0.27629703114E+02 -0.25261494037E+02 -0.21956318412E+02  0.43400731484E+02  0.00000000000E+00 0.  1.
         11    1    3    3    0    0 -0.81794981854E+01  0.16483206435E+02  0.96704598400E+01  0.20787450029E+02  0.51100000000E-03 0. -1.
        -11    1    3    3    0    0 -0.74019801025E+01  0.29335137444E+01 -0.11330262787E+01  0.80422982496E+01  0.51100000000E-03 0.  1.
         12    1    3    3    0    0 -0.12048224826E+02  0.58447738578E+01  0.13418884851E+02  0.18957520237E+02  0.00000000000E+00 0. -1.
</event>
<event>
 7    1  0.1714203E-010  0.4778728E+02  0.7816164E-02  0.1312668E+00
        -11   -1    0    0    0    0  0.00000000000E+00  0.00000000000E+00  0.45593999997E+02  0.45594000000E+02  0.51100000000E-03 0.  1.
         11   -1    0    0    0    0 -0.00000000000E+00 -0.00000000000E+00 -0.45593999997E+02  0.45594000000E+02  0.51100000000E-03 0. -1.
    9900012    2    1    2    0    0 -0.13227955604E+02  0.10697112322E+02 -0.39927627853E+02  0.47787280104E+02  0.20000041308E+02 0.  0.
        -12    1    1    2    0    0  0.13227955604E+02 -0.10697112322E+02  0.39927627853E+02  0.43400719896E+02  0.00000000000E+00 0.  1.
         11    1    3    3    0    0 -0.10116855865E+02  0.97595746090E+01 -0.29545928776E+02  0.32719443403E+02  0.51100000000E-03 0. -1.
        -11    1    3    3    0    0 -0.24587185997E+00  0.32859845340E+01 -0.10844752131E+02  0.11334319405E+02  0.51100000000E-03 0.  1.
        -12    1    3    3    0    0 -0.28652278787E+01 -0.23484468212E+01  0.46305305396E+00  0.37335172960E+01  0.00000000000E+00 0.  1.
</event>
<event>
 7    1  0.1714203E-010  0.4778730E+02  0.7816164E-02  0.1312668E+00
        -11   -1    0    0    0    0  0.00000000000E+00  0.00000000000E+00  0.45593999997E+02  0.45594000000E+02  0.51100000000E-03 0.  1.
         11   -1    0    0    0    0 -0.00000000000E+00 -0.00000000000E+00 -0.45593999997E+02  0.45594000000E+02  0.51100000000E-03 0. -1.
    9900012    2    1    2    0    0 -0.10419581166E+00  0.33096509115E+02 -0.28075444113E+02  0.47787304908E+02  0.20000154397E+02 0.  0.
        -12    1    1    2    0    0  0.10419581166E+00 -0.33096509115E+02  0.28075444113E+02  0.43400695092E+02  0.00000000000E+00 0.  1.
         11    1    3    3    0    0  0.25396337118E+01  0.26922431161E+02 -0.19064995409E+02  0.33086871856E+02  0.51100000000E-03 0. -1.
        -11    1    3    3    0    0 -0.38825864066E+01  0.53995890703E+01 -0.12042686627E+01  0.67587204859E+01  0.51100000000E-03 0.  1.
         12    1    3    3    0    0  0.12387568832E+01  0.77448888310E+00 -0.78061800414E+01  0.79417125662E+01  0.00000000000E+00 0. -1.
</event>
<event>
 7    1  0.1714203E-010  0.4778727E+02  0.7816164E-02  0.1312668E+00
        -11   -1    0    0    0    0  0.00000000000E+00  0.00000000000E+00  0.45593999997E+02  0.45594000000E+02  0.51100000000E-03 0. -1.
         11   -1    0    0    0    0 -0.00000000000E+00 -0.00000000000E+00 -0.45593999997E+02  0.45594000000E+02  0.51100000000E-03 0.  1.
    9900012    2    1    2    0    0  0.18160381503E+02  0.37705922942E+02  0.11492925443E+02  0.47787269402E+02  0.19999992511E+02 0.  0.
        -12    1    1    2    0    0 -0.18160381503E+02 -0.37705922942E+02 -0.11492925443E+02  0.43400730598E+02  0.00000000000E+00 0.  1.
         11    1    3    3    0    0  0.31570455309E+01  0.19442254016E+02  0.71286621754E+01  0.20947219443E+02  0.51100000000E-03 0. -1.
        -11    1    3    3    0    0  0.30310064730E+01  0.12503158263E+02  0.31553576469E-01  0.12865339586E+02  0.51100000000E-03 0.  1.
         12    1    3    3    0    0  0.11972329499E+02  0.57605106624E+01  0.43327096911E+01  0.13974710373E+02  0.00000000000E+00 0. -1.
</event>
<event>
 7    1  0.1714203E-010  0.4778727E+02  0.7816164E-02  0.1312668E+00
        -11   -1    0    0    0    0  0.00000000000E+00  0.00000000000E+00  0.45593999997E+02  0.45594000000E+02  0.51100000000E-03 0. -1.
         11   -1    0    0    0    0 -0.00000000000E+00 -0.00000000000E+00 -0.45593999997E+02  0.45594000000E+02  0.51100000000E-03 0.  1.
    9900012    2    1    2    0    0  0.39861335130E+02 -0.13143382985E+01 -0.17116365146E+02  0.47787268677E+02  0.19999989206E+02 0.  0.
        -12    1    1    2    0    0 -0.39861335130E+02  0.13143382985E+01  0.17116365146E+02  0.43400731323E+02  0.00000000000E+00 0.  1.
         11    1    3    3    0    0  0.21090758201E+02  0.66158039645E+01 -0.14275585430E+02  0.26313138985E+02  0.51100000000E-03 0. -1.
        -11    1    3    3    0    0  0.12039739849E+02 -0.58673812645E+01 -0.46980651519E+01  0.14193425061E+02  0.51100000000E-03 0.  1.
         12    1    3    3    0    0  0.67308370804E+01 -0.20627609985E+01  0.18572854355E+01  0.72807046313E+01  0.00000000000E+00 0. -1.
</event>
<event>
 7    1  0.1714203E-010  0.4778723E+02  0.7816164E-02  0.1312668E+00
        -11   -1    0    0    0    0  0.00000000000E+00  0.00000000000E+00  0.45593999997E+02  0.45594000000E+02  0.51100000000E-03 0.  1.
         11   -1    0    0    0    0 -0.00000000000E+00 -0.00000000000E+00 -0.45593999997E+02  0.45594000000E+02  0.51100000000E-03 0. -1.
    9900012    2    1    2    0    0 -0.31096979509E+02 -0.30120019465E+02 -0.30641506617E+01  0.47787231270E+02  0.19999818649E+02 0.  0.
        -12    1    1    2    0    0  0.31096979509E+02  0.30120019465E+02  0.30641506617E+01  0.43400768730E+02  0.00000000000E+00 0.  1.
         11    1    3    3    0    0 -0.15466616400E+02 -0.11024023478E+02 -0.70010578164E+01  0.20242532631E+02  0.51100000000E-03 0.  1.
        -11    1    3    3    0    0  0.16081846446E+01 -0.41308414146E+01  0.55636772963E+00  0.44676228529E+01  0.51100000000E-03 0. -1.
        -12    1    3    3    0    0 -0.17238547754E+02 -0.14965154572E+02  0.33805394250E+01  0.23077075786E+02  0.00000000000E+00 0.  1.
</event>
<event>
 7    1  0.1714203E-010  0.4778728E+02  0.7816164E-02  0.1312668E+00
        -11   -1    0    0    0    0  0.00000000000E+00  0.00000000000E+00  0.45593999997E+02  0.45594000000E+02  0.51100000000E-03 0.  1.
         11   -1    0    0    0    0 -0.00000000000E+00 -0.00000000000E+00 -0.45593999997E+02  0.45594000000E+02  0.51100000000E-03 0. -1.
    9900012    2    1    2    0    0 -0.12116669511E+02  0.25414142001E+02 -0.33029236041E+02  0.47787277343E+02  0.20000028718E+02 0.  0.
        -12    1    1    2    0    0  0.12116669511E+02 -0.25414142001E+02  0.33029236041E+02  0.43400722657E+02  0.00000000000E+00 0.  1.
         11    1    3    3    0    0  0.32492275509E+01  0.33673886271E+01 -0.74128424729E+01  0.87662431881E+01  0.51100000000E-03 0. -1.
        -11    1    3    3    0    0 -0.50969014894E+01  0.38924122621E+01 -0.58655527978E+00  0.64399786776E+01  0.51100000000E-03 0.  1.
         12    1    3    3    0    0 -0.10268995573E+02  0.18154341112E+02 -0.25029838288E+02  0.32581055477E+02  0.00000000000E+00 0. -1.
</event>
<event>
 7    1  0.1714203E-010  0.4778727E+02  0.7816164E-02  0.1312668E+00
        -11   -1    0    0    0    0  0.00000000000E+00  0.00000000000E+00  0.45593999997E+02  0.45594000000E+02  0.51100000000E-03 0.  1.
         11   -1    0    0    0    0 -0.00000000000E+00 -0.00000000000E+00 -0.45593999997E+02  0.45594000000E+02  0.51100000000E-03 0. -1.
    9900012    2    1    2    0    0  0.24001059182E+02  0.25985326071E+00 -0.36159434286E+02  0.47787273584E+02  0.20000011578E+02 0.  0.
        -12    1    1    2    0    0 -0.24001059182E+02 -0.25985326071E+00  0.36159434286E+02  0.43400726416E+02  0.00000000000E+00 0.  1.
         11    1    3    3    0    0  0.76649835952E+01 -0.35778684229E+01 -0.10892324187E+02  0.13791150874E+02  0.51100000000E-03 0. -1.
        -11    1    3    3    0    0 -0.22793609628E+01  0.19446082545E+01 -0.63454416020E+00  0.30626188490E+01  0.51100000000E-03 0.  1.
        -12    1    3    3    0    0  0.18615436549E+02  0.18931134292E+01 -0.24632565939E+02  0.30933503861E+02  0.00000000000E+00 0.  1.
</event>
<event>
 7    1  0.1714203E-010  0.4778727E+02  0.7816164E-02  0.1312668E+00
        -11   -1    0    0    0    0  0.00000000000E+00  0.00000000000E+00  0.45593999997E+02  0.45594000000E+02  0.51100000000E-03 0.  1.
         11   -1    0    0    0    0 -0.00000000000E+00 -0.00000000000E+00 -0.45593999997E+02  0.45594000000E+02  0.51100000000E-03 0. -1.
    9900012    2    1    2    0    0 -0.32032552057E+02  0.23714282776E+02 -0.17180564981E+02  0.47787269454E+02  0.19999992748E+02 0.  0.
        -12    1    1    2    0    0  0.32032552057E+02 -0.23714282776E+02  0.17180564981E+02  0.43400730546E+02  0.00000000000E+00 0.  1.
         11    1    3    3    0    0 -0.19173300109E+02  0.74416137957E+01 -0.13670694000E+02  0.24695767404E+02  0.51100000000E-03 0. -1.
        -11    1    3    3    0    0 -0.11989600666E+02  0.14115704375E+02 -0.62045210642E+01  0.19532017715E+02  0.51100000000E-03 0.  1.
        -12    1    3    3    0    0 -0.86965128222E+00  0.21569646049E+01  0.26946500830E+01  0.35594843348E+01  0.00000000000E+00 0.  1.
</event>
<event>
 7    1  0.1714203E-010  0.4778727E+02  0.7816164E-02  0.1312668E+00
        -11   -1    0    0    0    0  0.00000000000E+00  0.00000000000E+00  0.45593999997E+02  0.45594000000E+02  0.51100000000E-03 0.  1.
         11   -1    0    0    0    0 -0.00000000000E+00 -0.00000000000E+00 -0.45593999997E+02  0.45594000000E+02  0.51100000000E-03 0. -1.
    9900012    2    1    2    0    0  0.48588516428E+01 -0.10216691646E+02 -0.41900288470E+02  0.47787269576E+02  0.19999993304E+02 0.  0.
        -12    1    1    2    0    0 -0.48588516428E+01  0.10216691646E+02  0.41900288470E+02  0.43400730424E+02  0.00000000000E+00 0.  1.
         11    1    3    3    0    0 -0.49430032182E+01 -0.28600631753E+01 -0.80297132718E+01  0.98534023398E+01  0.51100000000E-03 0. -1.
        -11    1    3    3    0    0  0.58270688688E+01  0.24732173934E+01 -0.10325073114E+02  0.12111097017E+02  0.51100000000E-03 0.  1.
         12    1    3    3    0    0  0.39747859922E+01 -0.98298458636E+01 -0.23545502084E+02  0.25822770219E+02  0.00000000000E+00 0. -1.
</event>
<event>
 7    1  0.1714203E-010  0.4778727E+02  0.7816164E-02  0.1312668E+00
        -11   -1    0    0    0    0  0.00000000000E+00  0.00000000000E+00  0.45593999997E+02  0.45594000000E+02  0.51100000000E-03 0. -1.
         11   -1    0    0    0    0 -0.00000000000E+00 -0.00000000000E+00 -0.45593999997E+02  0.45594000000E+02  0.51100000000E-03 0.  1.
    9900012    2    1    2    0    0  0.16250573474E+02 -0.38563107837E+02 -0.11507773286E+02  0.47787271086E+02  0.20000000188E+02 0.  0.
        -12    1    1    2    0    0 -0.16250573474E+02  0.38563107837E+02  0.11507773286E+02  0.43400728914E+02  0.00000000000E+00 0.  1.
         11    1    3    3    0    0  0.29037179181E+01 -0.29780824048E+00  0.10627940499E+01  0.31064125530E+01  0.51100000000E-03 0. -1.
        -11    1    3    3    0    0  0.49976882366E+01 -0.17752989784E+02 -0.12942755974E+02  0.22531321897E+02  0.51100000000E-03 0.  1.
         12    1    3    3    0    0  0.83491673189E+01 -0.20512309813E+02  0.37218863797E+00  0.22149536635E+02  0.00000000000E+00 0. -1.
</event>
<event>
 7    1  0.1714203E-010  0.4778727E+02  0.7816164E-02  0.1312668E+00
        -11   -1    0    0    0    0  0.00000000000E+00  0.00000000000E+00  0.45593999997E+02  0.45594000000E+02  0.51100000000E-03 0.  1.
         11   -1    0    0    0    0 -0.00000000000E+00 -0.00000000000E+00 -0.45593999997E+02  0.45594000000E+02  0.51100000000E-03 0. -1.
    9900012    2    1    2    0    0 -0.32943611485E+02 -0.17887830119E+01 -0.28198261218E+02  0.47787271688E+02  0.20000002932E+02 0.  0.
        -12    1    1    2    0    0  0.32943611485E+02  0.17887830119E+01  0.28198261218E+02  0.43400728312E+02  0.00000000000E+00 0.  1.
         11    1    3    3    0    0 -0.18832268315E+02  0.45178919022E+01 -0.13258269323E+02  0.23470138108E+02  0.51100000000E-03 0. -1.
        -11    1    3    3    0    0 -0.16208568018E+01 -0.87412505604E+00 -0.94563182066E+01  0.96339620962E+01  0.51100000000E-03 0.  1.
         12    1    3    3    0    0 -0.12490486368E+02 -0.54325498580E+01 -0.54836736883E+01  0.14683171483E+02  0.00000000000E+00 0. -1.
</event>
<event>
 7    1  0.1714203E-010  0.4778727E+02  0.7816164E-02  0.1312668E+00
        -11   -1    0    0    0    0  0.00000000000E+00  0.00000000000E+00  0.45593999997E+02  0.45594000000E+02  0.51100000000E-03 0. -1.
         11   -1    0    0    0    0 -0.00000000000E+00 -0.00000000000E+00 -0.45593999997E+02  0.45594000000E+02  0.51100000000E-03 0.  1.
    9900012    2    1    2    0    0 -0.26380661761E+02 -0.17391567561E+02  0.29752602735E+02  0.47787270666E+02  0.19999998276E+02 0.  0.
        -12    1    1    2    0    0  0.26380661761E+02  0.17391567561E+02 -0.29752602735E+02  0.43400729334E+02  0.00000000000E+00 0.  1.
         11    1    3    3    0    0 -0.28675821760E+01  0.12581817554E+01 -0.14043938814E+01  0.34319631846E+01  0.51100000000E-03 0.  1.
        -11    1    3    3    0    0 -0.10072503831E+02 -0.43395635709E+01  0.16678745551E+02  0.19961655713E+02  0.51100000000E-03 0. -1.
         12    1    3    3    0    0 -0.13440575754E+02 -0.14310185746E+02  0.14478251066E+02  0.24393651768E+02  0.00000000000E+00 0. -1.
</event>
<event>
 7    1  0.1714203E-010  0.4778727E+02  0.7816164E-02  0.1312668E+00
        -11   -1    0    0    0    0  0.00000000000E+00  0.00000000000E+00  0.45593999997E+02  0.45594000000E+02  0.51100000000E-03 0.  1.
         11   -1    0    0    0    0 -0.00000000000E+00 -0.00000000000E+00 -0.45593999997E+02  0.45594000000E+02  0.51100000000E-03 0. -1.
    9900012    2    1    2    0    0 -0.21558033550E+02  0.37290446585E+02  0.53194912222E+01  0.47787271851E+02  0.20000003677E+02 0.  0.
        -12    1    1    2    0    0  0.21558033550E+02 -0.37290446585E+02 -0.53194912222E+01  0.43400728149E+02  0.00000000000E+00 0.  1.
         11    1    3    3    0    0 -0.12242245549E+02  0.16712561712E+02  0.33419557601E+01  0.20984541064E+02  0.51100000000E-03 0. -1.
        -11    1    3    3    0    0 -0.79638360025E+00  0.58315004395E+01 -0.56350766940E+01  0.81482951483E+01  0.51100000000E-03 0.  1.
         12    1    3    3    0    0 -0.85194044000E+01  0.14746384433E+02  0.76126121561E+01  0.18654435639E+02  0.00000000000E+00 0. -1.
</event>
<event>
 7    1  0.1714203E-010  0.4778727E+02  0.7816164E-02  0.1312668E+00
        -11   -1    0    0    0    0  0.00000000000E+00  0.00000000000E+00  0.45593999997E+02  0.45594000000E+02  0.51100000000E-03 0.  1.
         11   -1    0    0    0    0 -0.00000000000E+00 -0.00000000000E+00 -0.45593999997E+02  0.45594000000E+02  0.51100000000E-03 0. -1.
    9900012    2    1    2    0    0  0.11644967891E+01 -0.32952250958E+02 -0.28220854514E+02  0.47787268146E+02  0.19999986784E+02 0.  0.
        -12    1    1    2    0    0 -0.11644967891E+01  0.32952250958E+02  0.28220854514E+02  0.43400731854E+02  0.00000000000E+00 0.  1.
         11    1    3    3    0    0  0.73707952567E+01 -0.24212879136E+02 -0.13226936355E+02  0.28557730729E+02  0.51100000000E-03 0. -1.
        -11    1    3    3    0    0 -0.46004446992E+00 -0.22544886729E+01 -0.72584862108E+01  0.76144587742E+01  0.51100000000E-03 0.  1.
        -12    1    3    3    0    0 -0.57462539977E+01 -0.64848831497E+01 -0.77354319474E+01  0.11615078643E+02  0.00000000000E+00 0.  1.
</event>
<event>
 7    1  0.1714203E-010  0.4778727E+02  0.7816164E-02  0.1312668E+00
        -11   -1    0    0    0    0  0.00000000000E+00  0.00000000000E+00  0.45593999997E+02  0.45594000000E+02  0.51100000000E-03 0.  1.
         11   -1    0    0    0    0 -0.00000000000E+00 -0.00000000000E+00 -0.45593999997E+02  0.45594000000E+02  0.51100000000E-03 0. -1.
    9900012    2    1    2    0    0  0.37485033533E+02  0.72564249377E+01 -0.20635889544E+02  0.47787269832E+02  0.19999994470E+02 0.  0.
        -12    1    1    2    0    0 -0.37485033533E+02 -0.72564249377E+01  0.20635889544E+02  0.43400730168E+02  0.00000000000E+00 0.  1.
         11    1    3    3    0    0  0.25433739496E+02  0.82187188931E+01 -0.16576917169E+02  0.31451814385E+02  0.51100000000E-03 0. -1.
        -11    1    3    3    0    0  0.11150697541E+02  0.16410549283E+01  0.18909637452E+00  0.11272394361E+02  0.51100000000E-03 0.  1.
         12    1    3    3    0    0  0.90059649632E+00 -0.26033488836E+01 -0.42480687498E+01  0.50630610862E+01  0.00000000000E+00 0. -1.
</event>
<event>
 7    1  0.1714203E-010  0.4778727E+02  0.7816164E-02  0.1312668E+00
        -11   -1    0    0    0    0  0.00000000000E+00  0.00000000000E+00  0.45593999997E+02  0.45594000000E+02  0.51100000000E-03 0.  1.
         11   -1    0    0    0    0 -0.00000000000E+00 -0.00000000000E+00 -0.45593999997E+02  0.45594000000E+02  0.51100000000E-03 0. -1.
    9900012    2    1    2    0    0 -0.21863035002E+02 -0.35732031301E+02 -0.11351338674E+02  0.47787271319E+02  0.20000001250E+02 0.  0.
        -12    1    1    2    0    0  0.21863035002E+02  0.35732031301E+02  0.11351338674E+02  0.43400728681E+02  0.00000000000E+00 0.  1.
         11    1    3    3    0    0 -0.12681900879E+02 -0.11657734828E+02 -0.11956563285E+01  0.17267396606E+02  0.51100000000E-03 0. -1.
        -11    1    3    3    0    0  0.14543540334E+01  0.68299330640E-01 -0.27615450769E+01  0.31218491196E+01  0.51100000000E-03 0.  1.
         12    1    3    3    0    0 -0.10635488156E+02 -0.24142595803E+02 -0.73941372684E+01  0.27398025593E+02  0.00000000000E+00 0. -1.
</event>
<event>
 7    1  0.1714203E-010  0.4778727E+02  0.7816164E-02  0.1312668E+00
        -11   -1    0    0    0    0  0.00000000000E+00  0.00000000000E+00  0.45593999997E+02  0.45594000000E+02  0.51100000000E-03 0.  1.
         11   -1    0    0    0    0 -0.00000000000E+00 -0.00000000000E+00 -0.45593999997E+02  0.45594000000E+02  0.51100000000E-03 0. -1.
    9900012    2    1    2    0    0  0.25720705475E+02  0.34433507918E+02 -0.60334162403E+01  0.47787271098E+02  0.20000000246E+02 0.  0.
        -12    1    1    2    0    0 -0.25720705475E+02 -0.34433507918E+02  0.60334162403E+01  0.43400728902E+02  0.00000000000E+00 0.  1.
         11    1    3    3    0    0  0.13260013810E+02  0.29671601297E+02 -0.67721169955E+01  0.33197792978E+02  0.51100000000E-03 0. -1.
        -11    1    3    3    0    0  0.68619450961E+01  0.26138011562E+01  0.33227736407E+01  0.80597190965E+01  0.51100000000E-03 0.  1.
        -12    1    3    3    0    0  0.55987465688E+01  0.21481054646E+01 -0.25840728854E+01  0.65297590235E+01  0.00000000000E+00 0.  1.
</event>
<event>
 7    1  0.1714203E-010  0.4778727E+02  0.7816164E-02  0.1312668E+00
        -11   -1    0    0    0    0  0.00000000000E+00  0.00000000000E+00  0.45593999997E+02  0.45594000000E+02  0.51100000000E-03 0. -1.
         11   -1    0    0    0    0 -0.00000000000E+00 -0.00000000000E+00 -0.45593999997E+02  0.45594000000E+02  0.51100000000E-03 0.  1.
    9900012    2    1    2    0    0 -0.26558453925E+02  0.13626890734E+02  0.31505232058E+02  0.47787271054E+02  0.20000000046E+02 0.  0.
        -12    1    1    2    0    0  0.26558453925E+02 -0.13626890734E+02 -0.31505232058E+02  0.43400728946E+02  0.00000000000E+00 0.  1.
         11    1    3    3    0    0 -0.57250272421E+01 -0.91618481993E+00 -0.92731441776E+00  0.58715622996E+01  0.51100000000E-03 0. -1.
        -11    1    3    3    0    0 -0.14096984564E+02  0.79590029926E+01  0.14845693440E+02  0.21965093134E+02  0.51100000000E-03 0.  1.
        -12    1    3    3    0    0 -0.67364421186E+01  0.65840725613E+01  0.17586853036E+02  0.19950615620E+02  0.00000000000E+00 0.  1.
</event>
<event>
 7    1  0.1714203E-010  0.4778727E+02  0.7816164E-02  0.1312668E+00
        -11   -1    0    0    0    0  0.00000000000E+00  0.00000000000E+00  0.45593999997E+02  0.45594000000E+02  0.51100000000E-03 0.  1.
         11   -1    0    0    0    0 -0.00000000000E+00 -0.00000000000E+00 -0.45593999997E+02  0.45594000000E+02  0.51100000000E-03 0. -1.
    9900012    2    1    2    0    0  0.89809150266E+01  0.40035908952E+02  0.14145397025E+02  0.47787273078E+02  0.20000009273E+02 0.  0.
        -12    1    1    2    0    0 -0.89809150266E+01 -0.40035908952E+02 -0.14145397025E+02  0.43400726922E+02  0.00000000000E+00 0.  1.
         11    1    3    3    0    0  0.46891448519E+01  0.60397090700E+01  0.38500996301E+00  0.76560040508E+01  0.51100000000E-03 0. -1.
        -11    1    3    3    0    0  0.56177956095E+01  0.44441739826E+01  0.64974704532E+01  0.96709581970E+01  0.51100000000E-03 0.  1.
        -12    1    3    3    0    0 -0.13260254348E+01  0.29552025900E+02  0.72629166089E+01  0.30460310830E+02  0.00000000000E+00 0.  1.
</event>
<event>
 7    1  0.1714203E-010  0.4778727E+02  0.7816164E-02  0.1312668E+00
        -11   -1    0    0    0    0  0.00000000000E+00  0.00000000000E+00  0.45593999997E+02  0.45594000000E+02  0.51100000000E-03 0. -1.
         11   -1    0    0    0    0 -0.00000000000E+00 -0.00000000000E+00 -0.45593999997E+02  0.45594000000E+02  0.51100000000E-03 0.  1.
    9900012    2    1    2    0    0  0.38181730776E+02 -0.15205973091E+02  0.13948365220E+02  0.47787273336E+02  0.20000010446E+02 0.  0.
        -12    1    1    2    0    0 -0.38181730776E+02  0.15205973091E+02 -0.13948365220E+02  0.43400726664E+02  0.00000000000E+00 0.  1.
         11    1    3    3    0    0  0.14794993926E+02 -0.94894634136E+01  0.59952438257E+01  0.18571071858E+02  0.51100000000E-03 0. -1.
        -11    1    3    3    0    0  0.22905525955E+02 -0.53828079497E+00  0.64144795786E+01  0.23792822742E+02  0.51100000000E-03 0.  1.
         12    1    3    3    0    0  0.48121089498E+00 -0.51782288821E+01  0.15386418154E+01  0.54233787363E+01  0.00000000000E+00 0. -1.
</event>
<event>
 7    1  0.1714203E-010  0.4778727E+02  0.7816164E-02  0.1312668E+00
        -11   -1    0    0    0    0  0.00000000000E+00  0.00000000000E+00  0.45593999997E+02  0.45594000000E+02  0.51100000000E-03 0.  1.
         11   -1    0    0    0    0 -0.00000000000E+00 -0.00000000000E+00 -0.45593999997E+02  0.45594000000E+02  0.51100000000E-03 0. -1.
    9900012    2    1    2    0    0 -0.58764063509E+01 -0.82099236458E+01 -0.42210049287E+02  0.47787271219E+02  0.20000000797E+02 0.  0.
        -12    1    1    2    0    0  0.58764063509E+01  0.82099236458E+01  0.42210049287E+02  0.43400728781E+02  0.00000000000E+00 0.  1.
         11    1    3    3    0    0  0.12970258819E+01  0.30209991020E+01 -0.12784376452E+01  0.35274799484E+01  0.51100000000E-03 0. -1.
        -11    1    3    3    0    0  0.16560823071E+01 -0.65322173922E+01 -0.14188320684E+02  0.15707352316E+02  0.51100000000E-03 0.  1.
        -12    1    3    3    0    0 -0.88295145398E+01 -0.46987053556E+01 -0.26743290958E+02  0.28552438955E+02  0.00000000000E+00 0.  1.
</event>
<event>
 7    1  0.1714203E-010  0.4778728E+02  0.7816164E-02  0.1312668E+00
        -11   -1    0    0    0    0  0.00000000000E+00  0.00000000000E+00  0.45593999997E+02  0.45594000000E+02  0.51100000000E-03 0. -1.
         11   -1    0    0    0    0 -0.00000000000E+00 -0.00000000000E+00 -0.45593999997E+02  0.45594000000E+02  0.51100000000E-03 0.  1.
    9900012    2    1    2    0    0  0.34448503933E+02 -0.26399068603E+02 -0.11245705163E+00  0.47787275434E+02  0.20000020013E+02 0.  0.
        -12    1    1    2    0    0 -0.34448503933E+02  0.26399068603E+02  0.11245705163E+00  0.43400724566E+02  0.00000000000E+00 0.  1.
         11    1    3    3    0    0 -0.42312419012E+00 -0.13679894150E+01  0.18907781209E+01  0.23718075983E+01  0.51100000000E-03 0. -1.
        -11    1    3    3    0    0  0.20442134722E+02 -0.22802257703E+02 -0.30614581607E+01  0.30776555276E+02  0.51100000000E-03 0.  1.
         12    1    3    3    0    0  0.14429493401E+02 -0.22288214846E+01  0.10582229882E+01  0.14638912559E+02  0.00000000000E+00 0. -1.
</event>
<event>
 7    1  0.1714203E-010  0.4778727E+02  0.7816164E-02  0.1312668E+00
        -11   -1    0    0    0    0  0.00000000000E+00  0.00000000000E+00  0.45593999997E+02  0.45594000000E+02  0.51100000000E-03 0.  1.
         11   -1    0    0    0    0 -0.00000000000E+00 -0.00000000000E+00 -0.45593999997E+02  0.45594000000E+02  0.51100000000E-03 0. -1.
    9900012    2    1    2    0    0 -0.19773118727E+02  0.20768702851E+02 -0.32577724099E+02  0.47787270170E+02  0.19999996013E+02 0.  0.
        -12    1    1    2    0    0  0.19773118727E+02 -0.20768702851E+02  0.32577724099E+02  0.43400729830E+02  0.00000000000E+00 0.  1.
         11    1    3    3    0    0 -0.13399010847E+02  0.11329250885E+02 -0.24271594641E+02  0.29949886878E+02  0.51100000000E-03 0. -1.
        -11    1    3    3    0    0 -0.22873592928E+01 -0.23667548034E+01 -0.17896065395E+01  0.37464960512E+01  0.51100000000E-03 0.  1.
         12    1    3    3    0    0 -0.40867485873E+01  0.11806206769E+02 -0.65165229182E+01  0.14090887241E+02  0.00000000000E+00 0. -1.
</event>
<event>
 7    1  0.1714203E-010  0.4778727E+02  0.7816164E-02  0.1312668E+00
        -11   -1    0    0    0    0  0.00000000000E+00  0.00000000000E+00  0.45593999997E+02  0.45594000000E+02  0.51100000000E-03 0.  1.
         11   -1    0    0    0    0 -0.00000000000E+00 -0.00000000000E+00 -0.45593999997E+02  0.45594000000E+02  0.51100000000E-03 0. -1.
    9900012    2    1    2    0    0  0.28704098606E+02  0.27365686587E+02 -0.17630008927E+02  0.47787270813E+02  0.19999998947E+02 0.  0.
        -12    1    1    2    0    0 -0.28704098606E+02 -0.27365686587E+02  0.17630008927E+02  0.43400729187E+02  0.00000000000E+00 0.  1.
         11    1    3    3    0    0  0.16597930855E+02  0.75828927314E+01 -0.99443409022E+01  0.20781758517E+02  0.51100000000E-03 0. -1.
        -11    1    3    3    0    0  0.10802953823E+02  0.18495202832E+02 -0.10336867598E+02  0.23782917633E+02  0.51100000000E-03 0.  1.
        -12    1    3    3    0    0  0.13032139284E+01  0.12875910232E+01  0.26511995737E+01  0.32225946636E+01  0.00000000000E+00 0.  1.
</event>
<event>
 7    1  0.1714203E-010  0.4778727E+02  0.7816164E-02  0.1312668E+00
        -11   -1    0    0    0    0  0.00000000000E+00  0.00000000000E+00  0.45593999997E+02  0.45594000000E+02  0.51100000000E-03 0.  1.
         11   -1    0    0    0    0 -0.00000000000E+00 -0.00000000000E+00 -0.45593999997E+02  0.45594000000E+02  0.51100000000E-03 0. -1.
    9900012    2    1    2    0    0  0.82922558528E+01  0.42490793202E+02 -0.30650087743E+01  0.47787270826E+02  0.19999999005E+02 0.  0.
        -12    1    1    2    0    0 -0.82922558528E+01 -0.42490793202E+02  0.30650087743E+01  0.43400729174E+02  0.00000000000E+00 0.  1.
         11    1    3    3    0    0 -0.37428282559E+01  0.11563234169E+02 -0.57396529988E+01  0.13441010551E+02  0.51100000000E-03 0. -1.
        -11    1    3    3    0    0  0.40678859003E+01  0.21353022503E+02  0.81463258102E+00  0.21752307744E+02  0.51100000000E-03 0.  1.
         12    1    3    3    0    0  0.79671982085E+01  0.95745365297E+01  0.18600116435E+01  0.12593952531E+02  0.00000000000E+00 0. -1.
</event>
<event>
 7    1  0.1714203E-010  0.4778727E+02  0.7816164E-02  0.1312668E+00
        -11   -1    0    0    0    0  0.00000000000E+00  0.00000000000E+00  0.45593999997E+02  0.45594000000E+02  0.51100000000E-03 0.  1.
         11   -1    0    0    0    0 -0.00000000000E+00 -0.00000000000E+00 -0.45593999997E+02  0.45594000000E+02  0.51100000000E-03 0. -1.
    9900012    2    1    2    0    0 -0.27288452540E+02 -0.25917803266E+02 -0.21615538277E+02  0.47787266560E+02  0.19999979555E+02 0.  0.
        -12    1    1    2    0    0  0.27288452540E+02  0.25917803266E+02  0.21615538277E+02  0.43400733440E+02  0.00000000000E+00 0.  1.
         11    1    3    3    0    0 -0.14208730414E+02 -0.20759687730E+02 -0.15499203965E+02  0.29547892961E+02  0.51100000000E-03 0. -1.
        -11    1    3    3    0    0  0.22429044463E+00 -0.13369764224E+01  0.18309960792E+01  0.22782359537E+01  0.51100000000E-03 0.  1.
        -12    1    3    3    0    0 -0.13304012571E+02 -0.38211391133E+01 -0.79473303905E+01  0.15961137646E+02  0.00000000000E+00 0.  1.
</event>
<event>
 7    1  0.1714203E-010  0.4778732E+02  0.7816164E-02  0.1312668E+00
        -11   -1    0    0    0    0  0.00000000000E+00  0.00000000000E+00  0.45593999997E+02  0.45594000000E+02  0.51100000000E-03 0.  1.
         11   -1    0    0    0    0 -0.00000000000E+00 -0.00000000000E+00 -0.45593999997E+02  0.45594000000E+02  0.51100000000E-03 0. -1.
    9900012    2    1    2    0    0 -0.37913949321E+02  0.10801782074E+02 -0.18151384164E+02  0.47787322631E+02  0.20000235200E+02 0.  0.
        -12    1    1    2    0    0  0.37913949321E+02 -0.10801782074E+02  0.18151384164E+02  0.43400677369E+02  0.00000000000E+00 0.  1.
         11    1    3    3    0    0 -0.72487500605E+01  0.36317232187E+01 -0.95540654990E+01  0.12530521090E+02  0.51100000000E-03 0. -1.
        -11    1    3    3    0    0 -0.17491996105E+02  0.10271742156E+02 -0.25886447121E+01  0.20449442446E+02  0.51100000000E-03 0.  1.
         12    1    3    3    0    0 -0.13173203155E+02 -0.31016833007E+01 -0.60086739528E+01  0.14807359094E+02  0.00000000000E+00 0. -1.
</event>
<event>
 7    1  0.1714203E-010  0.4778728E+02  0.7816164E-02  0.1312668E+00
        -11   -1    0    0    0    0  0.00000000000E+00  0.00000000000E+00  0.45593999997E+02  0.45594000000E+02  0.51100000000E-03 0.  1.
         11   -1    0    0    0    0 -0.00000000000E+00 -0.00000000000E+00 -0.45593999997E+02  0.45594000000E+02  0.51100000000E-03 0. -1.
    9900012    2    1    2    0    0  0.29987949466E+02  0.31137611883E+02 -0.38464054942E+01  0.47787276248E+02  0.20000023724E+02 0.  0.
        -12    1    1    2    0    0 -0.29987949466E+02 -0.31137611883E+02  0.38464054942E+01  0.43400723752E+02  0.00000000000E+00 0.  1.
         11    1    3    3    0    0  0.10914249842E+01  0.72574317384E+01  0.15062227406E+01  0.74920111545E+01  0.51100000000E-03 0. -1.
        -11    1    3    3    0    0  0.26326648470E+02  0.16977580751E+02 -0.23617852816E+00  0.31327088093E+02  0.51100000000E-03 0.  1.
         12    1    3    3    0    0  0.25698760125E+01  0.69025993941E+01 -0.51164497067E+01  0.89681770007E+01  0.00000000000E+00 0. -1.
</event>
<event>
 7    1  0.1714203E-010  0.4778727E+02  0.7816164E-02  0.1312668E+00
        -11   -1    0    0    0    0  0.00000000000E+00  0.00000000000E+00  0.45593999997E+02  0.45594000000E+02  0.51100000000E-03 0. -1.
         11   -1    0    0    0    0 -0.00000000000E+00 -0.00000000000E+00 -0.45593999997E+02  0.45594000000E+02  0.51100000000E-03 0.  1.
    9900012    2    1    2    0    0  0.38694813448E+02 -0.16174742852E+02  0.11167477173E+02  0.47787269124E+02  0.19999991244E+02 0.  0.
        -12    1    1    2    0    0 -0.38694813448E+02  0.16174742852E+02 -0.11167477173E+02  0.43400730876E+02  0.00000000000E+00 0.  1.
         11    1    3    3    0    0  0.31066271489E+02 -0.19961214621E+02  0.77569487176E+01  0.37732394134E+02  0.51100000000E-03 0. -1.
        -11    1    3    3    0    0  0.44263688086E+01  0.12559265279E+01 -0.20036856922E+00  0.46054576426E+01  0.51100000000E-03 0.  1.
        -12    1    3    3    0    0  0.32021731504E+01  0.25305452411E+01  0.36108970248E+01  0.54494173474E+01  0.00000000000E+00 0.  1.
</event>
<event>
 7    1  0.1714203E-010  0.4778727E+02  0.7816164E-02  0.1312668E+00
        -11   -1    0    0    0    0  0.00000000000E+00  0.00000000000E+00  0.45593999997E+02  0.45594000000E+02  0.51100000000E-03 0. -1.
         11   -1    0    0    0    0 -0.00000000000E+00 -0.00000000000E+00 -0.45593999997E+02  0.45594000000E+02  0.51100000000E-03 0.  1.
    9900012    2    1    2    0    0 -0.37128489281E+02 -0.20462854462E+02  0.92935461707E+01  0.47787272708E+02  0.20000007584E+02 0.  0.
        -12    1    1    2    0    0  0.37128489281E+02  0.20462854462E+02 -0.92935461707E+01  0.43400727292E+02  0.00000000000E+00 0.  1.
         11    1    3    3    0    0 -0.30717480563E+02 -0.13502661720E+02  0.50261492404E+01  0.33928567051E+02  0.51100000000E-03 0. -1.
        -11    1    3    3    0    0 -0.43239364386E+01  0.81255221991E+00  0.37722988474E+01  0.57954211486E+01  0.51100000000E-03 0.  1.
        -12    1    3    3    0    0 -0.20870722798E+01 -0.77727449624E+01  0.49509808292E+00  0.80632845084E+01  0.00000000000E+00 0.  1.
</event>
<event>
 7    1  0.1714203E-010  0.4778722E+02  0.7816164E-02  0.1312668E+00
        -11   -1    0    0    0    0  0.00000000000E+00  0.00000000000E+00  0.45593999997E+02  0.45594000000E+02  0.51100000000E-03 0. -1.
         11   -1    0    0    0    0 -0.00000000000E+00 -0.00000000000E+00 -0.45593999997E+02  0.45594000000E+02  0.51100000000E-03 0.  1.
    9900012    2    1    2    0    0 -0.29483306108E+00 -0.42190605327E+02  0.10173183112E+02  0.47787219373E+02  0.19999764407E+02 0.  0.
        -12    1    1    2    0    0  0.29483306108E+00  0.42190605327E+02 -0.10173183112E+02  0.43400780627E+02  0.00000000000E+00 0.  1.
         11    1    3    3    0    0 -0.39685921045E+01 -0.61217130445E+01 -0.28148493227E+01  0.78197487723E+01  0.51100000000E-03 0. -1.
        -11    1    3    3    0    0  0.48070960971E+01 -0.59115989028E+01  0.26821288994E+01  0.80776847035E+01  0.51100000000E-03 0.  1.
         12    1    3    3    0    0 -0.11333370537E+01 -0.30157293380E+02  0.10305903536E+02  0.31889785897E+02  0.00000000000E+00 0. -1.
</event>
<event>
 7    1  0.1714203E-010  0.4778727E+02  0.7816164E-02  0.1312668E+00
        -11   -1    0    0    0    0  0.00000000000E+00  0.00000000000E+00  0.45593999997E+02  0.45594000000E+02  0.51100000000E-03 0.  1.
         11   -1    0    0    0    0 -0.00000000000E+00 -0.00000000000E+00 -0.45593999997E+02  0.45594000000E+02  0.51100000000E-03 0. -1.
    9900012    2    1    2    0    0  0.86742257693E+00  0.27230419849E+02 -0.33784244095E+02  0.47787270327E+02  0.19999996727E+02 0.  0.
        -12    1    1    2    0    0 -0.86742257693E+00 -0.27230419849E+02  0.33784244095E+02  0.43400729673E+02  0.00000000000E+00 0.  1.
         11    1    3    3    0    0 -0.88306289782E+00  0.51962462092E+00  0.62551669495E+00  0.12004504259E+01  0.51100000000E-03 0. -1.
        -11    1    3    3    0    0 -0.51313711373E+00 -0.13785628883E+01  0.64769898306E+00  0.16072521794E+01  0.51100000000E-03 0.  1.
         12    1    3    3    0    0  0.22636225885E+01  0.28089358117E+02 -0.35057459773E+02  0.44979567721E+02  0.00000000000E+00 0. -1.
</event>
<event>
 7    1  0.1714203E-010  0.4778727E+02  0.7816164E-02  0.1312668E+00
        -11   -1    0    0    0    0  0.00000000000E+00  0.00000000000E+00  0.45593999997E+02  0.45594000000E+02  0.51100000000E-03 0.  1.
         11   -1    0    0    0    0 -0.00000000000E+00 -0.00000000000E+00 -0.45593999997E+02  0.45594000000E+02  0.51100000000E-03 0. -1.
    9900012    2    1    2    0    0  0.39260959041E+02 -0.14207745234E+01 -0.18444024992E+02  0.47787267714E+02  0.19999984814E+02 0.  0.
        -12    1    1    2    0    0 -0.39260959041E+02  0.14207745234E+01  0.18444024992E+02  0.43400732286E+02  0.00000000000E+00 0.  1.
         11    1    3    3    0    0  0.23438317944E+02  0.46717291805E+01 -0.14515001984E+02  0.27961850519E+02  0.51100000000E-03 0. -1.
        -11    1    3    3    0    0  0.18555984901E+01 -0.32826430696E+01 -0.41095407740E+01  0.55773933798E+01  0.51100000000E-03 0.  1.
        -12    1    3    3    0    0  0.13967042607E+02 -0.28098606343E+01  0.18051776594E+00  0.14248023815E+02  0.00000000000E+00 0.  1.
</event>
<event>
 7    1  0.1714203E-010  0.4778728E+02  0.7816164E-02  0.1312668E+00
        -11   -1    0    0    0    0  0.00000000000E+00  0.00000000000E+00  0.45593999997E+02  0.45594000000E+02  0.51100000000E-03 0. -1.
         11   -1    0    0    0    0 -0.00000000000E+00 -0.00000000000E+00 -0.45593999997E+02  0.45594000000E+02  0.51100000000E-03 0.  1.
    9900012    2    1    2    0    0 -0.37465115142E+02 -0.17517252622E+02  0.13158033683E+02  0.47787276015E+02  0.20000022663E+02 0.  0.
        -12    1    1    2    0    0  0.37465115142E+02  0.17517252622E+02 -0.13158033683E+02  0.43400723985E+02  0.00000000000E+00 0.  1.
         11    1    3    3    0    0 -0.27142702032E+01 -0.10415347137E+00  0.36876920227E+00  0.27411861789E+01  0.51100000000E-03 0. -1.
        -11    1    3    3    0    0 -0.23547019479E+01  0.29070558147E+01  0.46145857722E+01  0.59405384337E+01  0.51100000000E-03 0.  1.
         12    1    3    3    0    0 -0.32396142991E+02 -0.20320154966E+02  0.81746787083E+01  0.39105551402E+02  0.00000000000E+00 0. -1.
</event>
<event>
 7    1  0.1714203E-010  0.4778727E+02  0.7816164E-02  0.1312668E+00
        -11   -1    0    0    0    0  0.00000000000E+00  0.00000000000E+00  0.45593999997E+02  0.45594000000E+02  0.51100000000E-03 0. -1.
         11   -1    0    0    0    0 -0.00000000000E+00 -0.00000000000E+00 -0.45593999997E+02  0.45594000000E+02  0.51100000000E-03 0.  1.
    9900012    2    1    2    0    0 -0.20338823734E+01  0.35938706882E+00  0.43351554894E+02  0.47787272491E+02  0.20000006595E+02 0.  0.
        -12    1    1    2    0    0  0.20338823734E+01 -0.35938706882E+00 -0.43351554894E+02  0.43400727509E+02  0.00000000000E+00 0.  1.
         11    1    3    3    0    0 -0.11824513850E+01  0.68517410380E+01  0.19239301147E+02  0.20457156582E+02  0.51100000000E-03 0. -1.
        -11    1    3    3    0    0  0.50453036417E+01 -0.20089180588E+01  0.93193635310E+01  0.10786166024E+02  0.51100000000E-03 0.  1.
         12    1    3    3    0    0 -0.58967346302E+01 -0.44834359104E+01  0.14792890216E+02  0.16543949885E+02  0.00000000000E+00 0. -1.
</event>
<event>
 7    1  0.1714203E-010  0.4778727E+02  0.7816164E-02  0.1312668E+00
        -11   -1    0    0    0    0  0.00000000000E+00  0.00000000000E+00  0.45593999997E+02  0.45594000000E+02  0.51100000000E-03 0.  1.
         11   -1    0    0    0    0 -0.00000000000E+00 -0.00000000000E+00 -0.45593999997E+02  0.45594000000E+02  0.51100000000E-03 0. -1.
    9900012    2    1    2    0    0 -0.35786707797E+02  0.55718829766E+01 -0.23914198409E+02  0.47787271660E+02  0.20000002807E+02 0.  0.
        -12    1    1    2    0    0  0.35786707797E+02 -0.55718829766E+01  0.23914198409E+02  0.43400728340E+02  0.00000000000E+00 0.  1.
         11    1    3    3    0    0 -0.13915975988E+02  0.73751721289E+00 -0.13810038195E+02  0.19619262844E+02  0.51100000000E-03 0. -1.
        -11    1    3    3    0    0 -0.33509824298E+01  0.13759425382E+01  0.34158185727E+01  0.49789675532E+01  0.51100000000E-03 0.  1.
         12    1    3    3    0    0 -0.18519749380E+02  0.34584232255E+01 -0.13519978787E+02  0.23189041263E+02  0.00000000000E+00 0. -1.
</event>
<event>
 7    1  0.1714203E-010  0.4778727E+02  0.7816164E-02  0.1312668E+00
        -11   -1    0    0    0    0  0.00000000000E+00  0.00000000000E+00  0.45593999997E+02  0.45594000000E+02  0.51100000000E-03 0. -1.
         11   -1    0    0    0    0 -0.00000000000E+00 -0.00000000000E+00 -0.45593999997E+02  0.45594000000E+02  0.51100000000E-03 0.  1.
    9900012    2    1    2    0    0 -0.40309207623E+02 -0.13876651202E+02  0.81381514484E+01  0.47787272163E+02  0.20000005101E+02 0.  0.
        -12    1    1    2    0    0  0.40309207623E+02  0.13876651202E+02 -0.81381514484E+01  0.43400727837E+02  0.00000000000E+00 0.  1.
         11    1    3    3    0    0 -0.20473535853E+02  0.16881343617E+01  0.56662237656E+01  0.21310128108E+02  0.51100000000E-03 0. -1.
        -11    1    3    3    0    0 -0.17385585060E+02 -0.11250133529E+02  0.43710262450E+01  0.21164355482E+02  0.51100000000E-03 0.  1.
        -12    1    3    3    0    0 -0.24500867097E+01 -0.43146520353E+01 -0.18990985622E+01  0.53127885728E+01  0.00000000000E+00 0.  1.
</event>
<event>
 7    1  0.1714203E-010  0.4778725E+02  0.7816164E-02  0.1312668E+00
        -11   -1    0    0    0    0  0.00000000000E+00  0.00000000000E+00  0.45593999997E+02  0.45594000000E+02  0.51100000000E-03 0.  1.
         11   -1    0    0    0    0 -0.00000000000E+00 -0.00000000000E+00 -0.45593999997E+02  0.45594000000E+02  0.51100000000E-03 0. -1.
    9900012    2    1    2    0    0  0.16879470260E+02  0.26267377161E+02 -0.30145208185E+02  0.47787248904E+02  0.19999899052E+02 0.  0.
        -12    1    1    2    0    0 -0.16879470260E+02 -0.26267377161E+02  0.30145208185E+02  0.43400751096E+02  0.00000000000E+00 0.  1.
         11    1    3    3    0    0  0.11931185610E+02  0.12376281926E+02 -0.70155595123E+01  0.18567272818E+02  0.51100000000E-03 0. -1.
        -11    1    3    3    0    0  0.29316814912E+01  0.54072837127E+01 -0.21763826146E+01  0.65245777689E+01  0.51100000000E-03 0.  1.
         12    1    3    3    0    0  0.20166031589E+01  0.84838115222E+01 -0.20953266058E+02  0.22695398317E+02  0.00000000000E+00 0. -1.
</event>
<event>
 7    1  0.1714203E-010  0.4778728E+02  0.7816164E-02  0.1312668E+00
        -11   -1    0    0    0    0  0.00000000000E+00  0.00000000000E+00  0.45593999997E+02  0.45594000000E+02  0.51100000000E-03 0. -1.
         11   -1    0    0    0    0 -0.00000000000E+00 -0.00000000000E+00 -0.45593999997E+02  0.45594000000E+02  0.51100000000E-03 0.  1.
    9900012    2    1    2    0    0 -0.32860117850E+02  0.22780222325E+02  0.16878893648E+02  0.47787275063E+02  0.20000018324E+02 0.  0.
        -12    1    1    2    0    0  0.32860117850E+02 -0.22780222325E+02 -0.16878893648E+02  0.43400724937E+02  0.00000000000E+00 0.  1.
         11    1    3    3    0    0 -0.88114375616E+01  0.74962331280E+01  0.32277379226E+01  0.12010546839E+02  0.51100000000E-03 0. -1.
        -11    1    3    3    0    0 -0.40837013076E+00  0.59984973837E+01 -0.15075590032E+01  0.61985055808E+01  0.51100000000E-03 0.  1.
         12    1    3    3    0    0 -0.23640310157E+02  0.92854918129E+01  0.15158714728E+02  0.29578222644E+02  0.00000000000E+00 0. -1.
</event>
<event>
 7    1  0.1714203E-010  0.4778726E+02  0.7816164E-02  0.1312668E+00
        -11   -1    0    0    0    0  0.00000000000E+00  0.00000000000E+00  0.45593999997E+02  0.45594000000E+02  0.51100000000E-03 0. -1.
         11   -1    0    0    0    0 -0.00000000000E+00 -0.00000000000E+00 -0.45593999997E+02  0.45594000000E+02  0.51100000000E-03 0.  1.
    9900012    2    1    2    0    0 -0.33786075404E+01  0.41655655822E+02 -0.11705382511E+02  0.47787255414E+02  0.19999928734E+02 0.  0.
        -12    1    1    2    0    0  0.33786075404E+01 -0.41655655822E+02  0.11705382511E+02  0.43400744586E+02  0.00000000000E+00 0.  1.
         11    1    3    3    0    0  0.17839304317E+01  0.18185191944E+02 -0.66548516859E+01  0.19446610632E+02  0.51100000000E-03 0. -1.
        -11    1    3    3    0    0  0.37048547161E+01  0.57336577068E+01 -0.50824751956E+01  0.85107187441E+01  0.51100000000E-03 0.  1.
        -12    1    3    3    0    0 -0.88673926881E+01  0.17736806171E+02  0.31944370131E-01  0.19829926038E+02  0.00000000000E+00 0.  1.
</event>
<event>
 7    1  0.1714203E-010  0.4778728E+02  0.7816164E-02  0.1312668E+00
        -11   -1    0    0    0    0  0.00000000000E+00  0.00000000000E+00  0.45593999997E+02  0.45594000000E+02  0.51100000000E-03 0.  1.
         11   -1    0    0    0    0 -0.00000000000E+00 -0.00000000000E+00 -0.45593999997E+02  0.45594000000E+02  0.51100000000E-03 0. -1.
    9900012    2    1    2    0    0  0.15808811301E+01 -0.71425968727E+01 -0.42779749963E+02  0.47787275558E+02  0.20000020579E+02 0.  0.
        -12    1    1    2    0    0 -0.15808811301E+01  0.71425968727E+01  0.42779749963E+02  0.43400724442E+02  0.00000000000E+00 0.  1.
         11    1    3    3    0    0  0.31327720094E+01 -0.10301607685E+02 -0.26162229162E+02  0.28291334651E+02  0.51100000000E-03 0. -1.
        -11    1    3    3    0    0  0.12561227573E+01 -0.50186776843E+00  0.73573684017E+00  0.15398131697E+01  0.51100000000E-03 0.  1.
         12    1    3    3    0    0 -0.28080136366E+01  0.36608785808E+01 -0.17353257641E+02  0.17956127737E+02  0.00000000000E+00 0. -1.
</event>
<event>
 7    1  0.1714203E-010  0.4778727E+02  0.7816164E-02  0.1312668E+00
        -11   -1    0    0    0    0  0.00000000000E+00  0.00000000000E+00  0.45593999997E+02  0.45594000000E+02  0.51100000000E-03 0.  1.
         11   -1    0    0    0    0 -0.00000000000E+00 -0.00000000000E+00 -0.45593999997E+02  0.45594000000E+02  0.51100000000E-03 0. -1.
    9900012    2    1    2    0    0  0.19457087985E+02 -0.14492663989E+02 -0.35986216091E+02  0.47787270388E+02  0.19999997006E+02 0.  0.
        -12    1    1    2    0    0 -0.19457087985E+02  0.14492663989E+02  0.35986216091E+02  0.43400729612E+02  0.00000000000E+00 0.  1.
         11    1    3    3    0    0  0.86145382320E+01 -0.16963202972E+02 -0.25860469395E+02  0.32104896848E+02  0.51100000000E-03 0. -1.
        -11    1    3    3    0    0  0.98844582210E+01  0.26195844760E+01 -0.10487374024E+02  0.14647516899E+02  0.51100000000E-03 0.  1.
         12    1    3    3    0    0  0.95809153181E+00 -0.14904549369E+00  0.36162732801E+00  0.10348566407E+01  0.00000000000E+00 0. -1.
</event>
<event>
 7    1  0.1714203E-010  0.4778727E+02  0.7816164E-02  0.1312668E+00
        -11   -1    0    0    0    0  0.00000000000E+00  0.00000000000E+00  0.45593999997E+02  0.45594000000E+02  0.51100000000E-03 0. -1.
         11   -1    0    0    0    0 -0.00000000000E+00 -0.00000000000E+00 -0.45593999997E+02  0.45594000000E+02  0.51100000000E-03 0.  1.
    9900012    2    1    2    0    0 -0.17853415200E+02 -0.38771669381E+02  0.78509003690E+01  0.47787269390E+02  0.19999992458E+02 0.  0.
        -12    1    1    2    0    0  0.17853415200E+02  0.38771669381E+02 -0.78509003690E+01  0.43400730610E+02  0.00000000000E+00 0.  1.
         11    1    3    3    0    0 -0.45906164325E+01 -0.22596257260E+02  0.62338724300E+01  0.23885681216E+02  0.51100000000E-03 0. -1.
        -11    1    3    3    0    0 -0.94164903315E+01 -0.14693913394E+02 -0.30045703855E+01  0.17709004050E+02  0.51100000000E-03 0.  1.
         12    1    3    3    0    0 -0.38463084362E+01 -0.14814987264E+01  0.46215983245E+01  0.61925841242E+01  0.00000000000E+00 0. -1.
</event>
<event>
 7    1  0.1714203E-010  0.4778727E+02  0.7816164E-02  0.1312668E+00
        -11   -1    0    0    0    0  0.00000000000E+00  0.00000000000E+00  0.45593999997E+02  0.45594000000E+02  0.51100000000E-03 0.  1.
         11   -1    0    0    0    0 -0.00000000000E+00 -0.00000000000E+00 -0.45593999997E+02  0.45594000000E+02  0.51100000000E-03 0. -1.
    9900012    2    1    2    0    0 -0.24071952333E+02  0.21648800833E+02 -0.28904910811E+02  0.47787270333E+02  0.19999996757E+02 0.  0.
        -12    1    1    2    0    0  0.24071952333E+02 -0.21648800833E+02  0.28904910811E+02  0.43400729667E+02  0.00000000000E+00 0.  1.
         11    1    3    3    0    0 -0.20991231867E+02  0.14635990978E+02 -0.21728459437E+02  0.33570373799E+02  0.51100000000E-03 0. -1.
        -11    1    3    3    0    0 -0.38175446008E+01  0.16062342216E+01  0.11167422407E+01  0.42896093816E+01  0.51100000000E-03 0.  1.
         12    1    3    3    0    0  0.73682413493E+00  0.54065756327E+01 -0.82931936147E+01  0.99272871525E+01  0.00000000000E+00 0. -1.
</event>
<event>
 7    1  0.1714203E-010  0.4778726E+02  0.7816164E-02  0.1312668E+00
        -11   -1    0    0    0    0  0.00000000000E+00  0.00000000000E+00  0.45593999997E+02  0.45594000000E+02  0.51100000000E-03 0.  1.
         11   -1    0    0    0    0 -0.00000000000E+00 -0.00000000000E+00 -0.45593999997E+02  0.45594000000E+02  0.51100000000E-03 0. -1.
    9900012    2    1    2    0    0 -0.34197430530E+02  0.92611962656E+01 -0.25067705957E+02  0.47787263911E+02  0.19999967475E+02 0.  0.
        -12    1    1    2    0    0  0.34197430530E+02 -0.92611962656E+01  0.25067705957E+02  0.43400736089E+02  0.00000000000E+00 0.  1.
         11    1    3    3    0    0 -0.78228360970E+01  0.26214978953E+01 -0.10601866892E+02  0.13433860118E+02  0.51100000000E-03 0. -1.
        -11    1    3    3    0    0 -0.55751881807E+01  0.46630433693E+01 -0.10985728176E+02  0.13172430320E+02  0.51100000000E-03 0.  1.
        -12    1    3    3    0    0 -0.20799406253E+02  0.19766550010E+01 -0.34801108886E+01  0.21180973473E+02  0.00000000000E+00 0.  1.
</event>
<event>
 7    1  0.1714203E-010  0.4778728E+02  0.7816164E-02  0.1312668E+00
        -11   -1    0    0    0    0  0.00000000000E+00  0.00000000000E+00  0.45593999997E+02  0.45594000000E+02  0.51100000000E-03 0.  1.
         11   -1    0    0    0    0 -0.00000000000E+00 -0.00000000000E+00 -0.45593999997E+02  0.45594000000E+02  0.51100000000E-03 0. -1.
    9900012    2    1    2    0    0  0.30064961448E+02  0.54179091180E+01 -0.30828022041E+02  0.47787278935E+02  0.20000035974E+02 0.  0.
        -12    1    1    2    0    0 -0.30064961448E+02 -0.54179091180E+01  0.30828022041E+02  0.43400721065E+02  0.00000000000E+00 0.  1.
         11    1    3    3    0    0  0.36849606153E+01 -0.36849311924E+01 -0.11381379144E+02  0.12517725197E+02  0.51100000000E-03 0. -1.
        -11    1    3    3    0    0  0.17342180189E+02  0.13334966927E+01 -0.13038261734E+02  0.21737656186E+02  0.51100000000E-03 0.  1.
        -12    1    3    3    0    0  0.90378206430E+01  0.77693436176E+01 -0.64083811629E+01  0.13531897552E+02  0.00000000000E+00 0.  1.
</event>
<event>
 7    1  0.1714203E-010  0.4778724E+02  0.7816164E-02  0.1312668E+00
        -11   -1    0    0    0    0  0.00000000000E+00  0.00000000000E+00  0.45593999997E+02  0.45594000000E+02  0.51100000000E-03 0.  1.
         11   -1    0    0    0    0 -0.00000000000E+00 -0.00000000000E+00 -0.45593999997E+02  0.45594000000E+02  0.51100000000E-03 0. -1.
    9900012    2    1    2    0    0  0.35687578114E+02  0.23096175785E+02 -0.87515267209E+01  0.47787242087E+02  0.19999867969E+02 0.  0.
        -12    1    1    2    0    0 -0.35687578114E+02 -0.23096175785E+02  0.87515267209E+01  0.43400757913E+02  0.00000000000E+00 0.  1.
         11    1    3    3    0    0  0.36227538518E+01  0.91028206517E+01 -0.26615122708E+01  0.10152306985E+02  0.51100000000E-03 0. -1.
        -11    1    3    3    0    0  0.52076183935E+01 -0.23011407159E+01 -0.37586911129E+00  0.57057703929E+01  0.51100000000E-03 0.  1.
         12    1    3    3    0    0  0.26857205868E+02  0.16294495850E+02 -0.57141453388E+01  0.31929164709E+02  0.00000000000E+00 0. -1.
</event>
<event>
 7    1  0.1714203E-010  0.4778727E+02  0.7816164E-02  0.1312668E+00
        -11   -1    0    0    0    0  0.00000000000E+00  0.00000000000E+00  0.45593999997E+02  0.45594000000E+02  0.51100000000E-03 0. -1.
         11   -1    0    0    0    0 -0.00000000000E+00 -0.00000000000E+00 -0.45593999997E+02  0.45594000000E+02  0.51100000000E-03 0.  1.
    9900012    2    1    2    0    0  0.45669904197E+01 -0.29818875666E+02  0.31202570775E+02  0.47787272236E+02  0.20000005433E+02 0.  0.
        -12    1    1    2    0    0 -0.45669904197E+01  0.29818875666E+02 -0.31202570775E+02  0.43400727764E+02  0.00000000000E+00 0.  1.
         11    1    3    3    0    0 -0.48589739904E+01 -0.84567815073E+01  0.88393247892E+01  0.13162843336E+02  0.51100000000E-03 0.  1.
        -11    1    3    3    0    0  0.69059048518E+01 -0.10899018091E+02  0.19680193367E+02  0.23532745875E+02  0.51100000000E-03 0. -1.
        -12    1    3    3    0    0  0.25200595582E+01 -0.10463076068E+02  0.26830526187E+01  0.11091683025E+02  0.00000000000E+00 0.  1.
</event>
<event>
 7    1  0.1714203E-010  0.4778727E+02  0.7816164E-02  0.1312668E+00
        -11   -1    0    0    0    0  0.00000000000E+00  0.00000000000E+00  0.45593999997E+02  0.45594000000E+02  0.51100000000E-03 0. -1.
         11   -1    0    0    0    0 -0.00000000000E+00 -0.00000000000E+00 -0.45593999997E+02  0.45594000000E+02  0.51100000000E-03 0.  1.
    9900012    2    1    2    0    0  0.22628520885E+02 -0.18845821232E+02  0.31881160195E+02  0.47787270620E+02  0.19999998063E+02 0.  0.
        -12    1    1    2    0    0 -0.22628520885E+02  0.18845821232E+02 -0.31881160195E+02  0.43400729380E+02  0.00000000000E+00 0.  1.
         11    1    3    3    0    0  0.13203986464E+02 -0.41913125364E-01  0.11362698744E+02  0.17420044152E+02  0.51100000000E-03 0. -1.
        -11    1    3    3    0    0  0.98910925114E+01 -0.12019493571E+02  0.14865188646E+02  0.21523841909E+02  0.51100000000E-03 0.  1.
        -12    1    3    3    0    0 -0.46655809034E+00 -0.67844145359E+01  0.56532728054E+01  0.88433845590E+01  0.00000000000E+00 0.  1.
</event>
<event>
 7    1  0.1714203E-010  0.4778728E+02  0.7816164E-02  0.1312668E+00
        -11   -1    0    0    0    0  0.00000000000E+00  0.00000000000E+00  0.45593999997E+02  0.45594000000E+02  0.51100000000E-03 0.  1.
         11   -1    0    0    0    0 -0.00000000000E+00 -0.00000000000E+00 -0.45593999997E+02  0.45594000000E+02  0.51100000000E-03 0. -1.
    9900012    2    1    2    0    0  0.35926262825E+01  0.12412663469E+02 -0.41432370452E+02  0.47787279969E+02  0.20000040689E+02 0.  0.
        -12    1    1    2    0    0 -0.35926262825E+01 -0.12412663469E+02  0.41432370452E+02  0.43400720031E+02  0.00000000000E+00 0.  1.
         11    1    3    3    0    0 -0.98308088127E+00  0.88480452120E+01 -0.31662941069E+02  0.32890670250E+02  0.51100000000E-03 0. -1.
        -11    1    3    3    0    0 -0.53848199084E+00  0.52470980020E+01 -0.24643903276E+01  0.58219601721E+01  0.51100000000E-03 0.  1.
        -12    1    3    3    0    0  0.51141891546E+01 -0.16824797450E+01 -0.73050390546E+01  0.90746495464E+01  0.00000000000E+00 0.  1.
</event>
<event>
 7    1  0.1714203E-010  0.4778727E+02  0.7816164E-02  0.1312668E+00
        -11   -1    0    0    0    0  0.00000000000E+00  0.00000000000E+00  0.45593999997E+02  0.45594000000E+02  0.51100000000E-03 0.  1.
         11   -1    0    0    0    0 -0.00000000000E+00 -0.00000000000E+00 -0.45593999997E+02  0.45594000000E+02  0.51100000000E-03 0. -1.
    9900012    2    1    2    0    0  0.21929879375E+02  0.35220322519E+02 -0.12737059590E+02  0.47787269421E+02  0.19999992600E+02 0.  0.
        -12    1    1    2    0    0 -0.21929879375E+02 -0.35220322519E+02  0.12737059590E+02  0.43400730579E+02  0.00000000000E+00 0.  1.
         11    1    3    3    0    0  0.11916863779E+02  0.29390560661E+02 -0.95921486674E+01  0.33133457631E+02  0.51100000000E-03 0. -1.
        -11    1    3    3    0    0  0.62274266294E+01  0.70191784913E+01  0.31559440052E+00  0.93887863542E+01  0.51100000000E-03 0.  1.
        -12    1    3    3    0    0  0.37855889670E+01 -0.11894166330E+01 -0.34605053230E+01  0.52650254363E+01  0.00000000000E+00 0.  1.
</event>
<event>
 7    1  0.1714203E-010  0.4778727E+02  0.7816164E-02  0.1312668E+00
        -11   -1    0    0    0    0  0.00000000000E+00  0.00000000000E+00  0.45593999997E+02  0.45594000000E+02  0.51100000000E-03 0. -1.
         11   -1    0    0    0    0 -0.00000000000E+00 -0.00000000000E+00 -0.45593999997E+02  0.45594000000E+02  0.51100000000E-03 0.  1.
    9900012    2    1    2    0    0 -0.76793989037E+01 -0.27684582763E+02 -0.32530203636E+02  0.47787269143E+02  0.19999991333E+02 0.  0.
        -12    1    1    2    0    0  0.76793989037E+01  0.27684582763E+02  0.32530203636E+02  0.43400730857E+02  0.00000000000E+00 0.  1.
         11    1    3    3    0    0 -0.71909836684E+00  0.62527435048E+00 -0.27291675966E+00  0.99123876709E+00  0.51100000000E-03 0. -1.
        -11    1    3    3    0    0 -0.71175913758E+01 -0.19118998031E+01 -0.88285857935E+01  0.11500408481E+02  0.51100000000E-03 0.  1.
         12    1    3    3    0    0  0.15729083889E+00 -0.26397957310E+02 -0.23428701083E+02  0.35295621896E+02  0.00000000000E+00 0. -1.
</event>
<event>
 7    1  0.1714203E-010  0.4778727E+02  0.7816164E-02  0.1312668E+00
        -11   -1    0    0    0    0  0.00000000000E+00  0.00000000000E+00  0.45593999997E+02  0.45594000000E+02  0.51100000000E-03 0.  1.
         11   -1    0    0    0    0 -0.00000000000E+00 -0.00000000000E+00 -0.45593999997E+02  0.45594000000E+02  0.51100000000E-03 0. -1.
    9900012    2    1    2    0    0  0.17311760619E+02 -0.29579062250E+02 -0.26627148423E+02  0.47787274056E+02  0.20000013732E+02 0.  0.
        -12    1    1    2    0    0 -0.17311760619E+02  0.29579062250E+02  0.26627148423E+02  0.43400725944E+02  0.00000000000E+00 0.  1.
         11    1    3    3    0    0  0.10685257112E+02 -0.25651846273E+02 -0.25396705799E+02  0.37645512382E+02  0.51100000000E-03 0. -1.
        -11    1    3    3    0    0  0.31973947785E+01  0.76949373939E+00 -0.25704630741E+01  0.41740549423E+01  0.51100000000E-03 0.  1.
        -12    1    3    3    0    0  0.34291087291E+01 -0.46967097164E+01  0.13400204508E+01  0.59677067325E+01  0.00000000000E+00 0.  1.
</event>
<event>
 7    1  0.1714203E-010  0.4778727E+02  0.7816164E-02  0.1312668E+00
        -11   -1    0    0    0    0  0.00000000000E+00  0.00000000000E+00  0.45593999997E+02  0.45594000000E+02  0.51100000000E-03 0. -1.
         11   -1    0    0    0    0 -0.00000000000E+00 -0.00000000000E+00 -0.45593999997E+02  0.45594000000E+02  0.51100000000E-03 0.  1.
    9900012    2    1    2    0    0 -0.11260177055E+01 -0.35463010497E+01  0.43240943124E+02  0.47787270406E+02  0.19999997090E+02 0.  0.
        -12    1    1    2    0    0  0.11260177055E+01  0.35463010497E+01 -0.43240943124E+02  0.43400729594E+02  0.00000000000E+00 0.  1.
         11    1    3    3    0    0  0.26027562700E+01 -0.59689363718E+01  0.56874067036E+01  0.86457583176E+01  0.51100000000E-03 0. -1.
        -11    1    3    3    0    0  0.26404737130E+01  0.34060233164E+01  0.19545689850E+02  0.20015171452E+02  0.51100000000E-03 0.  1.
        -12    1    3    3    0    0 -0.63692476885E+01 -0.98338799431E+00  0.18007846570E+02  0.19126340637E+02  0.00000000000E+00 0.  1.
</event>
<event>
 7    1  0.1714203E-010  0.4778727E+02  0.7816164E-02  0.1312668E+00
        -11   -1    0    0    0    0  0.00000000000E+00  0.00000000000E+00  0.45593999997E+02  0.45594000000E+02  0.51100000000E-03 0. -1.
         11   -1    0    0    0    0 -0.00000000000E+00 -0.00000000000E+00 -0.45593999997E+02  0.45594000000E+02  0.51100000000E-03 0.  1.
    9900012    2    1    2    0    0 -0.15808272687E+02 -0.19188091734E+02  0.35574416890E+02  0.47787268591E+02  0.19999988814E+02 0.  0.
        -12    1    1    2    0    0  0.15808272687E+02  0.19188091734E+02 -0.35574416890E+02  0.43400731409E+02  0.00000000000E+00 0.  1.
         11    1    3    3    0    0 -0.12103316802E+02 -0.20315983253E+02  0.32023194778E+02  0.39808472179E+02  0.51100000000E-03 0. -1.
        -11    1    3    3    0    0  0.15053000389E+00 -0.14684486696E+01 -0.74123437220E+00  0.16517958206E+01  0.51100000000E-03 0.  1.
         12    1    3    3    0    0 -0.38554858890E+01  0.25963401886E+01  0.42924564842E+01  0.63270005914E+01  0.00000000000E+00 0. -1.
</event>
<event>
 7    1  0.1714203E-010  0.4778727E+02  0.7816164E-02  0.1312668E+00
        -11   -1    0    0    0    0  0.00000000000E+00  0.00000000000E+00  0.45593999997E+02  0.45594000000E+02  0.51100000000E-03 0.  1.
         11   -1    0    0    0    0 -0.00000000000E+00 -0.00000000000E+00 -0.45593999997E+02  0.45594000000E+02  0.51100000000E-03 0. -1.
    9900012    2    1    2    0    0  0.20145628039E+01 -0.60166928930E+01 -0.42934415640E+02  0.47787273013E+02  0.20000008976E+02 0.  0.
        -12    1    1    2    0    0 -0.20145628039E+01  0.60166928930E+01  0.42934415640E+02  0.43400726987E+02  0.00000000000E+00 0.  1.
         11    1    3    3    0    0  0.59805398092E+01 -0.64791164945E+01 -0.21525264104E+02  0.23261186598E+02  0.51100000000E-03 0. -1.
        -11    1    3    3    0    0 -0.49868728452E+01 -0.45885601686E+01 -0.11213119204E+02  0.13101825359E+02  0.51100000000E-03 0.  1.
        -12    1    3    3    0    0  0.10208958398E+01  0.50509837700E+01 -0.10196032331E+02  0.11424261055E+02  0.00000000000E+00 0.  1.
</event>
<event>
 7    1  0.1714203E-010  0.4778728E+02  0.7816164E-02  0.1312668E+00
        -11   -1    0    0    0    0  0.00000000000E+00  0.00000000000E+00  0.45593999997E+02  0.45594000000E+02  0.51100000000E-03 0.  1.
         11   -1    0    0    0    0 -0.00000000000E+00 -0.00000000000E+00 -0.45593999997E+02  0.45594000000E+02  0.51100000000E-03 0. -1.
    9900012    2    1    2    0    0 -0.34419541734E+02 -0.23088017874E+02 -0.12878720586E+02  0.47787275738E+02  0.20000021402E+02 0.  0.
        -12    1    1    2    0    0  0.34419541734E+02  0.23088017874E+02  0.12878720586E+02  0.43400724262E+02  0.00000000000E+00 0.  1.
         11    1    3    3    0    0 -0.41369399665E+01  0.31904467039E+00 -0.43490193269E+01  0.60108261624E+01  0.51100000000E-03 0. -1.
        -11    1    3    3    0    0 -0.20607994852E+02 -0.13873247436E+02  0.15062115576E+01  0.24888252646E+02  0.51100000000E-03 0.  1.
         12    1    3    3    0    0 -0.96746069148E+01 -0.95338151083E+01 -0.10035912817E+02  0.16888196930E+02  0.00000000000E+00 0. -1.
</event>
<event>
 7    1  0.1714203E-010  0.4778727E+02  0.7816164E-02  0.1312668E+00
        -11   -1    0    0    0    0  0.00000000000E+00  0.00000000000E+00  0.45593999997E+02  0.45594000000E+02  0.51100000000E-03 0.  1.
         11   -1    0    0    0    0 -0.00000000000E+00 -0.00000000000E+00 -0.45593999997E+02  0.45594000000E+02  0.51100000000E-03 0. -1.
    9900012    2    1    2    0    0 -0.33915805938E+02  0.67157428441E+01 -0.26234333615E+02  0.47787270114E+02  0.19999995760E+02 0.  0.
        -12    1    1    2    0    0  0.33915805938E+02 -0.67157428441E+01  0.26234333615E+02  0.43400729886E+02  0.00000000000E+00 0.  1.
         11    1    3    3    0    0 -0.22207572774E+02 -0.22092538435E+01 -0.14347359630E+02  0.26531185795E+02  0.51100000000E-03 0. -1.
        -11    1    3    3    0    0 -0.94988860851E+01  0.12413993364E+01 -0.72492686591E+01  0.12013401081E+02  0.51100000000E-03 0.  1.
        -12    1    3    3    0    0 -0.22093470787E+01  0.76835973511E+01 -0.46377053259E+01  0.92426832391E+01  0.00000000000E+00 0.  1.
</event>
<event>
 7    1  0.1714203E-010  0.4778727E+02  0.7816164E-02  0.1312668E+00
        -11   -1    0    0    0    0  0.00000000000E+00  0.00000000000E+00  0.45593999997E+02  0.45594000000E+02  0.51100000000E-03 0. -1.
         11   -1    0    0    0    0 -0.00000000000E+00 -0.00000000000E+00 -0.45593999997E+02  0.45594000000E+02  0.51100000000E-03 0.  1.
    9900012    2    1    2    0    0  0.11894008416E+02  0.39580514364E+02  0.13249112846E+02  0.47787267924E+02  0.19999985774E+02 0.  0.
        -12    1    1    2    0    0 -0.11894008416E+02 -0.39580514364E+02 -0.13249112846E+02  0.43400732076E+02  0.00000000000E+00 0.  1.
         11    1    3    3    0    0  0.40191028112E+01  0.31713823734E+02  0.98960401902E+01  0.33464181074E+02  0.51100000000E-03 0. -1.
        -11    1    3    3    0    0  0.50721038503E+01  0.48868720883E+01  0.61639659853E+01  0.93596064663E+01  0.51100000000E-03 0.  1.
        -12    1    3    3    0    0  0.28028017541E+01  0.29798185415E+01 -0.28108933293E+01  0.49634803840E+01  0.00000000000E+00 0.  1.
</event>
<event>
 7    1  0.1714203E-010  0.4778727E+02  0.7816164E-02  0.1312668E+00
        -11   -1    0    0    0    0  0.00000000000E+00  0.00000000000E+00  0.45593999997E+02  0.45594000000E+02  0.51100000000E-03 0.  1.
         11   -1    0    0    0    0 -0.00000000000E+00 -0.00000000000E+00 -0.45593999997E+02  0.45594000000E+02  0.51100000000E-03 0. -1.
    9900012    2    1    2    0    0  0.40817069463E+02  0.14651368194E+02  0.17109772927E+01  0.47787271978E+02  0.20000004259E+02 0.  0.
        -12    1    1    2    0    0 -0.40817069463E+02 -0.14651368194E+02 -0.17109772927E+01  0.43400728022E+02  0.00000000000E+00 0.  1.
         11    1    3    3    0    0  0.14823328963E+02  0.40525702442E+01 -0.70673215333E+01  0.16914533427E+02  0.51100000000E-03 0. -1.
        -11    1    3    3    0    0  0.31207334925E+01  0.52154963717E+01  0.22956111338E+01  0.64969385616E+01  0.51100000000E-03 0.  1.
         12    1    3    3    0    0  0.22873007007E+02  0.53833015785E+01  0.64826876923E+01  0.24375799990E+02  0.00000000000E+00 0. -1.
</event>
<event>
 7    1  0.1714203E-010  0.4778727E+02  0.7816164E-02  0.1312668E+00
        -11   -1    0    0    0    0  0.00000000000E+00  0.00000000000E+00  0.45593999997E+02  0.45594000000E+02  0.51100000000E-03 0. -1.
         11   -1    0    0    0    0 -0.00000000000E+00 -0.00000000000E+00 -0.45593999997E+02  0.45594000000E+02  0.51100000000E-03 0.  1.
    9900012    2    1    2    0    0  0.17860245426E+02  0.38038665610E+02  0.10848730931E+02  0.47787269466E+02  0.19999992804E+02 0.  0.
        -12    1    1    2    0    0 -0.17860245426E+02 -0.38038665610E+02 -0.10848730931E+02  0.43400730534E+02  0.00000000000E+00 0.  1.
         11    1    3    3    0    0  0.52197042644E+01  0.63988766694E+01  0.38982277104E+01  0.91316545479E+01  0.51100000000E-03 0. -1.
        -11    1    3    3    0    0  0.16677098431E+02  0.22967608089E+02  0.41283470592E+01  0.28682396747E+02  0.51100000000E-03 0.  1.
         12    1    3    3    0    0 -0.40365572693E+01  0.86721808510E+01  0.28221561612E+01  0.99732181717E+01  0.00000000000E+00 0. -1.
</event>
<event>
 7    1  0.1714203E-010  0.4778727E+02  0.7816164E-02  0.1312668E+00
        -11   -1    0    0    0    0  0.00000000000E+00  0.00000000000E+00  0.45593999997E+02  0.45594000000E+02  0.51100000000E-03 0.  1.
         11   -1    0    0    0    0 -0.00000000000E+00 -0.00000000000E+00 -0.45593999997E+02  0.45594000000E+02  0.51100000000E-03 0. -1.
    9900012    2    1    2    0    0  0.12773657872E+02  0.31152488794E+02  0.27385753918E+02  0.47787269463E+02  0.19999992792E+02 0.  0.
        -12    1    1    2    0    0 -0.12773657872E+02 -0.31152488794E+02 -0.27385753918E+02  0.43400730537E+02  0.00000000000E+00 0.  1.
         11    1    3    3    0    0  0.91870694513E+01  0.12672262049E+02  0.16513375654E+02  0.22752583288E+02  0.51100000000E-03 0. -1.
        -11    1    3    3    0    0  0.79239205038E+01  0.86558683109E+01  0.67028681959E+01  0.13514474266E+02  0.51100000000E-03 0.  1.
         12    1    3    3    0    0 -0.43373320830E+01  0.98243584341E+01  0.41695100679E+01  0.11520211910E+02  0.00000000000E+00 0. -1.
</event>
<event>
 7    1  0.1714203E-010  0.4778727E+02  0.7816164E-02  0.1312668E+00
        -11   -1    0    0    0    0  0.00000000000E+00  0.00000000000E+00  0.45593999997E+02  0.45594000000E+02  0.51100000000E-03 0.  1.
         11   -1    0    0    0    0 -0.00000000000E+00 -0.00000000000E+00 -0.45593999997E+02  0.45594000000E+02  0.51100000000E-03 0. -1.
    9900012    2    1    2    0    0 -0.19503769981E+02 -0.38128845727E+02 -0.70297484505E+01  0.47787270937E+02  0.19999999509E+02 0.  0.
        -12    1    1    2    0    0  0.19503769981E+02  0.38128845727E+02  0.70297484505E+01  0.43400729063E+02  0.00000000000E+00 0.  1.
         11    1    3    3    0    0 -0.10414624128E+02 -0.24033602737E+02 -0.11629693288E+02  0.28658824513E+02  0.51100000000E-03 0. -1.
        -11    1    3    3    0    0 -0.48708476055E+01 -0.12889063930E+02  0.17326398227E+01  0.13887230336E+02  0.51100000000E-03 0.  1.
        -12    1    3    3    0    0 -0.42182982470E+01 -0.12061790600E+01  0.28673050149E+01  0.52412160873E+01  0.00000000000E+00 0.  1.
</event>
<event>
 7    1  0.1714203E-010  0.4778727E+02  0.7816164E-02  0.1312668E+00
        -11   -1    0    0    0    0  0.00000000000E+00  0.00000000000E+00  0.45593999997E+02  0.45594000000E+02  0.51100000000E-03 0.  1.
         11   -1    0    0    0    0 -0.00000000000E+00 -0.00000000000E+00 -0.45593999997E+02  0.45594000000E+02  0.51100000000E-03 0. -1.
    9900012    2    1    2    0    0 -0.17473838529E+02 -0.39718031958E+02 -0.87518963130E+00  0.47787273595E+02  0.20000011630E+02 0.  0.
        -12    1    1    2    0    0  0.17473838529E+02  0.39718031958E+02  0.87518963130E+00  0.43400726405E+02  0.00000000000E+00 0.  1.
         11    1    3    3    0    0 -0.31563099719E+01 -0.19768074184E+02 -0.90649416643E+00  0.20038981549E+02  0.51100000000E-03 0. -1.
        -11    1    3    3    0    0 -0.36801116091E+00 -0.10826321627E+02  0.18198717235E+01  0.10984380071E+02  0.51100000000E-03 0.  1.
        -12    1    3    3    0    0 -0.13949517396E+02 -0.91236361468E+01 -0.17885671883E+01  0.16763911975E+02  0.00000000000E+00 0.  1.
</event>
<event>
 7    1  0.1714203E-010  0.4778727E+02  0.7816164E-02  0.1312668E+00
        -11   -1    0    0    0    0  0.00000000000E+00  0.00000000000E+00  0.45593999997E+02  0.45594000000E+02  0.51100000000E-03 0.  1.
         11   -1    0    0    0    0 -0.00000000000E+00 -0.00000000000E+00 -0.45593999997E+02  0.45594000000E+02  0.51100000000E-03 0. -1.
    9900012    2    1    2    0    0  0.15748547443E+02  0.30563862120E+02 -0.26485034759E+02  0.47787268665E+02  0.19999989150E+02 0.  0.
        -12    1    1    2    0    0 -0.15748547443E+02 -0.30563862120E+02  0.26485034759E+02  0.43400731335E+02  0.00000000000E+00 0.  1.
         11    1    3    3    0    0  0.76260386350E+01  0.15037176751E+02 -0.14070474230E+02  0.21960223023E+02  0.51100000000E-03 0. -1.
        -11    1    3    3    0    0 -0.33548034935E+01  0.84806230580E+01 -0.59405896499E+01  0.10884221588E+02  0.51100000000E-03 0.  1.
         12    1    3    3    0    0  0.11477312301E+02  0.70460623108E+01 -0.64739708793E+01  0.14942824053E+02  0.00000000000E+00 0. -1.
</event>
<event>
 7    1  0.1714203E-010  0.4778727E+02  0.7816164E-02  0.1312668E+00
        -11   -1    0    0    0    0  0.00000000000E+00  0.00000000000E+00  0.45593999997E+02  0.45594000000E+02  0.51100000000E-03 0.  1.
         11   -1    0    0    0    0 -0.00000000000E+00 -0.00000000000E+00 -0.45593999997E+02  0.45594000000E+02  0.51100000000E-03 0. -1.
    9900012    2    1    2    0    0  0.13981758386E+02 -0.50591281164E+01 -0.40774243239E+02  0.47787271244E+02  0.20000000911E+02 0.  0.
        -12    1    1    2    0    0 -0.13981758386E+02  0.50591281164E+01  0.40774243239E+02  0.43400728756E+02  0.00000000000E+00 0.  1.
         11    1    3    3    0    0  0.23156757142E+01 -0.17590156985E+01  0.11152211429E+01  0.31145158050E+01  0.51100000000E-03 0.  1.
        -11    1    3    3    0    0  0.10766228753E+02 -0.10815139830E+01 -0.20784106394E+02  0.23432038599E+02  0.51100000000E-03 0. -1.
        -12    1    3    3    0    0  0.89985391831E+00 -0.22185984349E+01 -0.21105357988E+02  0.21240716840E+02  0.00000000000E+00 0.  1.
</event>
<event>
 7    1  0.1714203E-010  0.4778727E+02  0.7816164E-02  0.1312668E+00
        -11   -1    0    0    0    0  0.00000000000E+00  0.00000000000E+00  0.45593999997E+02  0.45594000000E+02  0.51100000000E-03 0.  1.
         11   -1    0    0    0    0 -0.00000000000E+00 -0.00000000000E+00 -0.45593999997E+02  0.45594000000E+02  0.51100000000E-03 0. -1.
    9900012    2    1    2    0    0  0.19550733416E+02 -0.22045781232E+02 -0.31864961361E+02  0.47787269479E+02  0.19999992861E+02 0.  0.
        -12    1    1    2    0    0 -0.19550733416E+02  0.22045781232E+02  0.31864961361E+02  0.43400730521E+02  0.00000000000E+00 0.  1.
         11    1    3    3    0    0  0.15523490513E+02 -0.15417923091E+02 -0.17866900993E+02  0.28247429291E+02  0.51100000000E-03 0. -1.
        -11    1    3    3    0    0  0.28493555055E+01 -0.98158430472E+01 -0.10872672149E+02  0.14922620461E+02  0.51100000000E-03 0.  1.
        -12    1    3    3    0    0  0.11778873977E+01  0.31879849064E+01 -0.31253882189E+01  0.46172197266E+01  0.00000000000E+00 0.  1.
</event>
<event>
 7    1  0.1714203E-010  0.4778727E+02  0.7816164E-02  0.1312668E+00
        -11   -1    0    0    0    0  0.00000000000E+00  0.00000000000E+00  0.45593999997E+02  0.45594000000E+02  0.51100000000E-03 0.  1.
         11   -1    0    0    0    0 -0.00000000000E+00 -0.00000000000E+00 -0.45593999997E+02  0.45594000000E+02  0.51100000000E-03 0. -1.
    9900012    2    1    2    0    0  0.31886804658E+02 -0.17354741249E+02 -0.23783775994E+02  0.47787270102E+02  0.19999995702E+02 0.  0.
        -12    1    1    2    0    0 -0.31886804658E+02  0.17354741249E+02  0.23783775994E+02  0.43400729898E+02  0.00000000000E+00 0.  1.
         11    1    3    3    0    0  0.25071815194E+02 -0.48853960806E+01 -0.12207253154E+02  0.28310422848E+02  0.51100000000E-03 0. -1.
        -11    1    3    3    0    0  0.80373628495E+01 -0.99992743844E+01 -0.87487601074E+01  0.15528216043E+02  0.51100000000E-03 0.  1.
        -12    1    3    3    0    0 -0.12223733851E+01 -0.24700707841E+01 -0.28277627332E+01  0.39486312117E+01  0.00000000000E+00 0.  1.
</event>
<event>
 7    1  0.1714203E-010  0.4778728E+02  0.7816164E-02  0.1312668E+00
        -11   -1    0    0    0    0  0.00000000000E+00  0.00000000000E+00  0.45593999997E+02  0.45594000000E+02  0.51100000000E-03 0. -1.
         11   -1    0    0    0    0 -0.00000000000E+00 -0.00000000000E+00 -0.45593999997E+02  0.45594000000E+02  0.51100000000E-03 0.  1.
    9900012    2    1    2    0    0  0.41708845422E+02 -0.11837313849E+02 -0.19679526225E+01  0.47787278542E+02  0.20000034182E+02 0.  0.
        -12    1    1    2    0    0 -0.41708845422E+02  0.11837313849E+02  0.19679526225E+01  0.43400721458E+02  0.00000000000E+00 0.  1.
         11    1    3    3    0    0  0.32241964746E+01 -0.30407382360E+01  0.14256410624E+01  0.46555326899E+01  0.51100000000E-03 0. -1.
        -11    1    3    3    0    0  0.17201734918E+01 -0.48407406615E+01 -0.33901321756E+01  0.61550599854E+01  0.51100000000E-03 0.  1.
         12    1    3    3    0    0  0.36764475455E+02 -0.39558349519E+01 -0.34615092461E-02  0.36976685866E+02  0.00000000000E+00 0. -1.
</event>
<event>
 7    1  0.1714203E-010  0.4778727E+02  0.7816164E-02  0.1312668E+00
        -11   -1    0    0    0    0  0.00000000000E+00  0.00000000000E+00  0.45593999997E+02  0.45594000000E+02  0.51100000000E-03 0.  1.
         11   -1    0    0    0    0 -0.00000000000E+00 -0.00000000000E+00 -0.45593999997E+02  0.45594000000E+02  0.51100000000E-03 0. -1.
    9900012    2    1    2    0    0  0.42049448542E+02  0.26852822495E+01 -0.10404646858E+02  0.47787267982E+02  0.19999986036E+02 0.  0.
        -12    1    1    2    0    0 -0.42049448542E+02 -0.26852822495E+01  0.10404646858E+02  0.43400732018E+02  0.00000000000E+00 0.  1.
         11    1    3    3    0    0  0.23578641404E+02  0.10811485920E+01 -0.63014467887E+01  0.24430093013E+02  0.51100000000E-03 0. -1.
        -11    1    3    3    0    0  0.17087921344E+02  0.54807708432E+01 -0.58658364009E+01  0.18879723034E+02  0.51100000000E-03 0.  1.
        -12    1    3    3    0    0  0.13828857943E+01 -0.38766371857E+01  0.17626363319E+01  0.44774519348E+01  0.00000000000E+00 0.  1.
</event>
<event>
 7    1  0.1714203E-010  0.4778728E+02  0.7816164E-02  0.1312668E+00
        -11   -1    0    0    0    0  0.00000000000E+00  0.00000000000E+00  0.45593999997E+02  0.45594000000E+02  0.51100000000E-03 0.  1.
         11   -1    0    0    0    0 -0.00000000000E+00 -0.00000000000E+00 -0.45593999997E+02  0.45594000000E+02  0.51100000000E-03 0. -1.
    9900012    2    1    2    0    0  0.38046528102E+02 -0.77995618604E+01 -0.19371399642E+02  0.47787278924E+02  0.20000035926E+02 0.  0.
        -12    1    1    2    0    0 -0.38046528102E+02  0.77995618604E+01  0.19371399642E+02  0.43400721076E+02  0.00000000000E+00 0.  1.
         11    1    3    3    0    0  0.58421932055E+01 -0.54725168588E+01  0.14348887135E+01  0.81325622101E+01  0.51100000000E-03 0.  1.
        -11    1    3    3    0    0  0.59451932189E+01  0.31608211859E+01 -0.59713909094E+01  0.89996456949E+01  0.51100000000E-03 0. -1.
        -12    1    3    3    0    0  0.26259141678E+02 -0.54878661876E+01 -0.14834897446E+02  0.30655071019E+02  0.00000000000E+00 0.  1.
</event>
<event>
 7    1  0.1714203E-010  0.4778727E+02  0.7816164E-02  0.1312668E+00
        -11   -1    0    0    0    0  0.00000000000E+00  0.00000000000E+00  0.45593999997E+02  0.45594000000E+02  0.51100000000E-03 0.  1.
         11   -1    0    0    0    0 -0.00000000000E+00 -0.00000000000E+00 -0.45593999997E+02  0.45594000000E+02  0.51100000000E-03 0. -1.
    9900012    2    1    2    0    0  0.41546742647E+02 -0.43293330400E+01 -0.11779161489E+02  0.47787267350E+02  0.19999983156E+02 0.  0.
        -12    1    1    2    0    0 -0.41546742647E+02  0.43293330400E+01  0.11779161489E+02  0.43400732650E+02  0.00000000000E+00 0.  1.
         11    1    3    3    0    0  0.16057241536E+02 -0.46737087874E+01  0.11651771823E+01  0.16764134266E+02  0.51100000000E-03 0. -1.
        -11    1    3    3    0    0  0.23749666868E+02  0.31931550499E+01 -0.84177459020E+01  0.25398845680E+02  0.51100000000E-03 0.  1.
        -12    1    3    3    0    0  0.17398342432E+01 -0.28487793025E+01 -0.45265927692E+01  0.56242874043E+01  0.00000000000E+00 0.  1.
</event>
<event>
 7    1  0.1714203E-010  0.4778724E+02  0.7816164E-02  0.1312668E+00
        -11   -1    0    0    0    0  0.00000000000E+00  0.00000000000E+00  0.45593999997E+02  0.45594000000E+02  0.51100000000E-03 0.  1.
         11   -1    0    0    0    0 -0.00000000000E+00 -0.00000000000E+00 -0.45593999997E+02  0.45594000000E+02  0.51100000000E-03 0. -1.
    9900012    2    1    2    0    0 -0.20076859445E+02 -0.30241567186E+02 -0.23790621401E+02  0.47787235748E+02  0.19999839068E+02 0.  0.
        -12    1    1    2    0    0  0.20076859445E+02  0.30241567186E+02  0.23790621401E+02  0.43400764252E+02  0.00000000000E+00 0.  1.
         11    1    3    3    0    0 -0.12668776972E+02 -0.96517570494E+01 -0.15071563465E+02  0.21927296907E+02  0.51100000000E-03 0. -1.
        -11    1    3    3    0    0  0.27081585871E+01 -0.54514863602E+01 -0.14662728249E+01  0.62612125604E+01  0.51100000000E-03 0.  1.
         12    1    3    3    0    0 -0.10116241060E+02 -0.15138323777E+02 -0.72527851102E+01  0.19598726280E+02  0.00000000000E+00 0. -1.
</event>
<event>
 7    1  0.1714203E-010  0.4778727E+02  0.7816164E-02  0.1312668E+00
        -11   -1    0    0    0    0  0.00000000000E+00  0.00000000000E+00  0.45593999997E+02  0.45594000000E+02  0.51100000000E-03 0. -1.
         11   -1    0    0    0    0 -0.00000000000E+00 -0.00000000000E+00 -0.45593999997E+02  0.45594000000E+02  0.51100000000E-03 0.  1.
    9900012    2    1    2    0    0 -0.40483085142E+01 -0.39511878165E+02 -0.17494173273E+02  0.47787269402E+02  0.19999992512E+02 0.  0.
        -12    1    1    2    0    0  0.40483085142E+01  0.39511878165E+02  0.17494173273E+02  0.43400730598E+02  0.00000000000E+00 0.  1.
         11    1    3    3    0    0  0.46287362970E+01 -0.25160903050E+02 -0.99119597278E+01  0.27436165692E+02  0.51100000000E-03 0.  1.
        -11    1    3    3    0    0 -0.56322307081E+01 -0.14444267630E+02 -0.76837955546E+01  0.17303167470E+02  0.51100000000E-03 0. -1.
        -12    1    3    3    0    0 -0.30448141031E+01  0.93292515278E-01  0.10158200909E+00  0.30479362395E+01  0.00000000000E+00 0.  1.
</event>
<event>
 7    1  0.1714203E-010  0.4778728E+02  0.7816164E-02  0.1312668E+00
        -11   -1    0    0    0    0  0.00000000000E+00  0.00000000000E+00  0.45593999997E+02  0.45594000000E+02  0.51100000000E-03 0.  1.
         11   -1    0    0    0    0 -0.00000000000E+00 -0.00000000000E+00 -0.45593999997E+02  0.45594000000E+02  0.51100000000E-03 0. -1.
    9900012    2    1    2    0    0  0.34635856486E+02  0.51413045545E+01 -0.25642680724E+02  0.47787278327E+02  0.20000033204E+02 0.  0.
        -12    1    1    2    0    0 -0.34635856486E+02 -0.51413045545E+01  0.25642680724E+02  0.43400721673E+02  0.00000000000E+00 0.  1.
         11    1    3    3    0    0  0.24598008492E+02  0.11051207438E+02 -0.23506322229E+02  0.35773431379E+02  0.51100000000E-03 0. -1.
        -11    1    3    3    0    0  0.58852078147E+01 -0.23508168320E+01 -0.14569174270E+01  0.65026624893E+01  0.51100000000E-03 0.  1.
         12    1    3    3    0    0  0.41526401790E+01 -0.35590860514E+01 -0.67944106806E+00  0.55111844591E+01  0.00000000000E+00 0. -1.
</event>
<event>
 7    1  0.1714203E-010  0.4778727E+02  0.7816164E-02  0.1312668E+00
        -11   -1    0    0    0    0  0.00000000000E+00  0.00000000000E+00  0.45593999997E+02  0.45594000000E+02  0.51100000000E-03 0. -1.
         11   -1    0    0    0    0 -0.00000000000E+00 -0.00000000000E+00 -0.45593999997E+02  0.45594000000E+02  0.51100000000E-03 0.  1.
    9900012    2    1    2    0    0 -0.32955166854E+02  0.11434749031E+02  0.25822991544E+02  0.47787269590E+02  0.19999993370E+02 0.  0.
        -12    1    1    2    0    0  0.32955166854E+02 -0.11434749031E+02 -0.25822991544E+02  0.43400730410E+02  0.00000000000E+00 0.  1.
         11    1    3    3    0    0 -0.98754716929E+01  0.70222068744E+01  0.16382996229E+02  0.20377411422E+02  0.51100000000E-03 0. -1.
        -11    1    3    3    0    0  0.11044213067E+01 -0.11787907306E+00  0.61973343392E+00  0.12718929550E+01  0.51100000000E-03 0.  1.
        -12    1    3    3    0    0 -0.24184116468E+02  0.45304212293E+01  0.88202618812E+01  0.26137965214E+02  0.00000000000E+00 0.  1.
</event>
<event>
 7    1  0.1714203E-010  0.4778727E+02  0.7816164E-02  0.1312668E+00
        -11   -1    0    0    0    0  0.00000000000E+00  0.00000000000E+00  0.45593999997E+02  0.45594000000E+02  0.51100000000E-03 0. -1.
         11   -1    0    0    0    0 -0.00000000000E+00 -0.00000000000E+00 -0.45593999997E+02  0.45594000000E+02  0.51100000000E-03 0.  1.
    9900012    2    1    2    0    0 -0.17007647348E+02  0.31822737352E+02  0.24117974017E+02  0.47787270149E+02  0.19999995919E+02 0.  0.
        -12    1    1    2    0    0  0.17007647348E+02 -0.31822737352E+02 -0.24117974017E+02  0.43400729851E+02  0.00000000000E+00 0.  1.
         11    1    3    3    0    0 -0.13799692791E+02  0.12356307857E+02  0.15358626729E+02  0.24062362316E+02  0.51100000000E-03 0.  1.
        -11    1    3    3    0    0  0.17378480304E+01  0.90805768955E+01  0.79494984004E+01  0.12193093029E+02  0.51100000000E-03 0. -1.
        -12    1    3    3    0    0 -0.49458025866E+01  0.10385852600E+02  0.80984888766E+00  0.11531814804E+02  0.00000000000E+00 0.  1.
</event>
<event>
 7    1  0.1714203E-010  0.4778728E+02  0.7816164E-02  0.1312668E+00
        -11   -1    0    0    0    0  0.00000000000E+00  0.00000000000E+00  0.45593999997E+02  0.45594000000E+02  0.51100000000E-03 0.  1.
         11   -1    0    0    0    0 -0.00000000000E+00 -0.00000000000E+00 -0.45593999997E+02  0.45594000000E+02  0.51100000000E-03 0. -1.
    9900012    2    1    2    0    0 -0.26490902684E+02  0.16898284108E+02 -0.29938310146E+02  0.47787281743E+02  0.20000048780E+02 0.  0.
        -12    1    1    2    0    0  0.26490902684E+02 -0.16898284108E+02  0.29938310146E+02  0.43400718257E+02  0.00000000000E+00 0.  1.
         11    1    3    3    0    0 -0.38456528367E+01  0.49569843921E+01 -0.83970037097E+01  0.10481908775E+02  0.51100000000E-03 0. -1.
        -11    1    3    3    0    0 -0.14215350861E+02  0.17765956565E+01 -0.31567025859E+01  0.14669603393E+02  0.51100000000E-03 0.  1.
        -12    1    3    3    0    0 -0.84298989864E+01  0.10164704059E+02 -0.18384603850E+02  0.22635769575E+02  0.00000000000E+00 0.  1.
</event>
<event>
 7    1  0.1714203E-010  0.4778727E+02  0.7816164E-02  0.1312668E+00
        -11   -1    0    0    0    0  0.00000000000E+00  0.00000000000E+00  0.45593999997E+02  0.45594000000E+02  0.51100000000E-03 0.  1.
         11   -1    0    0    0    0 -0.00000000000E+00 -0.00000000000E+00 -0.45593999997E+02  0.45594000000E+02  0.51100000000E-03 0. -1.
    9900012    2    1    2    0    0  0.37923944711E+02 -0.62004246316E+01 -0.20173055787E+02  0.47787273879E+02  0.20000012924E+02 0.  0.
        -12    1    1    2    0    0 -0.37923944711E+02  0.62004246316E+01  0.20173055787E+02  0.43400726121E+02  0.00000000000E+00 0.  1.
         11    1    3    3    0    0  0.29250372819E+02 -0.79190209323E-01 -0.20026958397E+02  0.35449536584E+02  0.51100000000E-03 0. -1.
        -11    1    3    3    0    0  0.27181496726E+01  0.30815977654E+00  0.19095017830E+01  0.33360901383E+01  0.51100000000E-03 0.  1.
        -12    1    3    3    0    0  0.59554222193E+01 -0.64293941988E+01 -0.20555991732E+01  0.90016471568E+01  0.00000000000E+00 0.  1.
</event>
<event>
 7    1  0.1714203E-010  0.4778727E+02  0.7816164E-02  0.1312668E+00
        -11   -1    0    0    0    0  0.00000000000E+00  0.00000000000E+00  0.45593999997E+02  0.45594000000E+02  0.51100000000E-03 0. -1.
         11   -1    0    0    0    0 -0.00000000000E+00 -0.00000000000E+00 -0.45593999997E+02  0.45594000000E+02  0.51100000000E-03 0.  1.
    9900012    2    1    2    0    0 -0.30520351685E+02  0.25490830944E+02 -0.17388186067E+02  0.47787270238E+02  0.19999996322E+02 0.  0.
        -12    1    1    2    0    0  0.30520351685E+02 -0.25490830944E+02  0.17388186067E+02  0.43400729762E+02  0.00000000000E+00 0.  1.
         11    1    3    3    0    0 -0.39676550014E+01  0.13740551936E+02 -0.68403577794E+01  0.15853565799E+02  0.51100000000E-03 0. -1.
        -11    1    3    3    0    0 -0.70710929234E+01  0.13915805150E+01 -0.60636139474E+01  0.94182942099E+01  0.51100000000E-03 0.  1.
         12    1    3    3    0    0 -0.19481603761E+02  0.10358698492E+02 -0.44842143404E+01  0.22515410229E+02  0.00000000000E+00 0. -1.
</event>
<event>
 7    1  0.1714203E-010  0.4778727E+02  0.7816164E-02  0.1312668E+00
        -11   -1    0    0    0    0  0.00000000000E+00  0.00000000000E+00  0.45593999997E+02  0.45594000000E+02  0.51100000000E-03 0. -1.
         11   -1    0    0    0    0 -0.00000000000E+00 -0.00000000000E+00 -0.45593999997E+02  0.45594000000E+02  0.51100000000E-03 0.  1.
    9900012    2    1    2    0    0 -0.48071386033E+01  0.37503947309E+02  0.21306544721E+02  0.47787268517E+02  0.19999988478E+02 0.  0.
        -12    1    1    2    0    0  0.48071386033E+01 -0.37503947309E+02 -0.21306544721E+02  0.43400731483E+02  0.00000000000E+00 0.  1.
         11    1    3    3    0    0 -0.19201095532E+01  0.36883889576E+01 -0.79547926869E+00  0.42336534255E+01  0.51100000000E-03 0. -1.
        -11    1    3    3    0    0 -0.23762173398E+00  0.19572778987E+02  0.21468768955E+02  0.29052679430E+02  0.51100000000E-03 0.  1.
        -12    1    3    3    0    0 -0.26494073160E+01  0.14242779364E+02  0.63325503530E+00  0.14500935662E+02  0.00000000000E+00 0.  1.
</event>
<event>
 7    1  0.1714203E-010  0.4778727E+02  0.7816164E-02  0.1312668E+00
        -11   -1    0    0    0    0  0.00000000000E+00  0.00000000000E+00  0.45593999997E+02  0.45594000000E+02  0.51100000000E-03 0. -1.
         11   -1    0    0    0    0 -0.00000000000E+00 -0.00000000000E+00 -0.45593999997E+02  0.45594000000E+02  0.51100000000E-03 0.  1.
    9900012    2    1    2    0    0 -0.15840798373E+02  0.16257915293E+02  0.36991522076E+02  0.47787269496E+02  0.19999992942E+02 0.  0.
        -12    1    1    2    0    0  0.15840798373E+02 -0.16257915293E+02 -0.36991522076E+02  0.43400730504E+02  0.00000000000E+00 0.  1.
         11    1    3    3    0    0 -0.11832660687E+02  0.11635712059E+02  0.23155155120E+02  0.28487942414E+02  0.51100000000E-03 0. -1.
        -11    1    3    3    0    0 -0.30677506742E+01  0.86877819551E+01  0.10394718012E+02  0.13890241622E+02  0.51100000000E-03 0.  1.
        -12    1    3    3    0    0 -0.94038701155E+00 -0.40655787216E+01  0.34416489432E+01  0.54090854608E+01  0.00000000000E+00 0.  1.
</event>
<event>
 7    1  0.1714203E-010  0.4778727E+02  0.7816164E-02  0.1312668E+00
        -11   -1    0    0    0    0  0.00000000000E+00  0.00000000000E+00  0.45593999997E+02  0.45594000000E+02  0.51100000000E-03 0.  1.
         11   -1    0    0    0    0 -0.00000000000E+00 -0.00000000000E+00 -0.45593999997E+02  0.45594000000E+02  0.51100000000E-03 0. -1.
    9900012    2    1    2    0    0 -0.31625577235E+02  0.28696967651E+00  0.29721436171E+02  0.47787271260E+02  0.20000000984E+02 0.  0.
        -12    1    1    2    0    0  0.31625577235E+02 -0.28696967651E+00 -0.29721436171E+02  0.43400728740E+02  0.00000000000E+00 0.  1.
         11    1    3    3    0    0 -0.11440997696E+02 -0.31580786858E+01  0.21292509249E+02  0.24377055598E+02  0.51100000000E-03 0. -1.
        -11    1    3    3    0    0 -0.90691140608E+01  0.46222283000E+01  0.64725886424E+01  0.12062679151E+02  0.51100000000E-03 0.  1.
         12    1    3    3    0    0 -0.11115465479E+02 -0.11771799377E+01  0.19563382801E+01  0.11347536511E+02  0.00000000000E+00 0. -1.
</event>
<event>
 7    1  0.1714203E-010  0.4778727E+02  0.7816164E-02  0.1312668E+00
        -11   -1    0    0    0    0  0.00000000000E+00  0.00000000000E+00  0.45593999997E+02  0.45594000000E+02  0.51100000000E-03 0.  1.
         11   -1    0    0    0    0 -0.00000000000E+00 -0.00000000000E+00 -0.45593999997E+02  0.45594000000E+02  0.51100000000E-03 0. -1.
    9900012    2    1    2    0    0  0.25848452503E+02  0.21518540764E+02 -0.27430517089E+02  0.47787270038E+02  0.19999995413E+02 0.  0.
        -12    1    1    2    0    0 -0.25848452503E+02 -0.21518540764E+02  0.27430517089E+02  0.43400729962E+02  0.00000000000E+00 0.  1.
         11    1    3    3    0    0  0.10279135785E+02  0.14682062700E+02 -0.19648487045E+02  0.26594861177E+02  0.51100000000E-03 0. -1.
        -11    1    3    3    0    0  0.50963376265E+01  0.74722106944E+01 -0.50125178922E+01  0.10340789416E+02  0.51100000000E-03 0.  1.
        -12    1    3    3    0    0  0.10472979091E+02 -0.63573263032E+00 -0.27695121524E+01  0.10851619445E+02  0.00000000000E+00 0.  1.
</event>
<event>
 7    1  0.1714203E-010  0.4778727E+02  0.7816164E-02  0.1312668E+00
        -11   -1    0    0    0    0  0.00000000000E+00  0.00000000000E+00  0.45593999997E+02  0.45594000000E+02  0.51100000000E-03 0.  1.
         11   -1    0    0    0    0 -0.00000000000E+00 -0.00000000000E+00 -0.45593999997E+02  0.45594000000E+02  0.51100000000E-03 0. -1.
    9900012    2    1    2    0    0  0.13966826768E+02 -0.30693526485E+02 -0.27321388464E+02  0.47787273213E+02  0.20000009887E+02 0.  0.
        -12    1    1    2    0    0 -0.13966826768E+02  0.30693526485E+02  0.27321388464E+02  0.43400726787E+02  0.00000000000E+00 0.  1.
         11    1    3    3    0    0  0.69581999428E+01 -0.95192812251E+01 -0.52021200356E+01  0.12887797120E+02  0.51100000000E-03 0.  1.
        -11    1    3    3    0    0 -0.23325103309E+01 -0.16082503337E+02 -0.11844855813E+02  0.20109403957E+02  0.51100000000E-03 0. -1.
        -12    1    3    3    0    0  0.93411371564E+01 -0.50917419228E+01 -0.10274412615E+02  0.14790072135E+02  0.00000000000E+00 0.  1.
</event>
<event>
 7    1  0.1714203E-010  0.4778727E+02  0.7816164E-02  0.1312668E+00
        -11   -1    0    0    0    0  0.00000000000E+00  0.00000000000E+00  0.45593999997E+02  0.45594000000E+02  0.51100000000E-03 0. -1.
         11   -1    0    0    0    0 -0.00000000000E+00 -0.00000000000E+00 -0.45593999997E+02  0.45594000000E+02  0.51100000000E-03 0.  1.
    9900012    2    1    2    0    0 -0.24924225878E+02 -0.10190461124E+02  0.34037641833E+02  0.47787267344E+02  0.19999983128E+02 0.  0.
        -12    1    1    2    0    0  0.24924225878E+02  0.10190461124E+02 -0.34037641833E+02  0.43400732656E+02  0.00000000000E+00 0.  1.
         11    1    3    3    0    0 -0.39519739095E+01 -0.59221400467E+01  0.19084187024E+02  0.20368996911E+02  0.51100000000E-03 0. -1.
        -11    1    3    3    0    0 -0.76644261224E+01  0.24862768882E+01  0.51983760852E+01  0.95889579588E+01  0.51100000000E-03 0.  1.
        -12    1    3    3    0    0 -0.13307825846E+02 -0.67545979650E+01  0.97550787240E+01  0.17829312475E+02  0.00000000000E+00 0.  1.
</event>
<event>
 7    1  0.1714203E-010  0.4778728E+02  0.7816164E-02  0.1312668E+00
        -11   -1    0    0    0    0  0.00000000000E+00  0.00000000000E+00  0.45593999997E+02  0.45594000000E+02  0.51100000000E-03 0. -1.
         11   -1    0    0    0    0 -0.00000000000E+00 -0.00000000000E+00 -0.45593999997E+02  0.45594000000E+02  0.51100000000E-03 0.  1.
    9900012    2    1    2    0    0  0.20905188443E+02  0.37392395422E+02  0.69573491241E+01  0.47787275972E+02  0.20000022469E+02 0.  0.
        -12    1    1    2    0    0 -0.20905188443E+02 -0.37392395422E+02 -0.69573491241E+01  0.43400724028E+02  0.00000000000E+00 0.  1.
         11    1    3    3    0    0 -0.71096851207E+00  0.19345823694E+01  0.14458665983E+01  0.25176607496E+01  0.51100000000E-03 0. -1.
        -11    1    3    3    0    0 -0.13605995253E+00  0.10962787834E+02  0.60175952914E+01  0.12506505617E+02  0.51100000000E-03 0.  1.
         12    1    3    3    0    0  0.21752216908E+02  0.24495025219E+02 -0.50611276562E+00  0.32763109606E+02  0.00000000000E+00 0. -1.
</event>
<event>
 7    1  0.1714203E-010  0.4778728E+02  0.7816164E-02  0.1312668E+00
        -11   -1    0    0    0    0  0.00000000000E+00  0.00000000000E+00  0.45593999997E+02  0.45594000000E+02  0.51100000000E-03 0.  1.
         11   -1    0    0    0    0 -0.00000000000E+00 -0.00000000000E+00 -0.45593999997E+02  0.45594000000E+02  0.51100000000E-03 0. -1.
    9900012    2    1    2    0    0 -0.22970150405E+02  0.54044760859E+01 -0.36425083274E+02  0.47787275779E+02  0.20000021588E+02 0.  0.
        -12    1    1    2    0    0  0.22970150405E+02 -0.54044760859E+01  0.36425083274E+02  0.43400724221E+02  0.00000000000E+00 0.  1.
         11    1    3    3    0    0 -0.10740872443E+02  0.10206604834E+01 -0.74134403016E+01  0.13090729011E+02  0.51100000000E-03 0. -1.
        -11    1    3    3    0    0 -0.62208040039E+01  0.86087937105E+01 -0.22498522358E+02  0.24879574758E+02  0.51100000000E-03 0.  1.
        -12    1    3    3    0    0 -0.60084739578E+01 -0.42249781081E+01 -0.65131206145E+01  0.98169720104E+01  0.00000000000E+00 0.  1.
</event>
<event>
 7    1  0.1714203E-010  0.4778727E+02  0.7816164E-02  0.1312668E+00
        -11   -1    0    0    0    0  0.00000000000E+00  0.00000000000E+00  0.45593999997E+02  0.45594000000E+02  0.51100000000E-03 0.  1.
         11   -1    0    0    0    0 -0.00000000000E+00 -0.00000000000E+00 -0.45593999997E+02  0.45594000000E+02  0.51100000000E-03 0. -1.
    9900012    2    1    2    0    0 -0.42577442188E+02 -0.83736683173E+01 -0.81658070742E+00  0.47787266039E+02  0.19999977176E+02 0.  0.
        -12    1    1    2    0    0  0.42577442188E+02  0.83736683173E+01  0.81658070742E+00  0.43400733961E+02  0.00000000000E+00 0.  1.
         11    1    3    3    0    0 -0.24752809975E+02 -0.72229764802E+01  0.21838321427E+00  0.25786055968E+02  0.51100000000E-03 0. -1.
        -11    1    3    3    0    0 -0.15932085774E+02 -0.57136713353E+01  0.12861048490E+00  0.16926131813E+02  0.51100000000E-03 0.  1.
        -12    1    3    3    0    0 -0.18925464393E+01  0.45629794982E+01 -0.11635744066E+01  0.50750782581E+01  0.00000000000E+00 0.  1.
</event>
<event>
 7    1  0.1714203E-010  0.4778726E+02  0.7816164E-02  0.1312668E+00
        -11   -1    0    0    0    0  0.00000000000E+00  0.00000000000E+00  0.45593999997E+02  0.45594000000E+02  0.51100000000E-03 0.  1.
         11   -1    0    0    0    0 -0.00000000000E+00 -0.00000000000E+00 -0.45593999997E+02  0.45594000000E+02  0.51100000000E-03 0. -1.
    9900012    2    1    2    0    0 -0.32352780441E+02 -0.15218484463E+02 -0.24603247384E+02  0.47787257455E+02  0.19999938040E+02 0.  0.
        -12    1    1    2    0    0  0.32352780441E+02  0.15218484463E+02  0.24603247384E+02  0.43400742545E+02  0.00000000000E+00 0.  1.
         11    1    3    3    0    0 -0.17931164150E+02 -0.10756245026E+02 -0.93715213496E+01  0.22913944826E+02  0.51100000000E-03 0. -1.
        -11    1    3    3    0    0 -0.86761535808E+01 -0.68068604652E+01 -0.15059583077E+02  0.18665477038E+02  0.51100000000E-03 0.  1.
         12    1    3    3    0    0 -0.57454627101E+01  0.23446210279E+01 -0.17214295735E+00  0.62078355902E+01  0.00000000000E+00 0. -1.
</event>
<event>
 7    1  0.1714203E-010  0.4778727E+02  0.7816164E-02  0.1312668E+00
        -11   -1    0    0    0    0  0.00000000000E+00  0.00000000000E+00  0.45593999997E+02  0.45594000000E+02  0.51100000000E-03 0. -1.
         11   -1    0    0    0    0 -0.00000000000E+00 -0.00000000000E+00 -0.45593999997E+02  0.45594000000E+02  0.51100000000E-03 0.  1.
    9900012    2    1    2    0    0  0.43193001405E+02  0.41641698486E+01  0.80481199699E+00  0.47787269554E+02  0.19999993206E+02 0.  0.
        -12    1    1    2    0    0 -0.43193001405E+02 -0.41641698486E+01 -0.80481199699E+00  0.43400730446E+02  0.00000000000E+00 0.  1.
         11    1    3    3    0    0  0.37120732748E+02 -0.36727487849E+00  0.16260398582E+01  0.37158144416E+02  0.51100000000E-03 0. -1.
        -11    1    3    3    0    0  0.46103577448E+01 -0.38437853165E+00 -0.24668906133E+01  0.52429662358E+01  0.51100000000E-03 0.  1.
         12    1    3    3    0    0  0.14619109116E+01  0.49158232588E+01  0.16456627521E+01  0.53861589021E+01  0.00000000000E+00 0. -1.
</event>
<event>
 7    1  0.1714203E-010  0.4778727E+02  0.7816164E-02  0.1312668E+00
        -11   -1    0    0    0    0  0.00000000000E+00  0.00000000000E+00  0.45593999997E+02  0.45594000000E+02  0.51100000000E-03 0. -1.
         11   -1    0    0    0    0 -0.00000000000E+00 -0.00000000000E+00 -0.45593999997E+02  0.45594000000E+02  0.51100000000E-03 0.  1.
    9900012    2    1    2    0    0 -0.38155221918E+02  0.20496320752E+02 -0.27754860586E+01  0.47787269052E+02  0.19999990914E+02 0.  0.
        -12    1    1    2    0    0  0.38155221918E+02 -0.20496320752E+02  0.27754860586E+01  0.43400730948E+02  0.00000000000E+00 0.  1.
         11    1    3    3    0    0 -0.71228700393E+01 -0.29370893725E+01 -0.86104963341E+00  0.77526239629E+01  0.51100000000E-03 0.  1.
        -11    1    3    3    0    0 -0.17755635789E+02  0.10102669775E+02 -0.48402524423E+01  0.20994155921E+02  0.51100000000E-03 0. -1.
         12    1    3    3    0    0 -0.13276716090E+02  0.13330740349E+02  0.29258160172E+01  0.19040489168E+02  0.00000000000E+00 0. -1.
</event>
<event>
 7    1  0.1714203E-010  0.4778727E+02  0.7816164E-02  0.1312668E+00
        -11   -1    0    0    0    0  0.00000000000E+00  0.00000000000E+00  0.45593999997E+02  0.45594000000E+02  0.51100000000E-03 0. -1.
         11   -1    0    0    0    0 -0.00000000000E+00 -0.00000000000E+00 -0.45593999997E+02  0.45594000000E+02  0.51100000000E-03 0.  1.
    9900012    2    1    2    0    0 -0.11515602806E+02 -0.40008811749E+02  0.12260068404E+02  0.47787269558E+02  0.19999993225E+02 0.  0.
        -12    1    1    2    0    0  0.11515602806E+02  0.40008811749E+02 -0.12260068404E+02  0.43400730442E+02  0.00000000000E+00 0.  1.
         11    1    3    3    0    0 -0.30939639643E+01 -0.50376245052E+01 -0.19625966262E+01  0.62291299108E+01  0.51100000000E-03 0.  1.
        -11    1    3    3    0    0 -0.82488803686E+01 -0.20392224730E+02  0.15518846096E+02  0.26920650831E+02  0.51100000000E-03 0. -1.
         12    1    3    3    0    0 -0.17275847299E+00 -0.14578962515E+02 -0.12961810657E+01  0.14637488816E+02  0.00000000000E+00 0. -1.
</event>
<event>
 7    1  0.1714203E-010  0.4778726E+02  0.7816164E-02  0.1312668E+00
        -11   -1    0    0    0    0  0.00000000000E+00  0.00000000000E+00  0.45593999997E+02  0.45594000000E+02  0.51100000000E-03 0. -1.
         11   -1    0    0    0    0 -0.00000000000E+00 -0.00000000000E+00 -0.45593999997E+02  0.45594000000E+02  0.51100000000E-03 0.  1.
    9900012    2    1    2    0    0 -0.34993602102E+02  0.16968916646E+02  0.19264678127E+02  0.47787261025E+02  0.19999954318E+02 0.  0.
        -12    1    1    2    0    0  0.34993602102E+02 -0.16968916646E+02 -0.19264678127E+02  0.43400738975E+02  0.00000000000E+00 0.  1.
         11    1    3    3    0    0 -0.24000997920E+02  0.43560156357E+01  0.86241389735E+01  0.25872737518E+02  0.51100000000E-03 0. -1.
        -11    1    3    3    0    0 -0.38648609982E+01  0.51890213245E+01 -0.80764330919E+00  0.65203819533E+01  0.51100000000E-03 0.  1.
        -12    1    3    3    0    0 -0.71277431842E+01  0.74238796853E+01  0.11448182463E+02  0.15394141554E+02  0.00000000000E+00 0.  1.
</event>
<event>
 7    1  0.1714203E-010  0.4778727E+02  0.7816164E-02  0.1312668E+00
        -11   -1    0    0    0    0  0.00000000000E+00  0.00000000000E+00  0.45593999997E+02  0.45594000000E+02  0.51100000000E-03 0.  1.
         11   -1    0    0    0    0 -0.00000000000E+00 -0.00000000000E+00 -0.45593999997E+02  0.45594000000E+02  0.51100000000E-03 0. -1.
    9900012    2    1    2    0    0 -0.33830833246E+02  0.26789237323E+02 -0.46297547649E+01  0.47787272545E+02  0.20000006841E+02 0.  0.
        -12    1    1    2    0    0  0.33830833246E+02 -0.26789237323E+02  0.46297547649E+01  0.43400727455E+02  0.00000000000E+00 0.  1.
         11    1    3    3    0    0 -0.19796043066E+02  0.18792091234E+02  0.12163842287E+01  0.27322254754E+02  0.51100000000E-03 0.  1.
        -11    1    3    3    0    0 -0.68482465556E+00  0.49852649329E+01 -0.44339529242E+01  0.67068465060E+01  0.51100000000E-03 0. -1.
        -12    1    3    3    0    0 -0.13349965524E+02  0.30118811563E+01 -0.14121860693E+01  0.13758171284E+02  0.00000000000E+00 0.  1.
</event>
<event>
 7    1  0.1714203E-010  0.4778722E+02  0.7816164E-02  0.1312668E+00
        -11   -1    0    0    0    0  0.00000000000E+00  0.00000000000E+00  0.45593999997E+02  0.45594000000E+02  0.51100000000E-03 0. -1.
         11   -1    0    0    0    0 -0.00000000000E+00 -0.00000000000E+00 -0.45593999997E+02  0.45594000000E+02  0.51100000000E-03 0.  1.
    9900012    2    1    2    0    0 -0.23714234835E+00  0.22982491903E+02  0.36815438729E+02  0.47787220060E+02  0.19999767540E+02 0.  0.
        -12    1    1    2    0    0  0.23714234835E+00 -0.22982491903E+02 -0.36815438729E+02  0.43400779940E+02  0.00000000000E+00 0.  1.
         11    1    3    3    0    0  0.67717897127E+01  0.15844407139E+02  0.27215278899E+02  0.32211392073E+02  0.51100000000E-03 0. -1.
        -11    1    3    3    0    0 -0.40500293290E+01  0.97743977853E+00  0.72255697686E+01  0.83406825158E+01  0.51100000000E-03 0.  1.
         12    1    3    3    0    0 -0.29589027321E+01  0.61606449860E+01  0.23745900615E+01  0.72351454706E+01  0.00000000000E+00 0. -1.
</event>
<event>
 7    1  0.2015210E-010  0.4778727E+02  0.7816164E-02  0.1312668E+00
        -11   -1    0    0    0    0  0.00000000000E+00  0.00000000000E+00  0.45593999997E+02  0.45594000000E+02  0.51100000000E-03 0.  1.
         11   -1    0    0    0    0 -0.00000000000E+00 -0.00000000000E+00 -0.45593999997E+02  0.45594000000E+02  0.51100000000E-03 0. -1.
    9900012    2    1    2    0    0 -0.15314937793E+02  0.37352423115E+02  0.15933380507E+02  0.47787269054E+02  0.19999990927E+02 0.  0.
        -12    1    1    2    0    0  0.15314937793E+02 -0.37352423115E+02 -0.15933380507E+02  0.43400730946E+02  0.00000000000E+00 0.  1.
         11    1    3    3    0    0 -0.19409865042E+02  0.29173070979E+02  0.90597208074E+01  0.36192395232E+02  0.51100000000E-03 0. -1.
        -11    1    3    3    0    0  0.10321342993E+01  0.25950147920E+01  0.31799514149E+01  0.42321973305E+01  0.51100000000E-03 0.  1.
         12    1    3    3    0    0  0.30627929491E+01  0.55843373446E+01  0.36937082850E+01  0.73626764917E+01  0.00000000000E+00 0. -1.
</event>
<event>
 7    1  0.1714203E-010  0.4778727E+02  0.7816164E-02  0.1312668E+00
        -11   -1    0    0    0    0  0.00000000000E+00  0.00000000000E+00  0.45593999997E+02  0.45594000000E+02  0.51100000000E-03 0. -1.
         11   -1    0    0    0    0 -0.00000000000E+00 -0.00000000000E+00 -0.45593999997E+02  0.45594000000E+02  0.51100000000E-03 0.  1.
    9900012    2    1    2    0    0 -0.67616992318E+01 -0.26440831879E+02  0.33745892904E+02  0.47787268960E+02  0.19999990496E+02 0.  0.
        -12    1    1    2    0    0  0.67616992318E+01  0.26440831879E+02 -0.33745892904E+02  0.43400731040E+02  0.00000000000E+00 0.  1.
         11    1    3    3    0    0 -0.65287108354E+00  0.71796751632E-01 -0.20656767060E+01  0.21675829719E+01  0.51100000000E-03 0.  1.
        -11    1    3    3    0    0 -0.53509860686E+01 -0.73996742795E+01  0.11782409753E+02  0.14906824316E+02  0.51100000000E-03 0. -1.
        -12    1    3    3    0    0 -0.75784207963E+00 -0.19112954351E+02  0.24029159857E+02  0.30712861672E+02  0.00000000000E+00 0.  1.
</event>
<event>
 7    1  0.1714203E-010  0.4778727E+02  0.7816164E-02  0.1312668E+00
        -11   -1    0    0    0    0  0.00000000000E+00  0.00000000000E+00  0.45593999997E+02  0.45594000000E+02  0.51100000000E-03 0. -1.
         11   -1    0    0    0    0 -0.00000000000E+00 -0.00000000000E+00 -0.45593999997E+02  0.45594000000E+02  0.51100000000E-03 0.  1.
    9900012    2    1    2    0    0  0.49843770861E+01  0.38984919723E+02  0.18410733593E+02  0.47787273137E+02  0.20000009542E+02 0.  0.
        -12    1    1    2    0    0 -0.49843770861E+01 -0.38984919723E+02 -0.18410733593E+02  0.43400726863E+02  0.00000000000E+00 0.  1.
         11    1    3    3    0    0 -0.32775990166E+01  0.12202774209E+02  0.57016925291E+01  0.13862166196E+02  0.51100000000E-03 0. -1.
        -11    1    3    3    0    0  0.15879568839E+01  0.24208741884E+02  0.10531712897E+02  0.26448095724E+02  0.51100000000E-03 0.  1.
        -12    1    3    3    0    0  0.66740192189E+01  0.25734036312E+01  0.21773281675E+01  0.74770112165E+01  0.00000000000E+00 0.  1.
</event>
<event>
 7    1  0.1714203E-010  0.4778727E+02  0.7816164E-02  0.1312668E+00
        -11   -1    0    0    0    0  0.00000000000E+00  0.00000000000E+00  0.45593999997E+02  0.45594000000E+02  0.51100000000E-03 0.  1.
         11   -1    0    0    0    0 -0.00000000000E+00 -0.00000000000E+00 -0.45593999997E+02  0.45594000000E+02  0.51100000000E-03 0. -1.
    9900012    2    1    2    0    0 -0.16914610181E+02 -0.35816305395E+02 -0.17740108699E+02  0.47787271592E+02  0.20000002496E+02 0.  0.
        -12    1    1    2    0    0  0.16914610181E+02  0.35816305395E+02  0.17740108699E+02  0.43400728408E+02  0.00000000000E+00 0.  1.
         11    1    3    3    0    0  0.22435271483E+01 -0.16140872569E+01  0.20761028475E+01  0.34567173782E+01  0.51100000000E-03 0. -1.
        -11    1    3    3    0    0 -0.82451304690E+01 -0.92553644020E+01 -0.54016611917E+01  0.13521164541E+02  0.51100000000E-03 0.  1.
         12    1    3    3    0    0 -0.10913006861E+02 -0.24946853736E+02 -0.14414550355E+02  0.30809389672E+02  0.00000000000E+00 0. -1.
</event>
<event>
 7    1  0.1714203E-010  0.4778728E+02  0.7816164E-02  0.1312668E+00
        -11   -1    0    0    0    0  0.00000000000E+00  0.00000000000E+00  0.45593999997E+02  0.45594000000E+02  0.51100000000E-03 0. -1.
         11   -1    0    0    0    0 -0.00000000000E+00 -0.00000000000E+00 -0.45593999997E+02  0.45594000000E+02  0.51100000000E-03 0.  1.
    9900012    2    1    2    0    0 -0.41947093572E+02 -0.80959082447E+01  0.76498573568E+01  0.47787277575E+02  0.20000029775E+02 0.  0.
        -12    1    1    2    0    0  0.41947093572E+02  0.80959082447E+01 -0.76498573568E+01  0.43400722425E+02  0.00000000000E+00 0.  1.
         11    1    3    3    0    0 -0.38088271071E+02 -0.29359265973E+01  0.11179091276E+02  0.39803368453E+02  0.51100000000E-03 0. -1.
        -11    1    3    3    0    0 -0.25120971667E+00 -0.20828757951E+01 -0.42730378673E-01  0.20984051196E+01  0.51100000000E-03 0.  1.
         12    1    3    3    0    0 -0.36076127840E+01 -0.30771058522E+01 -0.34865035401E+01  0.58855040022E+01  0.00000000000E+00 0. -1.
</event>
<event>
 7    1  0.1714203E-010  0.4778727E+02  0.7816164E-02  0.1312668E+00
        -11   -1    0    0    0    0  0.00000000000E+00  0.00000000000E+00  0.45593999997E+02  0.45594000000E+02  0.51100000000E-03 0.  1.
         11   -1    0    0    0    0 -0.00000000000E+00 -0.00000000000E+00 -0.45593999997E+02  0.45594000000E+02  0.51100000000E-03 0. -1.
    9900012    2    1    2    0    0  0.31468952268E+02 -0.22134131727E+02 -0.20085036354E+02  0.47787269252E+02  0.19999991827E+02 0.  0.
        -12    1    1    2    0    0 -0.31468952268E+02  0.22134131727E+02  0.20085036354E+02  0.43400730748E+02  0.00000000000E+00 0.  1.
         11    1    3    3    0    0  0.39261547694E+01 -0.37952025930E+01  0.11689715610E+01  0.55843306462E+01  0.51100000000E-03 0. -1.
        -11    1    3    3    0    0  0.30234746732E+01 -0.93811452055E+01 -0.28396378466E+01  0.10257232952E+02  0.51100000000E-03 0.  1.
         12    1    3    3    0    0  0.24519322825E+02 -0.89577839287E+01 -0.18414370068E+02  0.31945705654E+02  0.00000000000E+00 0. -1.
</event>
<event>
 7    1  0.1714203E-010  0.4778727E+02  0.7816164E-02  0.1312668E+00
        -11   -1    0    0    0    0  0.00000000000E+00  0.00000000000E+00  0.45593999997E+02  0.45594000000E+02  0.51100000000E-03 0. -1.
         11   -1    0    0    0    0 -0.00000000000E+00 -0.00000000000E+00 -0.45593999997E+02  0.45594000000E+02  0.51100000000E-03 0.  1.
    9900012    2    1    2    0    0 -0.14679867295E+02  0.33871412252E+02 -0.22822188380E+02  0.47787270119E+02  0.19999995779E+02 0.  0.
        -12    1    1    2    0    0  0.14679867295E+02 -0.33871412252E+02  0.22822188380E+02  0.43400729881E+02  0.00000000000E+00 0.  1.
         11    1    3    3    0    0 -0.68072458625E+01  0.20557914627E+02 -0.12722632404E+02  0.25116365692E+02  0.51100000000E-03 0. -1.
        -11    1    3    3    0    0 -0.43615023452E+01  0.46730141886E+01  0.26116433321E+01  0.69051028573E+01  0.51100000000E-03 0.  1.
         12    1    3    3    0    0 -0.35111190875E+01  0.86404834368E+01 -0.12711199308E+02  0.15765801569E+02  0.00000000000E+00 0. -1.
</event>
<event>
 7    1  0.1714203E-010  0.4778724E+02  0.7816164E-02  0.1312668E+00
        -11   -1    0    0    0    0  0.00000000000E+00  0.00000000000E+00  0.45593999997E+02  0.45594000000E+02  0.51100000000E-03 0.  1.
         11   -1    0    0    0    0 -0.00000000000E+00 -0.00000000000E+00 -0.45593999997E+02  0.45594000000E+02  0.51100000000E-03 0. -1.
    9900012    2    1    2    0    0  0.20645536957E+02 -0.34270363190E+02 -0.16820514213E+02  0.47787243235E+02  0.19999873206E+02 0.  0.
        -12    1    1    2    0    0 -0.20645536957E+02  0.34270363190E+02  0.16820514213E+02  0.43400756765E+02  0.00000000000E+00 0.  1.
         11    1    3    3    0    0  0.12746553306E+02 -0.17353794503E+02 -0.45926534661E+01  0.22016386419E+02  0.51100000000E-03 0. -1.
        -11    1    3    3    0    0  0.55196722376E+01 -0.91783296786E+00 -0.65823304839E+01  0.86392287751E+01  0.51100000000E-03 0.  1.
         12    1    3    3    0    0  0.23793114134E+01 -0.15998735718E+02 -0.56455302626E+01  0.17131628041E+02  0.00000000000E+00 0. -1.
</event>
<event>
 7    1  0.1714203E-010  0.4778727E+02  0.7816164E-02  0.1312668E+00
        -11   -1    0    0    0    0  0.00000000000E+00  0.00000000000E+00  0.45593999997E+02  0.45594000000E+02  0.51100000000E-03 0.  1.
         11   -1    0    0    0    0 -0.00000000000E+00 -0.00000000000E+00 -0.45593999997E+02  0.45594000000E+02  0.51100000000E-03 0. -1.
    9900012    2    1    2    0    0  0.13472646929E+02 -0.26349142913E+02 -0.31746398281E+02  0.47787270152E+02  0.19999995933E+02 0.  0.
        -12    1    1    2    0    0 -0.13472646929E+02  0.26349142913E+02  0.31746398281E+02  0.43400729848E+02  0.00000000000E+00 0.  1.
         11    1    3    3    0    0  0.11601086844E+02 -0.13401827299E+02 -0.19193442239E+02  0.26126278269E+02  0.51100000000E-03 0. -1.
        -11    1    3    3    0    0  0.34473223415E+01 -0.35109363624E+01  0.10494294046E+01  0.50311040343E+01  0.51100000000E-03 0.  1.
         12    1    3    3    0    0 -0.15757622565E+01 -0.94363792515E+01 -0.13602385446E+02  0.16629887849E+02  0.00000000000E+00 0. -1.
</event>
<event>
 7    1  0.1714203E-010  0.4778727E+02  0.7816164E-02  0.1312668E+00
        -11   -1    0    0    0    0  0.00000000000E+00  0.00000000000E+00  0.45593999997E+02  0.45594000000E+02  0.51100000000E-03 0. -1.
         11   -1    0    0    0    0 -0.00000000000E+00 -0.00000000000E+00 -0.45593999997E+02  0.45594000000E+02  0.51100000000E-03 0.  1.
    9900012    2    1    2    0    0 -0.28132608637E+02  0.32808800739E+02 -0.39701583104E+01  0.47787271531E+02  0.20000002216E+02 0.  0.
        -12    1    1    2    0    0  0.28132608637E+02 -0.32808800739E+02  0.39701583104E+01  0.43400728469E+02  0.00000000000E+00 0.  1.
         11    1    3    3    0    0 -0.11726197368E+02  0.78411485525E+01 -0.27347237959E+01  0.14368925842E+02  0.51100000000E-03 0.  1.
        -11    1    3    3    0    0 -0.50351466084E+01  0.20380665132E+02 -0.22563911409E+01  0.21114343793E+02  0.51100000000E-03 0. -1.
         12    1    3    3    0    0 -0.11371264660E+02  0.45869870553E+01  0.10209566264E+01  0.12304001896E+02  0.00000000000E+00 0. -1.
</event>
<event>
 7    1  0.1714203E-010  0.4778728E+02  0.7816164E-02  0.1312668E+00
        -11   -1    0    0    0    0  0.00000000000E+00  0.00000000000E+00  0.45593999997E+02  0.45594000000E+02  0.51100000000E-03 0.  1.
         11   -1    0    0    0    0 -0.00000000000E+00 -0.00000000000E+00 -0.45593999997E+02  0.45594000000E+02  0.51100000000E-03 0. -1.
    9900012    2    1    2    0    0 -0.39042248907E+01  0.36774700229E+02 -0.22715663419E+02  0.47787275196E+02  0.20000018930E+02 0.  0.
        -12    1    1    2    0    0  0.39042248907E+01 -0.36774700229E+02  0.22715663419E+02  0.43400724804E+02  0.00000000000E+00 0.  1.
         11    1    3    3    0    0 -0.26224462542E+01  0.35193099240E+01 -0.43771769493E+00  0.44107101173E+01  0.51100000000E-03 0.  1.
        -11    1    3    3    0    0  0.53490790295E+01  0.27737233586E+02 -0.19455777710E+02  0.34300059184E+02  0.51100000000E-03 0. -1.
         12    1    3    3    0    0 -0.66308576661E+01  0.55181567190E+01 -0.28221680149E+01  0.90765058953E+01  0.00000000000E+00 0. -1.
</event>
<event>
 7    1  0.1714203E-010  0.4778727E+02  0.7816164E-02  0.1312668E+00
        -11   -1    0    0    0    0  0.00000000000E+00  0.00000000000E+00  0.45593999997E+02  0.45594000000E+02  0.51100000000E-03 0. -1.
         11   -1    0    0    0    0 -0.00000000000E+00 -0.00000000000E+00 -0.45593999997E+02  0.45594000000E+02  0.51100000000E-03 0.  1.
    9900012    2    1    2    0    0  0.27200207854E+02 -0.25635400832E+02  0.22058968556E+02  0.47787272162E+02  0.20000005095E+02 0.  0.
        -12    1    1    2    0    0 -0.27200207854E+02  0.25635400832E+02 -0.22058968556E+02  0.43400727838E+02  0.00000000000E+00 0.  1.
         11    1    3    3    0    0  0.15978710626E+02 -0.35806061342E+01  0.11062703877E+02  0.19761663667E+02  0.51100000000E-03 0. -1.
        -11    1    3    3    0    0  0.24845923607E+01 -0.81674743258E+01  0.72409235691E+01  0.11194275790E+02  0.51100000000E-03 0.  1.
        -12    1    3    3    0    0  0.87369048672E+01 -0.13887320372E+02  0.37553411096E+01  0.16831332705E+02  0.00000000000E+00 0.  1.
</event>
<event>
 7    1  0.2427240E-010  0.4778726E+02  0.7816164E-02  0.1312668E+00
        -11   -1    0    0    0    0  0.00000000000E+00  0.00000000000E+00  0.45593999997E+02  0.45594000000E+02  0.51100000000E-03 0. -1.
         11   -1    0    0    0    0 -0.00000000000E+00 -0.00000000000E+00 -0.45593999997E+02  0.45594000000E+02  0.51100000000E-03 0.  1.
    9900012    2    1    2    0    0  0.15580166800E+02  0.33911884870E+02  0.22155503546E+02  0.47787264173E+02  0.19999968669E+02 0.  0.
        -12    1    1    2    0    0 -0.15580166800E+02 -0.33911884870E+02 -0.22155503546E+02  0.43400735827E+02  0.00000000000E+00 0.  1.
         11    1    3    3    0    0  0.76244244276E+01  0.19562320745E+02  0.16427291070E+02  0.26658434555E+02  0.51100000000E-03 0. -1.
        -11    1    3    3    0    0  0.91340971252E+01  0.44836075451E+01  0.44687660762E+01  0.11113250533E+02  0.51100000000E-03 0.  1.
        -12    1    3    3    0    0 -0.11783547523E+01  0.98659565797E+01  0.12594464000E+01  0.10015579084E+02  0.00000000000E+00 0.  1.
</event>
<event>
 7    1  0.1974004E-010  0.4778727E+02  0.7816164E-02  0.1312668E+00
        -11   -1    0    0    0    0  0.00000000000E+00  0.00000000000E+00  0.45593999997E+02  0.45594000000E+02  0.51100000000E-03 0. -1.
         11   -1    0    0    0    0 -0.00000000000E+00 -0.00000000000E+00 -0.45593999997E+02  0.45594000000E+02  0.51100000000E-03 0.  1.
    9900012    2    1    2    0    0 -0.50450402016E+00  0.31869957634E+02  0.29456319167E+02  0.47787268868E+02  0.19999990076E+02 0.  0.
        -12    1    1    2    0    0  0.50450402016E+00 -0.31869957634E+02 -0.29456319167E+02  0.43400731132E+02  0.00000000000E+00 0.  1.
         11    1    3    3    0    0  0.52786712510E+01  0.18451847106E+02  0.19907335804E+02  0.27652071367E+02  0.51100000000E-03 0. -1.
        -11    1    3    3    0    0 -0.15573246928E+01  0.94806883754E+01  0.78590182427E+00  0.96398316484E+01  0.51100000000E-03 0.  1.
        -12    1    3    3    0    0 -0.42258505783E+01  0.39374221525E+01  0.87630815392E+01  0.10495365853E+02  0.00000000000E+00 0.  1.
</event>
<event>
 7    1  0.1714203E-010  0.4778727E+02  0.7816164E-02  0.1312668E+00
        -11   -1    0    0    0    0  0.00000000000E+00  0.00000000000E+00  0.45593999997E+02  0.45594000000E+02  0.51100000000E-03 0.  1.
         11   -1    0    0    0    0 -0.00000000000E+00 -0.00000000000E+00 -0.45593999997E+02  0.45594000000E+02  0.51100000000E-03 0. -1.
    9900012    2    1    2    0    0  0.57866586581E+01 -0.23506186142E+02 -0.36022176056E+02  0.47787269901E+02  0.19999994785E+02 0.  0.
        -12    1    1    2    0    0 -0.57866586581E+01  0.23506186142E+02  0.36022176056E+02  0.43400730099E+02  0.00000000000E+00 0.  1.
         11    1    3    3    0    0 -0.28626413260E+01 -0.75377848934E+00 -0.76276134062E+01  0.81818936627E+01  0.51100000000E-03 0.  1.
        -11    1    3    3    0    0  0.78780269631E+01 -0.18300453348E+02 -0.13566866480E+02  0.24104559069E+02  0.51100000000E-03 0. -1.
         12    1    3    3    0    0  0.77127302100E+00 -0.44519543043E+01 -0.14827696170E+02  0.15500817169E+02  0.00000000000E+00 0. -1.
</event>
<event>
 7    1  0.1714203E-010  0.4778727E+02  0.7816164E-02  0.1312668E+00
        -11   -1    0    0    0    0  0.00000000000E+00  0.00000000000E+00  0.45593999997E+02  0.45594000000E+02  0.51100000000E-03 0. -1.
         11   -1    0    0    0    0 -0.00000000000E+00 -0.00000000000E+00 -0.45593999997E+02  0.45594000000E+02  0.51100000000E-03 0.  1.
    9900012    2    1    2    0    0 -0.17062241247E+02  0.31451595938E+00  0.39904946949E+02  0.47787265125E+02  0.19999973012E+02 0.  0.
        -12    1    1    2    0    0  0.17062241247E+02 -0.31451595938E+00 -0.39904946949E+02  0.43400734875E+02  0.00000000000E+00 0.  1.
         11    1    3    3    0    0 -0.56594602322E+01  0.27690707596E+01  0.16113895177E+02  0.17301874495E+02  0.51100000000E-03 0. -1.
        -11    1    3    3    0    0 -0.16379077200E+01  0.45974079200E+01  0.14422498792E+02  0.15225878397E+02  0.51100000000E-03 0.  1.
        -12    1    3    3    0    0 -0.97648732948E+01 -0.70519627201E+01  0.93685529797E+01  0.15259512233E+02  0.00000000000E+00 0.  1.
</event>
<event>
 7    1  0.1714203E-010  0.4778729E+02  0.7816164E-02  0.1312668E+00
        -11   -1    0    0    0    0  0.00000000000E+00  0.00000000000E+00  0.45593999997E+02  0.45594000000E+02  0.51100000000E-03 0.  1.
         11   -1    0    0    0    0 -0.00000000000E+00 -0.00000000000E+00 -0.45593999997E+02  0.45594000000E+02  0.51100000000E-03 0. -1.
    9900012    2    1    2    0    0 -0.31291662993E+02 -0.28877756109E+02 -0.83981581980E+01  0.47787285353E+02  0.20000065238E+02 0.  0.
        -12    1    1    2    0    0  0.31291662993E+02  0.28877756109E+02  0.83981581980E+01  0.43400714647E+02  0.00000000000E+00 0.  1.
         11    1    3    3    0    0 -0.11980512405E+02 -0.12688273309E+02  0.26018701989E+01  0.17643545161E+02  0.51100000000E-03 0. -1.
        -11    1    3    3    0    0 -0.91211389269E+01 -0.39087372923E+01  0.12831291861E+01  0.10005989372E+02  0.51100000000E-03 0.  1.
         12    1    3    3    0    0 -0.10190011661E+02 -0.12280745508E+02 -0.12283157583E+02  0.20137750820E+02  0.00000000000E+00 0. -1.
</event>
<event>
 7    1  0.1714203E-010  0.4778727E+02  0.7816164E-02  0.1312668E+00
        -11   -1    0    0    0    0  0.00000000000E+00  0.00000000000E+00  0.45593999997E+02  0.45594000000E+02  0.51100000000E-03 0. -1.
         11   -1    0    0    0    0 -0.00000000000E+00 -0.00000000000E+00 -0.45593999997E+02  0.45594000000E+02  0.51100000000E-03 0.  1.
    9900012    2    1    2    0    0 -0.13489509039E+02 -0.41124385483E+02  0.32313042368E+01  0.47787271175E+02  0.20000000594E+02 0.  0.
        -12    1    1    2    0    0  0.13489509039E+02  0.41124385483E+02 -0.32313042368E+01  0.43400728825E+02  0.00000000000E+00 0.  1.
         11    1    3    3    0    0 -0.51636018702E+01 -0.10405436535E+02 -0.31478886711E+01  0.12035160868E+02  0.51100000000E-03 0.  1.
        -11    1    3    3    0    0 -0.65010173636E+01 -0.30979961086E+02  0.86614656193E+01  0.32818321142E+02  0.51100000000E-03 0. -1.
         12    1    3    3    0    0 -0.18248898050E+01  0.26101213778E+00 -0.22822727113E+01  0.29337891651E+01  0.00000000000E+00 0. -1.
</event>
<event>
 7    1  0.1714203E-010  0.4778728E+02  0.7816164E-02  0.1312668E+00
        -11   -1    0    0    0    0  0.00000000000E+00  0.00000000000E+00  0.45593999997E+02  0.45594000000E+02  0.51100000000E-03 0. -1.
         11   -1    0    0    0    0 -0.00000000000E+00 -0.00000000000E+00 -0.45593999997E+02  0.45594000000E+02  0.51100000000E-03 0.  1.
    9900012    2    1    2    0    0  0.42991523237E+02 -0.59448769370E+01  0.10084712858E+00  0.47787276478E+02  0.20000024776E+02 0.  0.
        -12    1    1    2    0    0 -0.42991523237E+02  0.59448769370E+01 -0.10084712858E+00  0.43400723522E+02  0.00000000000E+00 0.  1.
         11    1    3    3    0    0  0.23977304706E+01  0.48075319558E+00  0.22228553789E+01  0.33047422504E+01  0.51100000000E-03 0. -1.
        -11    1    3    3    0    0  0.24985225490E+02 -0.11739821640E+02  0.13249703235E+01  0.27637663641E+02  0.51100000000E-03 0.  1.
        -12    1    3    3    0    0  0.15608567276E+02  0.53141915073E+01 -0.34469785738E+01  0.16844870587E+02  0.00000000000E+00 0.  1.
</event>
<event>
 7    1  0.1714203E-010  0.4778727E+02  0.7816164E-02  0.1312668E+00
        -11   -1    0    0    0    0  0.00000000000E+00  0.00000000000E+00  0.45593999997E+02  0.45594000000E+02  0.51100000000E-03 0. -1.
         11   -1    0    0    0    0 -0.00000000000E+00 -0.00000000000E+00 -0.45593999997E+02  0.45594000000E+02  0.51100000000E-03 0.  1.
    9900012    2    1    2    0    0 -0.10450102683E+02 -0.11840472893E+02  0.40425508435E+02  0.47787272164E+02  0.20000005105E+02 0.  0.
        -12    1    1    2    0    0  0.10450102683E+02  0.11840472893E+02 -0.40425508435E+02  0.43400727836E+02  0.00000000000E+00 0.  1.
         11    1    3    3    0    0 -0.41886038563E+01 -0.66250599213E+01  0.11599134710E+02  0.13999133813E+02  0.51100000000E-03 0.  1.
        -11    1    3    3    0    0 -0.76898307561E+01  0.26257767169E+01  0.21413903385E+02  0.22903786998E+02  0.51100000000E-03 0. -1.
         12    1    3    3    0    0  0.14283319291E+01 -0.78411896884E+01  0.74124703410E+01  0.10884351353E+02  0.00000000000E+00 0. -1.
</event>
<event>
 7    1  0.1714203E-010  0.4778727E+02  0.7816164E-02  0.1312668E+00
        -11   -1    0    0    0    0  0.00000000000E+00  0.00000000000E+00  0.45593999997E+02  0.45594000000E+02  0.51100000000E-03 0. -1.
         11   -1    0    0    0    0 -0.00000000000E+00 -0.00000000000E+00 -0.45593999997E+02  0.45594000000E+02  0.51100000000E-03 0.  1.
    9900012    2    1    2    0    0  0.20660637450E+02  0.37566418178E+02 -0.67472734068E+01  0.47787269442E+02  0.19999992692E+02 0.  0.
        -12    1    1    2    0    0 -0.20660637450E+02 -0.37566418178E+02  0.67472734068E+01  0.43400730558E+02  0.00000000000E+00 0.  1.
         11    1    3    3    0    0 -0.30649206182E+00 -0.16149691532E+00 -0.24809611882E+01  0.25050323982E+01  0.51100000000E-03 0. -1.
        -11    1    3    3    0    0  0.97592687263E+01  0.11210881100E+02 -0.68737028937E+01  0.16376048755E+02  0.51100000000E-03 0.  1.
         12    1    3    3    0    0  0.11207860786E+02  0.26517033994E+02  0.26073906751E+01  0.28906188288E+02  0.00000000000E+00 0. -1.
</event>
<event>
 7    1  0.1714203E-010  0.4778726E+02  0.7816164E-02  0.1312668E+00
        -11   -1    0    0    0    0  0.00000000000E+00  0.00000000000E+00  0.45593999997E+02  0.45594000000E+02  0.51100000000E-03 0.  1.
         11   -1    0    0    0    0 -0.00000000000E+00 -0.00000000000E+00 -0.45593999997E+02  0.45594000000E+02  0.51100000000E-03 0. -1.
    9900012    2    1    2    0    0 -0.26706713420E+02  0.32331767316E+02  0.11181788259E+02  0.47787261433E+02  0.19999956179E+02 0.  0.
        -12    1    1    2    0    0  0.26706713420E+02 -0.32331767316E+02 -0.11181788259E+02  0.43400738567E+02  0.00000000000E+00 0.  1.
         11    1    3    3    0    0 -0.63321771814E+01  0.78526177509E+01 -0.52262811507E+01  0.11361077780E+02  0.51100000000E-03 0. -1.
        -11    1    3    3    0    0 -0.37308478120E+01  0.49930542698E+01  0.63459471359E+01  0.88949908178E+01  0.51100000000E-03 0.  1.
         12    1    3    3    0    0 -0.16643688426E+02  0.19486095295E+02  0.10062122274E+02  0.27531192835E+02  0.00000000000E+00 0. -1.
</event>
<event>
 7    1  0.1714203E-010  0.4778727E+02  0.7816164E-02  0.1312668E+00
        -11   -1    0    0    0    0  0.00000000000E+00  0.00000000000E+00  0.45593999997E+02  0.45594000000E+02  0.51100000000E-03 0.  1.
         11   -1    0    0    0    0 -0.00000000000E+00 -0.00000000000E+00 -0.45593999997E+02  0.45594000000E+02  0.51100000000E-03 0. -1.
    9900012    2    1    2    0    0 -0.38303598306E+01  0.39692832190E+02 -0.17129820228E+02  0.47787270458E+02  0.19999997328E+02 0.  0.
        -12    1    1    2    0    0  0.38303598306E+01 -0.39692832190E+02  0.17129820228E+02  0.43400729542E+02  0.00000000000E+00 0.  1.
         11    1    3    3    0    0  0.79775153162E-01 -0.32427225072E+00  0.10758172407E+01  0.11264544217E+01  0.51100000000E-03 0. -1.
        -11    1    3    3    0    0 -0.70020615437E+01  0.89957326094E+01 -0.77275809361E+01  0.13771985275E+02  0.51100000000E-03 0.  1.
         12    1    3    3    0    0  0.30919265600E+01  0.31021371831E+02 -0.10478056532E+02  0.32888830761E+02  0.00000000000E+00 0. -1.
</event>
<event>
 7    1  0.1714203E-010  0.4778727E+02  0.7816164E-02  0.1312668E+00
        -11   -1    0    0    0    0  0.00000000000E+00  0.00000000000E+00  0.45593999997E+02  0.45594000000E+02  0.51100000000E-03 0.  1.
         11   -1    0    0    0    0 -0.00000000000E+00 -0.00000000000E+00 -0.45593999997E+02  0.45594000000E+02  0.51100000000E-03 0. -1.
    9900012    2    1    2    0    0  0.41198850496E+02 -0.43624508392E+01 -0.12932394295E+02  0.47787273258E+02  0.20000010094E+02 0.  0.
        -12    1    1    2    0    0 -0.41198850496E+02  0.43624508392E+01  0.12932394295E+02  0.43400726742E+02  0.00000000000E+00 0.  1.
         11    1    3    3    0    0  0.93935823006E+01 -0.31388708171E+01 -0.45246795028E+01  0.10888738371E+02  0.51100000000E-03 0. -1.
        -11    1    3    3    0    0  0.16599672364E+02  0.53711273354E+01  0.16281362747E+01  0.17522812543E+02  0.51100000000E-03 0.  1.
         12    1    3    3    0    0  0.15205595831E+02 -0.65947073576E+01 -0.10035851067E+02  0.19375722344E+02  0.00000000000E+00 0. -1.
</event>
<event>
 7    1  0.1714203E-010  0.4778727E+02  0.7816164E-02  0.1312668E+00
        -11   -1    0    0    0    0  0.00000000000E+00  0.00000000000E+00  0.45593999997E+02  0.45594000000E+02  0.51100000000E-03 0. -1.
         11   -1    0    0    0    0 -0.00000000000E+00 -0.00000000000E+00 -0.45593999997E+02  0.45594000000E+02  0.51100000000E-03 0.  1.
    9900012    2    1    2    0    0  0.40433988447E+02  0.15260209881E+02  0.39801684992E+01  0.47787272257E+02  0.20000005530E+02 0.  0.
        -12    1    1    2    0    0 -0.40433988447E+02 -0.15260209881E+02 -0.39801684992E+01  0.43400727743E+02  0.00000000000E+00 0.  1.
         11    1    3    3    0    0  0.22317137294E+02  0.76009543745E+01 -0.27612017638E+01  0.23737172532E+02  0.51100000000E-03 0. -1.
        -11    1    3    3    0    0  0.63920491324E+01 -0.31445021069E+01  0.16342721336E+01  0.73086955936E+01  0.51100000000E-03 0.  1.
         12    1    3    3    0    0  0.11724802021E+02  0.10803757613E+02  0.51070981294E+01  0.16741404131E+02  0.00000000000E+00 0. -1.
</event>
<event>
 7    1  0.1714203E-010  0.4778727E+02  0.7816164E-02  0.1312668E+00
        -11   -1    0    0    0    0  0.00000000000E+00  0.00000000000E+00  0.45593999997E+02  0.45594000000E+02  0.51100000000E-03 0.  1.
         11   -1    0    0    0    0 -0.00000000000E+00 -0.00000000000E+00 -0.45593999997E+02  0.45594000000E+02  0.51100000000E-03 0. -1.
    9900012    2    1    2    0    0 -0.32612599645E+01 -0.41459245647E+02  0.12414440114E+02  0.47787272017E+02  0.20000004432E+02 0.  0.
        -12    1    1    2    0    0  0.32612599645E+01  0.41459245647E+02 -0.12414440114E+02  0.43400727983E+02  0.00000000000E+00 0.  1.
         11    1    3    3    0    0 -0.43046720865E+01 -0.89171935259E+01  0.82962189007E+01  0.12917963867E+02  0.51100000000E-03 0. -1.
        -11    1    3    3    0    0 -0.49547782948E+01 -0.17578039899E+02  0.13671487548E+00  0.18263515704E+02  0.51100000000E-03 0.  1.
         12    1    3    3    0    0  0.59981904168E+01 -0.14964012222E+02  0.39815063383E+01  0.16605792446E+02  0.00000000000E+00 0. -1.
</event>
<event>
 7    1  0.1714203E-010  0.4778727E+02  0.7816164E-02  0.1312668E+00
        -11   -1    0    0    0    0  0.00000000000E+00  0.00000000000E+00  0.45593999997E+02  0.45594000000E+02  0.51100000000E-03 0.  1.
         11   -1    0    0    0    0 -0.00000000000E+00 -0.00000000000E+00 -0.45593999997E+02  0.45594000000E+02  0.51100000000E-03 0. -1.
    9900012    2    1    2    0    0 -0.96809263933E+01  0.63250592229E+01 -0.41831764813E+02  0.47787271235E+02  0.20000000867E+02 0.  0.
        -12    1    1    2    0    0  0.96809263933E+01 -0.63250592229E+01  0.41831764813E+02  0.43400728765E+02  0.00000000000E+00 0.  1.
         11    1    3    3    0    0  0.23838639729E+01  0.66693990710E+01 -0.91639993382E+01  0.11581993591E+02  0.51100000000E-03 0. -1.
        -11    1    3    3    0    0 -0.34982057584E+01  0.24499896611E+01 -0.30525336837E+01  0.52495576022E+01  0.51100000000E-03 0.  1.
         12    1    3    3    0    0 -0.85665846079E+01 -0.27943295092E+01 -0.29615231791E+02  0.30955720041E+02  0.00000000000E+00 0. -1.
</event>
<event>
 7    1  0.1714203E-010  0.4778727E+02  0.7816164E-02  0.1312668E+00
        -11   -1    0    0    0    0  0.00000000000E+00  0.00000000000E+00  0.45593999997E+02  0.45594000000E+02  0.51100000000E-03 0.  1.
         11   -1    0    0    0    0 -0.00000000000E+00 -0.00000000000E+00 -0.45593999997E+02  0.45594000000E+02  0.51100000000E-03 0. -1.
    9900012    2    1    2    0    0  0.29370280674E+01  0.27405430349E+02 -0.33525208226E+02  0.47787270363E+02  0.19999996891E+02 0.  0.
        -12    1    1    2    0    0 -0.29370280674E+01 -0.27405430349E+02  0.33525208226E+02  0.43400729637E+02  0.00000000000E+00 0.  1.
         11    1    3    3    0    0  0.23031309816E+00  0.21718695139E+01 -0.84139549621E+01  0.86927958491E+01  0.51100000000E-03 0. -1.
        -11    1    3    3    0    0 -0.33550304871E+01 -0.41391907939E+00 -0.14546019790E+01  0.36801393659E+01  0.51100000000E-03 0.  1.
         12    1    3    3    0    0  0.60617454564E+01  0.25647479914E+02 -0.23656651285E+02  0.35414335148E+02  0.00000000000E+00 0. -1.
</event>
<event>
 7    1  0.1714203E-010  0.4778727E+02  0.7816164E-02  0.1312668E+00
        -11   -1    0    0    0    0  0.00000000000E+00  0.00000000000E+00  0.45593999997E+02  0.45594000000E+02  0.51100000000E-03 0.  1.
         11   -1    0    0    0    0 -0.00000000000E+00 -0.00000000000E+00 -0.45593999997E+02  0.45594000000E+02  0.51100000000E-03 0. -1.
    9900012    2    1    2    0    0 -0.28822063461E+02 -0.30427732552E+02 -0.11272311784E+02  0.47787271166E+02  0.20000000553E+02 0.  0.
        -12    1    1    2    0    0  0.28822063461E+02  0.30427732552E+02  0.11272311784E+02  0.43400728834E+02  0.00000000000E+00 0.  1.
         11    1    3    3    0    0 -0.77390972682E+01 -0.75836735531E+01 -0.18191415293E+01  0.10987038147E+02  0.51100000000E-03 0. -1.
        -11    1    3    3    0    0 -0.99780159919E+01 -0.21568389921E+02 -0.31636083655E+01  0.23974250042E+02  0.51100000000E-03 0.  1.
         12    1    3    3    0    0 -0.11104950201E+02 -0.12756690778E+01 -0.62895618894E+01  0.12825982977E+02  0.00000000000E+00 0. -1.
</event>
<event>
 7    1  0.1714203E-010  0.4778727E+02  0.7816164E-02  0.1312668E+00
        -11   -1    0    0    0    0  0.00000000000E+00  0.00000000000E+00  0.45593999997E+02  0.45594000000E+02  0.51100000000E-03 0.  1.
         11   -1    0    0    0    0 -0.00000000000E+00 -0.00000000000E+00 -0.45593999997E+02  0.45594000000E+02  0.51100000000E-03 0. -1.
    9900012    2    1    2    0    0 -0.19796350018E+02 -0.29004906900E+02 -0.25503790908E+02  0.47787269027E+02  0.19999990801E+02 0.  0.
        -12    1    1    2    0    0  0.19796350018E+02  0.29004906900E+02  0.25503790908E+02  0.43400730973E+02  0.00000000000E+00 0.  1.
         11    1    3    3    0    0 -0.23532607978E+01 -0.12241032650E+02 -0.51731329620E+01  0.13496000209E+02  0.51100000000E-03 0. -1.
        -11    1    3    3    0    0 -0.21413565183E+01 -0.94974161156E+01 -0.33237889910E+01  0.10287560164E+02  0.51100000000E-03 0.  1.
        -12    1    3    3    0    0 -0.15301732702E+02 -0.72664581344E+01 -0.17006868955E+02  0.24003708654E+02  0.00000000000E+00 0.  1.
</event>
<event>
 7    1  0.1714203E-010  0.4778727E+02  0.7816164E-02  0.1312668E+00
        -11   -1    0    0    0    0  0.00000000000E+00  0.00000000000E+00  0.45593999997E+02  0.45594000000E+02  0.51100000000E-03 0. -1.
         11   -1    0    0    0    0 -0.00000000000E+00 -0.00000000000E+00 -0.45593999997E+02  0.45594000000E+02  0.51100000000E-03 0.  1.
    9900012    2    1    2    0    0  0.21716951057E+02 -0.21980693699E+02  0.30476980171E+02  0.47787272137E+02  0.20000004982E+02 0.  0.
        -12    1    1    2    0    0 -0.21716951057E+02  0.21980693699E+02 -0.30476980171E+02  0.43400727863E+02  0.00000000000E+00 0.  1.
         11    1    3    3    0    0 -0.23002554673E+01 -0.28048897114E+01  0.82070508336E+01  0.89729741532E+01  0.51100000000E-03 0.  1.
        -11    1    3    3    0    0  0.14210107273E+02 -0.99599029449E+01  0.17200818212E+02  0.24433480366E+02  0.51100000000E-03 0. -1.
        -12    1    3    3    0    0  0.98070992508E+01 -0.92159010428E+01  0.50691111252E+01  0.14380817617E+02  0.00000000000E+00 0.  1.
</event>
<event>
 7    1  0.1714203E-010  0.4778726E+02  0.7816164E-02  0.1312668E+00
        -11   -1    0    0    0    0  0.00000000000E+00  0.00000000000E+00  0.45593999997E+02  0.45594000000E+02  0.51100000000E-03 0.  1.
         11   -1    0    0    0    0 -0.00000000000E+00 -0.00000000000E+00 -0.45593999997E+02  0.45594000000E+02  0.51100000000E-03 0. -1.
    9900012    2    1    2    0    0  0.80025270759E+01 -0.29238287158E+02 -0.31059717744E+02  0.47787263348E+02  0.19999964910E+02 0.  0.
        -12    1    1    2    0    0 -0.80025270759E+01  0.29238287158E+02  0.31059717744E+02  0.43400736652E+02  0.00000000000E+00 0.  1.
         11    1    3    3    0    0 -0.25158054513E+01 -0.37381834574E+01 -0.88379811768E+01  0.99203429464E+01  0.51100000000E-03 0. -1.
        -11    1    3    3    0    0  0.41732744197E-01 -0.14242626112E+01  0.17890337301E+01  0.22871177399E+01  0.51100000000E-03 0.  1.
         12    1    3    3    0    0  0.10476599783E+02 -0.24075841090E+02 -0.24010770298E+02  0.35579802662E+02  0.00000000000E+00 0. -1.
</event>
<event>
 7    1  0.1714203E-010  0.4778727E+02  0.7816164E-02  0.1312668E+00
        -11   -1    0    0    0    0  0.00000000000E+00  0.00000000000E+00  0.45593999997E+02  0.45594000000E+02  0.51100000000E-03 0.  1.
         11   -1    0    0    0    0 -0.00000000000E+00 -0.00000000000E+00 -0.45593999997E+02  0.45594000000E+02  0.51100000000E-03 0. -1.
    9900012    2    1    2    0    0  0.15235515186E+01 -0.37080033577E+02 -0.22502733436E+02  0.47787272917E+02  0.20000008537E+02 0.  0.
        -12    1    1    2    0    0 -0.15235515186E+01  0.37080033577E+02  0.22502733436E+02  0.43400727083E+02  0.00000000000E+00 0.  1.
         11    1    3    3    0    0  0.46952404315E+01 -0.58522868479E+01 -0.72297824608E+01  0.10419419310E+02  0.51100000000E-03 0.  1.
        -11    1    3    3    0    0 -0.12461458069E+01 -0.29585980838E+02 -0.17147511556E+02  0.34218712634E+02  0.51100000000E-03 0. -1.
        -12    1    3    3    0    0 -0.19255431059E+01 -0.16417658912E+01  0.18745605815E+01  0.31491409730E+01  0.00000000000E+00 0.  1.
</event>
<event>
 7    1  0.1714203E-010  0.4778727E+02  0.7816164E-02  0.1312668E+00
        -11   -1    0    0    0    0  0.00000000000E+00  0.00000000000E+00  0.45593999997E+02  0.45594000000E+02  0.51100000000E-03 0.  1.
         11   -1    0    0    0    0 -0.00000000000E+00 -0.00000000000E+00 -0.45593999997E+02  0.45594000000E+02  0.51100000000E-03 0. -1.
    9900012    2    1    2    0    0 -0.31906354226E+02 -0.18949384026E+02 -0.22506199023E+02  0.47787267409E+02  0.19999983425E+02 0.  0.
        -12    1    1    2    0    0  0.31906354226E+02  0.18949384026E+02  0.22506199023E+02  0.43400732591E+02  0.00000000000E+00 0.  1.
         11    1    3    3    0    0 -0.18305046514E+02 -0.62001130144E+01 -0.52331653138E+01  0.20022541016E+02  0.51100000000E-03 0. -1.
        -11    1    3    3    0    0 -0.65734507517E+01  0.57456400363E+00 -0.42211311581E+01  0.78331556281E+01  0.51100000000E-03 0.  1.
        -12    1    3    3    0    0 -0.70278569605E+01 -0.13323835016E+02 -0.13051902551E+02  0.19931570766E+02  0.00000000000E+00 0.  1.
</event>
<event>
 7    1  0.1714203E-010  0.4778728E+02  0.7816164E-02  0.1312668E+00
        -11   -1    0    0    0    0  0.00000000000E+00  0.00000000000E+00  0.45593999997E+02  0.45594000000E+02  0.51100000000E-03 0.  1.
         11   -1    0    0    0    0 -0.00000000000E+00 -0.00000000000E+00 -0.45593999997E+02  0.45594000000E+02  0.51100000000E-03 0. -1.
    9900012    2    1    2    0    0  0.40481345146E+02  0.12715703425E+02 -0.91210685795E+01  0.47787282144E+02  0.20000050606E+02 0.  0.
        -12    1    1    2    0    0 -0.40481345146E+02 -0.12715703425E+02  0.91210685795E+01  0.43400717856E+02  0.00000000000E+00 0.  1.
         11    1    3    3    0    0  0.93771561921E+01  0.84232454738E+01 -0.55883659499E+01  0.13788109255E+02  0.51100000000E-03 0. -1.
        -11    1    3    3    0    0  0.28719270011E+02  0.76269650186E+01 -0.30293224846E+01  0.29868777349E+02  0.51100000000E-03 0.  1.
         12    1    3    3    0    0  0.23849189428E+01 -0.33345070674E+01 -0.50338014498E+00  0.41303955399E+01  0.00000000000E+00 0. -1.
</event>
<event>
 7    1  0.1714203E-010  0.4778727E+02  0.7816164E-02  0.1312668E+00
        -11   -1    0    0    0    0  0.00000000000E+00  0.00000000000E+00  0.45593999997E+02  0.45594000000E+02  0.51100000000E-03 0.  1.
         11   -1    0    0    0    0 -0.00000000000E+00 -0.00000000000E+00 -0.45593999997E+02  0.45594000000E+02  0.51100000000E-03 0. -1.
    9900012    2    1    2    0    0 -0.14691453844E+02  0.19723268410E+02 -0.35759991456E+02  0.47787272797E+02  0.20000007990E+02 0.  0.
        -12    1    1    2    0    0  0.14691453844E+02 -0.19723268410E+02  0.35759991456E+02  0.43400727203E+02  0.00000000000E+00 0.  1.
         11    1    3    3    0    0  0.39086807679E+01  0.27961169701E+01 -0.12343466078E+02  0.13246026217E+02  0.51100000000E-03 0. -1.
        -11    1    3    3    0    0 -0.59871510226E+01  0.34074666703E+01 -0.58591307198E+01  0.90435733828E+01  0.51100000000E-03 0.  1.
         12    1    3    3    0    0 -0.12612983590E+02  0.13519684770E+02 -0.17557394658E+02  0.25497673197E+02  0.00000000000E+00 0. -1.
</event>
<event>
 7    1  0.1714203E-010  0.4778727E+02  0.7816164E-02  0.1312668E+00
        -11   -1    0    0    0    0  0.00000000000E+00  0.00000000000E+00  0.45593999997E+02  0.45594000000E+02  0.51100000000E-03 0.  1.
         11   -1    0    0    0    0 -0.00000000000E+00 -0.00000000000E+00 -0.45593999997E+02  0.45594000000E+02  0.51100000000E-03 0. -1.
    9900012    2    1    2    0    0  0.35845766755E+02  0.52469224913E+01 -0.23899246398E+02  0.47787272260E+02  0.20000005544E+02 0.  0.
        -12    1    1    2    0    0 -0.35845766755E+02 -0.52469224913E+01  0.23899246398E+02  0.43400727740E+02  0.00000000000E+00 0.  1.
         11    1    3    3    0    0  0.23244304320E+02  0.81631585580E+01 -0.12363254388E+02  0.27564195984E+02  0.51100000000E-03 0. -1.
        -11    1    3    3    0    0  0.97382611363E+01  0.19716119184E+01 -0.38064325079E+01  0.10640014672E+02  0.51100000000E-03 0.  1.
        -12    1    3    3    0    0  0.28632012995E+01 -0.48878479851E+01 -0.77295595030E+01  0.95830616046E+01  0.00000000000E+00 0.  1.
</event>
<event>
 7    1  0.1714203E-010  0.4778728E+02  0.7816164E-02  0.1312668E+00
        -11   -1    0    0    0    0  0.00000000000E+00  0.00000000000E+00  0.45593999997E+02  0.45594000000E+02  0.51100000000E-03 0.  1.
         11   -1    0    0    0    0 -0.00000000000E+00 -0.00000000000E+00 -0.45593999997E+02  0.45594000000E+02  0.51100000000E-03 0. -1.
    9900012    2    1    2    0    0  0.91646589639E+01  0.29952926069E+02 -0.30040872256E+02  0.47787276966E+02  0.20000026997E+02 0.  0.
        -12    1    1    2    0    0 -0.91646589639E+01 -0.29952926069E+02  0.30040872256E+02  0.43400723034E+02  0.00000000000E+00 0.  1.
         11    1    3    3    0    0 -0.25299856696E+00  0.10324250092E+02 -0.15183399264E+02  0.18362727513E+02  0.51100000000E-03 0. -1.
        -11    1    3    3    0    0  0.11269427212E+01  0.10133786944E+02 -0.34492199616E+00  0.10202088471E+02  0.51100000000E-03 0.  1.
         12    1    3    3    0    0  0.82907148096E+01  0.94948890335E+01 -0.14512550995E+02  0.19222460982E+02  0.00000000000E+00 0. -1.
</event>
<event>
 7    1  0.1714203E-010  0.4778727E+02  0.7816164E-02  0.1312668E+00
        -11   -1    0    0    0    0  0.00000000000E+00  0.00000000000E+00  0.45593999997E+02  0.45594000000E+02  0.51100000000E-03 0. -1.
         11   -1    0    0    0    0 -0.00000000000E+00 -0.00000000000E+00 -0.45593999997E+02  0.45594000000E+02  0.51100000000E-03 0.  1.
    9900012    2    1    2    0    0 -0.18499118943E+02 -0.24651893271E+02  0.30556338383E+02  0.47787273521E+02  0.20000011291E+02 0.  0.
        -12    1    1    2    0    0  0.18499118943E+02  0.24651893271E+02 -0.30556338383E+02  0.43400726479E+02  0.00000000000E+00 0.  1.
         11    1    3    3    0    0 -0.77326157368E+00  0.38389238944E+00  0.60876803157E+01  0.61485899778E+01  0.51100000000E-03 0. -1.
        -11    1    3    3    0    0  0.46988434949E+00 -0.16723356091E+01 -0.14670965672E+01  0.22737348768E+01  0.51100000000E-03 0.  1.
        -12    1    3    3    0    0 -0.18195741719E+02 -0.23363450052E+02  0.25935754635E+02  0.39364948666E+02  0.00000000000E+00 0.  1.
</event>
<event>
 7    1  0.1714203E-010  0.4778727E+02  0.7816164E-02  0.1312668E+00
        -11   -1    0    0    0    0  0.00000000000E+00  0.00000000000E+00  0.45593999997E+02  0.45594000000E+02  0.51100000000E-03 0.  1.
         11   -1    0    0    0    0 -0.00000000000E+00 -0.00000000000E+00 -0.45593999997E+02  0.45594000000E+02  0.51100000000E-03 0. -1.
    9900012    2    1    2    0    0  0.39993769507E+02 -0.49327588772E+01 -0.16117987703E+02  0.47787271468E+02  0.20000001930E+02 0.  0.
        -12    1    1    2    0    0 -0.39993769507E+02  0.49327588772E+01  0.16117987703E+02  0.43400728532E+02  0.00000000000E+00 0.  1.
         11    1    3    3    0    0  0.23524172733E+02  0.36989150244E+01 -0.12739348857E+02  0.27006660006E+02  0.51100000000E-03 0. -1.
        -11    1    3    3    0    0  0.12281608439E+02 -0.25862126913E+01  0.30632246402E+00  0.12554689787E+02  0.51100000000E-03 0.  1.
         12    1    3    3    0    0  0.41879883355E+01 -0.60454612103E+01 -0.36849613102E+01  0.82259216749E+01  0.00000000000E+00 0. -1.
</event>
<event>
 7    1  0.1714203E-010  0.4778727E+02  0.7816164E-02  0.1312668E+00
        -11   -1    0    0    0    0  0.00000000000E+00  0.00000000000E+00  0.45593999997E+02  0.45594000000E+02  0.51100000000E-03 0.  1.
         11   -1    0    0    0    0 -0.00000000000E+00 -0.00000000000E+00 -0.45593999997E+02  0.45594000000E+02  0.51100000000E-03 0. -1.
    9900012    2    1    2    0    0 -0.41320937166E+02  0.12880154815E+01 -0.13211526666E+02  0.47787271100E+02  0.20000000255E+02 0.  0.
        -12    1    1    2    0    0  0.41320937166E+02 -0.12880154815E+01  0.13211526666E+02  0.43400728900E+02  0.00000000000E+00 0.  1.
         11    1    3    3    0    0 -0.73759658415E+01 -0.61704574936E+01  0.17474931165E+01  0.97741061089E+01  0.51100000000E-03 0.  1.
        -11    1    3    3    0    0 -0.16270251284E+02  0.17445240957E+01 -0.66215928920E+01  0.17652476706E+02  0.51100000000E-03 0. -1.
        -12    1    3    3    0    0 -0.17674720041E+02  0.57139488794E+01 -0.83374268902E+01  0.20360688286E+02  0.00000000000E+00 0.  1.
</event>
<event>
 7    1  0.1714203E-010  0.4778727E+02  0.7816164E-02  0.1312668E+00
        -11   -1    0    0    0    0  0.00000000000E+00  0.00000000000E+00  0.45593999997E+02  0.45594000000E+02  0.51100000000E-03 0.  1.
         11   -1    0    0    0    0 -0.00000000000E+00 -0.00000000000E+00 -0.45593999997E+02  0.45594000000E+02  0.51100000000E-03 0. -1.
    9900012    2    1    2    0    0 -0.29963287052E+02  0.22802095641E+01  0.31314934979E+02  0.47787273285E+02  0.20000010218E+02 0.  0.
        -12    1    1    2    0    0  0.29963287052E+02 -0.22802095641E+01 -0.31314934979E+02  0.43400726715E+02  0.00000000000E+00 0.  1.
         11    1    3    3    0    0 -0.92297625398E+01 -0.31669916551E+01  0.44100075282E+01  0.10708245391E+02  0.51100000000E-03 0. -1.
        -11    1    3    3    0    0 -0.20322347483E+02  0.25055963111E+01  0.27253383759E+02  0.34088454742E+02  0.51100000000E-03 0.  1.
         12    1    3    3    0    0 -0.41117702953E+00  0.29416049081E+01 -0.34845630881E+00  0.29905731531E+01  0.00000000000E+00 0. -1.
</event>
<event>
 7    1  0.1714203E-010  0.4778727E+02  0.7816164E-02  0.1312668E+00
        -11   -1    0    0    0    0  0.00000000000E+00  0.00000000000E+00  0.45593999997E+02  0.45594000000E+02  0.51100000000E-03 0.  1.
         11   -1    0    0    0    0 -0.00000000000E+00 -0.00000000000E+00 -0.45593999997E+02  0.45594000000E+02  0.51100000000E-03 0. -1.
    9900012    2    1    2    0    0  0.24212732864E+02  0.73028116297E+01 -0.35270892315E+02  0.47787270339E+02  0.19999996782E+02 0.  0.
        -12    1    1    2    0    0 -0.24212732864E+02 -0.73028116297E+01  0.35270892315E+02  0.43400729661E+02  0.00000000000E+00 0.  1.
         11    1    3    3    0    0  0.12813362330E+02  0.47393743337E+01 -0.32074270308E+02  0.34862626684E+02  0.51100000000E-03 0. -1.
        -11    1    3    3    0    0  0.23522495367E+01 -0.12907807083E+01 -0.52083827924E+00  0.27332152301E+01  0.51100000000E-03 0.  1.
        -12    1    3    3    0    0  0.90471209974E+01  0.38542180042E+01 -0.26757837277E+01  0.10191428424E+02  0.00000000000E+00 0.  1.
</event>
<event>
 7    1  0.1714203E-010  0.4778727E+02  0.7816164E-02  0.1312668E+00
        -11   -1    0    0    0    0  0.00000000000E+00  0.00000000000E+00  0.45593999997E+02  0.45594000000E+02  0.51100000000E-03 0.  1.
         11   -1    0    0    0    0 -0.00000000000E+00 -0.00000000000E+00 -0.45593999997E+02  0.45594000000E+02  0.51100000000E-03 0. -1.
    9900012    2    1    2    0    0  0.24980783686E+02  0.13875237850E+02 -0.32665907380E+02  0.47787270929E+02  0.19999999474E+02 0.  0.
        -12    1    1    2    0    0 -0.24980783686E+02 -0.13875237850E+02  0.32665907380E+02  0.43400729071E+02  0.00000000000E+00 0.  1.
         11    1    3    3    0    0  0.13208175090E+02  0.50062466724E+01 -0.15367521079E+02  0.20872927426E+02  0.51100000000E-03 0. -1.
        -11    1    3    3    0    0  0.12384229668E+02  0.25665187760E+01 -0.16093852456E+02  0.20468713937E+02  0.51100000000E-03 0.  1.
        -12    1    3    3    0    0 -0.61162107280E+00  0.63024724019E+01 -0.12045338443E+01  0.64456295655E+01  0.00000000000E+00 0.  1.
</event>
<event>
 7    1 -0.2832538E-010  0.4778728E+02  0.7816164E-02  0.1312668E+00
        -11   -1    0    0    0    0  0.00000000000E+00  0.00000000000E+00  0.45593999997E+02  0.45594000000E+02  0.51100000000E-03 0.  1.
         11   -1    0    0    0    0 -0.00000000000E+00 -0.00000000000E+00 -0.45593999997E+02  0.45594000000E+02  0.51100000000E-03 0. -1.
    9900012    2    1    2    0    0 -0.38533537110E+02  0.18576511100E+02 -0.73282023489E+01  0.47787276544E+02  0.20000025075E+02 0.  0.
        -12    1    1    2    0    0  0.38533537110E+02 -0.18576511100E+02  0.73282023489E+01  0.43400723456E+02  0.00000000000E+00 0.  1.
         11    1    3    3    0    0 -0.17386530931E+01 -0.20526049090E+01  0.17125562058E+00  0.26954462041E+01  0.51100000000E-03 0. -1.
        -11    1    3    3    0    0 -0.29800157486E+02  0.12703886423E+02 -0.47194509475E+00  0.32398469854E+02  0.51100000000E-03 0.  1.
        -12    1    3    3    0    0 -0.69947265306E+01  0.79252295857E+01 -0.70275128748E+01  0.12693360486E+02  0.00000000000E+00 0.  1.
</event>
<event>
 7    1  0.1714203E-010  0.4778727E+02  0.7816164E-02  0.1312668E+00
        -11   -1    0    0    0    0  0.00000000000E+00  0.00000000000E+00  0.45593999997E+02  0.45594000000E+02  0.51100000000E-03 0.  1.
         11   -1    0    0    0    0 -0.00000000000E+00 -0.00000000000E+00 -0.45593999997E+02  0.45594000000E+02  0.51100000000E-03 0. -1.
    9900012    2    1    2    0    0 -0.34145331691E+02 -0.10992503905E+02 -0.24431223161E+02  0.47787268629E+02  0.19999988987E+02 0.  0.
        -12    1    1    2    0    0  0.34145331691E+02  0.10992503905E+02  0.24431223161E+02  0.43400731371E+02  0.00000000000E+00 0.  1.
         11    1    3    3    0    0 -0.41261693924E+01 -0.81640674561E+01 -0.59909436517E+01  0.10934746334E+02  0.51100000000E-03 0. -1.
        -11    1    3    3    0    0 -0.45825846917E+01  0.30555258252E+01 -0.14253960565E+01  0.56892947457E+01  0.51100000000E-03 0.  1.
         12    1    3    3    0    0 -0.25436577607E+02 -0.58839622742E+01 -0.17014883453E+02  0.31163227550E+02  0.00000000000E+00 0. -1.
</event>
<event>
 7    1  0.1714203E-010  0.4778728E+02  0.7816164E-02  0.1312668E+00
        -11   -1    0    0    0    0  0.00000000000E+00  0.00000000000E+00  0.45593999997E+02  0.45594000000E+02  0.51100000000E-03 0.  1.
         11   -1    0    0    0    0 -0.00000000000E+00 -0.00000000000E+00 -0.45593999997E+02  0.45594000000E+02  0.51100000000E-03 0. -1.
    9900012    2    1    2    0    0 -0.15340237648E+02  0.39274837359E+02 -0.10285266182E+02  0.47787280639E+02  0.20000043744E+02 0.  0.
        -12    1    1    2    0    0  0.15340237648E+02 -0.39274837359E+02  0.10285266182E+02  0.43400719361E+02  0.00000000000E+00 0.  1.
         11    1    3    3    0    0 -0.42237880203E+01  0.43326202055E+01 -0.61048773598E+01  0.85954354703E+01  0.51100000000E-03 0. -1.
        -11    1    3    3    0    0 -0.24181445780E+01 -0.19508845136E+00 -0.15915113121E+01  0.29014464016E+01  0.51100000000E-03 0.  1.
         12    1    3    3    0    0 -0.86983050496E+01  0.35137305605E+02 -0.25888775103E+01  0.36290398767E+02  0.00000000000E+00 0. -1.
</event>
<event>
 7    1  0.1874395E-010  0.4778727E+02  0.7816164E-02  0.1312668E+00
        -11   -1    0    0    0    0  0.00000000000E+00  0.00000000000E+00  0.45593999997E+02  0.45594000000E+02  0.51100000000E-03 0. -1.
         11   -1    0    0    0    0 -0.00000000000E+00 -0.00000000000E+00 -0.45593999997E+02  0.45594000000E+02  0.51100000000E-03 0.  1.
    9900012    2    1    2    0    0  0.43145201616E+02  0.44790212002E+01  0.14329504846E+01  0.47787269586E+02  0.19999993351E+02 0.  0.
        -12    1    1    2    0    0 -0.43145201616E+02 -0.44790212002E+01 -0.14329504846E+01  0.43400730414E+02  0.00000000000E+00 0.  1.
         11    1    3    3    0    0  0.18017609455E+02  0.48512051726E+01  0.69119865990E+01  0.19898341667E+02  0.51100000000E-03 0. -1.
        -11    1    3    3    0    0  0.23349645174E+02  0.29714265170E+01 -0.43429539339E+01  0.23935257559E+02  0.51100000000E-03 0.  1.
        -12    1    3    3    0    0  0.17779469863E+01 -0.33436104893E+01 -0.11360821805E+01  0.39536703594E+01  0.00000000000E+00 0.  1.
</event>
<event>
 7    1  0.1714203E-010  0.4778727E+02  0.7816164E-02  0.1312668E+00
        -11   -1    0    0    0    0  0.00000000000E+00  0.00000000000E+00  0.45593999997E+02  0.45594000000E+02  0.51100000000E-03 0. -1.
         11   -1    0    0    0    0 -0.00000000000E+00 -0.00000000000E+00 -0.45593999997E+02  0.45594000000E+02  0.51100000000E-03 0.  1.
    9900012    2    1    2    0    0  0.22712957207E+01  0.17383207636E+02  0.39702502846E+02  0.47787269312E+02  0.19999992103E+02 0.  0.
        -12    1    1    2    0    0 -0.22712957207E+01 -0.17383207636E+02 -0.39702502846E+02  0.43400730688E+02  0.00000000000E+00 0.  1.
         11    1    3    3    0    0  0.10112324725E+01  0.77694495777E+01  0.17130070698E+02  0.18836832542E+02  0.51100000000E-03 0. -1.
        -11    1    3    3    0    0  0.18015192547E+01  0.13127599112E+02  0.21467069770E+02  0.25227255396E+02  0.51100000000E-03 0.  1.
        -12    1    3    3    0    0 -0.54145600656E+00 -0.35138410535E+01  0.11053623787E+01  0.37231813741E+01  0.00000000000E+00 0.  1.
</event>
<event>
 7    1  0.1714203E-010  0.4778727E+02  0.7816164E-02  0.1312668E+00
        -11   -1    0    0    0    0  0.00000000000E+00  0.00000000000E+00  0.45593999997E+02  0.45594000000E+02  0.51100000000E-03 0. -1.
         11   -1    0    0    0    0 -0.00000000000E+00 -0.00000000000E+00 -0.45593999997E+02  0.45594000000E+02  0.51100000000E-03 0.  1.
    9900012    2    1    2    0    0  0.99981099713E+01  0.41735238404E+02  0.64677098915E+01  0.47787267300E+02  0.19999982927E+02 0.  0.
        -12    1    1    2    0    0 -0.99981099713E+01 -0.41735238404E+02 -0.64677098915E+01  0.43400732700E+02  0.00000000000E+00 0.  1.
         11    1    3    3    0    0  0.87679232500E+00  0.14253096696E+02  0.72259889315E+01  0.16004200902E+02  0.51100000000E-03 0. -1.
        -11    1    3    3    0    0  0.29100812994E+00 -0.12840332019E+01 -0.10604671121E+01  0.16905672871E+01  0.51100000000E-03 0.  1.
         12    1    3    3    0    0  0.88303095164E+01  0.28766174910E+02  0.30218807209E+00  0.30092499111E+02  0.00000000000E+00 0. -1.
</event>
<event>
 7    1  0.1714203E-010  0.4778727E+02  0.7816164E-02  0.1312668E+00
        -11   -1    0    0    0    0  0.00000000000E+00  0.00000000000E+00  0.45593999997E+02  0.45594000000E+02  0.51100000000E-03 0.  1.
         11   -1    0    0    0    0 -0.00000000000E+00 -0.00000000000E+00 -0.45593999997E+02  0.45594000000E+02  0.51100000000E-03 0. -1.
    9900012    2    1    2    0    0 -0.32197481298E+02  0.27306846418E+02 -0.10063872603E+02  0.47787271953E+02  0.20000004141E+02 0.  0.
        -12    1    1    2    0    0  0.32197481298E+02 -0.27306846418E+02  0.10063872603E+02  0.43400728047E+02  0.00000000000E+00 0.  1.
         11    1    3    3    0    0 -0.90293174243E+01  0.11663309673E+02 -0.86444005663E+01  0.17096403923E+02  0.51100000000E-03 0. -1.
        -11    1    3    3    0    0 -0.11588593973E+01 -0.19282878769E+01  0.91973362679E+00  0.24304648618E+01  0.51100000000E-03 0.  1.
         12    1    3    3    0    0 -0.22009304477E+02  0.17571824622E+02 -0.23392056638E+01  0.28260403168E+02  0.00000000000E+00 0. -1.
</event>
<event>
 7    1  0.1714203E-010  0.4778727E+02  0.7816164E-02  0.1312668E+00
        -11   -1    0    0    0    0  0.00000000000E+00  0.00000000000E+00  0.45593999997E+02  0.45594000000E+02  0.51100000000E-03 0. -1.
         11   -1    0    0    0    0 -0.00000000000E+00 -0.00000000000E+00 -0.45593999997E+02  0.45594000000E+02  0.51100000000E-03 0.  1.
    9900012    2    1    2    0    0  0.24168654773E+02 -0.28195492555E+02  0.22461377128E+02  0.47787272628E+02  0.20000007218E+02 0.  0.
        -12    1    1    2    0    0 -0.24168654773E+02  0.28195492555E+02 -0.22461377128E+02  0.43400727372E+02  0.00000000000E+00 0.  1.
         11    1    3    3    0    0  0.10162287555E+02 -0.13712802194E+02  0.35669306899E+01  0.17436628893E+02  0.51100000000E-03 0. -1.
        -11    1    3    3    0    0  0.27503691123E+01  0.22690972575E+01  0.26320192947E+01  0.44318008131E+01  0.51100000000E-03 0.  1.
         12    1    3    3    0    0  0.11255998106E+02 -0.16751787619E+02  0.16262427144E+02  0.25918842922E+02  0.00000000000E+00 0. -1.
</event>
<event>
 7    1  0.1714203E-010  0.4778727E+02  0.7816164E-02  0.1312668E+00
        -11   -1    0    0    0    0  0.00000000000E+00  0.00000000000E+00  0.45593999997E+02  0.45594000000E+02  0.51100000000E-03 0.  1.
         11   -1    0    0    0    0 -0.00000000000E+00 -0.00000000000E+00 -0.45593999997E+02  0.45594000000E+02  0.51100000000E-03 0. -1.
    9900012    2    1    2    0    0 -0.38121609495E+01  0.43231692005E+02 -0.33417261473E+00  0.47787269176E+02  0.19999991479E+02 0.  0.
        -12    1    1    2    0    0  0.38121609495E+01 -0.43231692005E+02  0.33417261473E+00  0.43400730824E+02  0.00000000000E+00 0.  1.
         11    1    3    3    0    0 -0.70558417166E+01  0.15334464481E+02  0.24339629591E+00  0.16881645218E+02  0.51100000000E-03 0. -1.
        -11    1    3    3    0    0 -0.27734235913E+01  0.59868778843E+01 -0.43079097278E+01  0.78798903357E+01  0.51100000000E-03 0.  1.
         12    1    3    3    0    0  0.60171043584E+01  0.21910349640E+02  0.37303408172E+01  0.23025733622E+02  0.00000000000E+00 0. -1.
</event>
<event>
 7    1  0.1714203E-010  0.4778727E+02  0.7816164E-02  0.1312668E+00
        -11   -1    0    0    0    0  0.00000000000E+00  0.00000000000E+00  0.45593999997E+02  0.45594000000E+02  0.51100000000E-03 0.  1.
         11   -1    0    0    0    0 -0.00000000000E+00 -0.00000000000E+00 -0.45593999997E+02  0.45594000000E+02  0.51100000000E-03 0. -1.
    9900012    2    1    2    0    0  0.23284246172E+02  0.52682379372E+01 -0.36245175819E+02  0.47787271654E+02  0.20000002780E+02 0.  0.
        -12    1    1    2    0    0 -0.23284246172E+02 -0.52682379372E+01  0.36245175819E+02  0.43400728346E+02  0.00000000000E+00 0.  1.
         11    1    3    3    0    0  0.18595209509E+02  0.28917258663E+01 -0.15262697139E+02  0.24230018972E+02  0.51100000000E-03 0. -1.
        -11    1    3    3    0    0  0.49124390941E+00 -0.30318843209E+01 -0.29083696912E+01  0.42299240697E+01  0.51100000000E-03 0.  1.
        -12    1    3    3    0    0  0.41977927535E+01  0.54083963917E+01 -0.18074108989E+02  0.19327328612E+02  0.00000000000E+00 0.  1.
</event>
<event>
 7    1  0.1714203E-010  0.4778727E+02  0.7816164E-02  0.1312668E+00
        -11   -1    0    0    0    0  0.00000000000E+00  0.00000000000E+00  0.45593999997E+02  0.45594000000E+02  0.51100000000E-03 0. -1.
         11   -1    0    0    0    0 -0.00000000000E+00 -0.00000000000E+00 -0.45593999997E+02  0.45594000000E+02  0.51100000000E-03 0.  1.
    9900012    2    1    2    0    0  0.36051880430E+02 -0.22732962490E+02 -0.81913225417E+01  0.47787269233E+02  0.19999991741E+02 0.  0.
        -12    1    1    2    0    0 -0.36051880430E+02  0.22732962490E+02  0.81913225417E+01  0.43400730767E+02  0.00000000000E+00 0.  1.
         11    1    3    3    0    0  0.52831180023E+01 -0.43045241584E+00  0.29194777489E+01  0.60514441000E+01  0.51100000000E-03 0.  1.
        -11    1    3    3    0    0  0.17879011709E+02 -0.20519000880E+02 -0.73447769406E+01  0.28189256914E+02  0.51100000000E-03 0. -1.
         12    1    3    3    0    0  0.12889750719E+02 -0.17835091947E+01 -0.37660233500E+01  0.13546568219E+02  0.00000000000E+00 0. -1.
</event>
<event>
 7    1  0.1714203E-010  0.4778727E+02  0.7816164E-02  0.1312668E+00
        -11   -1    0    0    0    0  0.00000000000E+00  0.00000000000E+00  0.45593999997E+02  0.45594000000E+02  0.51100000000E-03 0.  1.
         11   -1    0    0    0    0 -0.00000000000E+00 -0.00000000000E+00 -0.45593999997E+02  0.45594000000E+02  0.51100000000E-03 0. -1.
    9900012    2    1    2    0    0 -0.33020831204E+02 -0.27515851908E+02  0.60104738020E+01  0.47787271954E+02  0.20000004147E+02 0.  0.
        -12    1    1    2    0    0  0.33020831204E+02  0.27515851908E+02 -0.60104738020E+01  0.43400728046E+02  0.00000000000E+00 0.  1.
         11    1    3    3    0    0 -0.22241450770E+02 -0.25582546765E+02  0.37517147078E+01  0.34106072698E+02  0.51100000000E-03 0. -1.
        -11    1    3    3    0    0 -0.11942625181E+02 -0.24743437090E+01  0.18567876360E+01  0.12336787814E+02  0.51100000000E-03 0.  1.
        -12    1    3    3    0    0  0.11632447470E+01  0.54103856609E+00  0.40197145824E+00  0.13444114417E+01  0.00000000000E+00 0.  1.
</event>
<event>
 7    1  0.1714203E-010  0.4778727E+02  0.7816164E-02  0.1312668E+00
        -11   -1    0    0    0    0  0.00000000000E+00  0.00000000000E+00  0.45593999997E+02  0.45594000000E+02  0.51100000000E-03 0.  1.
         11   -1    0    0    0    0 -0.00000000000E+00 -0.00000000000E+00 -0.45593999997E+02  0.45594000000E+02  0.51100000000E-03 0. -1.
    9900012    2    1    2    0    0  0.10015081259E+02  0.22331491290E+02 -0.35841684627E+02  0.47787265988E+02  0.19999976947E+02 0.  0.
        -12    1    1    2    0    0 -0.10015081259E+02 -0.22331491290E+02  0.35841684627E+02  0.43400734012E+02  0.00000000000E+00 0.  1.
         11    1    3    3    0    0  0.13254993646E+01  0.36443814107E+01  0.68111819857E+00  0.39373070358E+01  0.51100000000E-03 0. -1.
        -11    1    3    3    0    0 -0.20587940558E+01  0.59639765683E+01 -0.17303788736E+02  0.18418163707E+02  0.51100000000E-03 0.  1.
         12    1    3    3    0    0  0.10748375950E+02  0.12723133311E+02 -0.19219014090E+02  0.25431795245E+02  0.00000000000E+00 0. -1.
</event>
<event>
 7    1  0.1714203E-010  0.4778728E+02  0.7816164E-02  0.1312668E+00
        -11   -1    0    0    0    0  0.00000000000E+00  0.00000000000E+00  0.45593999997E+02  0.45594000000E+02  0.51100000000E-03 0.  1.
         11   -1    0    0    0    0 -0.00000000000E+00 -0.00000000000E+00 -0.45593999997E+02  0.45594000000E+02  0.51100000000E-03 0. -1.
    9900012    2    1    2    0    0  0.33283882422E+02  0.47776997905E+01 -0.27440473894E+02  0.47787275906E+02  0.20000022166E+02 0.  0.
        -12    1    1    2    0    0 -0.33283882422E+02 -0.47776997905E+01  0.27440473894E+02  0.43400724094E+02  0.00000000000E+00 0.  1.
         11    1    3    3    0    0  0.19755316403E+02  0.11114278150E+02 -0.21034466110E+02  0.30923267450E+02  0.51100000000E-03 0. -1.
        -11    1    3    3    0    0  0.47708351773E+01 -0.44873497830E-01 -0.13789038653E+01  0.49663123191E+01  0.51100000000E-03 0.  1.
        -12    1    3    3    0    0  0.87577308420E+01 -0.62917048618E+01 -0.50271039187E+01  0.11897696137E+02  0.00000000000E+00 0.  1.
</event>
<event>
 7    1  0.1714203E-010  0.4778727E+02  0.7816164E-02  0.1312668E+00
        -11   -1    0    0    0    0  0.00000000000E+00  0.00000000000E+00  0.45593999997E+02  0.45594000000E+02  0.51100000000E-03 0.  1.
         11   -1    0    0    0    0 -0.00000000000E+00 -0.00000000000E+00 -0.45593999997E+02  0.45594000000E+02  0.51100000000E-03 0. -1.
    9900012    2    1    2    0    0 -0.38870412682E+02 -0.18935418102E+02 -0.37635327312E+01  0.47787271672E+02  0.20000002860E+02 0.  0.
        -12    1    1    2    0    0  0.38870412682E+02  0.18935418102E+02  0.37635327312E+01  0.43400728328E+02  0.00000000000E+00 0.  1.
         11    1    3    3    0    0 -0.10295800470E+02 -0.19811400699E+01 -0.23382604939E+01  0.10742247702E+02  0.51100000000E-03 0. -1.
        -11    1    3    3    0    0 -0.16094409654E+02 -0.18321763454E+02  0.18320797373E+00  0.24387509171E+02  0.51100000000E-03 0.  1.
        -12    1    3    3    0    0 -0.12480202559E+02  0.13674854211E+01 -0.16084802111E+01  0.12657514798E+02  0.00000000000E+00 0.  1.
</event>
<event>
 7    1  0.1714203E-010  0.4778726E+02  0.7816164E-02  0.1312668E+00
        -11   -1    0    0    0    0  0.00000000000E+00  0.00000000000E+00  0.45593999997E+02  0.45594000000E+02  0.51100000000E-03 0.  1.
         11   -1    0    0    0    0 -0.00000000000E+00 -0.00000000000E+00 -0.45593999997E+02  0.45594000000E+02  0.51100000000E-03 0. -1.
    9900012    2    1    2    0    0  0.18584995562E+01  0.23783954599E+02 -0.36255946939E+02  0.47787260312E+02  0.19999951069E+02 0.  0.
        -12    1    1    2    0    0 -0.18584995562E+01 -0.23783954599E+02  0.36255946939E+02  0.43400739688E+02  0.00000000000E+00 0.  1.
         11    1    3    3    0    0 -0.47154119411E+00  0.14119267646E+02 -0.30118349401E+02  0.33266966210E+02  0.51100000000E-03 0. -1.
        -11    1    3    3    0    0  0.27245424003E+01  0.20019978264E+01 -0.59519566925E+01  0.68452111230E+01  0.51100000000E-03 0.  1.
        -12    1    3    3    0    0 -0.39450164994E+00  0.76626891273E+01 -0.18564084561E+00  0.76750829791E+01  0.00000000000E+00 0.  1.
</event>
<event>
 7    1  0.1714203E-010  0.4778727E+02  0.7816164E-02  0.1312668E+00
        -11   -1    0    0    0    0  0.00000000000E+00  0.00000000000E+00  0.45593999997E+02  0.45594000000E+02  0.51100000000E-03 0. -1.
         11   -1    0    0    0    0 -0.00000000000E+00 -0.00000000000E+00 -0.45593999997E+02  0.45594000000E+02  0.51100000000E-03 0.  1.
    9900012    2    1    2    0    0  0.32518858729E+02  0.12536621759E+02  0.25864658651E+02  0.47787266996E+02  0.19999981541E+02 0.  0.
        -12    1    1    2    0    0 -0.32518858729E+02 -0.12536621759E+02 -0.25864658651E+02  0.43400733004E+02  0.00000000000E+00 0.  1.
         11    1    3    3    0    0  0.78924602474E+01 -0.33163043398E+00  0.38704475087E+00  0.79089007707E+01  0.51100000000E-03 0. -1.
        -11    1    3    3    0    0  0.47898825777E+01  0.24423720580E+01  0.13362493533E+02  0.14403624199E+02  0.51100000000E-03 0.  1.
         12    1    3    3    0    0  0.19836515904E+02  0.10425880135E+02  0.12115120367E+02  0.25474742026E+02  0.00000000000E+00 0. -1.
</event>
<event>
 7    1  0.1714203E-010  0.4778727E+02  0.7816164E-02  0.1312668E+00
        -11   -1    0    0    0    0  0.00000000000E+00  0.00000000000E+00  0.45593999997E+02  0.45594000000E+02  0.51100000000E-03 0. -1.
         11   -1    0    0    0    0 -0.00000000000E+00 -0.00000000000E+00 -0.45593999997E+02  0.45594000000E+02  0.51100000000E-03 0.  1.
    9900012    2    1    2    0    0  0.16999192341E+02  0.37660070891E+02  0.13280423724E+02  0.47787272655E+02  0.20000007344E+02 0.  0.
        -12    1    1    2    0    0 -0.16999192341E+02 -0.37660070891E+02 -0.13280423724E+02  0.43400727345E+02  0.00000000000E+00 0.  1.
         11    1    3    3    0    0  0.13139349021E+02  0.83140560871E+01  0.60691704986E+01  0.16691340633E+02  0.51100000000E-03 0. -1.
        -11    1    3    3    0    0  0.45898271592E+00  0.74647114283E+01 -0.85724037251E+00  0.75277781024E+01  0.51100000000E-03 0.  1.
         12    1    3    3    0    0  0.34008606046E+01  0.21881303375E+02  0.80684935982E+01  0.23568153920E+02  0.00000000000E+00 0. -1.
</event>
<event>
 7    1  0.1714203E-010  0.4778727E+02  0.7816164E-02  0.1312668E+00
        -11   -1    0    0    0    0  0.00000000000E+00  0.00000000000E+00  0.45593999997E+02  0.45594000000E+02  0.51100000000E-03 0.  1.
         11   -1    0    0    0    0 -0.00000000000E+00 -0.00000000000E+00 -0.45593999997E+02  0.45594000000E+02  0.51100000000E-03 0. -1.
    9900012    2    1    2    0    0  0.92313509015E+01 -0.42111816463E+02 -0.50000335407E+01  0.47787271197E+02  0.20000000694E+02 0.  0.
        -12    1    1    2    0    0 -0.92313509015E+01  0.42111816463E+02  0.50000335407E+01  0.43400728803E+02  0.00000000000E+00 0.  1.
         11    1    3    3    0    0  0.83891481306E+00 -0.24238976215E+02 -0.11294246419E+01  0.24279772369E+02  0.51100000000E-03 0. -1.
        -11    1    3    3    0    0 -0.52675959818E+00 -0.16112045105E+01 -0.46446468581E+01  0.49443098959E+01  0.51100000000E-03 0.  1.
         12    1    3    3    0    0  0.89191956866E+01 -0.16261635737E+02  0.77403795933E+00  0.18563188932E+02  0.00000000000E+00 0. -1.
</event>
<event>
 7    1  0.1714203E-010  0.4778727E+02  0.7816164E-02  0.1312668E+00
        -11   -1    0    0    0    0  0.00000000000E+00  0.00000000000E+00  0.45593999997E+02  0.45594000000E+02  0.51100000000E-03 0.  1.
         11   -1    0    0    0    0 -0.00000000000E+00 -0.00000000000E+00 -0.45593999997E+02  0.45594000000E+02  0.51100000000E-03 0. -1.
    9900012    2    1    2    0    0 -0.56983840132E+01 -0.26044272357E+02 -0.34246867765E+02  0.47787266658E+02  0.19999979999E+02 0.  0.
        -12    1    1    2    0    0  0.56983840132E+01  0.26044272357E+02  0.34246867765E+02  0.43400733342E+02  0.00000000000E+00 0.  1.
         11    1    3    3    0    0  0.48162348270E+01 -0.50767861938E+01 -0.48931007846E+01  0.85388706230E+01  0.51100000000E-03 0. -1.
        -11    1    3    3    0    0 -0.61231684491E+01 -0.43376341675E+01 -0.15284688096E+02  0.17027329576E+02  0.51100000000E-03 0.  1.
         12    1    3    3    0    0 -0.43914503910E+01 -0.16629851995E+02 -0.14069078884E+02  0.22221066459E+02  0.00000000000E+00 0. -1.
</event>
<event>
 7    1  0.1714203E-010  0.4778722E+02  0.7816164E-02  0.1312668E+00
        -11   -1    0    0    0    0  0.00000000000E+00  0.00000000000E+00  0.45593999997E+02  0.45594000000E+02  0.51100000000E-03 0. -1.
         11   -1    0    0    0    0 -0.00000000000E+00 -0.00000000000E+00 -0.45593999997E+02  0.45594000000E+02  0.51100000000E-03 0.  1.
    9900012    2    1    2    0    0  0.20044304139E+02  0.24559630928E+02  0.29642504081E+02  0.47787220653E+02  0.19999770244E+02 0.  0.
        -12    1    1    2    0    0 -0.20044304139E+02 -0.24559630928E+02 -0.29642504081E+02  0.43400779347E+02  0.00000000000E+00 0.  1.
         11    1    3    3    0    0  0.29567636425E+00  0.74172653190E+01  0.11097429145E+02  0.13351261484E+02  0.51100000000E-03 0.  1.
        -11    1    3    3    0    0  0.17983456249E+02  0.95495570552E+01  0.16917343545E+02  0.26472537685E+02  0.51100000000E-03 0. -1.
         12    1    3    3    0    0  0.17651715256E+01  0.75928085533E+01  0.16277313911E+01  0.79634214835E+01  0.00000000000E+00 0. -1.
</event>
<event>
 7    1  0.1714203E-010  0.4778728E+02  0.7816164E-02  0.1312668E+00
        -11   -1    0    0    0    0  0.00000000000E+00  0.00000000000E+00  0.45593999997E+02  0.45594000000E+02  0.51100000000E-03 0. -1.
         11   -1    0    0    0    0 -0.00000000000E+00 -0.00000000000E+00 -0.45593999997E+02  0.45594000000E+02  0.51100000000E-03 0.  1.
    9900012    2    1    2    0    0 -0.33576402444E+02  0.22826199340E+02 -0.15336636949E+02  0.47787278689E+02  0.20000034856E+02 0.  0.
        -12    1    1    2    0    0  0.33576402444E+02 -0.22826199340E+02  0.15336636949E+02  0.43400721311E+02  0.00000000000E+00 0.  1.
         11    1    3    3    0    0 -0.10589568378E+02  0.67597087440E+01  0.83317722348E+00  0.12590742840E+02  0.51100000000E-03 0. -1.
        -11    1    3    3    0    0 -0.99845978620E+01  0.14599141810E+02 -0.12328166432E+02  0.21559471791E+02  0.51100000000E-03 0.  1.
         12    1    3    3    0    0 -0.13002236204E+02  0.14673487858E+01 -0.38416477412E+01  0.13637064058E+02  0.00000000000E+00 0. -1.
</event>
<event>
 7    1  0.1714203E-010  0.4778727E+02  0.7816164E-02  0.1312668E+00
        -11   -1    0    0    0    0  0.00000000000E+00  0.00000000000E+00  0.45593999997E+02  0.45594000000E+02  0.51100000000E-03 0.  1.
         11   -1    0    0    0    0 -0.00000000000E+00 -0.00000000000E+00 -0.45593999997E+02  0.45594000000E+02  0.51100000000E-03 0. -1.
    9900012    2    1    2    0    0 -0.34789770794E+02 -0.24685052481E+02 -0.79964549986E+01  0.47787271200E+02  0.20000000709E+02 0.  0.
        -12    1    1    2    0    0  0.34789770794E+02  0.24685052481E+02  0.79964549986E+01  0.43400728800E+02  0.00000000000E+00 0.  1.
         11    1    3    3    0    0 -0.18837297566E+02 -0.13921148104E+02 -0.79626541465E+01  0.24739563566E+02  0.51100000000E-03 0. -1.
        -11    1    3    3    0    0 -0.10662483040E+02 -0.39354760664E+01  0.56652236885E+01  0.12699262819E+02  0.51100000000E-03 0.  1.
        -12    1    3    3    0    0 -0.52899901880E+01 -0.68284283098E+01 -0.56990245405E+01  0.10348444815E+02  0.00000000000E+00 0.  1.
</event>
<event>
 7    1  0.1714203E-010  0.4778727E+02  0.7816164E-02  0.1312668E+00
        -11   -1    0    0    0    0  0.00000000000E+00  0.00000000000E+00  0.45593999997E+02  0.45594000000E+02  0.51100000000E-03 0. -1.
         11   -1    0    0    0    0 -0.00000000000E+00 -0.00000000000E+00 -0.45593999997E+02  0.45594000000E+02  0.51100000000E-03 0.  1.
    9900012    2    1    2    0    0 -0.17667436518E+02  0.36750156762E+02  0.14863077766E+02  0.47787269409E+02  0.19999992543E+02 0.  0.
        -12    1    1    2    0    0  0.17667436518E+02 -0.36750156762E+02 -0.14863077766E+02  0.43400730591E+02  0.00000000000E+00 0.  1.
         11    1    3    3    0    0 -0.12439389880E+02  0.28656193994E+02  0.35679279124E+01  0.31442741367E+02  0.51100000000E-03 0. -1.
        -11    1    3    3    0    0  0.40806413500E+00  0.56593694633E+01  0.54679619209E+01  0.78799484065E+01  0.51100000000E-03 0.  1.
         12    1    3    3    0    0 -0.56361107723E+01  0.24345933049E+01  0.58271879332E+01  0.84645796356E+01  0.00000000000E+00 0. -1.
</event>
<event>
 7    1  0.1714203E-010  0.4778727E+02  0.7816164E-02  0.1312668E+00
        -11   -1    0    0    0    0  0.00000000000E+00  0.00000000000E+00  0.45593999997E+02  0.45594000000E+02  0.51100000000E-03 0. -1.
         11   -1    0    0    0    0 -0.00000000000E+00 -0.00000000000E+00 -0.45593999997E+02  0.45594000000E+02  0.51100000000E-03 0.  1.
    9900012    2    1    2    0    0 -0.20577757842E+01  0.39672226818E+02  0.17478660407E+02  0.47787267386E+02  0.19999983318E+02 0.  0.
        -12    1    1    2    0    0  0.20577757842E+01 -0.39672226818E+02 -0.17478660407E+02  0.43400732614E+02  0.00000000000E+00 0.  1.
         11    1    3    3    0    0  0.36825286787E+01  0.31735132278E+02  0.16820167556E+02  0.36105369061E+02  0.51100000000E-03 0. -1.
        -11    1    3    3    0    0 -0.17561551183E+01  0.72208461342E+01 -0.56566423294E+00  0.74528300651E+01  0.51100000000E-03 0.  1.
        -12    1    3    3    0    0 -0.39841493446E+01  0.71624840586E+00  0.12241570833E+01  0.42290682595E+01  0.00000000000E+00 0.  1.
</event>
<event>
 7    1  0.1714203E-010  0.4778725E+02  0.7816164E-02  0.1312668E+00
        -11   -1    0    0    0    0  0.00000000000E+00  0.00000000000E+00  0.45593999997E+02  0.45594000000E+02  0.51100000000E-03 0.  1.
         11   -1    0    0    0    0 -0.00000000000E+00 -0.00000000000E+00 -0.45593999997E+02  0.45594000000E+02  0.51100000000E-03 0. -1.
    9900012    2    1    2    0    0 -0.26071408240E+02  0.31901889044E+02 -0.13644654058E+02  0.47787246129E+02  0.19999886399E+02 0.  0.
        -12    1    1    2    0    0  0.26071408240E+02 -0.31901889044E+02  0.13644654058E+02  0.43400753871E+02  0.00000000000E+00 0.  1.
         11    1    3    3    0    0 -0.14449972367E+02  0.27237992310E+02 -0.73367308581E+01  0.31694440308E+02  0.51100000000E-03 0. -1.
        -11    1    3    3    0    0 -0.90748874565E+01  0.35171947751E+01 -0.61537941387E+00  0.97520732933E+01  0.51100000000E-03 0.  1.
        -12    1    3    3    0    0 -0.25465484167E+01  0.11467019586E+01 -0.56925437864E+01  0.63407325271E+01  0.00000000000E+00 0.  1.
</event>
<event>
 7    1  0.1714203E-010  0.4778727E+02  0.7816164E-02  0.1312668E+00
        -11   -1    0    0    0    0  0.00000000000E+00  0.00000000000E+00  0.45593999997E+02  0.45594000000E+02  0.51100000000E-03 0.  1.
         11   -1    0    0    0    0 -0.00000000000E+00 -0.00000000000E+00 -0.45593999997E+02  0.45594000000E+02  0.51100000000E-03 0. -1.
    9900012    2    1    2    0    0 -0.33281174498E+02 -0.14733711057E+02 -0.23641165161E+02  0.47787268351E+02  0.19999987719E+02 0.  0.
        -12    1    1    2    0    0  0.33281174498E+02  0.14733711057E+02  0.23641165161E+02  0.43400731649E+02  0.00000000000E+00 0.  1.
         11    1    3    3    0    0 -0.30207743441E+01 -0.71951230817E+01 -0.41953721767E+01  0.88597980655E+01  0.51100000000E-03 0. -1.
        -11    1    3    3    0    0 -0.23718757188E+02 -0.10664495247E+02 -0.17736795856E+02  0.31478640836E+02  0.51100000000E-03 0.  1.
        -12    1    3    3    0    0 -0.65416429667E+01  0.31259072721E+01 -0.17089971289E+01  0.74488294492E+01  0.00000000000E+00 0.  1.
</event>
<event>
 7    1  0.1714203E-010  0.4778727E+02  0.7816164E-02  0.1312668E+00
        -11   -1    0    0    0    0  0.00000000000E+00  0.00000000000E+00  0.45593999997E+02  0.45594000000E+02  0.51100000000E-03 0. -1.
         11   -1    0    0    0    0 -0.00000000000E+00 -0.00000000000E+00 -0.45593999997E+02  0.45594000000E+02  0.51100000000E-03 0.  1.
    9900012    2    1    2    0    0  0.12371661247E+02  0.15299497990E+01  0.41571917479E+02  0.47787273378E+02  0.20000010641E+02 0.  0.
        -12    1    1    2    0    0 -0.12371661247E+02 -0.15299497990E+01 -0.41571917479E+02  0.43400726622E+02  0.00000000000E+00 0.  1.
         11    1    3    3    0    0  0.17807745394E+00  0.58247835267E+01  0.50431791981E+01  0.77067159931E+01  0.51100000000E-03 0. -1.
        -11    1    3    3    0    0  0.53352574627E+01 -0.35791552595E+01  0.60270085673E+01  0.88090951350E+01  0.51100000000E-03 0.  1.
         12    1    3    3    0    0  0.68583263301E+01 -0.71567846823E+00  0.30501729714E+02  0.31271462250E+02  0.00000000000E+00 0. -1.
</event>
<event>
 7    1  0.1714203E-010  0.4778727E+02  0.7816164E-02  0.1312668E+00
        -11   -1    0    0    0    0  0.00000000000E+00  0.00000000000E+00  0.45593999997E+02  0.45594000000E+02  0.51100000000E-03 0. -1.
         11   -1    0    0    0    0 -0.00000000000E+00 -0.00000000000E+00 -0.45593999997E+02  0.45594000000E+02  0.51100000000E-03 0.  1.
    9900012    2    1    2    0    0 -0.16453801761E+02  0.31357829748E+02  0.25091474393E+02  0.47787272286E+02  0.20000005659E+02 0.  0.
        -12    1    1    2    0    0  0.16453801761E+02 -0.31357829748E+02 -0.25091474393E+02  0.43400727714E+02  0.00000000000E+00 0.  1.
         11    1    3    3    0    0 -0.52715772542E+01  0.45256062525E+01 -0.11600341754E+01  0.70438851672E+01  0.51100000000E-03 0. -1.
        -11    1    3    3    0    0 -0.80710584325E+01  0.59073941738E+01  0.86518690410E+01  0.13224754376E+02  0.51100000000E-03 0.  1.
         12    1    3    3    0    0 -0.31111660742E+01  0.20924829322E+02  0.17599639528E+02  0.27518632742E+02  0.00000000000E+00 0. -1.
</event>
<event>
 7    1  0.1714203E-010  0.4778727E+02  0.7816164E-02  0.1312668E+00
        -11   -1    0    0    0    0  0.00000000000E+00  0.00000000000E+00  0.45593999997E+02  0.45594000000E+02  0.51100000000E-03 0.  1.
         11   -1    0    0    0    0 -0.00000000000E+00 -0.00000000000E+00 -0.45593999997E+02  0.45594000000E+02  0.51100000000E-03 0. -1.
    9900012    2    1    2    0    0 -0.35041390912E+02  0.15726551860E+02 -0.20208902287E+02  0.47787271410E+02  0.20000001667E+02 0.  0.
        -12    1    1    2    0    0  0.35041390912E+02 -0.15726551860E+02  0.20208902287E+02  0.43400728590E+02  0.00000000000E+00 0.  1.
         11    1    3    3    0    0 -0.22254565925E+01  0.40781566540E+01 -0.25902870568E+01  0.53191734355E+01  0.51100000000E-03 0. -1.
        -11    1    3    3    0    0 -0.22785038936E+02 -0.18356581011E+00 -0.76786371528E+01  0.24044815751E+02  0.51100000000E-03 0.  1.
        -12    1    3    3    0    0 -0.10030895384E+02  0.11831961016E+02 -0.99399780777E+01  0.18423282223E+02  0.00000000000E+00 0.  1.
</event>
<event>
 7    1  0.1714203E-010  0.4778725E+02  0.7816164E-02  0.1312668E+00
        -11   -1    0    0    0    0  0.00000000000E+00  0.00000000000E+00  0.45593999997E+02  0.45594000000E+02  0.51100000000E-03 0.  1.
         11   -1    0    0    0    0 -0.00000000000E+00 -0.00000000000E+00 -0.45593999997E+02  0.45594000000E+02  0.51100000000E-03 0. -1.
    9900012    2    1    2    0    0  0.24684975267E+02  0.26401377691E+01 -0.35599255613E+02  0.47787247338E+02  0.19999891913E+02 0.  0.
        -12    1    1    2    0    0 -0.24684975267E+02 -0.26401377691E+01  0.35599255613E+02  0.43400752662E+02  0.00000000000E+00 0.  1.
         11    1    3    3    0    0  0.97383273594E+01  0.40705219363E+01 -0.91992071816E+01  0.14001056447E+02  0.51100000000E-03 0.  1.
        -11    1    3    3    0    0  0.70417368694E+01 -0.54997561044E+01 -0.22244970331E+02  0.23972319050E+02  0.51100000000E-03 0. -1.
         12    1    3    3    0    0  0.79049110387E+01  0.40693719372E+01 -0.41550781006E+01  0.98138718411E+01  0.00000000000E+00 0. -1.
</event>
<event>
 7    1  0.1714203E-010  0.4778728E+02  0.7816164E-02  0.1312668E+00
        -11   -1    0    0    0    0  0.00000000000E+00  0.00000000000E+00  0.45593999997E+02  0.45594000000E+02  0.51100000000E-03 0. -1.
         11   -1    0    0    0    0 -0.00000000000E+00 -0.00000000000E+00 -0.45593999997E+02  0.45594000000E+02  0.51100000000E-03 0.  1.
    9900012    2    1    2    0    0  0.17177588223E+02  0.15601681142E+02  0.36676152864E+02  0.47787283641E+02  0.20000057432E+02 0.  0.
        -12    1    1    2    0    0 -0.17177588223E+02 -0.15601681142E+02 -0.36676152864E+02  0.43400716359E+02  0.00000000000E+00 0.  1.
         11    1    3    3    0    0  0.11253666053E+02  0.15841480589E+02  0.22063869822E+02  0.29400881937E+02  0.51100000000E-03 0. -1.
        -11    1    3    3    0    0 -0.22332973146E+01  0.77414998626E+00  0.11881043681E+01  0.26454711012E+01  0.51100000000E-03 0.  1.
        -12    1    3    3    0    0  0.81572194846E+01 -0.10139494333E+01  0.13424178674E+02  0.15740930603E+02  0.00000000000E+00 0.  1.
</event>
<event>
 7    1  0.1714203E-010  0.4778727E+02  0.7816164E-02  0.1312668E+00
        -11   -1    0    0    0    0  0.00000000000E+00  0.00000000000E+00  0.45593999997E+02  0.45594000000E+02  0.51100000000E-03 0.  1.
         11   -1    0    0    0    0 -0.00000000000E+00 -0.00000000000E+00 -0.45593999997E+02  0.45594000000E+02  0.51100000000E-03 0. -1.
    9900012    2    1    2    0    0 -0.22316735951E+02 -0.35341127633E+01 -0.37055318031E+02  0.47787271309E+02  0.20000001206E+02 0.  0.
        -12    1    1    2    0    0  0.22316735951E+02  0.35341127633E+01  0.37055318031E+02  0.43400728691E+02  0.00000000000E+00 0.  1.
         11    1    3    3    0    0 -0.92795852913E+01 -0.50780217099E+01 -0.12871742413E+02  0.16660695083E+02  0.51100000000E-03 0. -1.
        -11    1    3    3    0    0 -0.81233339790E+01  0.57195892717E+01 -0.54874428816E+01  0.11349638144E+02  0.51100000000E-03 0.  1.
        -12    1    3    3    0    0 -0.49138166810E+01 -0.41756803251E+01 -0.18696132737E+02  0.19776938081E+02  0.00000000000E+00 0.  1.
</event>
<event>
 7    1  0.1714203E-010  0.4778727E+02  0.7816164E-02  0.1312668E+00
        -11   -1    0    0    0    0  0.00000000000E+00  0.00000000000E+00  0.45593999997E+02  0.45594000000E+02  0.51100000000E-03 0. -1.
         11   -1    0    0    0    0 -0.00000000000E+00 -0.00000000000E+00 -0.45593999997E+02  0.45594000000E+02  0.51100000000E-03 0.  1.
    9900012    2    1    2    0    0 -0.41026728352E+02  0.74350928592E+00  0.14137821013E+02  0.47787271569E+02  0.20000002390E+02 0.  0.
        -12    1    1    2    0    0  0.41026728352E+02 -0.74350928592E+00 -0.14137821013E+02  0.43400728431E+02  0.00000000000E+00 0.  1.
         11    1    3    3    0    0 -0.15946237643E+02  0.16625744904E+01  0.15269339322E+02  0.22140446529E+02  0.51100000000E-03 0. -1.
        -11    1    3    3    0    0 -0.13611546130E+02  0.10020866566E+01  0.14801908657E+01  0.13728413272E+02  0.51100000000E-03 0.  1.
        -12    1    3    3    0    0 -0.11468944580E+02 -0.19211518611E+01 -0.26117091750E+01  0.11918411767E+02  0.00000000000E+00 0.  1.
</event>
<event>
 7    1  0.1714203E-010  0.4778727E+02  0.7816164E-02  0.1312668E+00
        -11   -1    0    0    0    0  0.00000000000E+00  0.00000000000E+00  0.45593999997E+02  0.45594000000E+02  0.51100000000E-03 0. -1.
         11   -1    0    0    0    0 -0.00000000000E+00 -0.00000000000E+00 -0.45593999997E+02  0.45594000000E+02  0.51100000000E-03 0.  1.
    9900012    2    1    2    0    0 -0.40058182573E+01 -0.40444078127E+02 -0.15226740523E+02  0.47787266568E+02  0.19999979592E+02 0.  0.
        -12    1    1    2    0    0  0.40058182573E+01  0.40444078127E+02  0.15226740523E+02  0.43400733432E+02  0.00000000000E+00 0.  1.
         11    1    3    3    0    0 -0.26431489495E+01 -0.89201845658E+01 -0.70209379954E+00  0.93299981254E+01  0.51100000000E-03 0. -1.
        -11    1    3    3    0    0  0.20492845218E+01 -0.11225734179E+02  0.25748794323E+01  0.11698148540E+02  0.51100000000E-03 0.  1.
         12    1    3    3    0    0 -0.34119538296E+01 -0.20298159383E+02 -0.17099526156E+02  0.26759119903E+02  0.00000000000E+00 0. -1.
</event>
<event>
 7    1  0.1714203E-010  0.4778725E+02  0.7816164E-02  0.1312668E+00
        -11   -1    0    0    0    0  0.00000000000E+00  0.00000000000E+00  0.45593999997E+02  0.45594000000E+02  0.51100000000E-03 0. -1.
         11   -1    0    0    0    0 -0.00000000000E+00 -0.00000000000E+00 -0.45593999997E+02  0.45594000000E+02  0.51100000000E-03 0.  1.
    9900012    2    1    2    0    0  0.32790572230E+02 -0.16630539281E+02  0.23061407558E+02  0.47787251360E+02  0.19999910251E+02 0.  0.
        -12    1    1    2    0    0 -0.32790572230E+02  0.16630539281E+02 -0.23061407558E+02  0.43400748640E+02  0.00000000000E+00 0.  1.
         11    1    3    3    0    0  0.19850948030E+02 -0.12883691392E+02  0.13321282619E+02  0.27157065608E+02  0.51100000000E-03 0. -1.
        -11    1    3    3    0    0 -0.10866460816E+01 -0.39506661693E+01  0.15126917068E+01  0.43676995488E+01  0.51100000000E-03 0.  1.
        -12    1    3    3    0    0  0.14026270282E+02  0.20381828061E+00  0.82274332329E+01  0.16262486203E+02  0.00000000000E+00 0.  1.
</event>
<event>
 7    1  0.1714203E-010  0.4778728E+02  0.7816164E-02  0.1312668E+00
        -11   -1    0    0    0    0  0.00000000000E+00  0.00000000000E+00  0.45593999997E+02  0.45594000000E+02  0.51100000000E-03 0.  1.
         11   -1    0    0    0    0 -0.00000000000E+00 -0.00000000000E+00 -0.45593999997E+02  0.45594000000E+02  0.51100000000E-03 0. -1.
    9900012    2    1    2    0    0  0.55874229678E+01 -0.24755795090E+02 -0.35207293920E+02  0.47787283057E+02  0.20000054771E+02 0.  0.
        -12    1    1    2    0    0 -0.55874229678E+01  0.24755795090E+02  0.35207293920E+02  0.43400716943E+02  0.00000000000E+00 0.  1.
         11    1    3    3    0    0  0.40925149773E+01 -0.22896951671E+02 -0.33976844759E+02  0.41175782381E+02  0.51100000000E-03 0. -1.
        -11    1    3    3    0    0 -0.22055625321E+01 -0.14490300969E+01 -0.11730927494E+01  0.28879648828E+01  0.51100000000E-03 0.  1.
        -12    1    3    3    0    0  0.37004705226E+01 -0.40981332175E+00 -0.57356412150E-01  0.37235357935E+01  0.00000000000E+00 0.  1.
</event>
<event>
 7    1  0.1714203E-010  0.4778728E+02  0.7816164E-02  0.1312668E+00
        -11   -1    0    0    0    0  0.00000000000E+00  0.00000000000E+00  0.45593999997E+02  0.45594000000E+02  0.51100000000E-03 0.  1.
         11   -1    0    0    0    0 -0.00000000000E+00 -0.00000000000E+00 -0.45593999997E+02  0.45594000000E+02  0.51100000000E-03 0. -1.
    9900012    2    1    2    0    0 -0.24086870598E+02 -0.28047347003E+02  0.22733048919E+02  0.47787279704E+02  0.20000039480E+02 0.  0.
        -12    1    1    2    0    0  0.24086870598E+02  0.28047347003E+02 -0.22733048919E+02  0.43400720296E+02  0.00000000000E+00 0.  1.
         11    1    3    3    0    0 -0.15020595544E+02 -0.90306963934E+01  0.41424406037E+01  0.18009208263E+02  0.51100000000E-03 0. -1.
        -11    1    3    3    0    0 -0.99700733293E+01 -0.17754813973E+02  0.13438678666E+02  0.24397415149E+02  0.51100000000E-03 0.  1.
        -12    1    3    3    0    0  0.90379827503E+00 -0.12618366366E+01  0.51519296491E+01  0.53806562916E+01  0.00000000000E+00 0.  1.
</event>
<event>
 7    1  0.1714203E-010  0.4778727E+02  0.7816164E-02  0.1312668E+00
        -11   -1    0    0    0    0  0.00000000000E+00  0.00000000000E+00  0.45593999997E+02  0.45594000000E+02  0.51100000000E-03 0. -1.
         11   -1    0    0    0    0 -0.00000000000E+00 -0.00000000000E+00 -0.45593999997E+02  0.45594000000E+02  0.51100000000E-03 0.  1.
    9900012    2    1    2    0    0  0.10605108839E+02  0.38904088593E+02  0.16050761188E+02  0.47787269851E+02  0.19999994558E+02 0.  0.
        -12    1    1    2    0    0 -0.10605108839E+02 -0.38904088593E+02 -0.16050761188E+02  0.43400730149E+02  0.00000000000E+00 0.  1.
         11    1    3    3    0    0  0.13353786371E+02  0.13158950465E+02  0.64430015156E+01  0.19824072653E+02  0.51100000000E-03 0. -1.
        -11    1    3    3    0    0 -0.93118098125E+00  0.18654322317E+02  0.86411677238E+01  0.20579616590E+02  0.51100000000E-03 0.  1.
        -12    1    3    3    0    0 -0.18174965509E+01  0.70908158115E+01  0.96659194851E+00  0.73835806070E+01  0.00000000000E+00 0.  1.
</event>
<event>
 7    1  0.1714203E-010  0.4778725E+02  0.7816164E-02  0.1312668E+00
        -11   -1    0    0    0    0  0.00000000000E+00  0.00000000000E+00  0.45593999997E+02  0.45594000000E+02  0.51100000000E-03 0.  1.
         11   -1    0    0    0    0 -0.00000000000E+00 -0.00000000000E+00 -0.45593999997E+02  0.45594000000E+02  0.51100000000E-03 0. -1.
    9900012    2    1    2    0    0  0.13460128091E+02 -0.38760767297E+02 -0.14143994784E+02  0.47787254406E+02  0.19999924137E+02 0.  0.
        -12    1    1    2    0    0 -0.13460128091E+02  0.38760767297E+02  0.14143994784E+02  0.43400745594E+02  0.00000000000E+00 0.  1.
         11    1    3    3    0    0  0.11262279115E+02 -0.22762897346E+02 -0.13024246234E+02  0.28541538443E+02  0.51100000000E-03 0. -1.
        -11    1    3    3    0    0  0.45006776380E+01 -0.20373744474E+01  0.66325122067E+00  0.49846661155E+01  0.51100000000E-03 0.  1.
        -12    1    3    3    0    0 -0.23028286623E+01 -0.13960495504E+02 -0.17829997702E+01  0.14261049847E+02  0.00000000000E+00 0.  1.
</event>
<event>
 7    1  0.1714203E-010  0.4778727E+02  0.7816164E-02  0.1312668E+00
        -11   -1    0    0    0    0  0.00000000000E+00  0.00000000000E+00  0.45593999997E+02  0.45594000000E+02  0.51100000000E-03 0.  1.
         11   -1    0    0    0    0 -0.00000000000E+00 -0.00000000000E+00 -0.45593999997E+02  0.45594000000E+02  0.51100000000E-03 0. -1.
    9900012    2    1    2    0    0  0.39883292718E+02  0.17066663456E+02  0.12943817319E+01  0.47787268859E+02  0.19999990034E+02 0.  0.
        -12    1    1    2    0    0 -0.39883292718E+02 -0.17066663456E+02 -0.12943817319E+01  0.43400731141E+02  0.00000000000E+00 0.  1.
         11    1    3    3    0    0  0.18994837521E+02  0.68840624531E+01 -0.22660099549E+01  0.20330493592E+02  0.51100000000E-03 0. -1.
        -11    1    3    3    0    0  0.62490675408E+01 -0.14705219238E+01 -0.36729011623E+01  0.73961803025E+01  0.51100000000E-03 0.  1.
         12    1    3    3    0    0  0.14639387656E+02  0.11653122927E+02  0.72332928490E+01  0.20060594964E+02  0.00000000000E+00 0. -1.
</event>
<event>
 7    1  0.1714203E-010  0.4778727E+02  0.7816164E-02  0.1312668E+00
        -11   -1    0    0    0    0  0.00000000000E+00  0.00000000000E+00  0.45593999997E+02  0.45594000000E+02  0.51100000000E-03 0.  1.
         11   -1    0    0    0    0 -0.00000000000E+00 -0.00000000000E+00 -0.45593999997E+02  0.45594000000E+02  0.51100000000E-03 0. -1.
    9900012    2    1    2    0    0  0.24090134015E+02  0.86151006281E+01 -0.35058077980E+02  0.47787270198E+02  0.19999996139E+02 0.  0.
        -12    1    1    2    0    0 -0.24090134015E+02 -0.86151006281E+01  0.35058077980E+02  0.43400729802E+02  0.00000000000E+00 0.  1.
         11    1    3    3    0    0  0.14015134956E+01  0.24482776527E+01 -0.15713544116E+02  0.15964766597E+02  0.51100000000E-03 0. -1.
        -11    1    3    3    0    0  0.12987912281E+02  0.17008420119E+00 -0.14398632384E+02  0.19391632444E+02  0.51100000000E-03 0.  1.
        -12    1    3    3    0    0  0.97007082388E+01  0.59967387743E+01 -0.49459014802E+01  0.12430871157E+02  0.00000000000E+00 0.  1.
</event>
<event>
 7    1  0.1714203E-010  0.4778727E+02  0.7816164E-02  0.1312668E+00
        -11   -1    0    0    0    0  0.00000000000E+00  0.00000000000E+00  0.45593999997E+02  0.45594000000E+02  0.51100000000E-03 0.  1.
         11   -1    0    0    0    0 -0.00000000000E+00 -0.00000000000E+00 -0.45593999997E+02  0.45594000000E+02  0.51100000000E-03 0. -1.
    9900012    2    1    2    0    0  0.89432413518E+01  0.34378067532E+02 -0.24935724847E+02  0.47787268822E+02  0.19999989869E+02 0.  0.
        -12    1    1    2    0    0 -0.89432413518E+01 -0.34378067532E+02  0.24935724847E+02  0.43400731178E+02  0.00000000000E+00 0.  1.
         11    1    3    3    0    0  0.41553723089E+01  0.35742325205E+01 -0.76255766121E+01  0.93910423311E+01  0.51100000000E-03 0. -1.
        -11    1    3    3    0    0  0.92154713355E-01 -0.37497544516E+00 -0.42508170841E+01  0.42683187813E+01  0.51100000000E-03 0.  1.
        -12    1    3    3    0    0  0.46957143296E+01  0.31178810456E+02 -0.13059331151E+02  0.34127907710E+02  0.00000000000E+00 0.  1.
</event>
<event>
 7    1  0.1714203E-010  0.4778727E+02  0.7816164E-02  0.1312668E+00
        -11   -1    0    0    0    0  0.00000000000E+00  0.00000000000E+00  0.45593999997E+02  0.45594000000E+02  0.51100000000E-03 0.  1.
         11   -1    0    0    0    0 -0.00000000000E+00 -0.00000000000E+00 -0.45593999997E+02  0.45594000000E+02  0.51100000000E-03 0. -1.
    9900012    2    1    2    0    0 -0.25769536790E+02  0.60081662424E+01 -0.34401399235E+02  0.47787270083E+02  0.19999995618E+02 0.  0.
        -12    1    1    2    0    0  0.25769536790E+02 -0.60081662424E+01  0.34401399235E+02  0.43400729917E+02  0.00000000000E+00 0.  1.
         11    1    3    3    0    0 -0.12830601174E+02  0.41776154056E+01 -0.14209225795E+02  0.19595379428E+02  0.51100000000E-03 0. -1.
        -11    1    3    3    0    0  0.32223122194E+01  0.10832243245E+01 -0.25138826978E+01  0.42280347038E+01  0.51100000000E-03 0.  1.
         12    1    3    3    0    0 -0.16161247835E+02  0.74732651229E+00 -0.17678290742E+02  0.23963855952E+02  0.00000000000E+00 0. -1.
</event>
<event>
 7    1  0.1714203E-010  0.4778727E+02  0.7816164E-02  0.1312668E+00
        -11   -1    0    0    0    0  0.00000000000E+00  0.00000000000E+00  0.45593999997E+02  0.45594000000E+02  0.51100000000E-03 0. -1.
         11   -1    0    0    0    0 -0.00000000000E+00 -0.00000000000E+00 -0.45593999997E+02  0.45594000000E+02  0.51100000000E-03 0.  1.
    9900012    2    1    2    0    0 -0.17661919149E+02  0.13973286338E+01  0.39619784811E+02  0.47787271160E+02  0.20000000529E+02 0.  0.
        -12    1    1    2    0    0  0.17661919149E+02 -0.13973286338E+01 -0.39619784811E+02  0.43400728840E+02  0.00000000000E+00 0.  1.
         11    1    3    3    0    0 -0.97205861614E+00 -0.10462163738E+00 -0.58697411781E+00  0.11403431573E+01  0.51100000000E-03 0.  1.
        -11    1    3    3    0    0 -0.10713093877E+01 -0.29108889875E+01 -0.19422423666E+00  0.31078452047E+01  0.51100000000E-03 0. -1.
         12    1    3    3    0    0 -0.15618551145E+02  0.44128392586E+01  0.40400983166E+02  0.43539082798E+02  0.00000000000E+00 0. -1.
</event>
<event>
 7    1  0.1714203E-010  0.4778727E+02  0.7816164E-02  0.1312668E+00
        -11   -1    0    0    0    0  0.00000000000E+00  0.00000000000E+00  0.45593999997E+02  0.45594000000E+02  0.51100000000E-03 0.  1.
         11   -1    0    0    0    0 -0.00000000000E+00 -0.00000000000E+00 -0.45593999997E+02  0.45594000000E+02  0.51100000000E-03 0. -1.
    9900012    2    1    2    0    0  0.33028238934E+02 -0.64645061387E+01  0.27403813853E+02  0.47787269357E+02  0.19999992305E+02 0.  0.
        -12    1    1    2    0    0 -0.33028238934E+02  0.64645061387E+01 -0.27403813853E+02  0.43400730643E+02  0.00000000000E+00 0.  1.
         11    1    3    3    0    0  0.13117096522E+02 -0.56972739162E+00  0.68746357544E+01  0.14820372043E+02  0.51100000000E-03 0. -1.
        -11    1    3    3    0    0  0.11669853288E+02  0.29408594346E+01  0.43995353193E+01  0.12813666191E+02  0.51100000000E-03 0.  1.
        -12    1    3    3    0    0  0.82412891235E+01 -0.88356381816E+01  0.16129642779E+02  0.20153231122E+02  0.00000000000E+00 0.  1.
</event>
<event>
 7    1  0.1714203E-010  0.4778727E+02  0.7816164E-02  0.1312668E+00
        -11   -1    0    0    0    0  0.00000000000E+00  0.00000000000E+00  0.45593999997E+02  0.45594000000E+02  0.51100000000E-03 0.  1.
         11   -1    0    0    0    0 -0.00000000000E+00 -0.00000000000E+00 -0.45593999997E+02  0.45594000000E+02  0.51100000000E-03 0. -1.
    9900012    2    1    2    0    0 -0.26607052710E+02  0.92185304866E+01 -0.33025847792E+02  0.47787272119E+02  0.20000004898E+02 0.  0.
        -12    1    1    2    0    0  0.26607052710E+02 -0.92185304866E+01  0.33025847792E+02  0.43400727881E+02  0.00000000000E+00 0.  1.
         11    1    3    3    0    0 -0.36000469600E+00 -0.17271972386E+01 -0.12620580584E+01  0.21692405320E+01  0.51100000000E-03 0. -1.
        -11    1    3    3    0    0 -0.28107090043E+02  0.11580526963E+02 -0.31227799036E+02  0.43580873652E+02  0.51100000000E-03 0.  1.
         12    1    3    3    0    0  0.18600420288E+01 -0.63479923747E+00 -0.53599069757E+00  0.20371579341E+01  0.00000000000E+00 0. -1.
</event>
<event>
 7    1  0.1714203E-010  0.4778728E+02  0.7816164E-02  0.1312668E+00
        -11   -1    0    0    0    0  0.00000000000E+00  0.00000000000E+00  0.45593999997E+02  0.45594000000E+02  0.51100000000E-03 0.  1.
         11   -1    0    0    0    0 -0.00000000000E+00 -0.00000000000E+00 -0.45593999997E+02  0.45594000000E+02  0.51100000000E-03 0. -1.
    9900012    2    1    2    0    0  0.19206938205E+02  0.31685274354E+02 -0.22599988367E+02  0.47787279266E+02  0.20000037486E+02 0.  0.
        -12    1    1    2    0    0 -0.19206938205E+02 -0.31685274354E+02  0.22599988367E+02  0.43400720734E+02  0.00000000000E+00 0.  1.
         11    1    3    3    0    0  0.14740670870E+02  0.21548618941E+02 -0.16103444510E+02  0.30674929198E+02  0.51100000000E-03 0. -1.
        -11    1    3    3    0    0  0.14282367867E+01  0.44954799479E+01 -0.90576216894E+01  0.10212233410E+02  0.51100000000E-03 0.  1.
         12    1    3    3    0    0  0.30380305474E+01  0.56411754651E+01  0.25610778328E+01  0.69001166585E+01  0.00000000000E+00 0. -1.
</event>
<event>
 7    1  0.1714203E-010  0.4778726E+02  0.7816164E-02  0.1312668E+00
        -11   -1    0    0    0    0  0.00000000000E+00  0.00000000000E+00  0.45593999997E+02  0.45594000000E+02  0.51100000000E-03 0. -1.
         11   -1    0    0    0    0 -0.00000000000E+00 -0.00000000000E+00 -0.45593999997E+02  0.45594000000E+02  0.51100000000E-03 0.  1.
    9900012    2    1    2    0    0  0.38748286384E+02 -0.18494871209E+02  0.63351332161E+01  0.47787264159E+02  0.19999968605E+02 0.  0.
        -12    1    1    2    0    0 -0.38748286384E+02  0.18494871209E+02 -0.63351332161E+01  0.43400735841E+02  0.00000000000E+00 0.  1.
         11    1    3    3    0    0  0.62125542897E+01 -0.29176178218E+01  0.53739954404E+01  0.87171183203E+01  0.51100000000E-03 0. -1.
        -11    1    3    3    0    0  0.26460236987E+02 -0.63699832978E+01 -0.29286671474E+01  0.27373306709E+02  0.51100000000E-03 0.  1.
         12    1    3    3    0    0  0.60754951069E+01 -0.92072700890E+01  0.38898049231E+01  0.11696839130E+02  0.00000000000E+00 0. -1.
</event>
<event>
 7    1  0.1714203E-010  0.4778727E+02  0.7816164E-02  0.1312668E+00
        -11   -1    0    0    0    0  0.00000000000E+00  0.00000000000E+00  0.45593999997E+02  0.45594000000E+02  0.51100000000E-03 0.  1.
         11   -1    0    0    0    0 -0.00000000000E+00 -0.00000000000E+00 -0.45593999997E+02  0.45594000000E+02  0.51100000000E-03 0. -1.
    9900012    2    1    2    0    0  0.17454007853E+02  0.40768281108E+01 -0.39526706228E+02  0.47787269328E+02  0.19999992175E+02 0.  0.
        -12    1    1    2    0    0 -0.17454007853E+02 -0.40768281108E+01  0.39526706228E+02  0.43400730672E+02  0.00000000000E+00 0.  1.
         11    1    3    3    0    0  0.18616650606E+01 -0.44173101086E+01 -0.10210243732E+02  0.11279516954E+02  0.51100000000E-03 0. -1.
        -11    1    3    3    0    0  0.50710994427E+00  0.65167708825E+01 -0.84166339350E+01  0.10656696969E+02  0.51100000000E-03 0.  1.
         12    1    3    3    0    0  0.15085232848E+02  0.19773673369E+01 -0.20899828562E+02  0.25851055405E+02  0.00000000000E+00 0. -1.
</event>
<event>
 7    1  0.1714203E-010  0.4778726E+02  0.7816164E-02  0.1312668E+00
        -11   -1    0    0    0    0  0.00000000000E+00  0.00000000000E+00  0.45593999997E+02  0.45594000000E+02  0.51100000000E-03 0.  1.
         11   -1    0    0    0    0 -0.00000000000E+00 -0.00000000000E+00 -0.45593999997E+02  0.45594000000E+02  0.51100000000E-03 0. -1.
    9900012    2    1    2    0    0 -0.65331330149E+01 -0.39243144680E+02 -0.17346978237E+02  0.47787264000E+02  0.19999967883E+02 0.  0.
        -12    1    1    2    0    0  0.65331330149E+01  0.39243144680E+02  0.17346978237E+02  0.43400736000E+02  0.00000000000E+00 0.  1.
         11    1    3    3    0    0  0.39814842203E+01 -0.20911562544E+02 -0.11858184225E+02  0.24367236158E+02  0.51100000000E-03 0. -1.
        -11    1    3    3    0    0 -0.38542256304E+01 -0.73818990648E+00 -0.48602197918E+00  0.39542631644E+01  0.51100000000E-03 0.  1.
        -12    1    3    3    0    0 -0.66603916047E+01 -0.17593392230E+02 -0.50027720327E+01  0.19465764678E+02  0.00000000000E+00 0.  1.
</event>
<event>
 7    1  0.1714203E-010  0.4778727E+02  0.7816164E-02  0.1312668E+00
        -11   -1    0    0    0    0  0.00000000000E+00  0.00000000000E+00  0.45593999997E+02  0.45594000000E+02  0.51100000000E-03 0. -1.
         11   -1    0    0    0    0 -0.00000000000E+00 -0.00000000000E+00 -0.45593999997E+02  0.45594000000E+02  0.51100000000E-03 0.  1.
    9900012    2    1    2    0    0 -0.40165827806E+02 -0.11169017555E+02  0.12065764162E+02  0.47787270267E+02  0.19999996456E+02 0.  0.
        -12    1    1    2    0    0  0.40165827806E+02  0.11169017555E+02 -0.12065764162E+02  0.43400729733E+02  0.00000000000E+00 0.  1.
         11    1    3    3    0    0 -0.29757182605E+02 -0.76792310039E+01  0.15660508121E+01  0.30771951852E+02  0.51100000000E-03 0. -1.
        -11    1    3    3    0    0  0.10671509673E-01 -0.28853266485E+01  0.16005826974E+01  0.32995589072E+01  0.51100000000E-03 0.  1.
        -12    1    3    3    0    0 -0.10419316711E+02 -0.60445990283E+00  0.88991306526E+01  0.13715759508E+02  0.00000000000E+00 0.  1.
</event>
<event>
 7    1  0.1714203E-010  0.4778727E+02  0.7816164E-02  0.1312668E+00
        -11   -1    0    0    0    0  0.00000000000E+00  0.00000000000E+00  0.45593999997E+02  0.45594000000E+02  0.51100000000E-03 0. -1.
         11   -1    0    0    0    0 -0.00000000000E+00 -0.00000000000E+00 -0.45593999997E+02  0.45594000000E+02  0.51100000000E-03 0.  1.
    9900012    2    1    2    0    0  0.16536295573E+02  0.29998009122E+02  0.26651334449E+02  0.47787271314E+02  0.20000001230E+02 0.  0.
        -12    1    1    2    0    0 -0.16536295573E+02 -0.29998009122E+02 -0.26651334449E+02  0.43400728686E+02  0.00000000000E+00 0.  1.
         11    1    3    3    0    0  0.73923604128E+01  0.19645817087E+02  0.20455405992E+02  0.29309192347E+02  0.51100000000E-03 0. -1.
        -11    1    3    3    0    0 -0.19527715069E+01 -0.35858064650E+00  0.73977836838E+00  0.21187658987E+01  0.51100000000E-03 0.  1.
         12    1    3    3    0    0  0.11096706667E+02  0.10710772682E+02  0.54561500893E+01  0.16359313069E+02  0.00000000000E+00 0. -1.
</event>
<event>
 7    1  0.1714203E-010  0.4778726E+02  0.7816164E-02  0.1312668E+00
        -11   -1    0    0    0    0  0.00000000000E+00  0.00000000000E+00  0.45593999997E+02  0.45594000000E+02  0.51100000000E-03 0.  1.
         11   -1    0    0    0    0 -0.00000000000E+00 -0.00000000000E+00 -0.45593999997E+02  0.45594000000E+02  0.51100000000E-03 0. -1.
    9900012    2    1    2    0    0  0.70664205791E+01 -0.42510726576E+02 -0.51505063013E+01  0.47787263958E+02  0.19999967689E+02 0.  0.
        -12    1    1    2    0    0 -0.70664205791E+01  0.42510726576E+02  0.51505063013E+01  0.43400736042E+02  0.00000000000E+00 0.  1.
         11    1    3    3    0    0 -0.19545001093E+01 -0.73680964393E+01 -0.42602120256E+00  0.76348156587E+01  0.51100000000E-03 0. -1.
        -11    1    3    3    0    0  0.13419545071E+02 -0.22513871366E+02 -0.82593058170E+00  0.26222905167E+02  0.51100000000E-03 0.  1.
         12    1    3    3    0    0 -0.43986243826E+01 -0.12628758770E+02 -0.38985545170E+01  0.13929543132E+02  0.00000000000E+00 0. -1.
</event>
<event>
 7    1  0.1714203E-010  0.4778727E+02  0.7816164E-02  0.1312668E+00
        -11   -1    0    0    0    0  0.00000000000E+00  0.00000000000E+00  0.45593999997E+02  0.45594000000E+02  0.51100000000E-03 0.  1.
         11   -1    0    0    0    0 -0.00000000000E+00 -0.00000000000E+00 -0.45593999997E+02  0.45594000000E+02  0.51100000000E-03 0. -1.
    9900012    2    1    2    0    0 -0.14260017002E+02 -0.34840438574E+02 -0.21596738687E+02  0.47787269973E+02  0.19999995116E+02 0.  0.
        -12    1    1    2    0    0  0.14260017002E+02  0.34840438574E+02  0.21596738687E+02  0.43400730027E+02  0.00000000000E+00 0.  1.
         11    1    3    3    0    0 -0.80877223096E+01 -0.21874757144E+02 -0.90874269887E+01  0.25029933716E+02  0.51100000000E-03 0. -1.
        -11    1    3    3    0    0  0.12384844633E+00 -0.74485475195E+01  0.29940459395E+00  0.74555913219E+01  0.51100000000E-03 0.  1.
         12    1    3    3    0    0 -0.62961431387E+01 -0.55171339105E+01 -0.12808716293E+02  0.15301744936E+02  0.00000000000E+00 0. -1.
</event>
<event>
 7    1  0.1714203E-010  0.4778727E+02  0.7816164E-02  0.1312668E+00
        -11   -1    0    0    0    0  0.00000000000E+00  0.00000000000E+00  0.45593999997E+02  0.45594000000E+02  0.51100000000E-03 0.  1.
         11   -1    0    0    0    0 -0.00000000000E+00 -0.00000000000E+00 -0.45593999997E+02  0.45594000000E+02  0.51100000000E-03 0. -1.
    9900012    2    1    2    0    0 -0.31691605218E+02  0.22613972707E+02 -0.19180033318E+02  0.47787270963E+02  0.19999999629E+02 0.  0.
        -12    1    1    2    0    0  0.31691605218E+02 -0.22613972707E+02  0.19180033318E+02  0.43400729037E+02  0.00000000000E+00 0.  1.
         11    1    3    3    0    0 -0.29061165059E+00  0.61905831692E+00  0.20908689219E+01  0.21998685054E+01  0.51100000000E-03 0. -1.
        -11    1    3    3    0    0 -0.74888980626E+01 -0.44280922088E+00 -0.46297545577E+01  0.88155715484E+01  0.51100000000E-03 0.  1.
         12    1    3    3    0    0 -0.23912095504E+02  0.22437723611E+02 -0.16641147682E+02  0.36771830909E+02  0.00000000000E+00 0. -1.
</event>
<event>
 7    1  0.1714203E-010  0.4778727E+02  0.7816164E-02  0.1312668E+00
        -11   -1    0    0    0    0  0.00000000000E+00  0.00000000000E+00  0.45593999997E+02  0.45594000000E+02  0.51100000000E-03 0.  1.
         11   -1    0    0    0    0 -0.00000000000E+00 -0.00000000000E+00 -0.45593999997E+02  0.45594000000E+02  0.51100000000E-03 0. -1.
    9900012    2    1    2    0    0 -0.21172577849E+02 -0.13224460899E+02 -0.35502939546E+02  0.47787272642E+02  0.20000007283E+02 0.  0.
        -12    1    1    2    0    0  0.21172577849E+02  0.13224460899E+02  0.35502939546E+02  0.43400727358E+02  0.00000000000E+00 0.  1.
         11    1    3    3    0    0 -0.20562374183E+02 -0.15126678346E+02 -0.24803728837E+02  0.35592872802E+02  0.51100000000E-03 0. -1.
        -11    1    3    3    0    0 -0.76018427553E+00  0.15540455746E+01 -0.26133064045E+00  0.17496376040E+01  0.51100000000E-03 0.  1.
         12    1    3    3    0    0  0.14998060980E+00  0.34817187250E+00 -0.10437880068E+02  0.10444762235E+02  0.00000000000E+00 0. -1.
</event>
<event>
 7    1  0.1740856E-010  0.4778727E+02  0.7816164E-02  0.1312668E+00
        -11   -1    0    0    0    0  0.00000000000E+00  0.00000000000E+00  0.45593999997E+02  0.45594000000E+02  0.51100000000E-03 0.  1.
         11   -1    0    0    0    0 -0.00000000000E+00 -0.00000000000E+00 -0.45593999997E+02  0.45594000000E+02  0.51100000000E-03 0. -1.
    9900012    2    1    2    0    0  0.36221527320E+02 -0.16371267849E+01 -0.23852551365E+02  0.47787269221E+02  0.19999991687E+02 0.  0.
        -12    1    1    2    0    0 -0.36221527320E+02  0.16371267849E+01  0.23852551365E+02  0.43400730779E+02  0.00000000000E+00 0.  1.
         11    1    3    3    0    0  0.15800853843E+02  0.17914043509E+01 -0.18459900202E+02  0.24364811254E+02  0.51100000000E-03 0. -1.
        -11    1    3    3    0    0 -0.43156001120E+00 -0.59474908894E+00  0.11677050704E+01  0.13796760180E+01  0.51100000000E-03 0.  1.
        -12    1    3    3    0    0  0.20852233488E+02 -0.28337820468E+01 -0.65603562331E+01  0.22042781949E+02  0.00000000000E+00 0.  1.
</event>
<event>
 7    1  0.1714203E-010  0.4778727E+02  0.7816164E-02  0.1312668E+00
        -11   -1    0    0    0    0  0.00000000000E+00  0.00000000000E+00  0.45593999997E+02  0.45594000000E+02  0.51100000000E-03 0. -1.
         11   -1    0    0    0    0 -0.00000000000E+00 -0.00000000000E+00 -0.45593999997E+02  0.45594000000E+02  0.51100000000E-03 0.  1.
    9900012    2    1    2    0    0 -0.18690888398E+02 -0.18136790765E+02  0.34717874753E+02  0.47787270562E+02  0.19999997801E+02 0.  0.
        -12    1    1    2    0    0  0.18690888398E+02  0.18136790765E+02 -0.34717874753E+02  0.43400729438E+02  0.00000000000E+00 0.  1.
         11    1    3    3    0    0 -0.11102777996E+01  0.17803775931E+01  0.36279907592E+01  0.41910354778E+01  0.51100000000E-03 0. -1.
        -11    1    3    3    0    0 -0.59823066907E+01 -0.51638486280E+00  0.14082193201E+02  0.15308912838E+02  0.51100000000E-03 0.  1.
         12    1    3    3    0    0 -0.11598303907E+02 -0.19400783495E+02  0.17007690793E+02  0.28287322246E+02  0.00000000000E+00 0. -1.
</event>
<event>
 7    1  0.1714203E-010  0.4778727E+02  0.7816164E-02  0.1312668E+00
        -11   -1    0    0    0    0  0.00000000000E+00  0.00000000000E+00  0.45593999997E+02  0.45594000000E+02  0.51100000000E-03 0. -1.
         11   -1    0    0    0    0 -0.00000000000E+00 -0.00000000000E+00 -0.45593999997E+02  0.45594000000E+02  0.51100000000E-03 0.  1.
    9900012    2    1    2    0    0  0.50467620724E+01 -0.43100276809E+02 -0.72091846584E+00  0.47787269686E+02  0.19999993804E+02 0.  0.
        -12    1    1    2    0    0 -0.50467620724E+01  0.43100276809E+02  0.72091846584E+00  0.43400730314E+02  0.00000000000E+00 0.  1.
         11    1    3    3    0    0 -0.35393346333E+01 -0.68246381664E+01  0.20560736080E+01  0.79580157509E+01  0.51100000000E-03 0. -1.
        -11    1    3    3    0    0  0.80713748287E+01 -0.88018600450E+01  0.14403661693E+01  0.12028902146E+02  0.51100000000E-03 0.  1.
        -12    1    3    3    0    0  0.51472187698E+00 -0.27473778597E+02 -0.42173582431E+01  0.27800351789E+02  0.00000000000E+00 0.  1.
</event>
<event>
 7    1  0.1714203E-010  0.4778727E+02  0.7816164E-02  0.1312668E+00
        -11   -1    0    0    0    0  0.00000000000E+00  0.00000000000E+00  0.45593999997E+02  0.45594000000E+02  0.51100000000E-03 0. -1.
         11   -1    0    0    0    0 -0.00000000000E+00 -0.00000000000E+00 -0.45593999997E+02  0.45594000000E+02  0.51100000000E-03 0.  1.
    9900012    2    1    2    0    0  0.82629415590E+01 -0.32898162764E+02  0.27075046992E+02  0.47787268600E+02  0.19999988856E+02 0.  0.
        -12    1    1    2    0    0 -0.82629415590E+01  0.32898162764E+02 -0.27075046992E+02  0.43400731400E+02  0.00000000000E+00 0.  1.
         11    1    3    3    0    0 -0.20537269378E+01 -0.51981330314E+01 -0.17047458614E+01  0.58433329582E+01  0.51100000000E-03 0.  1.
        -11    1    3    3    0    0  0.90114235990E+01 -0.13827462597E+02  0.14144276841E+02  0.21736261058E+02  0.51100000000E-03 0. -1.
        -12    1    3    3    0    0  0.13052448978E+01 -0.13872567135E+02  0.14635516012E+02  0.20207674584E+02  0.00000000000E+00 0.  1.
</event>
<event>
 7    1  0.1714203E-010  0.4778727E+02  0.7816164E-02  0.1312668E+00
        -11   -1    0    0    0    0  0.00000000000E+00  0.00000000000E+00  0.45593999997E+02  0.45594000000E+02  0.51100000000E-03 0.  1.
         11   -1    0    0    0    0 -0.00000000000E+00 -0.00000000000E+00 -0.45593999997E+02  0.45594000000E+02  0.51100000000E-03 0. -1.
    9900012    2    1    2    0    0 -0.11763035600E+02  0.55602287214E+01 -0.41404567427E+02  0.47787270124E+02  0.19999995802E+02 0.  0.
        -12    1    1    2    0    0  0.11763035600E+02 -0.55602287214E+01  0.41404567427E+02  0.43400729876E+02  0.00000000000E+00 0.  1.
         11    1    3    3    0    0 -0.81637511554E+01 -0.30833472736E+01 -0.16620037825E+02  0.18771774581E+02  0.51100000000E-03 0. -1.
        -11    1    3    3    0    0 -0.45553184494E+01  0.46502329099E+01 -0.36042310452E+01  0.74408382579E+01  0.51100000000E-03 0.  1.
         12    1    3    3    0    0  0.95603400487E+00  0.39933430851E+01 -0.21180298557E+02  0.21574657285E+02  0.00000000000E+00 0. -1.
</event>
<event>
 7    1  0.1714203E-010  0.4778728E+02  0.7816164E-02  0.1312668E+00
        -11   -1    0    0    0    0  0.00000000000E+00  0.00000000000E+00  0.45593999997E+02  0.45594000000E+02  0.51100000000E-03 0. -1.
         11   -1    0    0    0    0 -0.00000000000E+00 -0.00000000000E+00 -0.45593999997E+02  0.45594000000E+02  0.51100000000E-03 0.  1.
    9900012    2    1    2    0    0  0.24252464691E+02  0.18158708957E+02  0.31075745910E+02  0.47787277213E+02  0.20000028124E+02 0.  0.
        -12    1    1    2    0    0 -0.24252464691E+02 -0.18158708957E+02 -0.31075745910E+02  0.43400722787E+02  0.00000000000E+00 0.  1.
         11    1    3    3    0    0  0.15025105214E+02  0.17902099510E+02  0.26266984614E+02  0.35159542581E+02  0.51100000000E-03 0. -1.
        -11    1    3    3    0    0  0.57285571555E+01  0.24206391137E+01 -0.10409685742E+00  0.62198631190E+01  0.51100000000E-03 0.  1.
        -12    1    3    3    0    0  0.34988023217E+01 -0.21640296667E+01  0.49128581535E+01  0.64078715125E+01  0.00000000000E+00 0.  1.
</event>
<event>
 7    1  0.1714203E-010  0.4778727E+02  0.7816164E-02  0.1312668E+00
        -11   -1    0    0    0    0  0.00000000000E+00  0.00000000000E+00  0.45593999997E+02  0.45594000000E+02  0.51100000000E-03 0.  1.
         11   -1    0    0    0    0 -0.00000000000E+00 -0.00000000000E+00 -0.45593999997E+02  0.45594000000E+02  0.51100000000E-03 0. -1.
    9900012    2    1    2    0    0 -0.16835440818E+02  0.35344006400E+02 -0.18734784773E+02  0.47787274010E+02  0.20000013520E+02 0.  0.
        -12    1    1    2    0    0  0.16835440818E+02 -0.35344006400E+02  0.18734784773E+02  0.43400725990E+02  0.00000000000E+00 0.  1.
         11    1    3    3    0    0 -0.60833656215E+01  0.16542464508E+02 -0.24907953703E+01  0.17800689064E+02  0.51100000000E-03 0. -1.
        -11    1    3    3    0    0 -0.42761141079E+01 -0.96471383014E+00 -0.23608876500E+01  0.49789170906E+01  0.51100000000E-03 0.  1.
         12    1    3    3    0    0 -0.64759610887E+01  0.19766255722E+02 -0.13883101753E+02  0.25007667856E+02  0.00000000000E+00 0. -1.
</event>
<event>
 7    1  0.1714203E-010  0.4778727E+02  0.7816164E-02  0.1312668E+00
        -11   -1    0    0    0    0  0.00000000000E+00  0.00000000000E+00  0.45593999997E+02  0.45594000000E+02  0.51100000000E-03 0.  1.
         11   -1    0    0    0    0 -0.00000000000E+00 -0.00000000000E+00 -0.45593999997E+02  0.45594000000E+02  0.51100000000E-03 0. -1.
    9900012    2    1    2    0    0 -0.21014998729E+02  0.21562597208E+02 -0.31257757548E+02  0.47787272163E+02  0.20000005099E+02 0.  0.
        -12    1    1    2    0    0  0.21014998729E+02 -0.21562597208E+02  0.31257757548E+02  0.43400727837E+02  0.00000000000E+00 0.  1.
         11    1    3    3    0    0 -0.19550067299E+02  0.19996559923E+02 -0.22118430087E+02  0.35655188822E+02  0.51100000000E-03 0. -1.
        -11    1    3    3    0    0 -0.39813154999E+01  0.22646336335E+00 -0.82209494781E+01  0.91370766303E+01  0.51100000000E-03 0.  1.
        -12    1    3    3    0    0  0.25163840700E+01  0.13395739217E+01 -0.91837798196E+00  0.29950067107E+01  0.00000000000E+00 0.  1.
</event>
<event>
 7    1  0.3097368E-010  0.4778730E+02  0.7816164E-02  0.1312668E+00
        -11   -1    0    0    0    0  0.00000000000E+00  0.00000000000E+00  0.45593999997E+02  0.45594000000E+02  0.51100000000E-03 0. -1.
         11   -1    0    0    0    0 -0.00000000000E+00 -0.00000000000E+00 -0.45593999997E+02  0.45594000000E+02  0.51100000000E-03 0.  1.
    9900012    2    1    2    0    0 -0.14053715574E+02  0.33667096767E+02  0.23508296791E+02  0.47787304796E+02  0.20000153886E+02 0.  0.
        -12    1    1    2    0    0  0.14053715574E+02 -0.33667096767E+02 -0.23508296791E+02  0.43400695204E+02  0.00000000000E+00 0.  1.
         11    1    3    3    0    0 -0.37045955687E+01  0.18333843398E+02  0.17245366151E+02  0.25441236134E+02  0.51100000000E-03 0. -1.
        -11    1    3    3    0    0 -0.10939121874E+02  0.10907879548E+02  0.81882350370E+01  0.17484090394E+02  0.51100000000E-03 0.  1.
        -12    1    3    3    0    0  0.59000186888E+00  0.44253738210E+01 -0.19253043968E+01  0.48619782683E+01  0.00000000000E+00 0.  1.
</event>
<event>
 7    1  0.1714203E-010  0.4778727E+02  0.7816164E-02  0.1312668E+00
        -11   -1    0    0    0    0  0.00000000000E+00  0.00000000000E+00  0.45593999997E+02  0.45594000000E+02  0.51100000000E-03 0.  1.
         11   -1    0    0    0    0 -0.00000000000E+00 -0.00000000000E+00 -0.45593999997E+02  0.45594000000E+02  0.51100000000E-03 0. -1.
    9900012    2    1    2    0    0  0.17442889030E+01 -0.32261664980E+02 -0.28978716452E+02  0.47787267537E+02  0.19999984009E+02 0.  0.
        -12    1    1    2    0    0 -0.17442889030E+01  0.32261664980E+02  0.28978716452E+02  0.43400732463E+02  0.00000000000E+00 0.  1.
         11    1    3    3    0    0  0.66615983299E+01 -0.22502708876E+02 -0.14481547166E+02  0.27576511883E+02  0.51100000000E-03 0. -1.
        -11    1    3    3    0    0  0.10558256463E+01 -0.23567471448E+01 -0.86920724810E+01  0.90675878366E+01  0.51100000000E-03 0.  1.
         12    1    3    3    0    0 -0.59731350733E+01 -0.74022089590E+01 -0.58050968060E+01  0.11143167817E+02  0.00000000000E+00 0. -1.
</event>
<event>
 7    1  0.1714203E-010  0.4778727E+02  0.7816164E-02  0.1312668E+00
        -11   -1    0    0    0    0  0.00000000000E+00  0.00000000000E+00  0.45593999997E+02  0.45594000000E+02  0.51100000000E-03 0.  1.
         11   -1    0    0    0    0 -0.00000000000E+00 -0.00000000000E+00 -0.45593999997E+02  0.45594000000E+02  0.51100000000E-03 0. -1.
    9900012    2    1    2    0    0 -0.27216724246E+02  0.24710572440E+01 -0.33715976951E+02  0.47787270693E+02  0.19999998399E+02 0.  0.
        -12    1    1    2    0    0  0.27216724246E+02 -0.24710572440E+01  0.33715976951E+02  0.43400729307E+02  0.00000000000E+00 0.  1.
         11    1    3    3    0    0 -0.68644345903E+01 -0.47368314021E+01 -0.35095130949E+01  0.90484648643E+01  0.51100000000E-03 0.  1.
        -11    1    3    3    0    0 -0.18414703217E+02  0.95246971445E+01 -0.28582121027E+02  0.35309471717E+02  0.51100000000E-03 0. -1.
         12    1    3    3    0    0 -0.19375864384E+01 -0.23168084983E+01 -0.16243428297E+01  0.34293341121E+01  0.00000000000E+00 0. -1.
</event>
<event>
 7    1  0.1714203E-010  0.4778728E+02  0.7816164E-02  0.1312668E+00
        -11   -1    0    0    0    0  0.00000000000E+00  0.00000000000E+00  0.45593999997E+02  0.45594000000E+02  0.51100000000E-03 0.  1.
         11   -1    0    0    0    0 -0.00000000000E+00 -0.00000000000E+00 -0.45593999997E+02  0.45594000000E+02  0.51100000000E-03 0. -1.
    9900012    2    1    2    0    0  0.97122210654E+01  0.15573279635E+02 -0.39328978500E+02  0.47787276199E+02  0.20000023500E+02 0.  0.
        -12    1    1    2    0    0 -0.97122210654E+01 -0.15573279635E+02  0.39328978500E+02  0.43400723801E+02  0.00000000000E+00 0.  1.
         11    1    3    3    0    0  0.71141168684E+01  0.53263044701E+01 -0.21349567311E+02  0.23125401678E+02  0.51100000000E-03 0. -1.
        -11    1    3    3    0    0 -0.46612790204E+01  0.19629388712E+01 -0.94959444525E+01  0.10758885278E+02  0.51100000000E-03 0.  1.
         12    1    3    3    0    0  0.72593832175E+01  0.82840362941E+01 -0.84834667364E+01  0.13902989243E+02  0.00000000000E+00 0. -1.
</event>
<event>
 7    1  0.1714203E-010  0.4778726E+02  0.7816164E-02  0.1312668E+00
        -11   -1    0    0    0    0  0.00000000000E+00  0.00000000000E+00  0.45593999997E+02  0.45594000000E+02  0.51100000000E-03 0. -1.
         11   -1    0    0    0    0 -0.00000000000E+00 -0.00000000000E+00 -0.45593999997E+02  0.45594000000E+02  0.51100000000E-03 0.  1.
    9900012    2    1    2    0    0  0.39842717598E+02 -0.38860903369E+01  0.16765460958E+02  0.47787256633E+02  0.19999934290E+02 0.  0.
        -12    1    1    2    0    0 -0.39842717598E+02  0.38860903369E+01 -0.16765460958E+02  0.43400743367E+02  0.00000000000E+00 0.  1.
         11    1    3    3    0    0  0.19491080514E+02 -0.46607306292E+01  0.72247473462E+01  0.21303089074E+02  0.51100000000E-03 0. -1.
        -11    1    3    3    0    0  0.30799444217E+01 -0.13023126988E+01 -0.34257781455E+01  0.47872781588E+01  0.51100000000E-03 0.  1.
         12    1    3    3    0    0  0.17271692662E+02  0.20769529911E+01  0.12966491757E+02  0.21696889400E+02  0.00000000000E+00 0. -1.
</event>
<event>
 7    1  0.1714203E-010  0.4778727E+02  0.7816164E-02  0.1312668E+00
        -11   -1    0    0    0    0  0.00000000000E+00  0.00000000000E+00  0.45593999997E+02  0.45594000000E+02  0.51100000000E-03 0.  1.
         11   -1    0    0    0    0 -0.00000000000E+00 -0.00000000000E+00 -0.45593999997E+02  0.45594000000E+02  0.51100000000E-03 0. -1.
    9900012    2    1    2    0    0 -0.38784016725E+02  0.18738527915E+02 -0.53189295858E+01  0.47787269664E+02  0.19999993705E+02 0.  0.
        -12    1    1    2    0    0  0.38784016725E+02 -0.18738527915E+02  0.53189295858E+01  0.43400730336E+02  0.00000000000E+00 0.  1.
         11    1    3    3    0    0 -0.10466045256E+02  0.83294233048E+01  0.17643958978E+01  0.13491867515E+02  0.51100000000E-03 0.  1.
        -11    1    3    3    0    0 -0.26732931525E+02  0.52254593834E+01 -0.27915698328E+01  0.27381525087E+02  0.51100000000E-03 0. -1.
         12    1    3    3    0    0 -0.15850399441E+01  0.51836452271E+01 -0.42917556508E+01  0.69138770621E+01  0.00000000000E+00 0. -1.
</event>
<event>
 7    1  0.1714203E-010  0.4778727E+02  0.7816164E-02  0.1312668E+00
        -11   -1    0    0    0    0  0.00000000000E+00  0.00000000000E+00  0.45593999997E+02  0.45594000000E+02  0.51100000000E-03 0.  1.
         11   -1    0    0    0    0 -0.00000000000E+00 -0.00000000000E+00 -0.45593999997E+02  0.45594000000E+02  0.51100000000E-03 0. -1.
    9900012    2    1    2    0    0  0.30178220285E+02 -0.97328186321E+01 -0.29633944440E+02  0.47787269577E+02  0.19999993311E+02 0.  0.
        -12    1    1    2    0    0 -0.30178220285E+02  0.97328186321E+01  0.29633944440E+02  0.43400730423E+02  0.00000000000E+00 0.  1.
         11    1    3    3    0    0  0.12439126329E+02 -0.10494142557E+02 -0.97208936430E+01  0.18956652271E+02  0.51100000000E-03 0. -1.
        -11    1    3    3    0    0  0.17395350057E+01  0.33432265544E+01 -0.95176197739E+00  0.38870293223E+01  0.51100000000E-03 0.  1.
         12    1    3    3    0    0  0.15999558950E+02 -0.25819026290E+01 -0.18961288820E+02  0.24943587984E+02  0.00000000000E+00 0. -1.
</event>
<event>
 7    1  0.1714203E-010  0.4778726E+02  0.7816164E-02  0.1312668E+00
        -11   -1    0    0    0    0  0.00000000000E+00  0.00000000000E+00  0.45593999997E+02  0.45594000000E+02  0.51100000000E-03 0. -1.
         11   -1    0    0    0    0 -0.00000000000E+00 -0.00000000000E+00 -0.45593999997E+02  0.45594000000E+02  0.51100000000E-03 0.  1.
    9900012    2    1    2    0    0 -0.13735110396E+02 -0.20722965817E+02  0.35574278033E+02  0.47787264667E+02  0.19999970924E+02 0.  0.
        -12    1    1    2    0    0  0.13735110396E+02  0.20722965817E+02 -0.35574278033E+02  0.43400735333E+02  0.00000000000E+00 0.  1.
         11    1    3    3    0    0 -0.43315790083E+00 -0.10443070600E+02  0.24347164062E+02  0.26495843965E+02  0.51100000000E-03 0. -1.
        -11    1    3    3    0    0 -0.40251967973E+01 -0.64192748587E+01  0.24886179450E+01  0.79751187142E+01  0.51100000000E-03 0.  1.
         12    1    3    3    0    0 -0.92767556977E+01 -0.38606203587E+01  0.87384960264E+01  0.13316301988E+02  0.00000000000E+00 0. -1.
</event>
<event>
 7    1  0.1714203E-010  0.4778728E+02  0.7816164E-02  0.1312668E+00
        -11   -1    0    0    0    0  0.00000000000E+00  0.00000000000E+00  0.45593999997E+02  0.45594000000E+02  0.51100000000E-03 0.  1.
         11   -1    0    0    0    0 -0.00000000000E+00 -0.00000000000E+00 -0.45593999997E+02  0.45594000000E+02  0.51100000000E-03 0. -1.
    9900012    2    1    2    0    0 -0.33057118388E+02  0.43825646511E+01 -0.27778457316E+02  0.47787278348E+02  0.20000033301E+02 0.  0.
        -12    1    1    2    0    0  0.33057118388E+02 -0.43825646511E+01  0.27778457316E+02  0.43400721652E+02  0.00000000000E+00 0.  1.
         11    1    3    3    0    0 -0.33871650878E+01 -0.23366376007E+01 -0.57716433038E+01  0.70883446091E+01  0.51100000000E-03 0.  1.
        -11    1    3    3    0    0 -0.21719577268E+02  0.36293240556E+01 -0.23314137317E+02  0.32069627826E+02  0.51100000000E-03 0. -1.
         12    1    3    3    0    0 -0.79503760325E+01  0.30898781963E+01  0.13073233045E+01  0.86293059135E+01  0.00000000000E+00 0. -1.
</event>
<event>
 7    1  0.1714203E-010  0.4778727E+02  0.7816164E-02  0.1312668E+00
        -11   -1    0    0    0    0  0.00000000000E+00  0.00000000000E+00  0.45593999997E+02  0.45594000000E+02  0.51100000000E-03 0.  1.
         11   -1    0    0    0    0 -0.00000000000E+00 -0.00000000000E+00 -0.45593999997E+02  0.45594000000E+02  0.51100000000E-03 0. -1.
    9900012    2    1    2    0    0  0.18233344855E+02 -0.11578516671E+02 -0.37644472193E+02  0.47787271900E+02  0.20000003903E+02 0.  0.
        -12    1    1    2    0    0 -0.18233344855E+02  0.11578516671E+02  0.37644472193E+02  0.43400728100E+02  0.00000000000E+00 0.  1.
         11    1    3    3    0    0  0.66484504646E+01 -0.48209621069E+01 -0.10074278318E+02  0.12997486415E+02  0.51100000000E-03 0. -1.
        -11    1    3    3    0    0 -0.21919869738E+01  0.27952820317E+01 -0.94902512008E+01  0.10133275712E+02  0.51100000000E-03 0.  1.
        -12    1    3    3    0    0  0.13776881364E+02 -0.95528365954E+01 -0.18079942674E+02  0.24656509774E+02  0.00000000000E+00 0.  1.
</event>
<event>
 7    1  0.1714203E-010  0.4778727E+02  0.7816164E-02  0.1312668E+00
        -11   -1    0    0    0    0  0.00000000000E+00  0.00000000000E+00  0.45593999997E+02  0.45594000000E+02  0.51100000000E-03 0. -1.
         11   -1    0    0    0    0 -0.00000000000E+00 -0.00000000000E+00 -0.45593999997E+02  0.45594000000E+02  0.51100000000E-03 0.  1.
    9900012    2    1    2    0    0 -0.40140928912E+02  0.38716266675E+01  0.16041808644E+02  0.47787270841E+02  0.19999999072E+02 0.  0.
        -12    1    1    2    0    0  0.40140928912E+02 -0.38716266675E+01 -0.16041808644E+02  0.43400729159E+02  0.00000000000E+00 0.  1.
         11    1    3    3    0    0 -0.12586621673E+02 -0.48566695909E+01  0.31429233219E+01  0.13852373512E+02  0.51100000000E-03 0.  1.
        -11    1    3    3    0    0 -0.92965998422E+01  0.23582133367E+01  0.10862745279E+02  0.14490934201E+02  0.51100000000E-03 0. -1.
        -12    1    3    3    0    0 -0.18257707397E+02  0.63700829217E+01  0.20361400426E+01  0.19443963127E+02  0.00000000000E+00 0.  1.
</event>
<event>
 7    1  0.1714203E-010  0.4778725E+02  0.7816164E-02  0.1312668E+00
        -11   -1    0    0    0    0  0.00000000000E+00  0.00000000000E+00  0.45593999997E+02  0.45594000000E+02  0.51100000000E-03 0. -1.
         11   -1    0    0    0    0 -0.00000000000E+00 -0.00000000000E+00 -0.45593999997E+02  0.45594000000E+02  0.51100000000E-03 0.  1.
    9900012    2    1    2    0    0  0.17935689321E+02  0.25007637584E+02  0.30603172033E+02  0.47787250842E+02  0.19999907890E+02 0.  0.
        -12    1    1    2    0    0 -0.17935689321E+02 -0.25007637584E+02 -0.30603172033E+02  0.43400749158E+02  0.00000000000E+00 0.  1.
         11    1    3    3    0    0 -0.13011103138E+00  0.21488033041E+01 -0.47633345954E+00  0.22048080066E+01  0.51100000000E-03 0. -1.
        -11    1    3    3    0    0 -0.18022892500E+01  0.38975576589E+01  0.10249730716E+02  0.11112883616E+02  0.51100000000E-03 0.  1.
         12    1    3    3    0    0  0.19868089603E+02  0.18961276621E+02  0.20829774777E+02  0.34469559220E+02  0.00000000000E+00 0. -1.
</event>
<event>
 7    1  0.1714203E-010  0.4778727E+02  0.7816164E-02  0.1312668E+00
        -11   -1    0    0    0    0  0.00000000000E+00  0.00000000000E+00  0.45593999997E+02  0.45594000000E+02  0.51100000000E-03 0.  1.
         11   -1    0    0    0    0 -0.00000000000E+00 -0.00000000000E+00 -0.45593999997E+02  0.45594000000E+02  0.51100000000E-03 0. -1.
    9900012    2    1    2    0    0  0.38484965147E+02 -0.19982406734E+02  0.17984032852E+01  0.47787269873E+02  0.19999994658E+02 0.  0.
        -12    1    1    2    0    0 -0.38484965147E+02  0.19982406734E+02 -0.17984032852E+01  0.43400730127E+02  0.00000000000E+00 0.  1.
         11    1    3    3    0    0  0.80223621327E+01 -0.22220569747E+01 -0.42375440245E+01  0.93409106092E+01  0.51100000000E-03 0. -1.
        -11    1    3    3    0    0  0.19789932494E+02 -0.76687000482E+01 -0.26395106944E+01  0.21387318801E+02  0.51100000000E-03 0.  1.
        -12    1    3    3    0    0  0.10672670520E+02 -0.10091649711E+02  0.86754580041E+01  0.17059040462E+02  0.00000000000E+00 0.  1.
</event>
<event>
 7    1  0.1714203E-010  0.4778727E+02  0.7816164E-02  0.1312668E+00
        -11   -1    0    0    0    0  0.00000000000E+00  0.00000000000E+00  0.45593999997E+02  0.45594000000E+02  0.51100000000E-03 0. -1.
         11   -1    0    0    0    0 -0.00000000000E+00 -0.00000000000E+00 -0.45593999997E+02  0.45594000000E+02  0.51100000000E-03 0.  1.
    9900012    2    1    2    0    0 -0.16516970798E+02 -0.23763046637E+02  0.32343937220E+02  0.47787274376E+02  0.20000015188E+02 0.  0.
        -12    1    1    2    0    0  0.16516970798E+02  0.23763046637E+02 -0.32343937220E+02  0.43400725624E+02  0.00000000000E+00 0.  1.
         11    1    3    3    0    0 -0.11308410582E+01 -0.12010410576E+02  0.12074310628E+02  0.17068032725E+02  0.51100000000E-03 0. -1.
        -11    1    3    3    0    0 -0.27048187155E+01  0.13798678565E+01 -0.48846456877E+00  0.30754962983E+01  0.51100000000E-03 0.  1.
        -12    1    3    3    0    0 -0.12681311024E+02 -0.13132503918E+02  0.20758091161E+02  0.27643745352E+02  0.00000000000E+00 0.  1.
</event>
<event>
 7    1  0.1714203E-010  0.4778727E+02  0.7816164E-02  0.1312668E+00
        -11   -1    0    0    0    0  0.00000000000E+00  0.00000000000E+00  0.45593999997E+02  0.45594000000E+02  0.51100000000E-03 0.  1.
         11   -1    0    0    0    0 -0.00000000000E+00 -0.00000000000E+00 -0.45593999997E+02  0.45594000000E+02  0.51100000000E-03 0. -1.
    9900012    2    1    2    0    0 -0.21496958774E+02  0.19124835894E+02 -0.32492226236E+02  0.47787270164E+02  0.19999995985E+02 0.  0.
        -12    1    1    2    0    0  0.21496958774E+02 -0.19124835894E+02  0.32492226236E+02  0.43400729836E+02  0.00000000000E+00 0.  1.
         11    1    3    3    0    0 -0.85791783344E+01  0.12832601518E+02 -0.22671913034E+02  0.27427971188E+02  0.51100000000E-03 0. -1.
        -11    1    3    3    0    0  0.62827011418E+00  0.15878235414E+00  0.15240569031E+01  0.16561053340E+01  0.51100000000E-03 0.  1.
        -12    1    3    3    0    0 -0.13546050554E+02  0.61334520218E+01 -0.11344370106E+02  0.18703193642E+02  0.00000000000E+00 0.  1.
</event>
<event>
 7    1  0.1714203E-010  0.4778727E+02  0.7816164E-02  0.1312668E+00
        -11   -1    0    0    0    0  0.00000000000E+00  0.00000000000E+00  0.45593999997E+02  0.45594000000E+02  0.51100000000E-03 0.  1.
         11   -1    0    0    0    0 -0.00000000000E+00 -0.00000000000E+00 -0.45593999997E+02  0.45594000000E+02  0.51100000000E-03 0. -1.
    9900012    2    1    2    0    0  0.10371185463E+02 -0.41944176702E+02 -0.40924500925E+01  0.47787267346E+02  0.19999983138E+02 0.  0.
        -12    1    1    2    0    0 -0.10371185463E+02  0.41944176702E+02  0.40924500925E+01  0.43400732654E+02  0.00000000000E+00 0.  1.
         11    1    3    3    0    0  0.66027245644E+00 -0.15151978244E+02  0.61026022073E+01  0.16348093418E+02  0.51100000000E-03 0.  1.
        -11    1    3    3    0    0  0.10289922957E+02 -0.20462171359E+02 -0.55506925792E+01  0.23566780848E+02  0.51100000000E-03 0. -1.
        -12    1    3    3    0    0 -0.57900995017E+00 -0.63300270984E+01 -0.46443597206E+01  0.78723930799E+01  0.00000000000E+00 0.  1.
</event>
<event>
 7    1  0.1714203E-010  0.4778726E+02  0.7816164E-02  0.1312668E+00
        -11   -1    0    0    0    0  0.00000000000E+00  0.00000000000E+00  0.45593999997E+02  0.45594000000E+02  0.51100000000E-03 0. -1.
         11   -1    0    0    0    0 -0.00000000000E+00 -0.00000000000E+00 -0.45593999997E+02  0.45594000000E+02  0.51100000000E-03 0.  1.
    9900012    2    1    2    0    0  0.35677329772E+02  0.72591764551E+01  0.23623221402E+02  0.47787261621E+02  0.19999957033E+02 0.  0.
        -12    1    1    2    0    0 -0.35677329772E+02 -0.72591764551E+01 -0.23623221402E+02  0.43400738379E+02  0.00000000000E+00 0.  1.
         11    1    3    3    0    0  0.82012030056E+01 -0.13779880678E+01  0.88683992757E+01  0.12157593834E+02  0.51100000000E-03 0. -1.
        -11    1    3    3    0    0  0.79049075073E+00  0.30636681079E+01  0.63622996410E+01  0.71056171361E+01  0.51100000000E-03 0.  1.
        -12    1    3    3    0    0  0.26685636016E+02  0.55734964150E+01  0.83925224849E+01  0.28524050651E+02  0.00000000000E+00 0.  1.
</event>
<event>
 7    1  0.1714203E-010  0.4778728E+02  0.7816164E-02  0.1312668E+00
        -11   -1    0    0    0    0  0.00000000000E+00  0.00000000000E+00  0.45593999997E+02  0.45594000000E+02  0.51100000000E-03 0.  1.
         11   -1    0    0    0    0 -0.00000000000E+00 -0.00000000000E+00 -0.45593999997E+02  0.45594000000E+02  0.51100000000E-03 0. -1.
    9900012    2    1    2    0    0  0.25732294482E+02 -0.28485257205E+01 -0.34833280669E+02  0.47787279727E+02  0.20000039587E+02 0.  0.
        -12    1    1    2    0    0 -0.25732294482E+02  0.28485257205E+01  0.34833280669E+02  0.43400720273E+02  0.00000000000E+00 0.  1.
         11    1    3    3    0    0  0.16478975137E+02  0.22159483260E+01 -0.10423431655E+02  0.19624346519E+02  0.51100000000E-03 0. -1.
        -11    1    3    3    0    0  0.15843664418E+01 -0.45109536499E+01 -0.36203984517E+01  0.59971830940E+01  0.51100000000E-03 0.  1.
         12    1    3    3    0    0  0.76689529028E+01 -0.55352039664E+00 -0.20789450562E+02  0.22165750114E+02  0.00000000000E+00 0. -1.
</event>
<event>
 7    1  0.1714203E-010  0.4778727E+02  0.7816164E-02  0.1312668E+00
        -11   -1    0    0    0    0  0.00000000000E+00  0.00000000000E+00  0.45593999997E+02  0.45594000000E+02  0.51100000000E-03 0.  1.
         11   -1    0    0    0    0 -0.00000000000E+00 -0.00000000000E+00 -0.45593999997E+02  0.45594000000E+02  0.51100000000E-03 0. -1.
    9900012    2    1    2    0    0 -0.24874546522E+01  0.29089824114E+00 -0.43328412483E+02  0.47787269813E+02  0.19999994386E+02 0.  0.
        -12    1    1    2    0    0  0.24874546522E+01 -0.29089824114E+00  0.43328412483E+02  0.43400730187E+02  0.00000000000E+00 0.  1.
         11    1    3    3    0    0 -0.78131870092E+01 -0.48341650670E+01 -0.16502190140E+02  0.18887491173E+02  0.51100000000E-03 0. -1.
        -11    1    3    3    0    0 -0.36380049843E+00  0.45880474921E+01 -0.80465067293E+01  0.92697789293E+01  0.51100000000E-03 0.  1.
         12    1    3    3    0    0  0.56895328555E+01  0.53701581606E+00 -0.18779715614E+02  0.19629999710E+02  0.00000000000E+00 0. -1.
</event>
<event>
 7    1  0.1714203E-010  0.4778731E+02  0.7816164E-02  0.1312668E+00
        -11   -1    0    0    0    0  0.00000000000E+00  0.00000000000E+00  0.45593999997E+02  0.45594000000E+02  0.51100000000E-03 0. -1.
         11   -1    0    0    0    0 -0.00000000000E+00 -0.00000000000E+00 -0.45593999997E+02  0.45594000000E+02  0.51100000000E-03 0.  1.
    9900012    2    1    2    0    0 -0.80121008945E+01  0.42222459614E+02  0.60572004041E+01  0.47787314138E+02  0.20000196479E+02 0.  0.
        -12    1    1    2    0    0  0.80121008945E+01 -0.42222459614E+02 -0.60572004041E+01  0.43400685862E+02  0.00000000000E+00 0.  1.
         11    1    3    3    0    0 -0.46442682340E+00  0.23135365751E+02  0.22014407422E+01  0.23244508648E+02  0.51100000000E-03 0. -1.
        -11    1    3    3    0    0  0.67212542353E+00  0.12748107713E+02  0.57333605355E+01  0.13994192587E+02  0.51100000000E-03 0.  1.
        -12    1    3    3    0    0 -0.82197994946E+01  0.63389861497E+01 -0.18776008736E+01  0.10548612903E+02  0.00000000000E+00 0.  1.
</event>
<event>
 7    1  0.1714203E-010  0.4778726E+02  0.7816164E-02  0.1312668E+00
        -11   -1    0    0    0    0  0.00000000000E+00  0.00000000000E+00  0.45593999997E+02  0.45594000000E+02  0.51100000000E-03 0.  1.
         11   -1    0    0    0    0 -0.00000000000E+00 -0.00000000000E+00 -0.45593999997E+02  0.45594000000E+02  0.51100000000E-03 0. -1.
    9900012    2    1    2    0    0  0.34969796362E+02 -0.24785081757E+02  0.68144747530E+01  0.47787262662E+02  0.19999961782E+02 0.  0.
        -12    1    1    2    0    0 -0.34969796362E+02  0.24785081757E+02 -0.68144747530E+01  0.43400737338E+02  0.00000000000E+00 0.  1.
         11    1    3    3    0    0  0.89069127569E+01 -0.11624610107E+02 -0.22429154770E+01  0.14815374619E+02  0.51100000000E-03 0. -1.
        -11    1    3    3    0    0  0.24569499504E+01 -0.11440450392E+01  0.56484865349E+01  0.62650492820E+01  0.51100000000E-03 0.  1.
        -12    1    3    3    0    0  0.23605933655E+02 -0.12016426610E+02  0.34089036951E+01  0.26706838761E+02  0.00000000000E+00 0.  1.
</event>
<event>
 7    1  0.1714203E-010  0.4778727E+02  0.7816164E-02  0.1312668E+00
        -11   -1    0    0    0    0  0.00000000000E+00  0.00000000000E+00  0.45593999997E+02  0.45594000000E+02  0.51100000000E-03 0.  1.
         11   -1    0    0    0    0 -0.00000000000E+00 -0.00000000000E+00 -0.45593999997E+02  0.45594000000E+02  0.51100000000E-03 0. -1.
    9900012    2    1    2    0    0  0.42846747614E+02 -0.44309175032E+01 -0.53053088858E+01  0.47787272893E+02  0.20000008430E+02 0.  0.
        -12    1    1    2    0    0 -0.42846747614E+02  0.44309175032E+01  0.53053088858E+01  0.43400727107E+02  0.00000000000E+00 0.  1.
         11    1    3    3    0    0  0.88645011655E+01  0.30574358186E+01 -0.65498113662E+01  0.11437977264E+02  0.51100000000E-03 0. -1.
        -11    1    3    3    0    0  0.60645380333E+01 -0.56858108858E+01 -0.42284805913E+00  0.83238132925E+01  0.51100000000E-03 0.  1.
         12    1    3    3    0    0  0.27917708415E+02 -0.18025424360E+01  0.16673505395E+01  0.28025482337E+02  0.00000000000E+00 0. -1.
</event>
<event>
 7    1  0.1714203E-010  0.4778726E+02  0.7816164E-02  0.1312668E+00
        -11   -1    0    0    0    0  0.00000000000E+00  0.00000000000E+00  0.45593999997E+02  0.45594000000E+02  0.51100000000E-03 0.  1.
         11   -1    0    0    0    0 -0.00000000000E+00 -0.00000000000E+00 -0.45593999997E+02  0.45594000000E+02  0.51100000000E-03 0. -1.
    9900012    2    1    2    0    0  0.20845718745E+02  0.10541743067E+02 -0.36578021328E+02  0.47787262896E+02  0.19999962849E+02 0.  0.
        -12    1    1    2    0    0 -0.20845718745E+02 -0.10541743067E+02  0.36578021328E+02  0.43400737104E+02  0.00000000000E+00 0.  1.
         11    1    3    3    0    0  0.45523123465E+01 -0.19588616901E+01 -0.42825835346E+01  0.65499014353E+01  0.51100000000E-03 0. -1.
        -11    1    3    3    0    0 -0.84138657712E+00 -0.41809344604E+00 -0.10879871265E+02  0.10920363204E+02  0.51100000000E-03 0.  1.
        -12    1    3    3    0    0  0.17134792976E+02  0.12918698204E+02 -0.21415566528E+02  0.30316998257E+02  0.00000000000E+00 0.  1.
</event>
<event>
 7    1  0.1714203E-010  0.4778727E+02  0.7816164E-02  0.1312668E+00
        -11   -1    0    0    0    0  0.00000000000E+00  0.00000000000E+00  0.45593999997E+02  0.45594000000E+02  0.51100000000E-03 0. -1.
         11   -1    0    0    0    0 -0.00000000000E+00 -0.00000000000E+00 -0.45593999997E+02  0.45594000000E+02  0.51100000000E-03 0.  1.
    9900012    2    1    2    0    0  0.25597939642E+02 -0.33739585785E+02  0.94873159336E+01  0.47787270438E+02  0.19999997237E+02 0.  0.
        -12    1    1    2    0    0 -0.25597939642E+02  0.33739585785E+02 -0.94873159336E+01  0.43400729562E+02  0.00000000000E+00 0.  1.
         11    1    3    3    0    0  0.13741921354E+01 -0.22129680370E+00  0.27106995700E+01  0.30471738907E+01  0.51100000000E-03 0.  1.
        -11    1    3    3    0    0  0.58706936714E+01 -0.18789051955E+02 -0.16270132411E+01  0.19751979392E+02  0.51100000000E-03 0. -1.
         12    1    3    3    0    0  0.18353053835E+02 -0.14729237026E+02  0.84036296046E+01  0.24988117156E+02  0.00000000000E+00 0. -1.
</event>
<event>
 7    1  0.1714203E-010  0.4778726E+02  0.7816164E-02  0.1312668E+00
        -11   -1    0    0    0    0  0.00000000000E+00  0.00000000000E+00  0.45593999997E+02  0.45594000000E+02  0.51100000000E-03 0.  1.
         11   -1    0    0    0    0 -0.00000000000E+00 -0.00000000000E+00 -0.45593999997E+02  0.45594000000E+02  0.51100000000E-03 0. -1.
    9900012    2    1    2    0    0 -0.41744265035E+02 -0.11362542360E+02 -0.34543870519E+01  0.47787264729E+02  0.19999971204E+02 0.  0.
        -12    1    1    2    0    0  0.41744265035E+02  0.11362542360E+02  0.34543870519E+01  0.43400735271E+02  0.00000000000E+00 0.  1.
         11    1    3    3    0    0 -0.35433281159E+02 -0.89886762840E+01  0.76081073917E+00  0.36563541244E+02  0.51100000000E-03 0. -1.
        -11    1    3    3    0    0 -0.86877167641E+00 -0.44716617226E+01 -0.21412353751E+01  0.50334294452E+01  0.51100000000E-03 0.  1.
         12    1    3    3    0    0 -0.54422121991E+01  0.20977956463E+01 -0.20739624160E+01  0.61902940396E+01  0.00000000000E+00 0. -1.
</event>
<event>
 7    1  0.1714203E-010  0.4778727E+02  0.7816164E-02  0.1312668E+00
        -11   -1    0    0    0    0  0.00000000000E+00  0.00000000000E+00  0.45593999997E+02  0.45594000000E+02  0.51100000000E-03 0.  1.
         11   -1    0    0    0    0 -0.00000000000E+00 -0.00000000000E+00 -0.45593999997E+02  0.45594000000E+02  0.51100000000E-03 0. -1.
    9900012    2    1    2    0    0  0.26787812178E+02  0.25039586321E+02 -0.23217570173E+02  0.47787270408E+02  0.19999997097E+02 0.  0.
        -12    1    1    2    0    0 -0.26787812178E+02 -0.25039586321E+02  0.23217570173E+02  0.43400729592E+02  0.00000000000E+00 0.  1.
         11    1    3    3    0    0  0.16130179522E+02  0.16964811860E+02 -0.22398277995E+02  0.32398617104E+02  0.51100000000E-03 0. -1.
        -11    1    3    3    0    0  0.10452584489E+02  0.71512227658E+01 -0.29968093759E+01  0.13014506377E+02  0.51100000000E-03 0.  1.
         12    1    3    3    0    0  0.20504816707E+00  0.92355169516E+00  0.21775171976E+01  0.23741469269E+01  0.00000000000E+00 0. -1.
</event>
<event>
 7    1  0.1714203E-010  0.4778727E+02  0.7816164E-02  0.1312668E+00
        -11   -1    0    0    0    0  0.00000000000E+00  0.00000000000E+00  0.45593999997E+02  0.45594000000E+02  0.51100000000E-03 0.  1.
         11   -1    0    0    0    0 -0.00000000000E+00 -0.00000000000E+00 -0.45593999997E+02  0.45594000000E+02  0.51100000000E-03 0. -1.
    9900012    2    1    2    0    0  0.27297903306E+02  0.19773007166E+02 -0.27340000011E+02  0.47787274915E+02  0.20000017649E+02 0.  0.
        -12    1    1    2    0    0 -0.27297903306E+02 -0.19773007166E+02  0.27340000011E+02  0.43400725085E+02  0.00000000000E+00 0.  1.
         11    1    3    3    0    0  0.26615878880E+01  0.26356140878E+01 -0.25096879201E+01  0.45087742705E+01  0.51100000000E-03 0. -1.
        -11    1    3    3    0    0  0.23628442045E+02  0.20602516778E+02 -0.24227156533E+02  0.39619718386E+02  0.51100000000E-03 0.  1.
        -12    1    3    3    0    0  0.10078733723E+01 -0.34651236996E+01 -0.60315555822E+00  0.36587822586E+01  0.00000000000E+00 0.  1.
</event>
<event>
 7    1  0.1714203E-010  0.4778727E+02  0.7816164E-02  0.1312668E+00
        -11   -1    0    0    0    0  0.00000000000E+00  0.00000000000E+00  0.45593999997E+02  0.45594000000E+02  0.51100000000E-03 0.  1.
         11   -1    0    0    0    0 -0.00000000000E+00 -0.00000000000E+00 -0.45593999997E+02  0.45594000000E+02  0.51100000000E-03 0. -1.
    9900012    2    1    2    0    0 -0.24978288054E+02  0.12096582550E+02  0.33367362565E+02  0.47787273416E+02  0.20000010813E+02 0.  0.
        -12    1    1    2    0    0  0.24978288054E+02 -0.12096582550E+02 -0.33367362565E+02  0.43400726584E+02  0.00000000000E+00 0.  1.
         11    1    3    3    0    0 -0.96231719204E+00  0.54178095840E+01  0.16408676103E+02  0.17306743391E+02  0.51100000000E-03 0. -1.
        -11    1    3    3    0    0 -0.95757429433E+01  0.10403583488E+01  0.83562530893E+01  0.12751633792E+02  0.51100000000E-03 0.  1.
         12    1    3    3    0    0 -0.14440227918E+02  0.56384146168E+01  0.86024333726E+01  0.17728896233E+02  0.00000000000E+00 0. -1.
</event>
<event>
 7    1  0.1714203E-010  0.4778726E+02  0.7816164E-02  0.1312668E+00
        -11   -1    0    0    0    0  0.00000000000E+00  0.00000000000E+00  0.45593999997E+02  0.45594000000E+02  0.51100000000E-03 0.  1.
         11   -1    0    0    0    0 -0.00000000000E+00 -0.00000000000E+00 -0.45593999997E+02  0.45594000000E+02  0.51100000000E-03 0. -1.
    9900012    2    1    2    0    0 -0.20857745846E+02  0.78488602659E+01 -0.37242095274E+02  0.47787264641E+02  0.19999970805E+02 0.  0.
        -12    1    1    2    0    0  0.20857745846E+02 -0.78488602659E+01  0.37242095274E+02  0.43400735359E+02  0.00000000000E+00 0.  1.
         11    1    3    3    0    0 -0.41030195145E+01 -0.51466789451E+00 -0.16835078966E+02  0.17335499307E+02  0.51100000000E-03 0. -1.
        -11    1    3    3    0    0 -0.47763724958E+01 -0.33217127872E+01 -0.61769677729E+01  0.84854252214E+01  0.51100000000E-03 0.  1.
        -12    1    3    3    0    0 -0.11978353836E+02  0.11685240948E+02 -0.14230048535E+02  0.21966340113E+02  0.00000000000E+00 0.  1.
</event>
<event>
 7    1  0.1714203E-010  0.4778727E+02  0.7816164E-02  0.1312668E+00
        -11   -1    0    0    0    0  0.00000000000E+00  0.00000000000E+00  0.45593999997E+02  0.45594000000E+02  0.51100000000E-03 0.  1.
         11   -1    0    0    0    0 -0.00000000000E+00 -0.00000000000E+00 -0.45593999997E+02  0.45594000000E+02  0.51100000000E-03 0. -1.
    9900012    2    1    2    0    0  0.29336148523E+02 -0.23784028295E+02 -0.21385356690E+02  0.47787273130E+02  0.20000009508E+02 0.  0.
        -12    1    1    2    0    0 -0.29336148523E+02  0.23784028295E+02  0.21385356690E+02  0.43400726870E+02  0.00000000000E+00 0.  1.
         11    1    3    3    0    0  0.72058422932E+00 -0.10125952177E+02 -0.53114528446E+01  0.11457123579E+02  0.51100000000E-03 0. -1.
        -11    1    3    3    0    0  0.12767551427E+02 -0.96000432171E+01 -0.10176899106E+02  0.18940445477E+02  0.51100000000E-03 0.  1.
        -12    1    3    3    0    0  0.15848012867E+02 -0.40580329002E+01 -0.58970047391E+01  0.17389704073E+02  0.00000000000E+00 0.  1.
</event>
<event>
 7    1  0.1714203E-010  0.4778727E+02  0.7816164E-02  0.1312668E+00
        -11   -1    0    0    0    0  0.00000000000E+00  0.00000000000E+00  0.45593999997E+02  0.45594000000E+02  0.51100000000E-03 0.  1.
         11   -1    0    0    0    0 -0.00000000000E+00 -0.00000000000E+00 -0.45593999997E+02  0.45594000000E+02  0.51100000000E-03 0. -1.
    9900012    2    1    2    0    0 -0.13572727285E+02 -0.37547021388E+02 -0.17018393862E+02  0.47787268777E+02  0.19999989663E+02 0.  0.
        -12    1    1    2    0    0  0.13572727285E+02  0.37547021388E+02  0.17018393862E+02  0.43400731223E+02  0.00000000000E+00 0.  1.
         11    1    3    3    0    0 -0.62903972081E+01 -0.21424886969E+02 -0.75898393450E+01  0.23583904261E+02  0.51100000000E-03 0. -1.
        -11    1    3    3    0    0 -0.96208871601E+01 -0.96916911132E+01 -0.10566686171E+02  0.17266881689E+02  0.51100000000E-03 0.  1.
        -12    1    3    3    0    0  0.23385570836E+01 -0.64304433058E+01  0.11381316540E+01  0.69364828266E+01  0.00000000000E+00 0.  1.
</event>
<event>
 7    1  0.1714203E-010  0.4778725E+02  0.7816164E-02  0.1312668E+00
        -11   -1    0    0    0    0  0.00000000000E+00  0.00000000000E+00  0.45593999997E+02  0.45594000000E+02  0.51100000000E-03 0. -1.
         11   -1    0    0    0    0 -0.00000000000E+00 -0.00000000000E+00 -0.45593999997E+02  0.45594000000E+02  0.51100000000E-03 0.  1.
    9900012    2    1    2    0    0  0.25256486002E+02 -0.27845355040E+02  0.21688041226E+02  0.47787250989E+02  0.19999908560E+02 0.  0.
        -12    1    1    2    0    0 -0.25256486002E+02  0.27845355040E+02 -0.21688041226E+02  0.43400749011E+02  0.00000000000E+00 0.  1.
         11    1    3    3    0    0  0.16588090839E+01 -0.68995934098E+01  0.62647540849E+01  0.94658956683E+01  0.51100000000E-03 0. -1.
        -11    1    3    3    0    0  0.67225000481E+01  0.11072562115E+01  0.58868869927E+00  0.68384631213E+01  0.51100000000E-03 0.  1.
        -12    1    3    3    0    0  0.16875176870E+02 -0.22053017842E+02  0.14834598442E+02  0.31482892200E+02  0.00000000000E+00 0.  1.
</event>
<event>
 7    1  0.1714203E-010  0.4778727E+02  0.7816164E-02  0.1312668E+00
        -11   -1    0    0    0    0  0.00000000000E+00  0.00000000000E+00  0.45593999997E+02  0.45594000000E+02  0.51100000000E-03 0. -1.
         11   -1    0    0    0    0 -0.00000000000E+00 -0.00000000000E+00 -0.45593999997E+02  0.45594000000E+02  0.51100000000E-03 0.  1.
    9900012    2    1    2    0    0  0.16901366711E+02  0.27032466918E+02  0.29448474697E+02  0.47787272744E+02  0.20000007748E+02 0.  0.
        -12    1    1    2    0    0 -0.16901366711E+02 -0.27032466918E+02 -0.29448474697E+02  0.43400727256E+02  0.00000000000E+00 0.  1.
         11    1    3    3    0    0  0.12759835668E+02  0.24403722434E+02  0.15834950405E+02  0.31766345863E+02  0.51100000000E-03 0. -1.
        -11    1    3    3    0    0 -0.18272673212E+01  0.13546202536E+01  0.28386788496E+01  0.36375815822E+01  0.51100000000E-03 0.  1.
        -12    1    3    3    0    0  0.59687983643E+01  0.12741242306E+01  0.10774845442E+02  0.12383345298E+02  0.00000000000E+00 0.  1.
</event>
<event>
 7    1  0.1714203E-010  0.4778727E+02  0.7816164E-02  0.1312668E+00
        -11   -1    0    0    0    0  0.00000000000E+00  0.00000000000E+00  0.45593999997E+02  0.45594000000E+02  0.51100000000E-03 0.  1.
         11   -1    0    0    0    0 -0.00000000000E+00 -0.00000000000E+00 -0.45593999997E+02  0.45594000000E+02  0.51100000000E-03 0. -1.
    9900012    2    1    2    0    0  0.37155421758E+01 -0.25680178795E+02 -0.34790030727E+02  0.47787273340E+02  0.20000010468E+02 0.  0.
        -12    1    1    2    0    0 -0.37155421758E+01  0.25680178795E+02  0.34790030727E+02  0.43400726660E+02  0.00000000000E+00 0.  1.
         11    1    3    3    0    0  0.24479062292E+01 -0.76842546618E+01 -0.18564667234E+02  0.20240723416E+02  0.51100000000E-03 0. -1.
        -11    1    3    3    0    0 -0.52620992849E+01 -0.12989178572E+02 -0.96839081692E+01  0.17034862094E+02  0.51100000000E-03 0.  1.
         12    1    3    3    0    0  0.65297352315E+01 -0.50067455611E+01 -0.65414553237E+01  0.10511687831E+02  0.00000000000E+00 0. -1.
</event>
<event>
 7    1  0.1714203E-010  0.4778727E+02  0.7816164E-02  0.1312668E+00
        -11   -1    0    0    0    0  0.00000000000E+00  0.00000000000E+00  0.45593999997E+02  0.45594000000E+02  0.51100000000E-03 0.  1.
         11   -1    0    0    0    0 -0.00000000000E+00 -0.00000000000E+00 -0.45593999997E+02  0.45594000000E+02  0.51100000000E-03 0. -1.
    9900012    2    1    2    0    0  0.29775615273E+02  0.23888439379E+02 -0.20648930719E+02  0.47787272579E+02  0.20000006996E+02 0.  0.
        -12    1    1    2    0    0 -0.29775615273E+02 -0.23888439379E+02  0.20648930719E+02  0.43400727421E+02  0.00000000000E+00 0.  1.
         11    1    3    3    0    0  0.82620558888E+01  0.12595235498E+01 -0.44420746037E+01  0.94646708410E+01  0.51100000000E-03 0. -1.
        -11    1    3    3    0    0  0.17426355593E+01  0.83200940098E+01  0.85636803711E+00  0.85436590230E+01  0.51100000000E-03 0.  1.
         12    1    3    3    0    0  0.19770923825E+02  0.14308821819E+02 -0.17063224152E+02  0.29778942715E+02  0.00000000000E+00 0. -1.
</event>
<event>
 7    1  0.1714203E-010  0.4778727E+02  0.7816164E-02  0.1312668E+00
        -11   -1    0    0    0    0  0.00000000000E+00  0.00000000000E+00  0.45593999997E+02  0.45594000000E+02  0.51100000000E-03 0. -1.
         11   -1    0    0    0    0 -0.00000000000E+00 -0.00000000000E+00 -0.45593999997E+02  0.45594000000E+02  0.51100000000E-03 0.  1.
    9900012    2    1    2    0    0 -0.16815811290E+02  0.19669773240E+02  0.34841808456E+02  0.47787272988E+02  0.20000008861E+02 0.  0.
        -12    1    1    2    0    0  0.16815811290E+02 -0.19669773240E+02 -0.34841808456E+02  0.43400727012E+02  0.00000000000E+00 0.  1.
         11    1    3    3    0    0 -0.73404927810E+01  0.26784589944E+01  0.55211009565E+00  0.78333774754E+01  0.51100000000E-03 0.  1.
        -11    1    3    3    0    0 -0.95730173997E+00  0.66988308012E+01  0.15358748852E+02  0.16783382475E+02  0.51100000000E-03 0. -1.
        -12    1    3    3    0    0 -0.85180167693E+01  0.10292483444E+02  0.18930949509E+02  0.23170513038E+02  0.00000000000E+00 0.  1.
</event>
<event>
 7    1  0.1714203E-010  0.4778727E+02  0.7816164E-02  0.1312668E+00
        -11   -1    0    0    0    0  0.00000000000E+00  0.00000000000E+00  0.45593999997E+02  0.45594000000E+02  0.51100000000E-03 0.  1.
         11   -1    0    0    0    0 -0.00000000000E+00 -0.00000000000E+00 -0.45593999997E+02  0.45594000000E+02  0.51100000000E-03 0. -1.
    9900012    2    1    2    0    0  0.89573614061E+01 -0.29832678387E+01 -0.42361409149E+02  0.47787271948E+02  0.20000004121E+02 0.  0.
        -12    1    1    2    0    0 -0.89573614061E+01  0.29832678387E+01  0.42361409149E+02  0.43400728052E+02  0.00000000000E+00 0.  1.
         11    1    3    3    0    0  0.76575055159E+01  0.28208262627E+01 -0.17135777476E+02  0.18979708151E+02  0.51100000000E-03 0. -1.
        -11    1    3    3    0    0 -0.19727314529E+01  0.96436075527E+00  0.28310525122E+00  0.22140031382E+01  0.51100000000E-03 0.  1.
        -12    1    3    3    0    0  0.32725873430E+01 -0.67684548567E+01 -0.25508736924E+02  0.26593560659E+02  0.00000000000E+00 0.  1.
</event>
<event>
 7    1  0.1714203E-010  0.4778727E+02  0.7816164E-02  0.1312668E+00
        -11   -1    0    0    0    0  0.00000000000E+00  0.00000000000E+00  0.45593999997E+02  0.45594000000E+02  0.51100000000E-03 0. -1.
         11   -1    0    0    0    0 -0.00000000000E+00 -0.00000000000E+00 -0.45593999997E+02  0.45594000000E+02  0.51100000000E-03 0.  1.
    9900012    2    1    2    0    0  0.24797190954E+02  0.33228040505E+01  0.35463807644E+02  0.47787270068E+02  0.19999995549E+02 0.  0.
        -12    1    1    2    0    0 -0.24797190954E+02 -0.33228040505E+01 -0.35463807644E+02  0.43400729932E+02  0.00000000000E+00 0.  1.
         11    1    3    3    0    0  0.21623166534E+02  0.30771029903E+01  0.14292244492E+02  0.26101688579E+02  0.51100000000E-03 0. -1.
        -11    1    3    3    0    0 -0.56637139582E+00 -0.62551208396E+00  0.33180380666E+01  0.34236557651E+01  0.51100000000E-03 0.  1.
         12    1    3    3    0    0  0.37403958161E+01  0.87121314413E+00  0.17853525085E+02  0.18261925725E+02  0.00000000000E+00 0. -1.
</event>
<event>
 7    1  0.2847045E-010  0.4778729E+02  0.7816164E-02  0.1312668E+00
        -11   -1    0    0    0    0  0.00000000000E+00  0.00000000000E+00  0.45593999997E+02  0.45594000000E+02  0.51100000000E-03 0. -1.
         11   -1    0    0    0    0 -0.00000000000E+00 -0.00000000000E+00 -0.45593999997E+02  0.45594000000E+02  0.51100000000E-03 0.  1.
    9900012    2    1    2    0    0 -0.16680859665E+02 -0.37775788766E+02 -0.13355176315E+02  0.47787285370E+02  0.20000065315E+02 0.  0.
        -12    1    1    2    0    0  0.16680859665E+02  0.37775788766E+02  0.13355176315E+02  0.43400714630E+02  0.00000000000E+00 0.  1.
         11    1    3    3    0    0 -0.10515398025E+02 -0.14845239776E+02 -0.76139069015E+01  0.19721214927E+02  0.51100000000E-03 0. -1.
        -11    1    3    3    0    0  0.15674256827E+01 -0.66600357403E+00 -0.41001740178E+01  0.44397985617E+01  0.51100000000E-03 0.  1.
        -12    1    3    3    0    0 -0.77328873226E+01 -0.22264545415E+02 -0.16410953955E+01  0.23626271881E+02  0.00000000000E+00 0.  1.
</event>
<event>
 7    1  0.1714203E-010  0.4778728E+02  0.7816164E-02  0.1312668E+00
        -11   -1    0    0    0    0  0.00000000000E+00  0.00000000000E+00  0.45593999997E+02  0.45594000000E+02  0.51100000000E-03 0.  1.
         11   -1    0    0    0    0 -0.00000000000E+00 -0.00000000000E+00 -0.45593999997E+02  0.45594000000E+02  0.51100000000E-03 0. -1.
    9900012    2    1    2    0    0  0.28242345602E+01 -0.77579233976E+01 -0.42608228324E+02  0.47787276536E+02  0.20000025040E+02 0.  0.
        -12    1    1    2    0    0 -0.28242345602E+01  0.77579233976E+01  0.42608228324E+02  0.43400723464E+02  0.00000000000E+00 0.  1.
         11    1    3    3    0    0 -0.33204332148E+00 -0.39235791139E+01 -0.26971278168E+02  0.27257193034E+02  0.51100000000E-03 0. -1.
        -11    1    3    3    0    0 -0.15768980356E+01 -0.30288372216E+01  0.71417998889E+00  0.34886266133E+01  0.51100000000E-03 0.  1.
        -12    1    3    3    0    0  0.47331759172E+01 -0.80550706209E+00 -0.16351130145E+02  0.17041456889E+02  0.00000000000E+00 0.  1.
</event>
<event>
 7    1  0.1714203E-010  0.4778727E+02  0.7816164E-02  0.1312668E+00
        -11   -1    0    0    0    0  0.00000000000E+00  0.00000000000E+00  0.45593999997E+02  0.45594000000E+02  0.51100000000E-03 0.  1.
         11   -1    0    0    0    0 -0.00000000000E+00 -0.00000000000E+00 -0.45593999997E+02  0.45594000000E+02  0.51100000000E-03 0. -1.
    9900012    2    1    2    0    0 -0.21434206374E+02 -0.16100940317E+02 -0.34131474135E+02  0.47787274101E+02  0.20000013934E+02 0.  0.
        -12    1    1    2    0    0  0.21434206374E+02  0.16100940317E+02  0.34131474135E+02  0.43400725899E+02  0.00000000000E+00 0.  1.
         11    1    3    3    0    0 -0.72129655340E+00  0.18668981033E+01 -0.70551963654E-01  0.20026370332E+01  0.51100000000E-03 0. -1.
        -11    1    3    3    0    0 -0.16461954561E+02 -0.12931141496E+02 -0.15382543424E+02  0.25977548206E+02  0.51100000000E-03 0.  1.
         12    1    3    3    0    0 -0.42509552595E+01 -0.50366969244E+01 -0.18678378747E+02  0.19807088861E+02  0.00000000000E+00 0. -1.
</event>
<event>
 7    1  0.1714203E-010  0.4778727E+02  0.7816164E-02  0.1312668E+00
        -11   -1    0    0    0    0  0.00000000000E+00  0.00000000000E+00  0.45593999997E+02  0.45594000000E+02  0.51100000000E-03 0.  1.
         11   -1    0    0    0    0 -0.00000000000E+00 -0.00000000000E+00 -0.45593999997E+02  0.45594000000E+02  0.51100000000E-03 0. -1.
    9900012    2    1    2    0    0 -0.20614961709E+02 -0.21928722984E+02 -0.31269437167E+02  0.47787271449E+02  0.20000001845E+02 0.  0.
        -12    1    1    2    0    0  0.20614961709E+02  0.21928722984E+02  0.31269437167E+02  0.43400728551E+02  0.00000000000E+00 0.  1.
         11    1    3    3    0    0 -0.19274878692E+02 -0.14632097538E+02 -0.31297438254E+02  0.39561962394E+02  0.51100000000E-03 0. -1.
        -11    1    3    3    0    0 -0.11260725740E+01 -0.51070263252E+01 -0.16218035705E+01  0.54753999315E+01  0.51100000000E-03 0.  1.
         12    1    3    3    0    0 -0.21401044310E+00 -0.21895991206E+01  0.16498046570E+01  0.27499091231E+01  0.00000000000E+00 0. -1.
</event>
<event>
 7    1  0.1714203E-010  0.4778727E+02  0.7816164E-02  0.1312668E+00
        -11   -1    0    0    0    0  0.00000000000E+00  0.00000000000E+00  0.45593999997E+02  0.45594000000E+02  0.51100000000E-03 0.  1.
         11   -1    0    0    0    0 -0.00000000000E+00 -0.00000000000E+00 -0.45593999997E+02  0.45594000000E+02  0.51100000000E-03 0. -1.
    9900012    2    1    2    0    0  0.57851188574E+01 -0.25565647734E+02 -0.34591234715E+02  0.47787268862E+02  0.19999990048E+02 0.  0.
        -12    1    1    2    0    0 -0.57851188574E+01  0.25565647734E+02  0.34591234715E+02  0.43400731138E+02  0.00000000000E+00 0.  1.
         11    1    3    3    0    0  0.74541256407E+01 -0.12716504523E+02 -0.16197203539E+02  0.21900294041E+02  0.51100000000E-03 0. -1.
        -11    1    3    3    0    0 -0.11570122201E+01 -0.61682295897E+01 -0.18125351223E+02  0.19181086798E+02  0.51100000000E-03 0.  1.
        -12    1    3    3    0    0 -0.51199456314E+00 -0.66809136214E+01 -0.26867995283E+00  0.67058880222E+01  0.00000000000E+00 0.  1.
</event>
<event>
 7    1  0.1714203E-010  0.4778726E+02  0.7816164E-02  0.1312668E+00
        -11   -1    0    0    0    0  0.00000000000E+00  0.00000000000E+00  0.45593999997E+02  0.45594000000E+02  0.51100000000E-03 0. -1.
         11   -1    0    0    0    0 -0.00000000000E+00 -0.00000000000E+00 -0.45593999997E+02  0.45594000000E+02  0.51100000000E-03 0.  1.
    9900012    2    1    2    0    0 -0.43068328391E+02 -0.46477285530E+01 -0.26724085046E+01  0.47787262008E+02  0.19999958798E+02 0.  0.
        -12    1    1    2    0    0  0.43068328391E+02  0.46477285530E+01  0.26724085046E+01  0.43400737992E+02  0.00000000000E+00 0.  1.
         11    1    3    3    0    0 -0.12657818950E+02  0.26501554182E+01  0.25702906519E+01  0.13185222737E+02  0.51100000000E-03 0. -1.
        -11    1    3    3    0    0 -0.46694178837E+01 -0.70257122742E+01 -0.18565477447E+01  0.86377581653E+01  0.51100000000E-03 0.  1.
         12    1    3    3    0    0 -0.25741091557E+02 -0.27217169705E+00 -0.33861514118E+01  0.25964281106E+02  0.00000000000E+00 0. -1.
</event>
<event>
 7    1  0.1714203E-010  0.4778728E+02  0.7816164E-02  0.1312668E+00
        -11   -1    0    0    0    0  0.00000000000E+00  0.00000000000E+00  0.45593999997E+02  0.45594000000E+02  0.51100000000E-03 0.  1.
         11   -1    0    0    0    0 -0.00000000000E+00 -0.00000000000E+00 -0.45593999997E+02  0.45594000000E+02  0.51100000000E-03 0. -1.
    9900012    2    1    2    0    0 -0.16662794743E+02 -0.29472141166E+02 -0.27154500371E+02  0.47787277380E+02  0.20000028887E+02 0.  0.
        -12    1    1    2    0    0  0.16662794743E+02  0.29472141166E+02  0.27154500371E+02  0.43400722620E+02  0.00000000000E+00 0.  1.
         11    1    3    3    0    0 -0.10407947592E+02 -0.21761756881E+02 -0.17173384904E+02  0.29611223969E+02  0.51100000000E-03 0. -1.
        -11    1    3    3    0    0 -0.35266565165E+01 -0.31450756235E+01  0.19510661024E+01  0.51122857960E+01  0.51100000000E-03 0.  1.
         12    1    3    3    0    0 -0.27281906343E+01 -0.45653086613E+01 -0.11932181569E+02  0.13063767615E+02  0.00000000000E+00 0. -1.
</event>
<event>
 7    1  0.1714203E-010  0.4778727E+02  0.7816164E-02  0.1312668E+00
        -11   -1    0    0    0    0  0.00000000000E+00  0.00000000000E+00  0.45593999997E+02  0.45594000000E+02  0.51100000000E-03 0. -1.
         11   -1    0    0    0    0 -0.00000000000E+00 -0.00000000000E+00 -0.45593999997E+02  0.45594000000E+02  0.51100000000E-03 0.  1.
    9900012    2    1    2    0    0  0.33659313471E+02 -0.23906956325E+02  0.13383988699E+02  0.47787273076E+02  0.20000009263E+02 0.  0.
        -12    1    1    2    0    0 -0.33659313471E+02  0.23906956325E+02 -0.13383988699E+02  0.43400726924E+02  0.00000000000E+00 0.  1.
         11    1    3    3    0    0  0.79794695113E+00 -0.56620220109E+01  0.29151802666E+00  0.57253991659E+01  0.51100000000E-03 0. -1.
        -11    1    3    3    0    0  0.55238882885E+01 -0.62173019401E+00 -0.23761226841E+01  0.60453163299E+01  0.51100000000E-03 0.  1.
        -12    1    3    3    0    0  0.27337478231E+02 -0.17623204120E+02  0.15468593357E+02  0.36016557580E+02  0.00000000000E+00 0.  1.
</event>
<event>
 7    1  0.1714203E-010  0.4778727E+02  0.7816164E-02  0.1312668E+00
        -11   -1    0    0    0    0  0.00000000000E+00  0.00000000000E+00  0.45593999997E+02  0.45594000000E+02  0.51100000000E-03 0.  1.
         11   -1    0    0    0    0 -0.00000000000E+00 -0.00000000000E+00 -0.45593999997E+02  0.45594000000E+02  0.51100000000E-03 0. -1.
    9900012    2    1    2    0    0  0.15506259968E+02 -0.87070355346E+01 -0.39589981612E+02  0.47787271780E+02  0.20000003353E+02 0.  0.
        -12    1    1    2    0    0 -0.15506259968E+02  0.87070355346E+01  0.39589981612E+02  0.43400728220E+02  0.00000000000E+00 0.  1.
         11    1    3    3    0    0  0.46850760732E+01  0.24241772437E+01 -0.41260508511E+01  0.66970791400E+01  0.51100000000E-03 0. -1.
        -11    1    3    3    0    0  0.85520632596E+01 -0.10740880576E+02 -0.14383517304E+02  0.19884412786E+02  0.51100000000E-03 0.  1.
        -12    1    3    3    0    0  0.22691206347E+01 -0.39033220219E+00 -0.21080413457E+02  0.21205779854E+02  0.00000000000E+00 0.  1.
</event>
<event>
 7    1  0.1714203E-010  0.4778727E+02  0.7816164E-02  0.1312668E+00
        -11   -1    0    0    0    0  0.00000000000E+00  0.00000000000E+00  0.45593999997E+02  0.45594000000E+02  0.51100000000E-03 0.  1.
         11   -1    0    0    0    0 -0.00000000000E+00 -0.00000000000E+00 -0.45593999997E+02  0.45594000000E+02  0.51100000000E-03 0. -1.
    9900012    2    1    2    0    0  0.20786650834E+01 -0.28014694552E+01 -0.43260308010E+02  0.47787270413E+02  0.19999997119E+02 0.  0.
        -12    1    1    2    0    0 -0.20786650834E+01  0.28014694552E+01  0.43260308010E+02  0.43400729587E+02  0.00000000000E+00 0.  1.
         11    1    3    3    0    0  0.21774009644E+01  0.89147099561E+00 -0.42788811018E+02  0.42853449617E+02  0.51100000000E-03 0. -1.
        -11    1    3    3    0    0 -0.10808189400E+01 -0.13231791525E+01 -0.13968246457E+01  0.22068284941E+01  0.51100000000E-03 0.  1.
         12    1    3    3    0    0  0.98208305904E+00 -0.23697612983E+01  0.92532765379E+00  0.27269923015E+01  0.00000000000E+00 0. -1.
</event>
<event>
 7    1  0.1714203E-010  0.4778727E+02  0.7816164E-02  0.1312668E+00
        -11   -1    0    0    0    0  0.00000000000E+00  0.00000000000E+00  0.45593999997E+02  0.45594000000E+02  0.51100000000E-03 0. -1.
         11   -1    0    0    0    0 -0.00000000000E+00 -0.00000000000E+00 -0.45593999997E+02  0.45594000000E+02  0.51100000000E-03 0.  1.
    9900012    2    1    2    0    0 -0.36241967014E+02 -0.23843065655E+02  0.12850527595E+01  0.47787270588E+02  0.19999997920E+02 0.  0.
        -12    1    1    2    0    0  0.36241967014E+02  0.23843065655E+02 -0.12850527595E+01  0.43400729412E+02  0.00000000000E+00 0.  1.
         11    1    3    3    0    0 -0.19045946295E+02 -0.79029746949E+01 -0.55393481424E+01  0.21351568032E+02  0.51100000000E-03 0. -1.
        -11    1    3    3    0    0 -0.98625613874E+01 -0.13164198300E+02  0.66112441881E+00  0.16462178463E+02  0.51100000000E-03 0.  1.
         12    1    3    3    0    0 -0.73334593316E+01 -0.27758926600E+01  0.61632764831E+01  0.99735240930E+01  0.00000000000E+00 0. -1.
</event>
<event>
 7    1  0.1714203E-010  0.4778727E+02  0.7816164E-02  0.1312668E+00
        -11   -1    0    0    0    0  0.00000000000E+00  0.00000000000E+00  0.45593999997E+02  0.45594000000E+02  0.51100000000E-03 0.  1.
         11   -1    0    0    0    0 -0.00000000000E+00 -0.00000000000E+00 -0.45593999997E+02  0.45594000000E+02  0.51100000000E-03 0. -1.
    9900012    2    1    2    0    0  0.10287283328E+01 -0.25562262841E+02 -0.35059034119E+02  0.47787269166E+02  0.19999991437E+02 0.  0.
        -12    1    1    2    0    0 -0.10287283328E+01  0.25562262841E+02  0.35059034119E+02  0.43400730834E+02  0.00000000000E+00 0.  1.
         11    1    3    3    0    0 -0.99347756926E+00 -0.20512452559E+02 -0.34602606054E+02  0.40237893256E+02  0.51100000000E-03 0. -1.
        -11    1    3    3    0    0  0.32707981775E+01 -0.38639930336E+01 -0.17919015577E+01  0.53702396907E+01  0.51100000000E-03 0.  1.
         12    1    3    3    0    0 -0.12485922754E+01 -0.11858172484E+01  0.13354734926E+01  0.21791362202E+01  0.00000000000E+00 0. -1.
</event>
<event>
 7    1  0.1714203E-010  0.4778727E+02  0.7816164E-02  0.1312668E+00
        -11   -1    0    0    0    0  0.00000000000E+00  0.00000000000E+00  0.45593999997E+02  0.45594000000E+02  0.51100000000E-03 0.  1.
         11   -1    0    0    0    0 -0.00000000000E+00 -0.00000000000E+00 -0.45593999997E+02  0.45594000000E+02  0.51100000000E-03 0. -1.
    9900012    2    1    2    0    0 -0.36256880861E+02 -0.51246910284E+00 -0.23849511016E+02  0.47787271780E+02  0.20000003353E+02 0.  0.
        -12    1    1    2    0    0  0.36256880861E+02  0.51246910284E+00  0.23849511016E+02  0.43400728220E+02  0.00000000000E+00 0.  1.
         11    1    3    3    0    0 -0.22503950336E+02  0.69028581787E+01 -0.19165217352E+02  0.30354287805E+02  0.51100000000E-03 0. -1.
        -11    1    3    3    0    0  0.31988953416E+00 -0.14493823551E+01 -0.16331229469E+00  0.14932212469E+01  0.51100000000E-03 0.  1.
        -12    1    3    3    0    0 -0.14072820059E+02 -0.59659449264E+01 -0.45209813701E+01  0.15939762728E+02  0.00000000000E+00 0.  1.
</event>
<event>
 7    1  0.1714203E-010  0.4778726E+02  0.7816164E-02  0.1312668E+00
        -11   -1    0    0    0    0  0.00000000000E+00  0.00000000000E+00  0.45593999997E+02  0.45594000000E+02  0.51100000000E-03 0.  1.
         11   -1    0    0    0    0 -0.00000000000E+00 -0.00000000000E+00 -0.45593999997E+02  0.45594000000E+02  0.51100000000E-03 0. -1.
    9900012    2    1    2    0    0 -0.55673455657E+01  0.41438658111E+02 -0.11639007449E+02  0.47787260178E+02  0.19999950455E+02 0.  0.
        -12    1    1    2    0    0  0.55673455657E+01 -0.41438658111E+02  0.11639007449E+02  0.43400739822E+02  0.00000000000E+00 0.  1.
         11    1    3    3    0    0 -0.13713613039E+01  0.16960501636E+02 -0.23107440019E+00  0.17017421756E+02  0.51100000000E-03 0. -1.
        -11    1    3    3    0    0  0.43439489814E+01  0.13546097682E+02 -0.85784300844E+01  0.16611926985E+02  0.51100000000E-03 0.  1.
         12    1    3    3    0    0 -0.85399332431E+01  0.10932058793E+02 -0.28295029643E+01  0.14157911438E+02  0.00000000000E+00 0. -1.
</event>
<event>
 7    1  0.1714203E-010  0.4778727E+02  0.7816164E-02  0.1312668E+00
        -11   -1    0    0    0    0  0.00000000000E+00  0.00000000000E+00  0.45593999997E+02  0.45594000000E+02  0.51100000000E-03 0.  1.
         11   -1    0    0    0    0 -0.00000000000E+00 -0.00000000000E+00 -0.45593999997E+02  0.45594000000E+02  0.51100000000E-03 0. -1.
    9900012    2    1    2    0    0  0.17041012405E+02 -0.22043376736E+01 -0.39854338866E+02  0.47787268039E+02  0.19999986295E+02 0.  0.
        -12    1    1    2    0    0 -0.17041012405E+02  0.22043376736E+01  0.39854338866E+02  0.43400731961E+02  0.00000000000E+00 0.  1.
         11    1    3    3    0    0  0.14383950935E+02  0.21782097986E+01 -0.17965722334E+02  0.23117305675E+02  0.51100000000E-03 0. -1.
        -11    1    3    3    0    0  0.60505998577E+01 -0.56111677913E+00 -0.14107596371E+02  0.15360627796E+02  0.51100000000E-03 0.  1.
        -12    1    3    3    0    0 -0.33935383882E+01 -0.38214306930E+01 -0.77810201613E+01  0.93093345673E+01  0.00000000000E+00 0.  1.
</event>
<event>
 7    1  0.1714203E-010  0.4778727E+02  0.7816164E-02  0.1312668E+00
        -11   -1    0    0    0    0  0.00000000000E+00  0.00000000000E+00  0.45593999997E+02  0.45594000000E+02  0.51100000000E-03 0. -1.
         11   -1    0    0    0    0 -0.00000000000E+00 -0.00000000000E+00 -0.45593999997E+02  0.45594000000E+02  0.51100000000E-03 0.  1.
    9900012    2    1    2    0    0 -0.10536009431E+02  0.39095673728E+02  0.15625114588E+02  0.47787269535E+02  0.19999993119E+02 0.  0.
        -12    1    1    2    0    0  0.10536009431E+02 -0.39095673728E+02 -0.15625114588E+02  0.43400730465E+02  0.00000000000E+00 0.  1.
         11    1    3    3    0    0 -0.14725719860E+02  0.21042699229E+02  0.10758860419E+02  0.27845917008E+02  0.51100000000E-03 0. -1.
        -11    1    3    3    0    0  0.18294317636E+01  0.29975376896E+01 -0.93683262340E+00  0.36345162545E+01  0.51100000000E-03 0.  1.
         12    1    3    3    0    0  0.23602786653E+01  0.15055436810E+02  0.58030867924E+01  0.16306836273E+02  0.00000000000E+00 0. -1.
</event>
<event>
 7    1  0.1714203E-010  0.4778727E+02  0.7816164E-02  0.1312668E+00
        -11   -1    0    0    0    0  0.00000000000E+00  0.00000000000E+00  0.45593999997E+02  0.45594000000E+02  0.51100000000E-03 0.  1.
         11   -1    0    0    0    0 -0.00000000000E+00 -0.00000000000E+00 -0.45593999997E+02  0.45594000000E+02  0.51100000000E-03 0. -1.
    9900012    2    1    2    0    0  0.34536033021E+02  0.92517928062E+01  0.24602642105E+02  0.47787271372E+02  0.20000001492E+02 0.  0.
        -12    1    1    2    0    0 -0.34536033021E+02 -0.92517928062E+01 -0.24602642105E+02  0.43400728628E+02  0.00000000000E+00 0.  1.
         11    1    3    3    0    0  0.13620834300E+02  0.10930605304E+02  0.53578927413E+01  0.18267793360E+02  0.51100000000E-03 0. -1.
        -11    1    3    3    0    0  0.56928762608E+01 -0.27224235783E+01  0.22974703066E+01  0.67155640367E+01  0.51100000000E-03 0.  1.
        -12    1    3    3    0    0  0.15222322460E+02  0.10436110802E+01  0.16947279057E+02  0.22803913975E+02  0.00000000000E+00 0.  1.
</event>
<event>
 7    1  0.1714203E-010  0.4778726E+02  0.7816164E-02  0.1312668E+00
        -11   -1    0    0    0    0  0.00000000000E+00  0.00000000000E+00  0.45593999997E+02  0.45594000000E+02  0.51100000000E-03 0. -1.
         11   -1    0    0    0    0 -0.00000000000E+00 -0.00000000000E+00 -0.45593999997E+02  0.45594000000E+02  0.51100000000E-03 0.  1.
    9900012    2    1    2    0    0 -0.22598800814E+02 -0.15267054015E+02  0.33761444725E+02  0.47787263988E+02  0.19999967825E+02 0.  0.
        -12    1    1    2    0    0  0.22598800814E+02  0.15267054015E+02 -0.33761444725E+02  0.43400736012E+02  0.00000000000E+00 0.  1.
         11    1    3    3    0    0 -0.10938936378E+02 -0.76518187877E+01  0.22376499637E+02  0.26056062560E+02  0.51100000000E-03 0. -1.
        -11    1    3    3    0    0  0.23560805025E+01 -0.22455979405E+01  0.34897490238E+01  0.47720199030E+01  0.51100000000E-03 0.  1.
        -12    1    3    3    0    0 -0.14015944938E+02 -0.53696372867E+01  0.78951960638E+01  0.16959181525E+02  0.00000000000E+00 0.  1.
</event>
<event>
 7    1  0.1714203E-010  0.4778728E+02  0.7816164E-02  0.1312668E+00
        -11   -1    0    0    0    0  0.00000000000E+00  0.00000000000E+00  0.45593999997E+02  0.45594000000E+02  0.51100000000E-03 0.  1.
         11   -1    0    0    0    0 -0.00000000000E+00 -0.00000000000E+00 -0.45593999997E+02  0.45594000000E+02  0.51100000000E-03 0. -1.
    9900012    2    1    2    0    0 -0.11859500671E+02 -0.36472512711E+02 -0.20315772108E+02  0.47787279546E+02  0.20000038760E+02 0.  0.
        -12    1    1    2    0    0  0.11859500671E+02  0.36472512711E+02  0.20315772108E+02  0.43400720454E+02  0.00000000000E+00 0.  1.
         11    1    3    3    0    0  0.79148735898E+00 -0.39400400998E+01  0.79897194872E+00  0.40974046253E+01  0.51100000000E-03 0. -1.
        -11    1    3    3    0    0 -0.47387308176E+01 -0.22375854964E+02 -0.56355827560E+01  0.23556193419E+02  0.51100000000E-03 0.  1.
         12    1    3    3    0    0 -0.79122572127E+01 -0.10156617647E+02 -0.15479161301E+02  0.20133681502E+02  0.00000000000E+00 0. -1.
</event>
<event>
 7    1  0.1714203E-010  0.4778727E+02  0.7816164E-02  0.1312668E+00
        -11   -1    0    0    0    0  0.00000000000E+00  0.00000000000E+00  0.45593999997E+02  0.45594000000E+02  0.51100000000E-03 0.  1.
         11   -1    0    0    0    0 -0.00000000000E+00 -0.00000000000E+00 -0.45593999997E+02  0.45594000000E+02  0.51100000000E-03 0. -1.
    9900012    2    1    2    0    0  0.20607751189E+02  0.92383447135E+01 -0.37062067548E+02  0.47787271054E+02  0.20000000045E+02 0.  0.
        -12    1    1    2    0    0 -0.20607751189E+02 -0.92383447135E+01  0.37062067548E+02  0.43400728946E+02  0.00000000000E+00 0.  1.
         11    1    3    3    0    0  0.13095904934E+02  0.66439507859E+01 -0.12440150028E+02  0.19245834382E+02  0.51100000000E-03 0. -1.
        -11    1    3    3    0    0  0.27020460292E+01 -0.44757059732E+01 -0.54667360609E+01  0.75642712883E+01  0.51100000000E-03 0.  1.
         12    1    3    3    0    0  0.48098002254E+01  0.70700999008E+01 -0.19155181459E+02  0.20977165383E+02  0.00000000000E+00 0. -1.
</event>
<event>
 7    1  0.1714203E-010  0.4778727E+02  0.7816164E-02  0.1312668E+00
        -11   -1    0    0    0    0  0.00000000000E+00  0.00000000000E+00  0.45593999997E+02  0.45594000000E+02  0.51100000000E-03 0.  1.
         11   -1    0    0    0    0 -0.00000000000E+00 -0.00000000000E+00 -0.45593999997E+02  0.45594000000E+02  0.51100000000E-03 0. -1.
    9900012    2    1    2    0    0 -0.18226374841E+02 -0.20173479089E+02 -0.33829769229E+02  0.47787270922E+02  0.19999999443E+02 0.  0.
        -12    1    1    2    0    0  0.18226374841E+02  0.20173479089E+02  0.33829769229E+02  0.43400729078E+02  0.00000000000E+00 0.  1.
         11    1    3    3    0    0 -0.90473914322E+01 -0.12140638639E+01 -0.10887944426E+02  0.14208327730E+02  0.51100000000E-03 0. -1.
        -11    1    3    3    0    0 -0.80009164110E+01 -0.11638736354E+02 -0.65101720364E+01  0.15551758342E+02  0.51100000000E-03 0.  1.
         12    1    3    3    0    0 -0.11780669978E+01 -0.73206788712E+01 -0.16431652766E+02  0.18027184850E+02  0.00000000000E+00 0. -1.
</event>
<event>
 7    1  0.1714203E-010  0.4778728E+02  0.7816164E-02  0.1312668E+00
        -11   -1    0    0    0    0  0.00000000000E+00  0.00000000000E+00  0.45593999997E+02  0.45594000000E+02  0.51100000000E-03 0.  1.
         11   -1    0    0    0    0 -0.00000000000E+00 -0.00000000000E+00 -0.45593999997E+02  0.45594000000E+02  0.51100000000E-03 0. -1.
    9900012    2    1    2    0    0 -0.33291788255E+02 -0.25945456167E+02  0.10105083738E+02  0.47787279058E+02  0.20000036537E+02 0.  0.
        -12    1    1    2    0    0  0.33291788255E+02  0.25945456167E+02 -0.10105083738E+02  0.43400720942E+02  0.00000000000E+00 0.  1.
         11    1    3    3    0    0  0.17437588694E+01 -0.56619717014E+01  0.31984318967E+00  0.59330361932E+01  0.51100000000E-03 0.  1.
        -11    1    3    3    0    0 -0.11837312354E+02 -0.47434860634E+01  0.24648325786E+01  0.12988380334E+02  0.51100000000E-03 0. -1.
        -12    1    3    3    0    0 -0.23198234771E+02 -0.15539998402E+02  0.73204079694E+01  0.28865862531E+02  0.00000000000E+00 0.  1.
</event>
<event>
 7    1  0.1714203E-010  0.4778727E+02  0.7816164E-02  0.1312668E+00
        -11   -1    0    0    0    0  0.00000000000E+00  0.00000000000E+00  0.45593999997E+02  0.45594000000E+02  0.51100000000E-03 0.  1.
         11   -1    0    0    0    0 -0.00000000000E+00 -0.00000000000E+00 -0.45593999997E+02  0.45594000000E+02  0.51100000000E-03 0. -1.
    9900012    2    1    2    0    0 -0.37920174020E+02 -0.20501390261E+02 -0.50375498166E+01  0.47787268341E+02  0.19999987676E+02 0.  0.
        -12    1    1    2    0    0  0.37920174020E+02  0.20501390261E+02  0.50375498166E+01  0.43400731659E+02  0.00000000000E+00 0.  1.
         11    1    3    3    0    0 -0.22459620617E+02 -0.12744737234E+02 -0.18569571729E+01  0.25890368395E+02  0.51100000000E-03 0. -1.
        -11    1    3    3    0    0 -0.49564532992E+01 -0.25224938574E+01  0.50903388149E+01  0.75392940041E+01  0.51100000000E-03 0.  1.
        -12    1    3    3    0    0 -0.10504100104E+02 -0.52341591698E+01 -0.82709314586E+01  0.14357605942E+02  0.00000000000E+00 0.  1.
</event>
<event>
 7    1  0.1714203E-010  0.4778727E+02  0.7816164E-02  0.1312668E+00
        -11   -1    0    0    0    0  0.00000000000E+00  0.00000000000E+00  0.45593999997E+02  0.45594000000E+02  0.51100000000E-03 0. -1.
         11   -1    0    0    0    0 -0.00000000000E+00 -0.00000000000E+00 -0.45593999997E+02  0.45594000000E+02  0.51100000000E-03 0.  1.
    9900012    2    1    2    0    0 -0.36158130890E+01 -0.28609616504E+02  0.32435153103E+02  0.47787269388E+02  0.19999992450E+02 0.  0.
        -12    1    1    2    0    0  0.36158130890E+01  0.28609616504E+02 -0.32435153103E+02  0.43400730612E+02  0.00000000000E+00 0.  1.
         11    1    3    3    0    0  0.25406849565E+00 -0.14827296833E+02  0.10363626461E+02  0.18091932895E+02  0.51100000000E-03 0. -1.
        -11    1    3    3    0    0  0.24053314328E+01 -0.69761285717E+01  0.18240148675E+02  0.19676255058E+02  0.51100000000E-03 0.  1.
         12    1    3    3    0    0 -0.62752130175E+01 -0.68061910987E+01  0.38313779668E+01  0.10019081435E+02  0.00000000000E+00 0. -1.
</event>
<event>
 7    1  0.1714203E-010  0.4778728E+02  0.7816164E-02  0.1312668E+00
        -11   -1    0    0    0    0  0.00000000000E+00  0.00000000000E+00  0.45593999997E+02  0.45594000000E+02  0.51100000000E-03 0. -1.
         11   -1    0    0    0    0 -0.00000000000E+00 -0.00000000000E+00 -0.45593999997E+02  0.45594000000E+02  0.51100000000E-03 0.  1.
    9900012    2    1    2    0    0  0.41731387671E+02  0.11125516910E+02 -0.42821788451E+01  0.47787275362E+02  0.20000019685E+02 0.  0.
        -12    1    1    2    0    0 -0.41731387671E+02 -0.11125516910E+02  0.42821788451E+01  0.43400724638E+02  0.00000000000E+00 0.  1.
         11    1    3    3    0    0  0.18121082709E+02  0.23921155476E+01 -0.21938977543E+01  0.18409482420E+02  0.51100000000E-03 0. -1.
        -11    1    3    3    0    0  0.10220004573E+02  0.95759436431E+01  0.41136987156E+01  0.14596907464E+02  0.51100000000E-03 0.  1.
        -12    1    3    3    0    0  0.13390300388E+02 -0.84254228119E+00 -0.62019798064E+01  0.14780885478E+02  0.00000000000E+00 0.  1.
</event>
<event>
 7    1  0.1714203E-010  0.4778727E+02  0.7816164E-02  0.1312668E+00
        -11   -1    0    0    0    0  0.00000000000E+00  0.00000000000E+00  0.45593999997E+02  0.45594000000E+02  0.51100000000E-03 0. -1.
         11   -1    0    0    0    0 -0.00000000000E+00 -0.00000000000E+00 -0.45593999997E+02  0.45594000000E+02  0.51100000000E-03 0.  1.
    9900012    2    1    2    0    0 -0.58954101412E+01 -0.41410207636E+02  0.11578510487E+02  0.47787273482E+02  0.20000011113E+02 0.  0.
        -12    1    1    2    0    0  0.58954101412E+01  0.41410207636E+02 -0.11578510487E+02  0.43400726518E+02  0.00000000000E+00 0.  1.
         11    1    3    3    0    0  0.29802794528E+01 -0.18888788461E+02  0.42802176984E+01  0.19595628567E+02  0.51100000000E-03 0. -1.
        -11    1    3    3    0    0 -0.60088410640E+00 -0.23428743824E+01  0.58546661374E+01  0.63346063747E+01  0.51100000000E-03 0.  1.
         12    1    3    3    0    0 -0.82748054876E+01 -0.20178544793E+02  0.14436266511E+01  0.21857038540E+02  0.00000000000E+00 0. -1.
</event>
<event>
 7    1  0.1714203E-010  0.4778727E+02  0.7816164E-02  0.1312668E+00
        -11   -1    0    0    0    0  0.00000000000E+00  0.00000000000E+00  0.45593999997E+02  0.45594000000E+02  0.51100000000E-03 0.  1.
         11   -1    0    0    0    0 -0.00000000000E+00 -0.00000000000E+00 -0.45593999997E+02  0.45594000000E+02  0.51100000000E-03 0. -1.
    9900012    2    1    2    0    0  0.29438849552E+01  0.31213820630E+02 -0.30010896162E+02  0.47787274828E+02  0.20000017253E+02 0.  0.
        -12    1    1    2    0    0 -0.29438849552E+01 -0.31213820630E+02  0.30010896162E+02  0.43400725172E+02  0.00000000000E+00 0.  1.
         11    1    3    3    0    0  0.25712408508E+01 -0.56717753790E+00 -0.51521834875E+01  0.57860145889E+01  0.51100000000E-03 0. -1.
        -11    1    3    3    0    0  0.58364405811E+01  0.18756238129E+02 -0.12964602428E+02  0.23535960226E+02  0.51100000000E-03 0.  1.
         12    1    3    3    0    0 -0.54637964767E+01  0.13024760039E+02 -0.11894110246E+02  0.18465300013E+02  0.00000000000E+00 0. -1.
</event>
<event>
 7    1  0.1714203E-010  0.4778727E+02  0.7816164E-02  0.1312668E+00
        -11   -1    0    0    0    0  0.00000000000E+00  0.00000000000E+00  0.45593999997E+02  0.45594000000E+02  0.51100000000E-03 0. -1.
         11   -1    0    0    0    0 -0.00000000000E+00 -0.00000000000E+00 -0.45593999997E+02  0.45594000000E+02  0.51100000000E-03 0.  1.
    9900012    2    1    2    0    0  0.43099102810E+02 -0.50162991173E+01  0.96299057641E+00  0.47787271081E+02  0.20000000166E+02 0.  0.
        -12    1    1    2    0    0 -0.43099102810E+02  0.50162991173E+01 -0.96299057641E+00  0.43400728919E+02  0.00000000000E+00 0.  1.
         11    1    3    3    0    0  0.20715006762E+02 -0.66914761176E+01  0.74750003888E+01  0.23016580738E+02  0.51100000000E-03 0. -1.
        -11    1    3    3    0    0  0.16912912692E+02 -0.23925891840E+01 -0.45883413738E+01  0.17686830568E+02  0.51100000000E-03 0.  1.
        -12    1    3    3    0    0  0.54711833560E+01  0.40677661843E+01 -0.19236684386E+01  0.70838597746E+01  0.00000000000E+00 0.  1.
</event>
<event>
 7    1  0.1714203E-010  0.4778727E+02  0.7816164E-02  0.1312668E+00
        -11   -1    0    0    0    0  0.00000000000E+00  0.00000000000E+00  0.45593999997E+02  0.45594000000E+02  0.51100000000E-03 0.  1.
         11   -1    0    0    0    0 -0.00000000000E+00 -0.00000000000E+00 -0.45593999997E+02  0.45594000000E+02  0.51100000000E-03 0. -1.
    9900012    2    1    2    0    0  0.14138591364E+02 -0.36635930475E+02 -0.18480594222E+02  0.47787268090E+02  0.19999986528E+02 0.  0.
        -12    1    1    2    0    0 -0.14138591364E+02  0.36635930475E+02  0.18480594222E+02  0.43400731910E+02  0.00000000000E+00 0.  1.
         11    1    3    3    0    0  0.90386362292E+01 -0.13625386313E+02 -0.18540200439E+01  0.16455560994E+02  0.51100000000E-03 0. -1.
        -11    1    3    3    0    0  0.86853722258E+01 -0.12307751121E+02 -0.75628551180E+01  0.16855657987E+02  0.51100000000E-03 0.  1.
        -12    1    3    3    0    0 -0.35854170909E+01 -0.10702793042E+02 -0.90637190598E+01  0.14476049109E+02  0.00000000000E+00 0.  1.
</event>
<event>
 7    1  0.1714203E-010  0.4778727E+02  0.7816164E-02  0.1312668E+00
        -11   -1    0    0    0    0  0.00000000000E+00  0.00000000000E+00  0.45593999997E+02  0.45594000000E+02  0.51100000000E-03 0.  1.
         11   -1    0    0    0    0 -0.00000000000E+00 -0.00000000000E+00 -0.45593999997E+02  0.45594000000E+02  0.51100000000E-03 0. -1.
    9900012    2    1    2    0    0  0.15885706815E+02 -0.31799914719E+00 -0.40387703164E+02  0.47787269922E+02  0.19999994880E+02 0.  0.
        -12    1    1    2    0    0 -0.15885706815E+02  0.31799914719E+00  0.40387703164E+02  0.43400730078E+02  0.00000000000E+00 0.  1.
         11    1    3    3    0    0 -0.32598900557E+01 -0.39971433011E+01 -0.50184953942E+01  0.71964806696E+01  0.51100000000E-03 0.  1.
        -11    1    3    3    0    0  0.62167942674E+01  0.24465709607E+01 -0.15178384790E+02  0.16583654770E+02  0.51100000000E-03 0. -1.
        -12    1    3    3    0    0  0.12928802604E+02  0.12325731932E+01 -0.20190822980E+02  0.24007134482E+02  0.00000000000E+00 0.  1.
</event>
<event>
 7    1  0.1714203E-010  0.4778727E+02  0.7816164E-02  0.1312668E+00
        -11   -1    0    0    0    0  0.00000000000E+00  0.00000000000E+00  0.45593999997E+02  0.45594000000E+02  0.51100000000E-03 0.  1.
         11   -1    0    0    0    0 -0.00000000000E+00 -0.00000000000E+00 -0.45593999997E+02  0.45594000000E+02  0.51100000000E-03 0. -1.
    9900012    2    1    2    0    0  0.11621758061E+02 -0.22100887678E+02 -0.35498010041E+02  0.47787271741E+02  0.20000003175E+02 0.  0.
        -12    1    1    2    0    0 -0.11621758061E+02  0.22100887678E+02  0.35498010041E+02  0.43400728259E+02  0.00000000000E+00 0.  1.
         11    1    3    3    0    0  0.82318937649E+00 -0.10666075959E+02 -0.25468509345E+02  0.27624043615E+02  0.51100000000E-03 0. -1.
        -11    1    3    3    0    0  0.17430774732E+01 -0.57564252251E+01 -0.85080713872E+00  0.60744237174E+01  0.51100000000E-03 0.  1.
        -12    1    3    3    0    0  0.90554912111E+01 -0.56783864933E+01 -0.91786935575E+01  0.14088804409E+02  0.00000000000E+00 0.  1.
</event>
<event>
 7    1  0.1714203E-010  0.4778727E+02  0.7816164E-02  0.1312668E+00
        -11   -1    0    0    0    0  0.00000000000E+00  0.00000000000E+00  0.45593999997E+02  0.45594000000E+02  0.51100000000E-03 0.  1.
         11   -1    0    0    0    0 -0.00000000000E+00 -0.00000000000E+00 -0.45593999997E+02  0.45594000000E+02  0.51100000000E-03 0. -1.
    9900012    2    1    2    0    0  0.17365818681E+01  0.23878774549E+02 -0.36199612681E+02  0.47787267877E+02  0.19999985558E+02 0.  0.
        -12    1    1    2    0    0 -0.17365818681E+01 -0.23878774549E+02  0.36199612681E+02  0.43400732123E+02  0.00000000000E+00 0.  1.
         11    1    3    3    0    0  0.78856767204E+00 -0.18642523676E+01 -0.37247836220E+01  0.42392557313E+01  0.51100000000E-03 0. -1.
        -11    1    3    3    0    0 -0.36904132761E+01  0.11159559994E+02 -0.65831773015E+01  0.13471939469E+02  0.51100000000E-03 0.  1.
        -12    1    3    3    0    0  0.46384274721E+01  0.14583466922E+02 -0.25891651758E+02  0.30076072676E+02  0.00000000000E+00 0.  1.
</event>
<event>
 7    1  0.1714203E-010  0.4778727E+02  0.7816164E-02  0.1312668E+00
        -11   -1    0    0    0    0  0.00000000000E+00  0.00000000000E+00  0.45593999997E+02  0.45594000000E+02  0.51100000000E-03 0.  1.
         11   -1    0    0    0    0 -0.00000000000E+00 -0.00000000000E+00 -0.45593999997E+02  0.45594000000E+02  0.51100000000E-03 0. -1.
    9900012    2    1    2    0    0 -0.10735674865E+02 -0.50109181903E+00 -0.42048988630E+02  0.47787271289E+02  0.20000001115E+02 0.  0.
        -12    1    1    2    0    0  0.10735674865E+02  0.50109181903E+00  0.42048988630E+02  0.43400728711E+02  0.00000000000E+00 0.  1.
         11    1    3    3    0    0 -0.29254093854E+01 -0.32619616499E+00 -0.38223064179E+02  0.38336236898E+02  0.51100000000E-03 0. -1.
        -11    1    3    3    0    0 -0.12303778486E+01 -0.14609895948E+01 -0.54137551170E+00  0.19852979505E+01  0.51100000000E-03 0.  1.
         12    1    3    3    0    0 -0.65798876311E+01  0.12860939408E+01 -0.32845489392E+01  0.74657364403E+01  0.00000000000E+00 0. -1.
</event>
<event>
 7    1  0.1714203E-010  0.4778727E+02  0.7816164E-02  0.1312668E+00
        -11   -1    0    0    0    0  0.00000000000E+00  0.00000000000E+00  0.45593999997E+02  0.45594000000E+02  0.51100000000E-03 0.  1.
         11   -1    0    0    0    0 -0.00000000000E+00 -0.00000000000E+00 -0.45593999997E+02  0.45594000000E+02  0.51100000000E-03 0. -1.
    9900012    2    1    2    0    0 -0.32196492180E+01  0.67521641040E+01 -0.42751204202E+02  0.47787270491E+02  0.19999997477E+02 0.  0.
        -12    1    1    2    0    0  0.32196492180E+01 -0.67521641040E+01  0.42751204202E+02  0.43400729509E+02  0.00000000000E+00 0.  1.
         11    1    3    3    0    0 -0.33408240426E+01 -0.12764464686E+01 -0.17561312106E+02  0.17921777368E+02  0.51100000000E-03 0. -1.
        -11    1    3    3    0    0  0.35362507245E+01 -0.10471954180E+01 -0.10254453535E+01  0.38279532213E+01  0.51100000000E-03 0.  1.
         12    1    3    3    0    0 -0.34150758999E+01  0.90758059905E+01 -0.24164446743E+02  0.26037539902E+02  0.00000000000E+00 0. -1.
</event>
<event>
 7    1  0.1714203E-010  0.4778727E+02  0.7816164E-02  0.1312668E+00
        -11   -1    0    0    0    0  0.00000000000E+00  0.00000000000E+00  0.45593999997E+02  0.45594000000E+02  0.51100000000E-03 0. -1.
         11   -1    0    0    0    0 -0.00000000000E+00 -0.00000000000E+00 -0.45593999997E+02  0.45594000000E+02  0.51100000000E-03 0.  1.
    9900012    2    1    2    0    0 -0.40390807244E+02  0.15819793846E+02  0.13929165291E+01  0.47787269550E+02  0.19999993185E+02 0.  0.
        -12    1    1    2    0    0  0.40390807244E+02 -0.15819793846E+02 -0.13929165291E+01  0.43400730450E+02  0.00000000000E+00 0.  1.
         11    1    3    3    0    0 -0.12450261654E+02  0.71554063854E+01 -0.65573291233E+01  0.15786304865E+02  0.51100000000E-03 0. -1.
        -11    1    3    3    0    0 -0.17391783978E+01 -0.18372745181E+01 -0.40654456517E+00  0.25623422681E+01  0.51100000000E-03 0.  1.
         12    1    3    3    0    0 -0.26201367192E+02  0.10501661979E+02  0.83567902175E+01  0.29438622417E+02  0.00000000000E+00 0. -1.
</event>
<event>
 7    1  0.1714203E-010  0.4778728E+02  0.7816164E-02  0.1312668E+00
        -11   -1    0    0    0    0  0.00000000000E+00  0.00000000000E+00  0.45593999997E+02  0.45594000000E+02  0.51100000000E-03 0.  1.
         11   -1    0    0    0    0 -0.00000000000E+00 -0.00000000000E+00 -0.45593999997E+02  0.45594000000E+02  0.51100000000E-03 0. -1.
    9900012    2    1    2    0    0 -0.24078961713E+02  0.19982756071E+02 -0.30075158240E+02  0.47787284793E+02  0.20000062683E+02 0.  0.
        -12    1    1    2    0    0  0.24078961713E+02 -0.19982756071E+02  0.30075158240E+02  0.43400715207E+02  0.00000000000E+00 0.  1.
         11    1    3    3    0    0 -0.31497555769E+01  0.11677696208E+02 -0.12620214078E+02  0.17480256077E+02  0.51100000000E-03 0. -1.
        -11    1    3    3    0    0 -0.94359955031E+01  0.60574678728E+01 -0.28178490696E+01  0.11561626261E+02  0.51100000000E-03 0.  1.
         12    1    3    3    0    0 -0.11493210633E+02  0.22475919907E+01 -0.14637095092E+02  0.18745402454E+02  0.00000000000E+00 0. -1.
</event>
<event>
 7    1  0.1714203E-010  0.4778727E+02  0.7816164E-02  0.1312668E+00
        -11   -1    0    0    0    0  0.00000000000E+00  0.00000000000E+00  0.45593999997E+02  0.45594000000E+02  0.51100000000E-03 0.  1.
         11   -1    0    0    0    0 -0.00000000000E+00 -0.00000000000E+00 -0.45593999997E+02  0.45594000000E+02  0.51100000000E-03 0. -1.
    9900012    2    1    2    0    0 -0.20405444812E+02  0.33125856924E+02 -0.19233270322E+02  0.47787271179E+02  0.20000000613E+02 0.  0.
        -12    1    1    2    0    0  0.20405444812E+02 -0.33125856924E+02  0.19233270322E+02  0.43400728821E+02  0.00000000000E+00 0.  1.
         11    1    3    3    0    0 -0.19909819349E+02  0.25367159624E+02 -0.16386913719E+02  0.36172152761E+02  0.51100000000E-03 0. -1.
        -11    1    3    3    0    0 -0.79704400233E+00 -0.16380670123E+01 -0.81945846550E+00  0.19975122318E+01  0.51100000000E-03 0.  1.
        -12    1    3    3    0    0  0.30141853963E+00  0.93967643128E+01 -0.20268981375E+01  0.96176061859E+01  0.00000000000E+00 0.  1.
</event>
<event>
 7    1  0.1714203E-010  0.4778727E+02  0.7816164E-02  0.1312668E+00
        -11   -1    0    0    0    0  0.00000000000E+00  0.00000000000E+00  0.45593999997E+02  0.45594000000E+02  0.51100000000E-03 0. -1.
         11   -1    0    0    0    0 -0.00000000000E+00 -0.00000000000E+00 -0.45593999997E+02  0.45594000000E+02  0.51100000000E-03 0.  1.
    9900012    2    1    2    0    0 -0.82835880938E+01  0.11732794747E+02  0.40955427403E+02  0.47787270305E+02  0.19999996627E+02 0.  0.
        -12    1    1    2    0    0  0.82835880938E+01 -0.11732794747E+02 -0.40955427403E+02  0.43400729695E+02  0.00000000000E+00 0.  1.
         11    1    3    3    0    0 -0.73998864937E+00  0.90065345646E+00  0.50789045096E+01  0.52109529962E+01  0.51100000000E-03 0. -1.
        -11    1    3    3    0    0  0.32966026994E+01 -0.30561687917E+01  0.12642170200E+02  0.13417608753E+02  0.51100000000E-03 0.  1.
         12    1    3    3    0    0 -0.10840202144E+02  0.13888310083E+02  0.23234352694E+02  0.29158708555E+02  0.00000000000E+00 0. -1.
</event>
<event>
 7    1  0.1714203E-010  0.4778727E+02  0.7816164E-02  0.1312668E+00
        -11   -1    0    0    0    0  0.00000000000E+00  0.00000000000E+00  0.45593999997E+02  0.45594000000E+02  0.51100000000E-03 0. -1.
         11   -1    0    0    0    0 -0.00000000000E+00 -0.00000000000E+00 -0.45593999997E+02  0.45594000000E+02  0.51100000000E-03 0.  1.
    9900012    2    1    2    0    0  0.51179780143E+01 -0.41386437383E+02  0.12024661725E+02  0.47787269732E+02  0.19999994014E+02 0.  0.
        -12    1    1    2    0    0 -0.51179780143E+01  0.41386437383E+02 -0.12024661725E+02  0.43400730268E+02  0.00000000000E+00 0.  1.
         11    1    3    3    0    0  0.23502909670E+01 -0.38345442672E+01  0.44551238948E+01  0.63305391987E+01  0.51100000000E-03 0. -1.
        -11    1    3    3    0    0  0.34071297602E+01 -0.13339877598E+02  0.10141602327E+02  0.17100086712E+02  0.51100000000E-03 0.  1.
         12    1    3    3    0    0 -0.63944271286E+00 -0.24212015518E+02 -0.25720644977E+01  0.24356643821E+02  0.00000000000E+00 0. -1.
</event>
<event>
 7    1  0.1714203E-010  0.4778727E+02  0.7816164E-02  0.1312668E+00
        -11   -1    0    0    0    0  0.00000000000E+00  0.00000000000E+00  0.45593999997E+02  0.45594000000E+02  0.51100000000E-03 0.  1.
         11   -1    0    0    0    0 -0.00000000000E+00 -0.00000000000E+00 -0.45593999997E+02  0.45594000000E+02  0.51100000000E-03 0. -1.
    9900012    2    1    2    0    0  0.22031764436E+02  0.60369210026E+01 -0.36902308036E+02  0.47787269618E+02  0.19999993494E+02 0.  0.
        -12    1    1    2    0    0 -0.22031764436E+02 -0.60369210026E+01  0.36902308036E+02  0.43400730382E+02  0.00000000000E+00 0.  1.
         11    1    3    3    0    0  0.12959645507E+02  0.11347428048E+01 -0.24494231831E+02  0.27734589345E+02  0.51100000000E-03 0. -1.
        -11    1    3    3    0    0  0.53847003591E+01 -0.34622730010E+01 -0.67457533130E+01  0.92998666825E+01  0.51100000000E-03 0.  1.
        -12    1    3    3    0    0  0.36874185693E+01  0.83644511988E+01 -0.56623228922E+01  0.10752813590E+02  0.00000000000E+00 0.  1.
</event>
<event>
 7    1  0.1714203E-010  0.4778727E+02  0.7816164E-02  0.1312668E+00
        -11   -1    0    0    0    0  0.00000000000E+00  0.00000000000E+00  0.45593999997E+02  0.45594000000E+02  0.51100000000E-03 0.  1.
         11   -1    0    0    0    0 -0.00000000000E+00 -0.00000000000E+00 -0.45593999997E+02  0.45594000000E+02  0.51100000000E-03 0. -1.
    9900012    2    1    2    0    0  0.96090621648E+01 -0.15458689664E+02 -0.39399466258E+02  0.47787273010E+02  0.20000008962E+02 0.  0.
        -12    1    1    2    0    0 -0.96090621648E+01  0.15458689664E+02  0.39399466258E+02  0.43400726990E+02  0.00000000000E+00 0.  1.
         11    1    3    3    0    0  0.67110990732E+01 -0.79409634847E+01 -0.14695623094E+02  0.18001641320E+02  0.51100000000E-03 0.  1.
        -11    1    3    3    0    0 -0.20103852433E+00 -0.20617105499E+01 -0.23253378247E+02  0.23345463521E+02  0.51100000000E-03 0. -1.
        -12    1    3    3    0    0  0.30990016159E+01 -0.54560156298E+01 -0.14504649177E+01  0.64401681690E+01  0.00000000000E+00 0.  1.
</event>
<event>
 7    1  0.2166039E-010  0.4778727E+02  0.7816164E-02  0.1312668E+00
        -11   -1    0    0    0    0  0.00000000000E+00  0.00000000000E+00  0.45593999997E+02  0.45594000000E+02  0.51100000000E-03 0. -1.
         11   -1    0    0    0    0 -0.00000000000E+00 -0.00000000000E+00 -0.45593999997E+02  0.45594000000E+02  0.51100000000E-03 0.  1.
    9900012    2    1    2    0    0  0.37772692858E+02  0.92210932365E+00  0.21354086655E+02  0.47787266962E+02  0.19999981387E+02 0.  0.
        -12    1    1    2    0    0 -0.37772692858E+02 -0.92210932365E+00 -0.21354086655E+02  0.43400733038E+02  0.00000000000E+00 0.  1.
         11    1    3    3    0    0  0.15848481562E+02 -0.13034916997E+01  0.63032665427E+01  0.17105689924E+02  0.51100000000E-03 0. -1.
        -11    1    3    3    0    0  0.78862364156E+01 -0.14661104660E+01  0.13991426018E+02  0.16127684489E+02  0.51100000000E-03 0.  1.
        -12    1    3    3    0    0  0.14037974881E+02  0.36917114893E+01  0.10593940946E+01  0.14553892549E+02  0.00000000000E+00 0.  1.
</event>
<event>
 7    1  0.1714203E-010  0.4778727E+02  0.7816164E-02  0.1312668E+00
        -11   -1    0    0    0    0  0.00000000000E+00  0.00000000000E+00  0.45593999997E+02  0.45594000000E+02  0.51100000000E-03 0.  1.
         11   -1    0    0    0    0 -0.00000000000E+00 -0.00000000000E+00 -0.45593999997E+02  0.45594000000E+02  0.51100000000E-03 0. -1.
    9900012    2    1    2    0    0 -0.41082039507E+01 -0.24838112697E+02 -0.35352711730E+02  0.47787269491E+02  0.19999992918E+02 0.  0.
        -12    1    1    2    0    0  0.41082039507E+01  0.24838112697E+02  0.35352711730E+02  0.43400730509E+02  0.00000000000E+00 0.  1.
         11    1    3    3    0    0  0.21915987191E+01 -0.18409594830E+02 -0.31365248009E+02  0.36434805746E+02  0.51100000000E-03 0. -1.
        -11    1    3    3    0    0 -0.39439135947E+01 -0.69643751980E+01 -0.39751395856E+01  0.89363701426E+01  0.51100000000E-03 0.  1.
        -12    1    3    3    0    0 -0.23558890751E+01  0.53585733154E+00 -0.12324134812E-01  0.24160936030E+01  0.00000000000E+00 0.  1.
</event>
<event>
 7    1  0.1714203E-010  0.4778727E+02  0.7816164E-02  0.1312668E+00
        -11   -1    0    0    0    0  0.00000000000E+00  0.00000000000E+00  0.45593999997E+02  0.45594000000E+02  0.51100000000E-03 0.  1.
         11   -1    0    0    0    0 -0.00000000000E+00 -0.00000000000E+00 -0.45593999997E+02  0.45594000000E+02  0.51100000000E-03 0. -1.
    9900012    2    1    2    0    0 -0.39012300501E+02 -0.18603508979E+02 -0.39462510189E+01  0.47787273810E+02  0.20000012610E+02 0.  0.
        -12    1    1    2    0    0  0.39012300501E+02  0.18603508979E+02  0.39462510189E+01  0.43400726190E+02  0.00000000000E+00 0.  1.
         11    1    3    3    0    0 -0.84401499377E+01 -0.32647687861E+01  0.24952748760E+01  0.93872915778E+01  0.51100000000E-03 0. -1.
        -11    1    3    3    0    0 -0.17020274049E+02 -0.16268698290E+02 -0.76653494988E+01  0.24761216770E+02  0.51100000000E-03 0.  1.
        -12    1    3    3    0    0 -0.13551876515E+02  0.92995809658E+00  0.12238236040E+01  0.13638765463E+02  0.00000000000E+00 0.  1.
</event>
<event>
 7    1  0.1714203E-010  0.4778728E+02  0.7816164E-02  0.1312668E+00
        -11   -1    0    0    0    0  0.00000000000E+00  0.00000000000E+00  0.45593999997E+02  0.45594000000E+02  0.51100000000E-03 0.  1.
         11   -1    0    0    0    0 -0.00000000000E+00 -0.00000000000E+00 -0.45593999997E+02  0.45594000000E+02  0.51100000000E-03 0. -1.
    9900012    2    1    2    0    0  0.21927587560E+02 -0.18732087803E+02 -0.32433201449E+02  0.47787276897E+02  0.20000026685E+02 0.  0.
        -12    1    1    2    0    0 -0.21927587560E+02  0.18732087803E+02  0.32433201449E+02  0.43400723103E+02  0.00000000000E+00 0.  1.
         11    1    3    3    0    0  0.29535310735E+01  0.14433089136E+01 -0.45410346951E+01  0.56060220108E+01  0.51100000000E-03 0. -1.
        -11    1    3    3    0    0  0.64125240523E+01 -0.13625285619E+01 -0.38467484596E+00  0.65669569667E+01  0.51100000000E-03 0.  1.
         12    1    3    3    0    0  0.12561532434E+02 -0.18812868154E+02 -0.27507491907E+02  0.35614297920E+02  0.00000000000E+00 0. -1.
</event>
<event>
 7    1  0.1714203E-010  0.4778727E+02  0.7816164E-02  0.1312668E+00
        -11   -1    0    0    0    0  0.00000000000E+00  0.00000000000E+00  0.45593999997E+02  0.45594000000E+02  0.51100000000E-03 0.  1.
         11   -1    0    0    0    0 -0.00000000000E+00 -0.00000000000E+00 -0.45593999997E+02  0.45594000000E+02  0.51100000000E-03 0. -1.
    9900012    2    1    2    0    0  0.26040217262E+02 -0.11584993217E+02 -0.32731005363E+02  0.47787266193E+02  0.19999977880E+02 0.  0.
        -12    1    1    2    0    0 -0.26040217262E+02  0.11584993217E+02  0.32731005363E+02  0.43400733807E+02  0.00000000000E+00 0.  1.
         11    1    3    3    0    0  0.67391800215E+00 -0.46304135146E+01 -0.33807028411E+01  0.57726983942E+01  0.51100000000E-03 0. -1.
        -11    1    3    3    0    0  0.10676039496E+02  0.12893940345E+01 -0.20101594140E+02  0.22797246402E+02  0.51100000000E-03 0.  1.
         12    1    3    3    0    0  0.14690259764E+02 -0.82439737369E+01 -0.92487083824E+01  0.19217321397E+02  0.00000000000E+00 0. -1.
</event>
<event>
 7    1  0.1714203E-010  0.4778727E+02  0.7816164E-02  0.1312668E+00
        -11   -1    0    0    0    0  0.00000000000E+00  0.00000000000E+00  0.45593999997E+02  0.45594000000E+02  0.51100000000E-03 0.  1.
         11   -1    0    0    0    0 -0.00000000000E+00 -0.00000000000E+00 -0.45593999997E+02  0.45594000000E+02  0.51100000000E-03 0. -1.
    9900012    2    1    2    0    0  0.28899106798E+02  0.27263202024E+02 -0.17469486538E+02  0.47787268230E+02  0.19999987168E+02 0.  0.
        -12    1    1    2    0    0 -0.28899106798E+02 -0.27263202024E+02  0.17469486538E+02  0.43400731770E+02  0.00000000000E+00 0.  1.
         11    1    3    3    0    0  0.18497517106E+02  0.18067653954E+02 -0.13366678105E+02  0.29107839877E+02  0.51100000000E-03 0. -1.
        -11    1    3    3    0    0  0.29867718935E+01 -0.11816085037E+01 -0.49461334746E+01  0.58975623446E+01  0.51100000000E-03 0.  1.
         12    1    3    3    0    0  0.74148177981E+01  0.10377156573E+02  0.84332504222E+00  0.12781866008E+02  0.00000000000E+00 0. -1.
</event>
<event>
 7    1  0.1714203E-010  0.4778727E+02  0.7816164E-02  0.1312668E+00
        -11   -1    0    0    0    0  0.00000000000E+00  0.00000000000E+00  0.45593999997E+02  0.45594000000E+02  0.51100000000E-03 0.  1.
         11   -1    0    0    0    0 -0.00000000000E+00 -0.00000000000E+00 -0.45593999997E+02  0.45594000000E+02  0.51100000000E-03 0. -1.
    9900012    2    1    2    0    0 -0.31481385677E+02  0.24530657765E+02 -0.17052639354E+02  0.47787270473E+02  0.19999997397E+02 0.  0.
        -12    1    1    2    0    0  0.31481385677E+02 -0.24530657765E+02  0.17052639354E+02  0.43400729527E+02  0.00000000000E+00 0.  1.
         11    1    3    3    0    0 -0.84542725170E+01  0.84661769127E+01 -0.36704277491E+01  0.12514907728E+02  0.51100000000E-03 0. -1.
        -11    1    3    3    0    0 -0.24619888120E+01  0.62344468675E+00 -0.87891042174E+01  0.91486843532E+01  0.51100000000E-03 0.  1.
        -12    1    3    3    0    0 -0.20565124348E+02  0.15441036165E+02 -0.45931073879E+01  0.26123678393E+02  0.00000000000E+00 0.  1.
</event>
<event>
 7    1  0.1714203E-010  0.4778727E+02  0.7816164E-02  0.1312668E+00
        -11   -1    0    0    0    0  0.00000000000E+00  0.00000000000E+00  0.45593999997E+02  0.45594000000E+02  0.51100000000E-03 0.  1.
         11   -1    0    0    0    0 -0.00000000000E+00 -0.00000000000E+00 -0.45593999997E+02  0.45594000000E+02  0.51100000000E-03 0. -1.
    9900012    2    1    2    0    0 -0.38711016964E+02  0.10771774594E+01 -0.19593882196E+02  0.47787269992E+02  0.19999995203E+02 0.  0.
        -12    1    1    2    0    0  0.38711016964E+02 -0.10771774594E+01  0.19593882196E+02  0.43400730008E+02  0.00000000000E+00 0.  1.
         11    1    3    3    0    0 -0.27390138128E+01 -0.10826282818E+01 -0.78958128311E+01  0.84272261859E+01  0.51100000000E-03 0. -1.
        -11    1    3    3    0    0 -0.35219149442E+01 -0.22759691764E+01 -0.38236402512E+01  0.56748696547E+01  0.51100000000E-03 0.  1.
        -12    1    3    3    0    0 -0.32450088207E+02  0.44357749177E+01 -0.78744291140E+01  0.33685174152E+02  0.00000000000E+00 0.  1.
</event>
<event>
 7    1  0.1714203E-010  0.4778727E+02  0.7816164E-02  0.1312668E+00
        -11   -1    0    0    0    0  0.00000000000E+00  0.00000000000E+00  0.45593999997E+02  0.45594000000E+02  0.51100000000E-03 0.  1.
         11   -1    0    0    0    0 -0.00000000000E+00 -0.00000000000E+00 -0.45593999997E+02  0.45594000000E+02  0.51100000000E-03 0. -1.
    9900012    2    1    2    0    0 -0.80103349489E+01  0.42278408278E+02  0.56563017413E+01  0.47787273947E+02  0.20000013235E+02 0.  0.
        -12    1    1    2    0    0  0.80103349489E+01 -0.42278408278E+02 -0.56563017413E+01  0.43400726053E+02  0.00000000000E+00 0.  1.
         11    1    3    3    0    0  0.42181302898E+01  0.73738209661E+01 -0.38694091474E+01  0.93347836715E+01  0.51100000000E-03 0. -1.
        -11    1    3    3    0    0 -0.39379245087E+01  0.81093251884E+01  0.40112006607E+01  0.98670226233E+01  0.51100000000E-03 0.  1.
        -12    1    3    3    0    0 -0.82905407300E+01  0.26795262123E+02  0.55145102280E+01  0.28585467653E+02  0.00000000000E+00 0.  1.
</event>
<event>
 7    1  0.1714203E-010  0.4778725E+02  0.7816164E-02  0.1312668E+00
        -11   -1    0    0    0    0  0.00000000000E+00  0.00000000000E+00  0.45593999997E+02  0.45594000000E+02  0.51100000000E-03 0.  1.
         11   -1    0    0    0    0 -0.00000000000E+00 -0.00000000000E+00 -0.45593999997E+02  0.45594000000E+02  0.51100000000E-03 0. -1.
    9900012    2    1    2    0    0 -0.16037781100E+02 -0.77675270643E+00 -0.40321354328E+02  0.47787246755E+02  0.19999889254E+02 0.  0.
        -12    1    1    2    0    0  0.16037781100E+02  0.77675270643E+00  0.40321354328E+02  0.43400753245E+02  0.00000000000E+00 0.  1.
         11    1    3    3    0    0 -0.63520266662E+00  0.94444211186E-02 -0.20078441118E+02  0.20088488485E+02  0.51100000000E-03 0. -1.
        -11    1    3    3    0    0 -0.14164585325E+02 -0.31801100596E+01 -0.20354834442E+02  0.25001357220E+02  0.51100000000E-03 0.  1.
        -12    1    3    3    0    0 -0.12379931083E+01  0.23939129320E+01  0.11192123142E+00  0.26974010500E+01  0.00000000000E+00 0.  1.
</event>
<event>
 7    1  0.1714203E-010  0.4778729E+02  0.7816164E-02  0.1312668E+00
        -11   -1    0    0    0    0  0.00000000000E+00  0.00000000000E+00  0.45593999997E+02  0.45594000000E+02  0.51100000000E-03 0. -1.
         11   -1    0    0    0    0 -0.00000000000E+00 -0.00000000000E+00 -0.45593999997E+02  0.45594000000E+02  0.51100000000E-03 0.  1.
    9900012    2    1    2    0    0 -0.24975489759E+02  0.23686501785E+02  0.26434760461E+02  0.47787285534E+02  0.20000066063E+02 0.  0.
        -12    1    1    2    0    0  0.24975489759E+02 -0.23686501785E+02 -0.26434760461E+02  0.43400714466E+02  0.00000000000E+00 0.  1.
         11    1    3    3    0    0 -0.15096721062E+02  0.21328469990E+02  0.24211846520E+02  0.35623421103E+02  0.51100000000E-03 0. -1.
        -11    1    3    3    0    0  0.68381914950E+00  0.10209675079E+01  0.68396082621E+00  0.14063377811E+01  0.51100000000E-03 0.  1.
        -12    1    3    3    0    0 -0.10562587847E+02  0.13370642877E+01  0.15389531151E+01  0.10757526650E+02  0.00000000000E+00 0.  1.
</event>
<event>
 7    1  0.1714203E-010  0.4778728E+02  0.7816164E-02  0.1312668E+00
        -11   -1    0    0    0    0  0.00000000000E+00  0.00000000000E+00  0.45593999997E+02  0.45594000000E+02  0.51100000000E-03 0.  1.
         11   -1    0    0    0    0 -0.00000000000E+00 -0.00000000000E+00 -0.45593999997E+02  0.45594000000E+02  0.51100000000E-03 0. -1.
    9900012    2    1    2    0    0  0.28575462694E+02 -0.84814151999E+00 -0.32654948459E+02  0.47787284901E+02  0.20000063176E+02 0.  0.
        -12    1    1    2    0    0 -0.28575462694E+02  0.84814151999E+00  0.32654948459E+02  0.43400715099E+02  0.00000000000E+00 0.  1.
         11    1    3    3    0    0  0.11652764295E+02  0.61641793559E+01 -0.18497120506E+02  0.22714037292E+02  0.51100000000E-03 0. -1.
        -11    1    3    3    0    0  0.16370443412E+02 -0.53699436684E+01 -0.15263800003E+02  0.23017630272E+02  0.51100000000E-03 0.  1.
        -12    1    3    3    0    0  0.55225498749E+00 -0.16423772075E+01  0.11059720495E+01  0.20556173373E+01  0.00000000000E+00 0.  1.
</event>
<event>
 7    1  0.1714203E-010  0.4778727E+02  0.7816164E-02  0.1312668E+00
        -11   -1    0    0    0    0  0.00000000000E+00  0.00000000000E+00  0.45593999997E+02  0.45594000000E+02  0.51100000000E-03 0.  1.
         11   -1    0    0    0    0 -0.00000000000E+00 -0.00000000000E+00 -0.45593999997E+02  0.45594000000E+02  0.51100000000E-03 0. -1.
    9900012    2    1    2    0    0  0.23145125459E+02 -0.69389173945E+01 -0.36052431722E+02  0.47787271433E+02  0.20000001771E+02 0.  0.
        -12    1    1    2    0    0 -0.23145125459E+02  0.69389173945E+01  0.36052431722E+02  0.43400728567E+02  0.00000000000E+00 0.  1.
         11    1    3    3    0    0  0.53349456926E+01 -0.42394221006E+01 -0.14258651017E+02  0.15803274166E+02  0.51100000000E-03 0. -1.
        -11    1    3    3    0    0  0.46785729669E+01  0.60353575049E+01 -0.69263058288E+01  0.10309621618E+02  0.51100000000E-03 0.  1.
         12    1    3    3    0    0  0.13131606799E+02 -0.87348527988E+01 -0.14867474876E+02  0.21674375648E+02  0.00000000000E+00 0. -1.
</event>
<event>
 7    1  0.1714203E-010  0.4778728E+02  0.7816164E-02  0.1312668E+00
        -11   -1    0    0    0    0  0.00000000000E+00  0.00000000000E+00  0.45593999997E+02  0.45594000000E+02  0.51100000000E-03 0.  1.
         11   -1    0    0    0    0 -0.00000000000E+00 -0.00000000000E+00 -0.45593999997E+02  0.45594000000E+02  0.51100000000E-03 0. -1.
    9900012    2    1    2    0    0 -0.18647179550E+02  0.43514381891E+01 -0.38948305669E+02  0.47787276112E+02  0.20000023106E+02 0.  0.
        -12    1    1    2    0    0  0.18647179550E+02 -0.43514381891E+01  0.38948305669E+02  0.43400723888E+02  0.00000000000E+00 0.  1.
         11    1    3    3    0    0 -0.88264193795E+01  0.34786661476E+01 -0.87522749123E+01  0.12907715275E+02  0.51100000000E-03 0. -1.
        -11    1    3    3    0    0  0.80410598574E+00 -0.36298323843E+01 -0.16084975638E+01  0.40508683326E+01  0.51100000000E-03 0.  1.
         12    1    3    3    0    0 -0.10624866156E+02  0.45026044259E+01 -0.28587533193E+02  0.30828692504E+02  0.00000000000E+00 0. -1.
</event>
<event>
 7    1  0.1714203E-010  0.4778727E+02  0.7816164E-02  0.1312668E+00
        -11   -1    0    0    0    0  0.00000000000E+00  0.00000000000E+00  0.45593999997E+02  0.45594000000E+02  0.51100000000E-03 0. -1.
         11   -1    0    0    0    0 -0.00000000000E+00 -0.00000000000E+00 -0.45593999997E+02  0.45594000000E+02  0.51100000000E-03 0.  1.
    9900012    2    1    2    0    0 -0.39219727671E+01 -0.35568226098E+02  0.24558958161E+02  0.47787274152E+02  0.20000014170E+02 0.  0.
        -12    1    1    2    0    0  0.39219727671E+01  0.35568226098E+02 -0.24558958161E+02  0.43400725848E+02  0.00000000000E+00 0.  1.
         11    1    3    3    0    0 -0.25193441304E+01 -0.20420647855E+02  0.12193971663E+02  0.23917418315E+02  0.51100000000E-03 0. -1.
        -11    1    3    3    0    0  0.53397025168E+01 -0.43591027711E+01  0.13115824523E+01  0.70167263540E+01  0.51100000000E-03 0.  1.
         12    1    3    3    0    0 -0.67423311534E+01 -0.10788475472E+02  0.11053404045E+02  0.16853129483E+02  0.00000000000E+00 0. -1.
</event>
<event>
 7    1  0.1714203E-010  0.4778727E+02  0.7816164E-02  0.1312668E+00
        -11   -1    0    0    0    0  0.00000000000E+00  0.00000000000E+00  0.45593999997E+02  0.45594000000E+02  0.51100000000E-03 0. -1.
         11   -1    0    0    0    0 -0.00000000000E+00 -0.00000000000E+00 -0.45593999997E+02  0.45594000000E+02  0.51100000000E-03 0.  1.
    9900012    2    1    2    0    0 -0.37653697741E+02 -0.13345968467E+02  0.16961938643E+02  0.47787272006E+02  0.20000004385E+02 0.  0.
        -12    1    1    2    0    0  0.37653697741E+02  0.13345968467E+02 -0.16961938643E+02  0.43400727994E+02  0.00000000000E+00 0.  1.
         11    1    3    3    0    0 -0.47147779319E+01 -0.34703248122E+01  0.33065464858E+01  0.67235061667E+01  0.51100000000E-03 0. -1.
        -11    1    3    3    0    0 -0.33915330151E+02 -0.64549908860E+01  0.99548372073E+01  0.35930701506E+02  0.51100000000E-03 0.  1.
        -12    1    3    3    0    0  0.97641034227E+00 -0.34206527689E+01  0.37005549495E+01  0.51330643340E+01  0.00000000000E+00 0.  1.
</event>
<event>
 7    1  0.1714203E-010  0.4778727E+02  0.7816164E-02  0.1312668E+00
        -11   -1    0    0    0    0  0.00000000000E+00  0.00000000000E+00  0.45593999997E+02  0.45594000000E+02  0.51100000000E-03 0.  1.
         11   -1    0    0    0    0 -0.00000000000E+00 -0.00000000000E+00 -0.45593999997E+02  0.45594000000E+02  0.51100000000E-03 0. -1.
    9900012    2    1    2    0    0 -0.41555890418E+02  0.38026703422E+01 -0.11927755383E+02  0.47787266382E+02  0.19999978741E+02 0.  0.
        -12    1    1    2    0    0  0.41555890418E+02 -0.38026703422E+01  0.11927755383E+02  0.43400733618E+02  0.00000000000E+00 0.  1.
         11    1    3    3    0    0 -0.23816564616E+02 -0.52333567915E+01 -0.81468119675E+01  0.25709673645E+02  0.51100000000E-03 0. -1.
        -11    1    3    3    0    0 -0.16527516381E+02  0.47832503827E+01 -0.20444441785E+01  0.17326801038E+02  0.51100000000E-03 0.  1.
        -12    1    3    3    0    0 -0.12118094200E+01  0.42527767510E+01 -0.17364992366E+01  0.47507916986E+01  0.00000000000E+00 0.  1.
</event>
<event>
 7    1  0.1714203E-010  0.4778727E+02  0.7816164E-02  0.1312668E+00
        -11   -1    0    0    0    0  0.00000000000E+00  0.00000000000E+00  0.45593999997E+02  0.45594000000E+02  0.51100000000E-03 0. -1.
         11   -1    0    0    0    0 -0.00000000000E+00 -0.00000000000E+00 -0.45593999997E+02  0.45594000000E+02  0.51100000000E-03 0.  1.
    9900012    2    1    2    0    0 -0.28277974943E+02 -0.32625012109E+02  0.44258211320E+01  0.47787272187E+02  0.20000005210E+02 0.  0.
        -12    1    1    2    0    0  0.28277974943E+02  0.32625012109E+02 -0.44258211320E+01  0.43400727813E+02  0.00000000000E+00 0.  1.
         11    1    3    3    0    0  0.13351858253E+01  0.28542393152E+00 -0.90747039209E+00  0.16394178181E+01  0.51100000000E-03 0. -1.
        -11    1    3    3    0    0 -0.12983038725E+02 -0.13028879502E+02 -0.35798064472E+01  0.18738356653E+02  0.51100000000E-03 0.  1.
         12    1    3    3    0    0 -0.16630122043E+02 -0.19881556539E+02  0.89130979712E+01  0.27409497716E+02  0.00000000000E+00 0. -1.
</event>
<event>
 7    1  0.1714203E-010  0.4778727E+02  0.7816164E-02  0.1312668E+00
        -11   -1    0    0    0    0  0.00000000000E+00  0.00000000000E+00  0.45593999997E+02  0.45594000000E+02  0.51100000000E-03 0.  1.
         11   -1    0    0    0    0 -0.00000000000E+00 -0.00000000000E+00 -0.45593999997E+02  0.45594000000E+02  0.51100000000E-03 0. -1.
    9900012    2    1    2    0    0  0.24162275203E+02  0.86675985607E+01 -0.34995433491E+02  0.47787272207E+02  0.20000005300E+02 0.  0.
        -12    1    1    2    0    0 -0.24162275203E+02 -0.86675985607E+01  0.34995433491E+02  0.43400727793E+02  0.00000000000E+00 0.  1.
         11    1    3    3    0    0  0.26511066622E+02  0.99715632332E+01 -0.26302676220E+02  0.38653583319E+02  0.51100000000E-03 0. -1.
        -11    1    3    3    0    0 -0.10865788041E+01 -0.42124497170E+00 -0.25994684169E+01  0.28487430799E+01  0.51100000000E-03 0.  1.
         12    1    3    3    0    0 -0.12622126157E+01 -0.88271970086E+00 -0.60932888538E+01  0.62849458084E+01  0.00000000000E+00 0. -1.
</event>
<event>
 7    1  0.1714203E-010  0.4778727E+02  0.7816164E-02  0.1312668E+00
        -11   -1    0    0    0    0  0.00000000000E+00  0.00000000000E+00  0.45593999997E+02  0.45594000000E+02  0.51100000000E-03 0. -1.
         11   -1    0    0    0    0 -0.00000000000E+00 -0.00000000000E+00 -0.45593999997E+02  0.45594000000E+02  0.51100000000E-03 0.  1.
    9900012    2    1    2    0    0  0.10741875117E+02  0.41496260329E+02 -0.68041243864E+01  0.47787267160E+02  0.19999982291E+02 0.  0.
        -12    1    1    2    0    0 -0.10741875117E+02 -0.41496260329E+02  0.68041243864E+01  0.43400732840E+02  0.00000000000E+00 0.  1.
         11    1    3    3    0    0  0.66716572457E+01  0.18744788364E+02 -0.82562976283E+01  0.21541693341E+02  0.51100000000E-03 0. -1.
        -11    1    3    3    0    0  0.44526024120E+01  0.69744712099E+01 -0.44513161096E+01  0.93959104012E+01  0.51100000000E-03 0.  1.
        -12    1    3    3    0    0 -0.38238454110E+00  0.15777000756E+02  0.59034893515E+01  0.16849663418E+02  0.00000000000E+00 0.  1.
</event>
<event>
 7    1  0.1714203E-010  0.4778727E+02  0.7816164E-02  0.1312668E+00
        -11   -1    0    0    0    0  0.00000000000E+00  0.00000000000E+00  0.45593999997E+02  0.45594000000E+02  0.51100000000E-03 0.  1.
         11   -1    0    0    0    0 -0.00000000000E+00 -0.00000000000E+00 -0.45593999997E+02  0.45594000000E+02  0.51100000000E-03 0. -1.
    9900012    2    1    2    0    0 -0.21794669517E+02  0.37276393434E+02 -0.43687518421E+01  0.47787272824E+02  0.20000008112E+02 0.  0.
        -12    1    1    2    0    0  0.21794669517E+02 -0.37276393434E+02  0.43687518421E+01  0.43400727176E+02  0.00000000000E+00 0.  1.
         11    1    3    3    0    0 -0.78881594905E+01  0.13356602719E+02 -0.11996834713E+01  0.15558314081E+02  0.51100000000E-03 0. -1.
        -11    1    3    3    0    0 -0.84222669480E+01  0.16683692130E+02  0.56975402245E+01  0.19538222245E+02  0.51100000000E-03 0.  1.
        -12    1    3    3    0    0 -0.54842430787E+01  0.72360985846E+01 -0.88666085953E+01  0.12690736498E+02  0.00000000000E+00 0.  1.
</event>
<event>
 7    1  0.1714203E-010  0.4778727E+02  0.7816164E-02  0.1312668E+00
        -11   -1    0    0    0    0  0.00000000000E+00  0.00000000000E+00  0.45593999997E+02  0.45594000000E+02  0.51100000000E-03 0.  1.
         11   -1    0    0    0    0 -0.00000000000E+00 -0.00000000000E+00 -0.45593999997E+02  0.45594000000E+02  0.51100000000E-03 0. -1.
    9900012    2    1    2    0    0  0.31387835430E+02 -0.26952849456E+02 -0.13113763592E+02  0.47787273021E+02  0.20000009011E+02 0.  0.
        -12    1    1    2    0    0 -0.31387835430E+02  0.26952849456E+02  0.13113763592E+02  0.43400726979E+02  0.00000000000E+00 0.  1.
         11    1    3    3    0    0  0.83640565496E+01 -0.11040298363E+02 -0.51976690826E+01  0.14793964785E+02  0.51100000000E-03 0. -1.
        -11    1    3    3    0    0  0.17479803863E+02 -0.68229799346E+01  0.14403313662E+01  0.18819435511E+02  0.51100000000E-03 0.  1.
        -12    1    3    3    0    0  0.55439750181E+01 -0.90895711581E+01 -0.93564258755E+01  0.14173872724E+02  0.00000000000E+00 0.  1.
</event>
<event>
 7    1  0.1714203E-010  0.4778727E+02  0.7816164E-02  0.1312668E+00
        -11   -1    0    0    0    0  0.00000000000E+00  0.00000000000E+00  0.45593999997E+02  0.45594000000E+02  0.51100000000E-03 0.  1.
         11   -1    0    0    0    0 -0.00000000000E+00 -0.00000000000E+00 -0.45593999997E+02  0.45594000000E+02  0.51100000000E-03 0. -1.
    9900012    2    1    2    0    0  0.15322665218E+02 -0.33200908434E+02 -0.23378172573E+02  0.47787270247E+02  0.19999996365E+02 0.  0.
        -12    1    1    2    0    0 -0.15322665218E+02  0.33200908434E+02  0.23378172573E+02  0.43400729753E+02  0.00000000000E+00 0.  1.
         11    1    3    3    0    0  0.74570819263E+00 -0.54538055173E+01 -0.89894373556E+01  0.10540875654E+02  0.51100000000E-03 0.  1.
        -11    1    3    3    0    0  0.57684790773E+01 -0.16291407702E+02 -0.14853246253E+02  0.22788247855E+02  0.51100000000E-03 0. -1.
        -12    1    3    3    0    0  0.88084779477E+01 -0.11455695214E+02  0.46451103520E+00  0.14458146738E+02  0.00000000000E+00 0.  1.
</event>
<event>
 7    1  0.1714203E-010  0.4778727E+02  0.7816164E-02  0.1312668E+00
        -11   -1    0    0    0    0  0.00000000000E+00  0.00000000000E+00  0.45593999997E+02  0.45594000000E+02  0.51100000000E-03 0.  1.
         11   -1    0    0    0    0 -0.00000000000E+00 -0.00000000000E+00 -0.45593999997E+02  0.45594000000E+02  0.51100000000E-03 0. -1.
    9900012    2    1    2    0    0 -0.20266107055E+02  0.37658128057E+02 -0.74009222830E+01  0.47787270115E+02  0.19999995760E+02 0.  0.
        -12    1    1    2    0    0  0.20266107055E+02 -0.37658128057E+02  0.74009222830E+01  0.43400729885E+02  0.00000000000E+00 0.  1.
         11    1    3    3    0    0 -0.13473859714E+02  0.16764779083E+02 -0.44037033152E+01  0.21954391735E+02  0.51100000000E-03 0. -1.
        -11    1    3    3    0    0 -0.51396090162E+01  0.18956953952E+01  0.24496310390E+01  0.60008278062E+01  0.51100000000E-03 0.  1.
        -12    1    3    3    0    0 -0.16526383244E+01  0.18997653579E+02 -0.54468500068E+01  0.19832050573E+02  0.00000000000E+00 0.  1.
</event>
<event>
 7    1  0.1714203E-010  0.4778728E+02  0.7816164E-02  0.1312668E+00
        -11   -1    0    0    0    0  0.00000000000E+00  0.00000000000E+00  0.45593999997E+02  0.45594000000E+02  0.51100000000E-03 0.  1.
         11   -1    0    0    0    0 -0.00000000000E+00 -0.00000000000E+00 -0.45593999997E+02  0.45594000000E+02  0.51100000000E-03 0. -1.
    9900012    2    1    2    0    0 -0.13788203729E+01  0.30201759183E+02 -0.31138002549E+02  0.47787278738E+02  0.20000035077E+02 0.  0.
        -12    1    1    2    0    0  0.13788203729E+01 -0.30201759183E+02  0.31138002549E+02  0.43400721262E+02  0.00000000000E+00 0.  1.
         11    1    3    3    0    0  0.22379696867E+01  0.53625613026E+01 -0.18731509807E+02  0.19612114418E+02  0.51100000000E-03 0. -1.
        -11    1    3    3    0    0 -0.19630565766E+01  0.63081056194E+01 -0.22528310711E+01  0.69800455389E+01  0.51100000000E-03 0.  1.
         12    1    3    3    0    0 -0.16537334829E+01  0.18531092261E+02 -0.10153661671E+02  0.21195118781E+02  0.00000000000E+00 0. -1.
</event>
<event>
 7    1  0.1714203E-010  0.4778727E+02  0.7816164E-02  0.1312668E+00
        -11   -1    0    0    0    0  0.00000000000E+00  0.00000000000E+00  0.45593999997E+02  0.45594000000E+02  0.51100000000E-03 0. -1.
         11   -1    0    0    0    0 -0.00000000000E+00 -0.00000000000E+00 -0.45593999997E+02  0.45594000000E+02  0.51100000000E-03 0.  1.
    9900012    2    1    2    0    0  0.41470924804E+01 -0.36031773586E+02  0.23835603324E+02  0.47787273398E+02  0.20000010729E+02 0.  0.
        -12    1    1    2    0    0 -0.41470924804E+01  0.36031773586E+02 -0.23835603324E+02  0.43400726602E+02  0.00000000000E+00 0.  1.
         11    1    3    3    0    0  0.11371413730E+01 -0.11061819721E+02  0.13753486813E+02  0.17686586608E+02  0.51100000000E-03 0. -1.
        -11    1    3    3    0    0 -0.39098687860E+01 -0.42729101750E+01 -0.56399748480E+00  0.58191862586E+01  0.51100000000E-03 0.  1.
         12    1    3    3    0    0  0.69198198935E+01 -0.20697043690E+02  0.10646113995E+02  0.24281500532E+02  0.00000000000E+00 0. -1.
</event>
<event>
 7    1  0.1714203E-010  0.4778726E+02  0.7816164E-02  0.1312668E+00
        -11   -1    0    0    0    0  0.00000000000E+00  0.00000000000E+00  0.45593999997E+02  0.45594000000E+02  0.51100000000E-03 0. -1.
         11   -1    0    0    0    0 -0.00000000000E+00 -0.00000000000E+00 -0.45593999997E+02  0.45594000000E+02  0.51100000000E-03 0.  1.
    9900012    2    1    2    0    0  0.57039262505E+01  0.21237387925E+02  0.37417416594E+02  0.47787257090E+02  0.19999936378E+02 0.  0.
        -12    1    1    2    0    0 -0.57039262505E+01 -0.21237387925E+02 -0.37417416594E+02  0.43400742910E+02  0.00000000000E+00 0.  1.
         11    1    3    3    0    0  0.77034802864E+01  0.52323581498E+01  0.11691296478E+02  0.14946825547E+02  0.51100000000E-03 0. -1.
        -11    1    3    3    0    0 -0.37012628968E+01 -0.13898175166E+00  0.79311224947E+01  0.87533631962E+01  0.51100000000E-03 0.  1.
        -12    1    3    3    0    0  0.17017088609E+01  0.16144011527E+02  0.17794997621E+02  0.24087068347E+02  0.00000000000E+00 0.  1.
</event>
<event>
 7    1  0.1714203E-010  0.4778727E+02  0.7816164E-02  0.1312668E+00
        -11   -1    0    0    0    0  0.00000000000E+00  0.00000000000E+00  0.45593999997E+02  0.45594000000E+02  0.51100000000E-03 0. -1.
         11   -1    0    0    0    0 -0.00000000000E+00 -0.00000000000E+00 -0.45593999997E+02  0.45594000000E+02  0.51100000000E-03 0.  1.
    9900012    2    1    2    0    0 -0.36074702073E+02 -0.24092013509E+02 -0.13469961949E+01  0.47787266788E+02  0.19999980594E+02 0.  0.
        -12    1    1    2    0    0  0.36074702073E+02  0.24092013509E+02  0.13469961949E+01  0.43400733212E+02  0.00000000000E+00 0.  1.
         11    1    3    3    0    0 -0.92967170309E+01 -0.12239168561E+02  0.14288270915E+01  0.15435923741E+02  0.51100000000E-03 0. -1.
        -11    1    3    3    0    0 -0.13116225804E+02 -0.59539342290E+01 -0.81254648555E+01  0.16538073997E+02  0.51100000000E-03 0.  1.
         12    1    3    3    0    0 -0.13661759238E+02 -0.58989107188E+01  0.53496415691E+01  0.15813269050E+02  0.00000000000E+00 0. -1.
</event>
<event>
 7    1  0.1714203E-010  0.4778727E+02  0.7816164E-02  0.1312668E+00
        -11   -1    0    0    0    0  0.00000000000E+00  0.00000000000E+00  0.45593999997E+02  0.45594000000E+02  0.51100000000E-03 0. -1.
         11   -1    0    0    0    0 -0.00000000000E+00 -0.00000000000E+00 -0.45593999997E+02  0.45594000000E+02  0.51100000000E-03 0.  1.
    9900012    2    1    2    0    0 -0.24059672078E+02  0.35489867960E+02  0.67249286981E+01  0.47787271730E+02  0.20000003127E+02 0.  0.
        -12    1    1    2    0    0  0.24059672078E+02 -0.35489867960E+02 -0.67249286981E+01  0.43400728270E+02  0.00000000000E+00 0.  1.
         11    1    3    3    0    0 -0.21355120315E+02  0.25667760227E+02  0.64392347414E+01  0.34004982327E+02  0.51100000000E-03 0. -1.
        -11    1    3    3    0    0 -0.65730424743E+00 -0.81384416630E+00  0.25151421031E+01  0.27240284985E+01  0.51100000000E-03 0.  1.
        -12    1    3    3    0    0 -0.20472475157E+01  0.10635951899E+02 -0.22294481465E+01  0.11058260905E+02  0.00000000000E+00 0.  1.
</event>
<event>
 7    1  0.1714203E-010  0.4778727E+02  0.7816164E-02  0.1312668E+00
        -11   -1    0    0    0    0  0.00000000000E+00  0.00000000000E+00  0.45593999997E+02  0.45594000000E+02  0.51100000000E-03 0.  1.
         11   -1    0    0    0    0 -0.00000000000E+00 -0.00000000000E+00 -0.45593999997E+02  0.45594000000E+02  0.51100000000E-03 0. -1.
    9900012    2    1    2    0    0  0.26177728282E+02  0.31540499168E+02 -0.14266981968E+02  0.47787270510E+02  0.19999997564E+02 0.  0.
        -12    1    1    2    0    0 -0.26177728282E+02 -0.31540499168E+02  0.14266981968E+02  0.43400729490E+02  0.00000000000E+00 0.  1.
         11    1    3    3    0    0  0.12210221245E+02  0.19292675461E+02 -0.11054592036E+02  0.25367318239E+02  0.51100000000E-03 0. -1.
        -11    1    3    3    0    0  0.72007976834E+01 -0.50227841136E+00 -0.34120893128E+01  0.79841170219E+01  0.51100000000E-03 0.  1.
         12    1    3    3    0    0  0.67667093536E+01  0.12750102118E+02  0.19969938025E+00  0.14435835249E+02  0.00000000000E+00 0. -1.
</event>
<event>
 7    1  0.1714203E-010  0.4778726E+02  0.7816164E-02  0.1312668E+00
        -11   -1    0    0    0    0  0.00000000000E+00  0.00000000000E+00  0.45593999997E+02  0.45594000000E+02  0.51100000000E-03 0.  1.
         11   -1    0    0    0    0 -0.00000000000E+00 -0.00000000000E+00 -0.45593999997E+02  0.45594000000E+02  0.51100000000E-03 0. -1.
    9900012    2    1    2    0    0 -0.26600885823E+02 -0.13096010444E+02 -0.31694037176E+02  0.47787255667E+02  0.19999929888E+02 0.  0.
        -12    1    1    2    0    0  0.26600885823E+02  0.13096010444E+02  0.31694037176E+02  0.43400744333E+02  0.00000000000E+00 0.  1.
         11    1    3    3    0    0 -0.30812693149E+01 -0.94592942648E+00 -0.90875830844E+01  0.96422595717E+01  0.51100000000E-03 0. -1.
        -11    1    3    3    0    0 -0.11552700697E+02 -0.10467517621E+01 -0.18634858111E+01  0.11748751520E+02  0.51100000000E-03 0.  1.
         12    1    3    3    0    0 -0.11966915811E+02 -0.11103329256E+02 -0.20742968280E+02  0.26396244575E+02  0.00000000000E+00 0. -1.
</event>
<event>
 7    1  0.1714203E-010  0.4778728E+02  0.7816164E-02  0.1312668E+00
        -11   -1    0    0    0    0  0.00000000000E+00  0.00000000000E+00  0.45593999997E+02  0.45594000000E+02  0.51100000000E-03 0. -1.
         11   -1    0    0    0    0 -0.00000000000E+00 -0.00000000000E+00 -0.45593999997E+02  0.45594000000E+02  0.51100000000E-03 0.  1.
    9900012    2    1    2    0    0 -0.40713600884E+02 -0.60647947792E+01  0.13756587281E+02  0.47787277353E+02  0.20000028765E+02 0.  0.
        -12    1    1    2    0    0  0.40713600884E+02  0.60647947792E+01 -0.13756587281E+02  0.43400722647E+02  0.00000000000E+00 0.  1.
         11    1    3    3    0    0 -0.13774010682E+02 -0.57251568222E+01 -0.13470892235E+01  0.14977163968E+02  0.51100000000E-03 0. -1.
        -11    1    3    3    0    0 -0.11689840379E+00  0.13770050065E+01  0.30599105311E+01  0.33575081153E+01  0.51100000000E-03 0.  1.
         12    1    3    3    0    0 -0.26822691798E+02 -0.17166429635E+01  0.12043765973E+02  0.29452605270E+02  0.00000000000E+00 0. -1.
</event>
<event>
 7    1  0.1714203E-010  0.4778726E+02  0.7816164E-02  0.1312668E+00
        -11   -1    0    0    0    0  0.00000000000E+00  0.00000000000E+00  0.45593999997E+02  0.45594000000E+02  0.51100000000E-03 0. -1.
         11   -1    0    0    0    0 -0.00000000000E+00 -0.00000000000E+00 -0.45593999997E+02  0.45594000000E+02  0.51100000000E-03 0.  1.
    9900012    2    1    2    0    0  0.19521816860E+02 -0.43860173027E+00  0.38759911021E+02  0.47787257986E+02  0.19999940460E+02 0.  0.
        -12    1    1    2    0    0 -0.19521816860E+02  0.43860173027E+00 -0.38759911021E+02  0.43400742014E+02  0.00000000000E+00 0.  1.
         11    1    3    3    0    0  0.22667712256E+01 -0.99014553125E+00  0.23162365206E+02  0.23294072253E+02  0.51100000000E-03 0. -1.
        -11    1    3    3    0    0  0.50320880694E+01  0.19250396535E+01  0.11320993401E+01  0.55053916466E+01  0.51100000000E-03 0.  1.
        -12    1    3    3    0    0  0.12222957566E+02 -0.13734958525E+01  0.14465446475E+02  0.18987794086E+02  0.00000000000E+00 0.  1.
</event>
<event>
 7    1  0.1714203E-010  0.4778729E+02  0.7816164E-02  0.1312668E+00
        -11   -1    0    0    0    0  0.00000000000E+00  0.00000000000E+00  0.45593999997E+02  0.45594000000E+02  0.51100000000E-03 0.  1.
         11   -1    0    0    0    0 -0.00000000000E+00 -0.00000000000E+00 -0.45593999997E+02  0.45594000000E+02  0.51100000000E-03 0. -1.
    9900012    2    1    2    0    0 -0.69327149188E+01  0.29299297543E+02 -0.31258767294E+02  0.47787286811E+02  0.20000071884E+02 0.  0.
        -12    1    1    2    0    0  0.69327149188E+01 -0.29299297543E+02  0.31258767294E+02  0.43400713189E+02  0.00000000000E+00 0.  1.
         11    1    3    3    0    0 -0.52473724733E+00  0.93532171354E+01 -0.13424408334E+02  0.16369873529E+02  0.51100000000E-03 0. -1.
        -11    1    3    3    0    0  0.80793942346E-01  0.16145969201E+00  0.23862914523E+01  0.23931117921E+01  0.51100000000E-03 0.  1.
         12    1    3    3    0    0 -0.64887716138E+01  0.19784620715E+02 -0.20220650412E+02  0.29024301490E+02  0.00000000000E+00 0. -1.
</event>
<event>
 7    1  0.1714203E-010  0.4778727E+02  0.7816164E-02  0.1312668E+00
        -11   -1    0    0    0    0  0.00000000000E+00  0.00000000000E+00  0.45593999997E+02  0.45594000000E+02  0.51100000000E-03 0. -1.
         11   -1    0    0    0    0 -0.00000000000E+00 -0.00000000000E+00 -0.45593999997E+02  0.45594000000E+02  0.51100000000E-03 0.  1.
    9900012    2    1    2    0    0  0.26057402901E+02 -0.33775345528E+02  0.79913226198E+01  0.47787269031E+02  0.19999990818E+02 0.  0.
        -12    1    1    2    0    0 -0.26057402901E+02  0.33775345528E+02 -0.79913226198E+01  0.43400730969E+02  0.00000000000E+00 0.  1.
         11    1    3    3    0    0 -0.20082580173E+00 -0.10176134865E+01  0.19079828823E+01  0.21716968368E+01  0.51100000000E-03 0. -1.
        -11    1    3    3    0    0  0.25935293533E+02 -0.27275104291E+02  0.29805077374E+00  0.37638538750E+02  0.51100000000E-03 0.  1.
        -12    1    3    3    0    0  0.32293517010E+00 -0.54826277501E+01  0.57852889637E+01  0.79770334438E+01  0.00000000000E+00 0.  1.
</event>
<event>
 7    1  0.1714203E-010  0.4778728E+02  0.7816164E-02  0.1312668E+00
        -11   -1    0    0    0    0  0.00000000000E+00  0.00000000000E+00  0.45593999997E+02  0.45594000000E+02  0.51100000000E-03 0.  1.
         11   -1    0    0    0    0 -0.00000000000E+00 -0.00000000000E+00 -0.45593999997E+02  0.45594000000E+02  0.51100000000E-03 0. -1.
    9900012    2    1    2    0    0 -0.15782298837E+02  0.12881382064E+02 -0.38322471566E+02  0.47787276650E+02  0.20000025556E+02 0.  0.
        -12    1    1    2    0    0  0.15782298837E+02 -0.12881382064E+02  0.38322471566E+02  0.43400723350E+02  0.00000000000E+00 0.  1.
         11    1    3    3    0    0 -0.35653533448E+01  0.85885775655E+01 -0.22930004985E+02  0.24743899004E+02  0.51100000000E-03 0. -1.
        -11    1    3    3    0    0 -0.53914622276E+00  0.36305448996E+01  0.50677945427E-01  0.36707088461E+01  0.51100000000E-03 0.  1.
         12    1    3    3    0    0 -0.11677799269E+02  0.66225959881E+00 -0.15443144526E+02  0.19372668799E+02  0.00000000000E+00 0. -1.
</event>
<event>
 7    1  0.1714203E-010  0.4778727E+02  0.7816164E-02  0.1312668E+00
        -11   -1    0    0    0    0  0.00000000000E+00  0.00000000000E+00  0.45593999997E+02  0.45594000000E+02  0.51100000000E-03 0.  1.
         11   -1    0    0    0    0 -0.00000000000E+00 -0.00000000000E+00 -0.45593999997E+02  0.45594000000E+02  0.51100000000E-03 0. -1.
    9900012    2    1    2    0    0 -0.12149873216E+02  0.19415802652E+01 -0.41620118543E+02  0.47787269354E+02  0.19999992293E+02 0.  0.
        -12    1    1    2    0    0  0.12149873216E+02 -0.19415802652E+01  0.41620118543E+02  0.43400730646E+02  0.00000000000E+00 0.  1.
         11    1    3    3    0    0 -0.76319914974E+01  0.48042724137E+01 -0.19101347530E+02  0.21123205376E+02  0.51100000000E-03 0. -1.
        -11    1    3    3    0    0 -0.44928778761E+01 -0.43429273467E+01 -0.27284738921E+01  0.68184704728E+01  0.51100000000E-03 0.  1.
         12    1    3    3    0    0 -0.25003842200E-01  0.14802351982E+01 -0.19790297121E+02  0.19845593505E+02  0.00000000000E+00 0. -1.
</event>
<event>
 7    1  0.1714203E-010  0.4778729E+02  0.7816164E-02  0.1312668E+00
        -11   -1    0    0    0    0  0.00000000000E+00  0.00000000000E+00  0.45593999997E+02  0.45594000000E+02  0.51100000000E-03 0. -1.
         11   -1    0    0    0    0 -0.00000000000E+00 -0.00000000000E+00 -0.45593999997E+02  0.45594000000E+02  0.51100000000E-03 0.  1.
    9900012    2    1    2    0    0 -0.38797820283E+02  0.19338409954E+02 -0.20920138100E+01  0.47787291710E+02  0.20000094222E+02 0.  0.
        -12    1    1    2    0    0  0.38797820283E+02 -0.19338409954E+02  0.20920138100E+01  0.43400708290E+02  0.00000000000E+00 0.  1.
         11    1    3    3    0    0 -0.11262597700E+02  0.25164269001E+01  0.49820659008E+01  0.12569784890E+02  0.51100000000E-03 0. -1.
        -11    1    3    3    0    0 -0.17821830396E+02  0.15407181063E+02 -0.80832190784E+00  0.23572277182E+02  0.51100000000E-03 0.  1.
         12    1    3    3    0    0 -0.97133921878E+01  0.14148019910E+01 -0.62657578030E+01  0.11645229638E+02  0.00000000000E+00 0. -1.
</event>
<event>
 7    1  0.1714203E-010  0.4778727E+02  0.7816164E-02  0.1312668E+00
        -11   -1    0    0    0    0  0.00000000000E+00  0.00000000000E+00  0.45593999997E+02  0.45594000000E+02  0.51100000000E-03 0.  1.
         11   -1    0    0    0    0 -0.00000000000E+00 -0.00000000000E+00 -0.45593999997E+02  0.45594000000E+02  0.51100000000E-03 0. -1.
    9900012    2    1    2    0    0 -0.77855690894E+00  0.89760880681E+00 -0.43384458570E+02  0.47787273073E+02  0.20000009247E+02 0.  0.
        -12    1    1    2    0    0  0.77855690894E+00 -0.89760880681E+00  0.43384458570E+02  0.43400726927E+02  0.00000000000E+00 0.  1.
         11    1    3    3    0    0  0.90090194181E+00 -0.29824126634E+01 -0.27261532993E+02  0.27438979408E+02  0.51100000000E-03 0. -1.
        -11    1    3    3    0    0 -0.22506621995E+01  0.50066741624E+00 -0.16712385390E+02  0.16870683859E+02  0.51100000000E-03 0.  1.
        -12    1    3    3    0    0  0.57120334880E+00  0.33793540540E+01  0.58945981230E+00  0.34776098054E+01  0.00000000000E+00 0.  1.
</event>
<event>
 7    1  0.1714203E-010  0.4778727E+02  0.7816164E-02  0.1312668E+00
        -11   -1    0    0    0    0  0.00000000000E+00  0.00000000000E+00  0.45593999997E+02  0.45594000000E+02  0.51100000000E-03 0. -1.
         11   -1    0    0    0    0 -0.00000000000E+00 -0.00000000000E+00 -0.45593999997E+02  0.45594000000E+02  0.51100000000E-03 0.  1.
    9900012    2    1    2    0    0 -0.10974742596E+02  0.40645662622E+02  0.10540792025E+02  0.47787272339E+02  0.20000005901E+02 0.  0.
        -12    1    1    2    0    0  0.10974742596E+02 -0.40645662622E+02 -0.10540792025E+02  0.43400727661E+02  0.00000000000E+00 0.  1.
         11    1    3    3    0    0 -0.75532038584E+01  0.18300662774E+02  0.14849846205E+02  0.24748395485E+02  0.51100000000E-03 0.  1.
        -11    1    3    3    0    0 -0.12117549907E+01  0.11332029907E+02 -0.19763169893E+01  0.11566723005E+02  0.51100000000E-03 0. -1.
        -12    1    3    3    0    0 -0.22097837467E+01  0.11012969941E+02 -0.23327371913E+01  0.11472153849E+02  0.00000000000E+00 0.  1.
</event>
<event>
 7    1  0.1714203E-010  0.4778727E+02  0.7816164E-02  0.1312668E+00
        -11   -1    0    0    0    0  0.00000000000E+00  0.00000000000E+00  0.45593999997E+02  0.45594000000E+02  0.51100000000E-03 0.  1.
         11   -1    0    0    0    0 -0.00000000000E+00 -0.00000000000E+00 -0.45593999997E+02  0.45594000000E+02  0.51100000000E-03 0. -1.
    9900012    2    1    2    0    0  0.24828054203E+02  0.22855958122E+02 -0.27290955628E+02  0.47787270096E+02  0.19999995674E+02 0.  0.
        -12    1    1    2    0    0 -0.24828054203E+02 -0.22855958122E+02  0.27290955628E+02  0.43400729904E+02  0.00000000000E+00 0.  1.
         11    1    3    3    0    0  0.87113295438E+01  0.14116015277E+02 -0.72208503594E+01  0.18091153360E+02  0.51100000000E-03 0. -1.
        -11    1    3    3    0    0 -0.10200116108E+01  0.11304695511E+01 -0.61710478641E+01  0.63561165104E+01  0.51100000000E-03 0.  1.
        -12    1    3    3    0    0  0.17136736270E+02  0.76094732937E+01 -0.13899057404E+02  0.23340000225E+02  0.00000000000E+00 0.  1.
</event>
<event>
 7    1  0.1714203E-010  0.4778726E+02  0.7816164E-02  0.1312668E+00
        -11   -1    0    0    0    0  0.00000000000E+00  0.00000000000E+00  0.45593999997E+02  0.45594000000E+02  0.51100000000E-03 0.  1.
         11   -1    0    0    0    0 -0.00000000000E+00 -0.00000000000E+00 -0.45593999997E+02  0.45594000000E+02  0.51100000000E-03 0. -1.
    9900012    2    1    2    0    0  0.19919912870E+01 -0.17360382297E+02 -0.39727487934E+02  0.47787260371E+02  0.19999951336E+02 0.  0.
        -12    1    1    2    0    0 -0.19919912870E+01  0.17360382297E+02  0.39727487934E+02  0.43400739629E+02  0.00000000000E+00 0.  1.
         11    1    3    3    0    0  0.50010920401E+01 -0.12265160698E+02 -0.24909097874E+02  0.28211845840E+02  0.51100000000E-03 0. -1.
        -11    1    3    3    0    0  0.12361052930E+01 -0.20443965044E+01  0.12370510533E+01  0.26903176266E+01  0.51100000000E-03 0.  1.
        -12    1    3    3    0    0 -0.42452060461E+01 -0.30508250944E+01 -0.16055441113E+02  0.16885096905E+02  0.00000000000E+00 0.  1.
</event>
<event>
 7    1  0.1714203E-010  0.4778727E+02  0.7816164E-02  0.1312668E+00
        -11   -1    0    0    0    0  0.00000000000E+00  0.00000000000E+00  0.45593999997E+02  0.45594000000E+02  0.51100000000E-03 0.  1.
         11   -1    0    0    0    0 -0.00000000000E+00 -0.00000000000E+00 -0.45593999997E+02  0.45594000000E+02  0.51100000000E-03 0. -1.
    9900012    2    1    2    0    0 -0.36668225603E+02 -0.18938781238E+02 -0.13430827826E+02  0.47787270286E+02  0.19999996541E+02 0.  0.
        -12    1    1    2    0    0  0.36668225603E+02  0.18938781238E+02  0.13430827826E+02  0.43400729714E+02  0.00000000000E+00 0.  1.
         11    1    3    3    0    0 -0.18932650787E+02 -0.87242296095E+01 -0.25173204061E+01  0.20997484383E+02  0.51100000000E-03 0. -1.
        -11    1    3    3    0    0 -0.46852449058E+01 -0.62698451396E+01  0.19277524697E+01  0.80609371507E+01  0.51100000000E-03 0.  1.
         12    1    3    3    0    0 -0.13050329910E+02 -0.39447064885E+01 -0.12841259890E+02  0.18728848753E+02  0.00000000000E+00 0. -1.
</event>
<event>
 7    1  0.1714203E-010  0.4778728E+02  0.7816164E-02  0.1312668E+00
        -11   -1    0    0    0    0  0.00000000000E+00  0.00000000000E+00  0.45593999997E+02  0.45594000000E+02  0.51100000000E-03 0.  1.
         11   -1    0    0    0    0 -0.00000000000E+00 -0.00000000000E+00 -0.45593999997E+02  0.45594000000E+02  0.51100000000E-03 0. -1.
    9900012    2    1    2    0    0  0.43269763168E+02 -0.32040955298E+01  0.10412856841E+01  0.47787275252E+02  0.20000019185E+02 0.  0.
        -12    1    1    2    0    0 -0.43269763168E+02  0.32040955298E+01 -0.10412856841E+01  0.43400724748E+02  0.00000000000E+00 0.  1.
         11    1    3    3    0    0  0.17891113898E+02 -0.30190993741E+01 -0.14986152055E+01  0.18205844263E+02  0.51100000000E-03 0. -1.
        -11    1    3    3    0    0 -0.54162662832E+00  0.27314791129E+01 -0.15373609698E+01  0.31808515466E+01  0.51100000000E-03 0.  1.
        -12    1    3    3    0    0  0.25920275898E+02 -0.29164752686E+01  0.40772618595E+01  0.26400579442E+02  0.00000000000E+00 0.  1.
</event>
<event>
 7    1  0.1839254E-010  0.4778725E+02  0.7816164E-02  0.1312668E+00
        -11   -1    0    0    0    0  0.00000000000E+00  0.00000000000E+00  0.45593999997E+02  0.45594000000E+02  0.51100000000E-03 0. -1.
         11   -1    0    0    0    0 -0.00000000000E+00 -0.00000000000E+00 -0.45593999997E+02  0.45594000000E+02  0.51100000000E-03 0.  1.
    9900012    2    1    2    0    0  0.23719660919E+02 -0.29830611218E+02  0.20763847672E+02  0.47787250584E+02  0.19999906711E+02 0.  0.
        -12    1    1    2    0    0 -0.23719660919E+02  0.29830611218E+02 -0.20763847672E+02  0.43400749416E+02  0.00000000000E+00 0.  1.
         11    1    3    3    0    0  0.22309747298E+02 -0.22161350055E+02  0.16097070918E+02  0.35326561582E+02  0.51100000000E-03 0. -1.
        -11    1    3    3    0    0 -0.30111028235E+00 -0.68725407026E+01  0.67582649726E+01  0.96434759715E+01  0.51100000000E-03 0.  1.
        -12    1    3    3    0    0  0.17110239040E+01 -0.79672045970E+00 -0.20914882189E+01  0.28172130307E+01  0.00000000000E+00 0.  1.
</event>
<event>
 7    1  0.1714203E-010  0.4778728E+02  0.7816164E-02  0.1312668E+00
        -11   -1    0    0    0    0  0.00000000000E+00  0.00000000000E+00  0.45593999997E+02  0.45594000000E+02  0.51100000000E-03 0. -1.
         11   -1    0    0    0    0 -0.00000000000E+00 -0.00000000000E+00 -0.45593999997E+02  0.45594000000E+02  0.51100000000E-03 0.  1.
    9900012    2    1    2    0    0  0.31489368710E+02  0.87637977336E+01  0.28552378505E+02  0.47787276380E+02  0.20000024325E+02 0.  0.
        -12    1    1    2    0    0 -0.31489368710E+02 -0.87637977336E+01 -0.28552378505E+02  0.43400723620E+02  0.00000000000E+00 0.  1.
         11    1    3    3    0    0  0.15484812506E+02  0.91418997614E+01  0.17799188349E+02  0.25301479319E+02  0.51100000000E-03 0. -1.
        -11    1    3    3    0    0  0.12529012563E+02 -0.37162616763E+01  0.11739285654E+02  0.17566945795E+02  0.51100000000E-03 0.  1.
         12    1    3    3    0    0  0.34755436411E+01  0.33381596484E+01 -0.98609549743E+00  0.49188512652E+01  0.00000000000E+00 0. -1.
</event>
<event>
 7    1  0.1714203E-010  0.4778727E+02  0.7816164E-02  0.1312668E+00
        -11   -1    0    0    0    0  0.00000000000E+00  0.00000000000E+00  0.45593999997E+02  0.45594000000E+02  0.51100000000E-03 0.  1.
         11   -1    0    0    0    0 -0.00000000000E+00 -0.00000000000E+00 -0.45593999997E+02  0.45594000000E+02  0.51100000000E-03 0. -1.
    9900012    2    1    2    0    0 -0.12342976604E+02 -0.52318205469E+01 -0.41278353686E+02  0.47787268431E+02  0.19999988084E+02 0.  0.
        -12    1    1    2    0    0  0.12342976604E+02  0.52318205469E+01  0.41278353686E+02  0.43400731569E+02  0.00000000000E+00 0.  1.
         11    1    3    3    0    0 -0.36734225635E+01  0.37741119118E+01 -0.21517632824E+02  0.22152798393E+02  0.51100000000E-03 0. -1.
        -11    1    3    3    0    0  0.27486510713E+00 -0.69097930173E+01 -0.10634554952E+02  0.12685209878E+02  0.51100000000E-03 0.  1.
         12    1    3    3    0    0 -0.89444191479E+01 -0.20961394415E+01 -0.91261659107E+01  0.12949260160E+02  0.00000000000E+00 0. -1.
</event>
<event>
 7    1  0.1714203E-010  0.4778727E+02  0.7816164E-02  0.1312668E+00
        -11   -1    0    0    0    0  0.00000000000E+00  0.00000000000E+00  0.45593999997E+02  0.45594000000E+02  0.51100000000E-03 0.  1.
         11   -1    0    0    0    0 -0.00000000000E+00 -0.00000000000E+00 -0.45593999997E+02  0.45594000000E+02  0.51100000000E-03 0. -1.
    9900012    2    1    2    0    0 -0.33322297635E+02  0.23832541008E+02  0.14326814645E+02  0.47787272489E+02  0.20000006588E+02 0.  0.
        -12    1    1    2    0    0  0.33322297635E+02 -0.23832541008E+02 -0.14326814645E+02  0.43400727511E+02  0.00000000000E+00 0.  1.
         11    1    3    3    0    0 -0.23414614268E+02  0.73162629337E+01  0.93907657814E+01  0.26267058207E+02  0.51100000000E-03 0. -1.
        -11    1    3    3    0    0  0.54383230572E+00  0.59506588329E+00 -0.12571037306E+01  0.14933743779E+01  0.51100000000E-03 0.  1.
        -12    1    3    3    0    0 -0.10451515673E+02  0.15921212191E+02  0.61931525941E+01  0.20026839904E+02  0.00000000000E+00 0.  1.
</event>
<event>
 7    1  0.1714203E-010  0.4778729E+02  0.7816164E-02  0.1312668E+00
        -11   -1    0    0    0    0  0.00000000000E+00  0.00000000000E+00  0.45593999997E+02  0.45594000000E+02  0.51100000000E-03 0.  1.
         11   -1    0    0    0    0 -0.00000000000E+00 -0.00000000000E+00 -0.45593999997E+02  0.45594000000E+02  0.51100000000E-03 0. -1.
    9900012    2    1    2    0    0 -0.30195530496E+02 -0.24828146139E+02 -0.18852449569E+02  0.47787288515E+02  0.20000079655E+02 0.  0.
        -12    1    1    2    0    0  0.30195530496E+02  0.24828146139E+02  0.18852449569E+02  0.43400711485E+02  0.00000000000E+00 0.  1.
         11    1    3    3    0    0 -0.19414584813E+02 -0.14218882035E+02 -0.62677345075E+01  0.24867392423E+02  0.51100000000E-03 0. -1.
        -11    1    3    3    0    0 -0.91316641560E+01 -0.38129279823E+01 -0.12477798518E+02  0.15925487942E+02  0.51100000000E-03 0.  1.
         12    1    3    3    0    0 -0.16492815271E+01 -0.67963361211E+01 -0.10691654356E+00  0.69944081503E+01  0.00000000000E+00 0. -1.
</event>
<event>
 7    1  0.1714203E-010  0.4778727E+02  0.7816164E-02  0.1312668E+00
        -11   -1    0    0    0    0  0.00000000000E+00  0.00000000000E+00  0.45593999997E+02  0.45594000000E+02  0.51100000000E-03 0.  1.
         11   -1    0    0    0    0 -0.00000000000E+00 -0.00000000000E+00 -0.45593999997E+02  0.45594000000E+02  0.51100000000E-03 0. -1.
    9900012    2    1    2    0    0 -0.40030451927E+02 -0.16631620001E+02 -0.21390460844E+01  0.47787269782E+02  0.19999994244E+02 0.  0.
        -12    1    1    2    0    0  0.40030451927E+02  0.16631620001E+02  0.21390460844E+01  0.43400730218E+02  0.00000000000E+00 0.  1.
         11    1    3    3    0    0 -0.68296217326E+01 -0.61684970423E+01  0.33424235905E+01  0.97911125257E+01  0.51100000000E-03 0.  1.
        -11    1    3    3    0    0 -0.96011460134E+01  0.24988290699E+01 -0.48994332053E+01  0.11064836080E+02  0.51100000000E-03 0. -1.
         12    1    3    3    0    0 -0.23599684181E+02 -0.12961952029E+02 -0.58203646954E+00  0.26931321176E+02  0.00000000000E+00 0. -1.
</event>
<event>
 7    1  0.1714203E-010  0.4778723E+02  0.7816164E-02  0.1312668E+00
        -11   -1    0    0    0    0  0.00000000000E+00  0.00000000000E+00  0.45593999997E+02  0.45594000000E+02  0.51100000000E-03 0.  1.
         11   -1    0    0    0    0 -0.00000000000E+00 -0.00000000000E+00 -0.45593999997E+02  0.45594000000E+02  0.51100000000E-03 0. -1.
    9900012    2    1    2    0    0 -0.33685917174E+02 -0.27363162982E+02  0.37788242294E+00  0.47787233885E+02  0.19999830574E+02 0.  0.
        -12    1    1    2    0    0  0.33685917174E+02  0.27363162982E+02 -0.37788242294E+00  0.43400766115E+02  0.00000000000E+00 0.  1.
         11    1    3    3    0    0 -0.13194450158E+01  0.48112738825E+00 -0.16637177582E+01  0.21772403987E+01  0.51100000000E-03 0. -1.
        -11    1    3    3    0    0 -0.14611018399E+01  0.20586756381E+01 -0.30130100486E+00  0.25423899241E+01  0.51100000000E-03 0.  1.
        -12    1    3    3    0    0 -0.30905370318E+02 -0.29902966008E+02  0.23429011861E+01  0.43067603562E+02  0.00000000000E+00 0.  1.
</event>
<event>
 7    1  0.1714203E-010  0.4778729E+02  0.7816164E-02  0.1312668E+00
        -11   -1    0    0    0    0  0.00000000000E+00  0.00000000000E+00  0.45593999997E+02  0.45594000000E+02  0.51100000000E-03 0.  1.
         11   -1    0    0    0    0 -0.00000000000E+00 -0.00000000000E+00 -0.45593999997E+02  0.45594000000E+02  0.51100000000E-03 0. -1.
    9900012    2    1    2    0    0 -0.40166041370E+02  0.43523321215E+01 -0.15854583732E+02  0.47787291486E+02  0.20000093200E+02 0.  0.
        -12    1    1    2    0    0  0.40166041370E+02 -0.43523321215E+01  0.15854583732E+02  0.43400708514E+02  0.00000000000E+00 0.  1.
         11    1    3    3    0    0 -0.78739752460E+01 -0.13505583434E+00 -0.62969095688E+01  0.10083094596E+02  0.51100000000E-03 0. -1.
        -11    1    3    3    0    0  0.87102092939E+00 -0.18471065141E+01  0.10737546146E+01  0.23072557655E+01  0.51100000000E-03 0.  1.
        -12    1    3    3    0    0 -0.33163087053E+02  0.63344944699E+01 -0.10631428778E+02  0.35396941124E+02  0.00000000000E+00 0.  1.
</event>
<event>
 7    1  0.1714203E-010  0.4778727E+02  0.7816164E-02  0.1312668E+00
        -11   -1    0    0    0    0  0.00000000000E+00  0.00000000000E+00  0.45593999997E+02  0.45594000000E+02  0.51100000000E-03 0.  1.
         11   -1    0    0    0    0 -0.00000000000E+00 -0.00000000000E+00 -0.45593999997E+02  0.45594000000E+02  0.51100000000E-03 0. -1.
    9900012    2    1    2    0    0 -0.15756992302E+02 -0.21786471706E+02 -0.34068906159E+02  0.47787268178E+02  0.19999986933E+02 0.  0.
        -12    1    1    2    0    0  0.15756992302E+02  0.21786471706E+02  0.34068906159E+02  0.43400731822E+02  0.00000000000E+00 0.  1.
         11    1    3    3    0    0 -0.12372572038E+02 -0.13843938003E+02 -0.25973191527E+02  0.31927133236E+02  0.51100000000E-03 0. -1.
        -11    1    3    3    0    0  0.20352848497E+01 -0.18666526599E+01 -0.71484683269E+01  0.76633789058E+01  0.51100000000E-03 0.  1.
        -12    1    3    3    0    0 -0.54197051138E+01 -0.60758810430E+01 -0.94724630445E+00  0.81967560370E+01  0.00000000000E+00 0.  1.
</event>
<event>
 7    1  0.1714203E-010  0.4778727E+02  0.7816164E-02  0.1312668E+00
        -11   -1    0    0    0    0  0.00000000000E+00  0.00000000000E+00  0.45593999997E+02  0.45594000000E+02  0.51100000000E-03 0. -1.
         11   -1    0    0    0    0 -0.00000000000E+00 -0.00000000000E+00 -0.45593999997E+02  0.45594000000E+02  0.51100000000E-03 0.  1.
    9900012    2    1    2    0    0 -0.24881372144E+02  0.34531139655E+02  0.84935808403E+01  0.47787271882E+02  0.20000003821E+02 0.  0.
        -12    1    1    2    0    0  0.24881372144E+02 -0.34531139655E+02 -0.84935808403E+01  0.43400728118E+02  0.00000000000E+00 0.  1.
         11    1    3    3    0    0 -0.87000440118E+01  0.12490520599E+02  0.85746826820E+01  0.17470805763E+02  0.51100000000E-03 0. -1.
        -11    1    3    3    0    0 -0.14654859944E+02  0.90766253652E+01 -0.65284048566E+00  0.17250398516E+02  0.51100000000E-03 0.  1.
        -12    1    3    3    0    0 -0.15264681879E+01  0.12963993690E+02  0.57173864393E+00  0.13066067603E+02  0.00000000000E+00 0.  1.
</event>
<event>
 7    1  0.1714203E-010  0.4778727E+02  0.7816164E-02  0.1312668E+00
        -11   -1    0    0    0    0  0.00000000000E+00  0.00000000000E+00  0.45593999997E+02  0.45594000000E+02  0.51100000000E-03 0. -1.
         11   -1    0    0    0    0 -0.00000000000E+00 -0.00000000000E+00 -0.45593999997E+02  0.45594000000E+02  0.51100000000E-03 0.  1.
    9900012    2    1    2    0    0  0.39392419350E+02 -0.61639585492E+01  0.17142522506E+02  0.47787272298E+02  0.20000005715E+02 0.  0.
        -12    1    1    2    0    0 -0.39392419350E+02  0.61639585492E+01 -0.17142522506E+02  0.43400727702E+02  0.00000000000E+00 0.  1.
         11    1    3    3    0    0  0.23790050071E+02 -0.72493836378E+01  0.42249571532E+01  0.25226381205E+02  0.51100000000E-03 0. -1.
        -11    1    3    3    0    0 -0.12794117091E+01 -0.51878781266E+00  0.18602195564E+01  0.23165604191E+01  0.51100000000E-03 0.  1.
        -12    1    3    3    0    0  0.16881780987E+02  0.16042129013E+01  0.11057345797E+02  0.20244330673E+02  0.00000000000E+00 0.  1.
</event>
<event>
 7    1  0.1714203E-010  0.4778727E+02  0.7816164E-02  0.1312668E+00
        -11   -1    0    0    0    0  0.00000000000E+00  0.00000000000E+00  0.45593999997E+02  0.45594000000E+02  0.51100000000E-03 0. -1.
         11   -1    0    0    0    0 -0.00000000000E+00 -0.00000000000E+00 -0.45593999997E+02  0.45594000000E+02  0.51100000000E-03 0.  1.
    9900012    2    1    2    0    0 -0.30809706496E+02 -0.23537837439E+02  0.19502706833E+02  0.47787269828E+02  0.19999994452E+02 0.  0.
        -12    1    1    2    0    0  0.30809706496E+02  0.23537837439E+02 -0.19502706833E+02  0.43400730172E+02  0.00000000000E+00 0.  1.
         11    1    3    3    0    0 -0.19684861878E+02 -0.45962575664E+01  0.12773982003E+02  0.23912214186E+02  0.51100000000E-03 0. -1.
        -11    1    3    3    0    0 -0.81319266810E+01 -0.82501152113E+01  0.17819680344E+01  0.11720411378E+02  0.51100000000E-03 0.  1.
         12    1    3    3    0    0 -0.29929179368E+01 -0.10691464661E+02  0.49467567963E+01  0.12154644264E+02  0.00000000000E+00 0. -1.
</event>
<event>
 7    1  0.1714203E-010  0.4778727E+02  0.7816164E-02  0.1312668E+00
        -11   -1    0    0    0    0  0.00000000000E+00  0.00000000000E+00  0.45593999997E+02  0.45594000000E+02  0.51100000000E-03 0.  1.
         11   -1    0    0    0    0 -0.00000000000E+00 -0.00000000000E+00 -0.45593999997E+02  0.45594000000E+02  0.51100000000E-03 0. -1.
    9900012    2    1    2    0    0  0.20039966135E+02  0.10193603435E+01 -0.38483554330E+02  0.47787270835E+02  0.19999999044E+02 0.  0.
        -12    1    1    2    0    0 -0.20039966135E+02 -0.10193603435E+01  0.38483554330E+02  0.43400729165E+02  0.00000000000E+00 0.  1.
         11    1    3    3    0    0  0.17958829393E+02  0.35267583382E+01 -0.37862577380E+02  0.42053921858E+02  0.51100000000E-03 0. -1.
        -11    1    3    3    0    0  0.31019341177E+01 -0.46523264513E+00  0.52261296338E+00  0.31798681192E+01  0.51100000000E-03 0.  1.
         12    1    3    3    0    0 -0.10207973760E+01 -0.20421653496E+01 -0.11435899138E+01  0.25534808574E+01  0.00000000000E+00 0. -1.
</event>
<event>
 7    1  0.1714203E-010  0.4778727E+02  0.7816164E-02  0.1312668E+00
        -11   -1    0    0    0    0  0.00000000000E+00  0.00000000000E+00  0.45593999997E+02  0.45594000000E+02  0.51100000000E-03 0.  1.
         11   -1    0    0    0    0 -0.00000000000E+00 -0.00000000000E+00 -0.45593999997E+02  0.45594000000E+02  0.51100000000E-03 0. -1.
    9900012    2    1    2    0    0 -0.24610928056E+02 -0.34978823307E+02  0.73761347455E+01  0.47787271624E+02  0.20000002644E+02 0.  0.
        -12    1    1    2    0    0  0.24610928056E+02  0.34978823307E+02 -0.73761347455E+01  0.43400728376E+02  0.00000000000E+00 0.  1.
         11    1    3    3    0    0 -0.68676348027E+01 -0.31912859476E+01  0.20584423922E+01  0.78476683879E+01  0.51100000000E-03 0. -1.
        -11    1    3    3    0    0 -0.53932373902E+01 -0.15084623117E+01 -0.27782142082E+01  0.62514752292E+01  0.51100000000E-03 0.  1.
         12    1    3    3    0    0 -0.12350055863E+02 -0.30279075048E+02  0.80959065616E+01  0.33688128007E+02  0.00000000000E+00 0. -1.
</event>
<event>
 7    1  0.1714203E-010  0.4778725E+02  0.7816164E-02  0.1312668E+00
        -11   -1    0    0    0    0  0.00000000000E+00  0.00000000000E+00  0.45593999997E+02  0.45594000000E+02  0.51100000000E-03 0. -1.
         11   -1    0    0    0    0 -0.00000000000E+00 -0.00000000000E+00 -0.45593999997E+02  0.45594000000E+02  0.51100000000E-03 0.  1.
    9900012    2    1    2    0    0 -0.88219704651E+01 -0.35623858942E+02  0.23167624326E+02  0.47787247637E+02  0.19999893275E+02 0.  0.
        -12    1    1    2    0    0  0.88219704651E+01  0.35623858942E+02 -0.23167624326E+02  0.43400752363E+02  0.00000000000E+00 0.  1.
         11    1    3    3    0    0 -0.24286508018E+01 -0.18894578799E+02  0.89690174851E+00  0.19071127018E+02  0.51100000000E-03 0.  1.
        -11    1    3    3    0    0 -0.50076168752E+00 -0.30991005548E+01  0.53547971769E+01  0.62071764582E+01  0.51100000000E-03 0. -1.
        -12    1    3    3    0    0 -0.58925579757E+01 -0.13630179587E+02  0.16915925401E+02  0.22508944161E+02  0.00000000000E+00 0.  1.
</event>
<event>
 7    1  0.1714203E-010  0.4778732E+02  0.7816164E-02  0.1312668E+00
        -11   -1    0    0    0    0  0.00000000000E+00  0.00000000000E+00  0.45593999997E+02  0.45594000000E+02  0.51100000000E-03 0.  1.
         11   -1    0    0    0    0 -0.00000000000E+00 -0.00000000000E+00 -0.45593999997E+02  0.45594000000E+02  0.51100000000E-03 0. -1.
    9900012    2    1    2    0    0  0.11459839320E+02  0.14677091511E+02 -0.39202980648E+02  0.47787324612E+02  0.20000244233E+02 0.  0.
        -12    1    1    2    0    0 -0.11459839320E+02 -0.14677091511E+02  0.39202980648E+02  0.43400675388E+02  0.00000000000E+00 0.  1.
         11    1    3    3    0    0  0.10393695637E+02  0.71146097513E+01 -0.27110192856E+02  0.29893295868E+02  0.51100000000E-03 0. -1.
        -11    1    3    3    0    0  0.17305233695E+01 -0.22917041728E+01 -0.99828364739E+00  0.30402614443E+01  0.51100000000E-03 0.  1.
        -12    1    3    3    0    0 -0.66437968666E+00  0.98541859325E+01 -0.11094504145E+02  0.14853767300E+02  0.00000000000E+00 0.  1.
</event>
<event>
 7    1  0.1714203E-010  0.4778727E+02  0.7816164E-02  0.1312668E+00
        -11   -1    0    0    0    0  0.00000000000E+00  0.00000000000E+00  0.45593999997E+02  0.45594000000E+02  0.51100000000E-03 0.  1.
         11   -1    0    0    0    0 -0.00000000000E+00 -0.00000000000E+00 -0.45593999997E+02  0.45594000000E+02  0.51100000000E-03 0. -1.
    9900012    2    1    2    0    0 -0.24833490441E+02  0.42063127463E+01 -0.35344419194E+02  0.47787270944E+02  0.19999999544E+02 0.  0.
        -12    1    1    2    0    0  0.24833490441E+02 -0.42063127463E+01  0.35344419194E+02  0.43400729056E+02  0.00000000000E+00 0.  1.
         11    1    3    3    0    0 -0.11415234889E+02 -0.37585297752E+00 -0.67578175093E+01  0.13270906178E+02  0.51100000000E-03 0. -1.
        -11    1    3    3    0    0 -0.19405748372E+01  0.68850976559E+01 -0.72841949663E+01  0.10209304433E+02  0.51100000000E-03 0.  1.
        -12    1    3    3    0    0 -0.11477680715E+02 -0.23029319321E+01 -0.21302406718E+02  0.24307060334E+02  0.00000000000E+00 0.  1.
</event>
<event>
 7    1  0.1714203E-010  0.4778728E+02  0.7816164E-02  0.1312668E+00
        -11   -1    0    0    0    0  0.00000000000E+00  0.00000000000E+00  0.45593999997E+02  0.45594000000E+02  0.51100000000E-03 0.  1.
         11   -1    0    0    0    0 -0.00000000000E+00 -0.00000000000E+00 -0.45593999997E+02  0.45594000000E+02  0.51100000000E-03 0. -1.
    9900012    2    1    2    0    0  0.41208334302E+02 -0.13324510669E+02 -0.28201039840E+01  0.47787281262E+02  0.20000046584E+02 0.  0.
        -12    1    1    2    0    0 -0.41208334302E+02  0.13324510669E+02  0.28201039840E+01  0.43400718738E+02  0.00000000000E+00 0.  1.
         11    1    3    3    0    0  0.52134620200E+01  0.16100496952E+01 -0.37211137222E+01  0.66044783177E+01  0.51100000000E-03 0. -1.
        -11    1    3    3    0    0  0.11737475898E+02 -0.11339287928E+02 -0.21897353960E+01  0.16466412255E+02  0.51100000000E-03 0.  1.
         12    1    3    3    0    0  0.24257396384E+02 -0.35952724364E+01  0.30907451342E+01  0.24716390689E+02  0.00000000000E+00 0. -1.
</event>
<event>
 7    1  0.1714203E-010  0.4778729E+02  0.7816164E-02  0.1312668E+00
        -11   -1    0    0    0    0  0.00000000000E+00  0.00000000000E+00  0.45593999997E+02  0.45594000000E+02  0.51100000000E-03 0. -1.
         11   -1    0    0    0    0 -0.00000000000E+00 -0.00000000000E+00 -0.45593999997E+02  0.45594000000E+02  0.51100000000E-03 0.  1.
    9900012    2    1    2    0    0 -0.73897367223E+01 -0.18292629425E+02  0.38657376236E+02  0.47787294504E+02  0.20000106959E+02 0.  0.
        -12    1    1    2    0    0  0.73897367223E+01  0.18292629425E+02 -0.38657376236E+02  0.43400705496E+02  0.00000000000E+00 0.  1.
         11    1    3    3    0    0  0.13532029730E+01 -0.52869818749E+01  0.15860412503E+02  0.16773074276E+02  0.51100000000E-03 0. -1.
        -11    1    3    3    0    0 -0.75937658152E+01 -0.14782162268E+02  0.13302734181E+02  0.21287093214E+02  0.51100000000E-03 0.  1.
         12    1    3    3    0    0 -0.11491738801E+01  0.17765147174E+01  0.94942295518E+01  0.97271270132E+01  0.00000000000E+00 0. -1.
</event>
<event>
 7    1  0.1714203E-010  0.4778727E+02  0.7816164E-02  0.1312668E+00
        -11   -1    0    0    0    0  0.00000000000E+00  0.00000000000E+00  0.45593999997E+02  0.45594000000E+02  0.51100000000E-03 0.  1.
         11   -1    0    0    0    0 -0.00000000000E+00 -0.00000000000E+00 -0.45593999997E+02  0.45594000000E+02  0.51100000000E-03 0. -1.
    9900012    2    1    2    0    0  0.60470911834E+01  0.37646183190E+02 -0.20732132328E+02  0.47787265773E+02  0.19999975967E+02 0.  0.
        -12    1    1    2    0    0 -0.60470911834E+01 -0.37646183190E+02  0.20732132328E+02  0.43400734227E+02  0.00000000000E+00 0.  1.
         11    1    3    3    0    0 -0.31446231957E+01  0.27905248619E+02 -0.16403251391E+02  0.32521657584E+02  0.51100000000E-03 0. -1.
        -11    1    3    3    0    0  0.15199348526E+01  0.14753266551E+01  0.14762858764E+01  0.25819006459E+01  0.51100000000E-03 0.  1.
        -12    1    3    3    0    0  0.76717795264E+01  0.82656079154E+01 -0.58051668141E+01  0.12683707544E+02  0.00000000000E+00 0.  1.
</event>
<event>
 7    1  0.1714203E-010  0.4778727E+02  0.7816164E-02  0.1312668E+00
        -11   -1    0    0    0    0  0.00000000000E+00  0.00000000000E+00  0.45593999997E+02  0.45594000000E+02  0.51100000000E-03 0.  1.
         11   -1    0    0    0    0 -0.00000000000E+00 -0.00000000000E+00 -0.45593999997E+02  0.45594000000E+02  0.51100000000E-03 0. -1.
    9900012    2    1    2    0    0 -0.16769904650E+02 -0.40020947493E+02  0.84702186643E+00  0.47787269750E+02  0.19999994097E+02 0.  0.
        -12    1    1    2    0    0  0.16769904650E+02  0.40020947493E+02 -0.84702186643E+00  0.43400730250E+02  0.00000000000E+00 0.  1.
         11    1    3    3    0    0 -0.62916468009E+01 -0.90323170365E+01 -0.69463360841E+01  0.13016111392E+02  0.51100000000E-03 0. -1.
        -11    1    3    3    0    0 -0.71073679283E+01 -0.10935755844E+02  0.60049428117E+01  0.14358439093E+02  0.51100000000E-03 0.  1.
        -12    1    3    3    0    0 -0.33708899208E+01 -0.20052874613E+02  0.17884151388E+01  0.20412719265E+02  0.00000000000E+00 0.  1.
</event>
<event>
 7    1  0.1714203E-010  0.4778727E+02  0.7816164E-02  0.1312668E+00
        -11   -1    0    0    0    0  0.00000000000E+00  0.00000000000E+00  0.45593999997E+02  0.45594000000E+02  0.51100000000E-03 0.  1.
         11   -1    0    0    0    0 -0.00000000000E+00 -0.00000000000E+00 -0.45593999997E+02  0.45594000000E+02  0.51100000000E-03 0. -1.
    9900012    2    1    2    0    0 -0.66762387757E+01 -0.53305668228E+01 -0.42551568496E+02  0.47787273183E+02  0.20000009749E+02 0.  0.
        -12    1    1    2    0    0  0.66762387757E+01  0.53305668228E+01  0.42551568496E+02  0.43400726817E+02  0.00000000000E+00 0.  1.
         11    1    3    3    0    0  0.10787073067E+01 -0.28020818408E-01 -0.57991894753E+01  0.58987281215E+01  0.51100000000E-03 0. -1.
        -11    1    3    3    0    0 -0.85110004656E+01 -0.10951868357E+02 -0.30007057083E+02  0.33057586489E+02  0.51100000000E-03 0.  1.
        -12    1    3    3    0    0  0.75605438324E+00  0.56493223521E+01 -0.67453219373E+01  0.88309585723E+01  0.00000000000E+00 0.  1.
</event>
<event>
 7    1  0.1714203E-010  0.4778727E+02  0.7816164E-02  0.1312668E+00
        -11   -1    0    0    0    0  0.00000000000E+00  0.00000000000E+00  0.45593999997E+02  0.45594000000E+02  0.51100000000E-03 0.  1.
         11   -1    0    0    0    0 -0.00000000000E+00 -0.00000000000E+00 -0.45593999997E+02  0.45594000000E+02  0.51100000000E-03 0. -1.
    9900012    2    1    2    0    0  0.13349107980E+02 -0.41000740388E+02  0.49359992608E+01  0.47787268613E+02  0.19999988915E+02 0.  0.
        -12    1    1    2    0    0 -0.13349107980E+02  0.41000740388E+02 -0.49359992608E+01  0.43400731387E+02  0.00000000000E+00 0.  1.
         11    1    3    3    0    0  0.74207984645E+01 -0.40540131741E+01 -0.18588089919E+01  0.86578544568E+01  0.51100000000E-03 0.  1.
        -11    1    3    3    0    0 -0.21817382051E+01 -0.14501763869E+02  0.28845553174E+01  0.14945962550E+02  0.51100000000E-03 0. -1.
        -12    1    3    3    0    0  0.81100477201E+01 -0.22444963345E+02  0.39102529353E+01  0.24183451606E+02  0.00000000000E+00 0.  1.
</event>
<event>
 7    1  0.1714203E-010  0.4778727E+02  0.7816164E-02  0.1312668E+00
        -11   -1    0    0    0    0  0.00000000000E+00  0.00000000000E+00  0.45593999997E+02  0.45594000000E+02  0.51100000000E-03 0. -1.
         11   -1    0    0    0    0 -0.00000000000E+00 -0.00000000000E+00 -0.45593999997E+02  0.45594000000E+02  0.51100000000E-03 0.  1.
    9900012    2    1    2    0    0 -0.41822085763E+02  0.60007160205E+01  0.99261134778E+01  0.47787272136E+02  0.20000004979E+02 0.  0.
        -12    1    1    2    0    0  0.41822085763E+02 -0.60007160205E+01 -0.99261134778E+01  0.43400727864E+02  0.00000000000E+00 0.  1.
         11    1    3    3    0    0 -0.14409056981E+02  0.50384628105E+01  0.69596460894E+01  0.16776283991E+02  0.51100000000E-03 0. -1.
        -11    1    3    3    0    0 -0.26237689441E+02  0.21090919839E+01 -0.13862554137E+01  0.26358799679E+02  0.51100000000E-03 0.  1.
        -12    1    3    3    0    0 -0.11753393410E+01 -0.11468387739E+01  0.43527228021E+01  0.46521884669E+01  0.00000000000E+00 0.  1.
</event>
<event>
 7    1  0.1714203E-010  0.4778727E+02  0.7816164E-02  0.1312668E+00
        -11   -1    0    0    0    0  0.00000000000E+00  0.00000000000E+00  0.45593999997E+02  0.45594000000E+02  0.51100000000E-03 0.  1.
         11   -1    0    0    0    0 -0.00000000000E+00 -0.00000000000E+00 -0.45593999997E+02  0.45594000000E+02  0.51100000000E-03 0. -1.
    9900012    2    1    2    0    0  0.10063875469E+02  0.13942523423E+02 -0.39849065492E+02  0.47787267640E+02  0.19999984477E+02 0.  0.
        -12    1    1    2    0    0 -0.10063875469E+02 -0.13942523423E+02  0.39849065492E+02  0.43400732360E+02  0.00000000000E+00 0.  1.
         11    1    3    3    0    0  0.11695745852E+02  0.57388217284E-01 -0.14426230841E+02  0.18571750078E+02  0.51100000000E-03 0. -1.
        -11    1    3    3    0    0  0.66514046190E+00  0.82646109754E+01 -0.13701698719E+02  0.16015078971E+02  0.51100000000E-03 0.  1.
         12    1    3    3    0    0 -0.22970108449E+01  0.56205242301E+01 -0.11721135932E+02  0.13200438591E+02  0.00000000000E+00 0. -1.
</event>
<event>
 7    1  0.1714203E-010  0.4778729E+02  0.7816164E-02  0.1312668E+00
        -11   -1    0    0    0    0  0.00000000000E+00  0.00000000000E+00  0.45593999997E+02  0.45594000000E+02  0.51100000000E-03 0.  1.
         11   -1    0    0    0    0 -0.00000000000E+00 -0.00000000000E+00 -0.45593999997E+02  0.45594000000E+02  0.51100000000E-03 0. -1.
    9900012    2    1    2    0    0 -0.29944660425E+02 -0.12850991635E+02 -0.28666889010E+02  0.47787294942E+02  0.20000108960E+02 0.  0.
        -12    1    1    2    0    0  0.29944660425E+02  0.12850991635E+02  0.28666889010E+02  0.43400705058E+02  0.00000000000E+00 0.  1.
         11    1    3    3    0    0 -0.52137274015E+01 -0.89479432902E+01 -0.71947886174E+01  0.12610060509E+02  0.51100000000E-03 0. -1.
        -11    1    3    3    0    0 -0.35021827830E+01  0.37595489402E+01 -0.26058506315E+01  0.57610719709E+01  0.51100000000E-03 0.  1.
         12    1    3    3    0    0 -0.21228750241E+02 -0.76625972847E+01 -0.18866249762E+02  0.29416162462E+02  0.00000000000E+00 0. -1.
</event>
<event>
 7    1  0.1714203E-010  0.4778728E+02  0.7816164E-02  0.1312668E+00
        -11   -1    0    0    0    0  0.00000000000E+00  0.00000000000E+00  0.45593999997E+02  0.45594000000E+02  0.51100000000E-03 0. -1.
         11   -1    0    0    0    0 -0.00000000000E+00 -0.00000000000E+00 -0.45593999997E+02  0.45594000000E+02  0.51100000000E-03 0.  1.
    9900012    2    1    2    0    0  0.96804177001E+01  0.27726877526E+02  0.31955163633E+02  0.47787277576E+02  0.20000029778E+02 0.  0.
        -12    1    1    2    0    0 -0.96804177001E+01 -0.27726877526E+02 -0.31955163633E+02  0.43400722424E+02  0.00000000000E+00 0.  1.
         11    1    3    3    0    0  0.27537934334E+01  0.17425197452E+02  0.28776820123E+02  0.33753907347E+02  0.51100000000E-03 0. -1.
        -11    1    3    3    0    0 -0.37613625665E-01  0.21192108549E+01 -0.11942178362E+01  0.24328226269E+01  0.51100000000E-03 0.  1.
         12    1    3    3    0    0  0.69642378924E+01  0.81824692193E+01  0.43725613456E+01  0.11600547602E+02  0.00000000000E+00 0. -1.
</event>
<event>
 7    1  0.1714203E-010  0.4778727E+02  0.7816164E-02  0.1312668E+00
        -11   -1    0    0    0    0  0.00000000000E+00  0.00000000000E+00  0.45593999997E+02  0.45594000000E+02  0.51100000000E-03 0. -1.
         11   -1    0    0    0    0 -0.00000000000E+00 -0.00000000000E+00 -0.45593999997E+02  0.45594000000E+02  0.51100000000E-03 0.  1.
    9900012    2    1    2    0    0 -0.20684159978E+02 -0.37186863694E+02 -0.85396694300E+01  0.47787271211E+02  0.20000000761E+02 0.  0.
        -12    1    1    2    0    0  0.20684159978E+02  0.37186863694E+02  0.85396694300E+01  0.43400728789E+02  0.00000000000E+00 0.  1.
         11    1    3    3    0    0 -0.89394600676E+01 -0.80885997831E+01  0.52293918881E+00  0.12067015307E+02  0.51100000000E-03 0. -1.
        -11    1    3    3    0    0  0.18589730884E+01 -0.18389978329E+01 -0.40862654552E+01  0.48513152448E+01  0.51100000000E-03 0.  1.
         12    1    3    3    0    0 -0.13603672999E+02 -0.27259266078E+02 -0.49763431636E+01  0.30868940660E+02  0.00000000000E+00 0. -1.
</event>
<event>
 7    1  0.1714203E-010  0.4778729E+02  0.7816164E-02  0.1312668E+00
        -11   -1    0    0    0    0  0.00000000000E+00  0.00000000000E+00  0.45593999997E+02  0.45594000000E+02  0.51100000000E-03 0.  1.
         11   -1    0    0    0    0 -0.00000000000E+00 -0.00000000000E+00 -0.45593999997E+02  0.45594000000E+02  0.51100000000E-03 0. -1.
    9900012    2    1    2    0    0  0.26562277954E+02 -0.32401454685E+02 -0.11323096545E+02  0.47787292734E+02  0.20000098893E+02 0.  0.
        -12    1    1    2    0    0 -0.26562277954E+02  0.32401454685E+02  0.11323096545E+02  0.43400707266E+02  0.00000000000E+00 0.  1.
         11    1    3    3    0    0  0.93182344382E+01 -0.16476893347E+02  0.44509993361E+01  0.19445536834E+02  0.51100000000E-03 0. -1.
        -11    1    3    3    0    0  0.83441543191E+01 -0.88089576949E+01 -0.86901745557E+01  0.14924536209E+02  0.51100000000E-03 0.  1.
         12    1    3    3    0    0  0.88998891966E+01 -0.71156036430E+01 -0.70839213249E+01  0.13417219692E+02  0.00000000000E+00 0. -1.
</event>
<event>
 7    1  0.1714203E-010  0.4778727E+02  0.7816164E-02  0.1312668E+00
        -11   -1    0    0    0    0  0.00000000000E+00  0.00000000000E+00  0.45593999997E+02  0.45594000000E+02  0.51100000000E-03 0.  1.
         11   -1    0    0    0    0 -0.00000000000E+00 -0.00000000000E+00 -0.45593999997E+02  0.45594000000E+02  0.51100000000E-03 0. -1.
    9900012    2    1    2    0    0  0.59515914407E+00 -0.90872979599E+01 -0.42434537757E+02  0.47787271973E+02  0.20000004234E+02 0.  0.
        -12    1    1    2    0    0 -0.59515914407E+00  0.90872979599E+01  0.42434537757E+02  0.43400728027E+02  0.00000000000E+00 0.  1.
         11    1    3    3    0    0 -0.68444670019E+01 -0.69637541667E+01 -0.21516386373E+02  0.23628277200E+02  0.51100000000E-03 0. -1.
        -11    1    3    3    0    0  0.29586985855E+01  0.23930625073E+01 -0.14981183669E+02  0.15456924334E+02  0.51100000000E-03 0.  1.
        -12    1    3    3    0    0  0.44809275605E+01 -0.45166063005E+01 -0.59369677149E+01  0.87020704389E+01  0.00000000000E+00 0.  1.
</event>
<event>
 7    1  0.1714203E-010  0.4778723E+02  0.7816164E-02  0.1312668E+00
        -11   -1    0    0    0    0  0.00000000000E+00  0.00000000000E+00  0.45593999997E+02  0.45594000000E+02  0.51100000000E-03 0.  1.
         11   -1    0    0    0    0 -0.00000000000E+00 -0.00000000000E+00 -0.45593999997E+02  0.45594000000E+02  0.51100000000E-03 0. -1.
    9900012    2    1    2    0    0  0.30310666515E+02  0.27588268153E+01 -0.30939926105E+02  0.47787232065E+02  0.19999822277E+02 0.  0.
        -12    1    1    2    0    0 -0.30310666515E+02 -0.27588268153E+01  0.30939926105E+02  0.43400767935E+02  0.00000000000E+00 0.  1.
         11    1    3    3    0    0  0.18082719590E+02  0.24603446025E+01 -0.60853027276E+01  0.19237176323E+02  0.51100000000E-03 0. -1.
        -11    1    3    3    0    0  0.46839376444E+01 -0.30227357130E+01 -0.75751332310E+01  0.94052563375E+01  0.51100000000E-03 0.  1.
         12    1    3    3    0    0  0.75440092809E+01  0.33212179257E+01 -0.17279490146E+02  0.19144799405E+02  0.00000000000E+00 0. -1.
</event>
<event>
 7    1  0.1714203E-010  0.4778727E+02  0.7816164E-02  0.1312668E+00
        -11   -1    0    0    0    0  0.00000000000E+00  0.00000000000E+00  0.45593999997E+02  0.45594000000E+02  0.51100000000E-03 0.  1.
         11   -1    0    0    0    0 -0.00000000000E+00 -0.00000000000E+00 -0.45593999997E+02  0.45594000000E+02  0.51100000000E-03 0. -1.
    9900012    2    1    2    0    0  0.74263928266E+01  0.42535012541E+02  0.43868658425E+01  0.47787271963E+02  0.20000004186E+02 0.  0.
        -12    1    1    2    0    0 -0.74263928266E+01 -0.42535012541E+02 -0.43868658425E+01  0.43400728037E+02  0.00000000000E+00 0.  1.
         11    1    3    3    0    0  0.69563319136E+00  0.96658866299E+01  0.29320049609E+01  0.10124718427E+02  0.51100000000E-03 0.  1.
        -11    1    3    3    0    0  0.11847430420E+01  0.19378878432E+02  0.88178618940E+01  0.21323677779E+02  0.51100000000E-03 0. -1.
         12    1    3    3    0    0  0.55460165932E+01  0.13490247479E+02 -0.73630010124E+01  0.16338875757E+02  0.00000000000E+00 0. -1.
</event>
<event>
 7    1  0.1714203E-010  0.4778727E+02  0.7816164E-02  0.1312668E+00
        -11   -1    0    0    0    0  0.00000000000E+00  0.00000000000E+00  0.45593999997E+02  0.45594000000E+02  0.51100000000E-03 0.  1.
         11   -1    0    0    0    0 -0.00000000000E+00 -0.00000000000E+00 -0.45593999997E+02  0.45594000000E+02  0.51100000000E-03 0. -1.
    9900012    2    1    2    0    0  0.13401643923E+02 -0.23434203109E+02 -0.33983195537E+02  0.47787268277E+02  0.19999987381E+02 0.  0.
        -12    1    1    2    0    0 -0.13401643923E+02  0.23434203109E+02  0.33983195537E+02  0.43400731723E+02  0.00000000000E+00 0.  1.
         11    1    3    3    0    0  0.67952531613E+01 -0.13154269731E+01 -0.17673015900E+02  0.18980023839E+02  0.51100000000E-03 0. -1.
        -11    1    3    3    0    0  0.52567753832E+01 -0.81429553439E+01 -0.71133721831E+01  0.12022540216E+02  0.51100000000E-03 0.  1.
         12    1    3    3    0    0  0.13496153786E+01 -0.13975820792E+02 -0.91968074533E+01  0.16784704222E+02  0.00000000000E+00 0. -1.
</event>
<event>
 7    1  0.1714203E-010  0.4778728E+02  0.7816164E-02  0.1312668E+00
        -11   -1    0    0    0    0  0.00000000000E+00  0.00000000000E+00  0.45593999997E+02  0.45594000000E+02  0.51100000000E-03 0.  1.
         11   -1    0    0    0    0 -0.00000000000E+00 -0.00000000000E+00 -0.45593999997E+02  0.45594000000E+02  0.51100000000E-03 0. -1.
    9900012    2    1    2    0    0 -0.27892911648E+02 -0.28107697639E+02 -0.17764154782E+02  0.47787281320E+02  0.20000046852E+02 0.  0.
        -12    1    1    2    0    0  0.27892911648E+02  0.28107697639E+02  0.17764154782E+02  0.43400718680E+02  0.00000000000E+00 0.  1.
         11    1    3    3    0    0 -0.67939343742E+01 -0.14556926793E+01 -0.21975374823E+01  0.72873696698E+01  0.51100000000E-03 0. -1.
        -11    1    3    3    0    0 -0.11877154460E+02 -0.51424781250E+01 -0.10226777689E+02  0.16495419410E+02  0.51100000000E-03 0.  1.
        -12    1    3    3    0    0 -0.92218228138E+01 -0.21509526835E+02 -0.53398396101E+01  0.24004492241E+02  0.00000000000E+00 0.  1.
</event>
<event>
 7    1  0.1714203E-010  0.4778727E+02  0.7816164E-02  0.1312668E+00
        -11   -1    0    0    0    0  0.00000000000E+00  0.00000000000E+00  0.45593999997E+02  0.45594000000E+02  0.51100000000E-03 0.  1.
         11   -1    0    0    0    0 -0.00000000000E+00 -0.00000000000E+00 -0.45593999997E+02  0.45594000000E+02  0.51100000000E-03 0. -1.
    9900012    2    1    2    0    0 -0.21118762927E+02  0.15515613696E+02 -0.34596056841E+02  0.47787267692E+02  0.19999984717E+02 0.  0.
        -12    1    1    2    0    0  0.21118762927E+02 -0.15515613696E+02  0.34596056841E+02  0.43400732308E+02  0.00000000000E+00 0.  1.
         11    1    3    3    0    0 -0.84159794946E+01  0.10342857536E+02 -0.56722864885E+01  0.14490626182E+02  0.51100000000E-03 0. -1.
        -11    1    3    3    0    0  0.82310392944E+00 -0.85244069227E+00 -0.51827886093E+01  0.53165264264E+01  0.51100000000E-03 0.  1.
         12    1    3    3    0    0 -0.13525887362E+02  0.60251968515E+01 -0.23740981743E+02  0.27980115084E+02  0.00000000000E+00 0. -1.
</event>
<event>
 7    1  0.1714203E-010  0.4778728E+02  0.7816164E-02  0.1312668E+00
        -11   -1    0    0    0    0  0.00000000000E+00  0.00000000000E+00  0.45593999997E+02  0.45594000000E+02  0.51100000000E-03 0.  1.
         11   -1    0    0    0    0 -0.00000000000E+00 -0.00000000000E+00 -0.45593999997E+02  0.45594000000E+02  0.51100000000E-03 0. -1.
    9900012    2    1    2    0    0  0.21732010440E+01 -0.66185536363E+01 -0.42838006615E+02  0.47787275746E+02  0.20000021435E+02 0.  0.
        -12    1    1    2    0    0 -0.21732010440E+01  0.66185536363E+01  0.42838006615E+02  0.43400724254E+02  0.00000000000E+00 0.  1.
         11    1    3    3    0    0  0.75415713426E+01 -0.41097686119E+01 -0.13757912662E+02  0.16218682358E+02  0.51100000000E-03 0. -1.
        -11    1    3    3    0    0 -0.42408222299E+01 -0.58436808146E+01 -0.11062449403E+02  0.13210259865E+02  0.51100000000E-03 0.  1.
        -12    1    3    3    0    0 -0.11275480686E+01  0.33348957901E+01 -0.18017644550E+02  0.18358333522E+02  0.00000000000E+00 0.  1.
</event>
<event>
 7    1  0.1714203E-010  0.4778727E+02  0.7816164E-02  0.1312668E+00
        -11   -1    0    0    0    0  0.00000000000E+00  0.00000000000E+00  0.45593999997E+02  0.45594000000E+02  0.51100000000E-03 0.  1.
         11   -1    0    0    0    0 -0.00000000000E+00 -0.00000000000E+00 -0.45593999997E+02  0.45594000000E+02  0.51100000000E-03 0. -1.
    9900012    2    1    2    0    0  0.17452409937E+02 -0.21558908859E+02 -0.33380380174E+02  0.47787274840E+02  0.20000017307E+02 0.  0.
        -12    1    1    2    0    0 -0.17452409937E+02  0.21558908859E+02  0.33380380174E+02  0.43400725160E+02  0.00000000000E+00 0.  1.
         11    1    3    3    0    0 -0.10055854289E+01  0.19672535819E+01 -0.70731271612E+00  0.23198233230E+01  0.51100000000E-03 0. -1.
        -11    1    3    3    0    0  0.71711802693E+01 -0.35155138842E+01 -0.46910588765E+01  0.92623268118E+01  0.51100000000E-03 0.  1.
         12    1    3    3    0    0  0.11286815096E+02 -0.20010648557E+02 -0.27982008582E+02  0.36205124706E+02  0.00000000000E+00 0. -1.
</event>
<event>
 7    1  0.1714203E-010  0.4778727E+02  0.7816164E-02  0.1312668E+00
        -11   -1    0    0    0    0  0.00000000000E+00  0.00000000000E+00  0.45593999997E+02  0.45594000000E+02  0.51100000000E-03 0.  1.
         11   -1    0    0    0    0 -0.00000000000E+00 -0.00000000000E+00 -0.45593999997E+02  0.45594000000E+02  0.51100000000E-03 0. -1.
    9900012    2    1    2    0    0  0.34321085256E+02 -0.16460879654E+02 -0.20850081507E+02  0.47787270156E+02  0.19999995951E+02 0.  0.
        -12    1    1    2    0    0 -0.34321085256E+02  0.16460879654E+02  0.20850081507E+02  0.43400729844E+02  0.00000000000E+00 0.  1.
         11    1    3    3    0    0  0.31209444626E+02 -0.14421028359E+02 -0.94898773459E+01  0.35665855732E+02  0.51100000000E-03 0. -1.
        -11    1    3    3    0    0  0.23934324561E+01 -0.16482410760E+01 -0.56564355362E+01  0.63592830416E+01  0.51100000000E-03 0.  1.
         12    1    3    3    0    0  0.71820817354E+00 -0.39161021957E+00 -0.57037686251E+01  0.57621313828E+01  0.00000000000E+00 0. -1.
</event>
<event>
 7    1  0.1714203E-010  0.4778727E+02  0.7816164E-02  0.1312668E+00
        -11   -1    0    0    0    0  0.00000000000E+00  0.00000000000E+00  0.45593999997E+02  0.45594000000E+02  0.51100000000E-03 0.  1.
         11   -1    0    0    0    0 -0.00000000000E+00 -0.00000000000E+00 -0.45593999997E+02  0.45594000000E+02  0.51100000000E-03 0. -1.
    9900012    2    1    2    0    0  0.88598781588E+01 -0.98852555971E+01 -0.41320788154E+02  0.47787271286E+02  0.20000001103E+02 0.  0.
        -12    1    1    2    0    0 -0.88598781588E+01  0.98852555971E+01  0.41320788154E+02  0.43400728714E+02  0.00000000000E+00 0.  1.
         11    1    3    3    0    0  0.39730686492E+01 -0.37953389469E+01 -0.36358395468E+01  0.65885659808E+01  0.51100000000E-03 0. -1.
        -11    1    3    3    0    0 -0.34433950841E+01 -0.73050854322E+01 -0.21256225595E+02  0.22738697625E+02  0.51100000000E-03 0.  1.
        -12    1    3    3    0    0  0.83302045938E+01  0.12151687821E+01 -0.16428723012E+02  0.18460007680E+02  0.00000000000E+00 0.  1.
</event>
<event>
 7    1  0.1714203E-010  0.4778730E+02  0.7816164E-02  0.1312668E+00
        -11   -1    0    0    0    0  0.00000000000E+00  0.00000000000E+00  0.45593999997E+02  0.45594000000E+02  0.51100000000E-03 0.  1.
         11   -1    0    0    0    0 -0.00000000000E+00 -0.00000000000E+00 -0.45593999997E+02  0.45594000000E+02  0.51100000000E-03 0. -1.
    9900012    2    1    2    0    0  0.82421586205E+01  0.90367922541E+00 -0.42601297662E+02  0.47787304414E+02  0.20000152144E+02 0.  0.
        -12    1    1    2    0    0 -0.82421586205E+01 -0.90367922541E+00  0.42601297662E+02  0.43400695586E+02  0.00000000000E+00 0.  1.
         11    1    3    3    0    0  0.10758997910E+02 -0.66561624556E+00 -0.18370503514E+02  0.21299635693E+02  0.51100000000E-03 0. -1.
        -11    1    3    3    0    0  0.59335237988E+00  0.50735219167E+00 -0.22945517757E+02  0.22958794801E+02  0.51100000000E-03 0.  1.
        -12    1    3    3    0    0 -0.31101916692E+01  0.10619432793E+01 -0.12852763906E+01  0.35288739206E+01  0.00000000000E+00 0.  1.
</event>
<event>
 7    1  0.2271136E-010  0.4778727E+02  0.7816164E-02  0.1312668E+00
        -11   -1    0    0    0    0  0.00000000000E+00  0.00000000000E+00  0.45593999997E+02  0.45594000000E+02  0.51100000000E-03 0.  1.
         11   -1    0    0    0    0 -0.00000000000E+00 -0.00000000000E+00 -0.45593999997E+02  0.45594000000E+02  0.51100000000E-03 0. -1.
    9900012    2    1    2    0    0  0.31495621109E+02 -0.23655804118E+02 -0.18222300084E+02  0.47787269155E+02  0.19999991385E+02 0.  0.
        -12    1    1    2    0    0 -0.31495621109E+02  0.23655804118E+02  0.18222300084E+02  0.43400730845E+02  0.00000000000E+00 0.  1.
         11    1    3    3    0    0  0.20666350999E+02 -0.83905041821E+01 -0.64528731865E+01  0.23219349618E+02  0.51100000000E-03 0. -1.
        -11    1    3    3    0    0  0.39655907866E+01 -0.26392495666E+01 -0.86308199390E+01  0.98581236370E+01  0.51100000000E-03 0.  1.
         12    1    3    3    0    0  0.68636793233E+01 -0.12626050369E+02 -0.31386069589E+01  0.14709795900E+02  0.00000000000E+00 0. -1.
</event>
<event>
 7    1  0.1714203E-010  0.4778728E+02  0.7816164E-02  0.1312668E+00
        -11   -1    0    0    0    0  0.00000000000E+00  0.00000000000E+00  0.45593999997E+02  0.45594000000E+02  0.51100000000E-03 0. -1.
         11   -1    0    0    0    0 -0.00000000000E+00 -0.00000000000E+00 -0.45593999997E+02  0.45594000000E+02  0.51100000000E-03 0.  1.
    9900012    2    1    2    0    0 -0.24384357954E+01  0.15615813634E+02  0.40420578810E+02  0.47787276551E+02  0.20000025106E+02 0.  0.
        -12    1    1    2    0    0  0.24384357954E+01 -0.15615813634E+02 -0.40420578810E+02  0.43400723449E+02  0.00000000000E+00 0.  1.
         11    1    3    3    0    0 -0.79475545858E+01  0.90894646052E+01  0.89082240076E+01  0.15004614155E+02  0.51100000000E-03 0.  1.
        -11    1    3    3    0    0 -0.19973008445E+00  0.36418876939E+00  0.38673879242E+01  0.38896291833E+01  0.51100000000E-03 0. -1.
        -12    1    3    3    0    0  0.57088488748E+01  0.61621602593E+01  0.27644966878E+02  0.28893033213E+02  0.00000000000E+00 0.  1.
</event>
<event>
 7    1  0.1714203E-010  0.4778727E+02  0.7816164E-02  0.1312668E+00
        -11   -1    0    0    0    0  0.00000000000E+00  0.00000000000E+00  0.45593999997E+02  0.45594000000E+02  0.51100000000E-03 0. -1.
         11   -1    0    0    0    0 -0.00000000000E+00 -0.00000000000E+00 -0.45593999997E+02  0.45594000000E+02  0.51100000000E-03 0.  1.
    9900012    2    1    2    0    0  0.11168166053E+02  0.27197374341E+02  0.31924885537E+02  0.47787269355E+02  0.19999992295E+02 0.  0.
        -12    1    1    2    0    0 -0.11168166053E+02 -0.27197374341E+02 -0.31924885537E+02  0.43400730645E+02  0.00000000000E+00 0.  1.
         11    1    3    3    0    0  0.13580604420E+02  0.17073798753E+02  0.23858171381E+02  0.32328930731E+02  0.51100000000E-03 0. -1.
        -11    1    3    3    0    0  0.25553922597E+01  0.38700566492E+01  0.52127795697E+01  0.69771368893E+01  0.51100000000E-03 0.  1.
        -12    1    3    3    0    0 -0.49678306262E+01  0.62535189385E+01  0.28539345859E+01  0.84812017348E+01  0.00000000000E+00 0.  1.
</event>
<event>
 7    1  0.1714203E-010  0.4778727E+02  0.7816164E-02  0.1312668E+00
        -11   -1    0    0    0    0  0.00000000000E+00  0.00000000000E+00  0.45593999997E+02  0.45594000000E+02  0.51100000000E-03 0.  1.
         11   -1    0    0    0    0 -0.00000000000E+00 -0.00000000000E+00 -0.45593999997E+02  0.45594000000E+02  0.51100000000E-03 0. -1.
    9900012    2    1    2    0    0  0.37535549640E+02 -0.17690633468E+02 -0.12717989387E+02  0.47787271281E+02  0.20000001080E+02 0.  0.
        -12    1    1    2    0    0 -0.37535549640E+02  0.17690633468E+02  0.12717989387E+02  0.43400728719E+02  0.00000000000E+00 0.  1.
         11    1    3    3    0    0  0.33001403672E+02 -0.11418524104E+02 -0.13123663364E+02  0.37305574348E+02  0.51100000000E-03 0. -1.
        -11    1    3    3    0    0  0.50597317089E+01 -0.27087030548E+01  0.25604523097E+01  0.62844151276E+01  0.51100000000E-03 0.  1.
        -12    1    3    3    0    0 -0.52558574142E+00 -0.35634063088E+01 -0.21547783333E+01  0.41972818060E+01  0.00000000000E+00 0.  1.
</event>
<event>
 7    1  0.1714203E-010  0.4778727E+02  0.7816164E-02  0.1312668E+00
        -11   -1    0    0    0    0  0.00000000000E+00  0.00000000000E+00  0.45593999997E+02  0.45594000000E+02  0.51100000000E-03 0. -1.
         11   -1    0    0    0    0 -0.00000000000E+00 -0.00000000000E+00 -0.45593999997E+02  0.45594000000E+02  0.51100000000E-03 0.  1.
    9900012    2    1    2    0    0 -0.98043717350E+01 -0.41756299672E+02 -0.66264049852E+01  0.47787268319E+02  0.19999987576E+02 0.  0.
        -12    1    1    2    0    0  0.98043717350E+01  0.41756299672E+02  0.66264049852E+01  0.43400731681E+02  0.00000000000E+00 0.  1.
         11    1    3    3    0    0 -0.28205572503E+01 -0.15430834040E+02  0.10231014033E+01  0.15719825671E+02  0.51100000000E-03 0. -1.
        -11    1    3    3    0    0 -0.28075962268E+01 -0.10048445133E+02  0.44681615298E+01  0.11349815588E+02  0.51100000000E-03 0.  1.
        -12    1    3    3    0    0 -0.41762182579E+01 -0.16277020498E+02 -0.12117667918E+02  0.20717627060E+02  0.00000000000E+00 0.  1.
</event>
<event>
 7    1  0.1714203E-010  0.4778726E+02  0.7816164E-02  0.1312668E+00
        -11   -1    0    0    0    0  0.00000000000E+00  0.00000000000E+00  0.45593999997E+02  0.45594000000E+02  0.51100000000E-03 0.  1.
         11   -1    0    0    0    0 -0.00000000000E+00 -0.00000000000E+00 -0.45593999997E+02  0.45594000000E+02  0.51100000000E-03 0. -1.
    9900012    2    1    2    0    0  0.13123574715E+01 -0.24970603006E+02 -0.35473528887E+02  0.47787256362E+02  0.19999933057E+02 0.  0.
        -12    1    1    2    0    0 -0.13123574715E+01  0.24970603006E+02  0.35473528887E+02  0.43400743638E+02  0.00000000000E+00 0.  1.
         11    1    3    3    0    0  0.33280707364E+01 -0.51611807895E+01 -0.17203347123E+01  0.63775695803E+01  0.51100000000E-03 0.  1.
        -11    1    3    3    0    0 -0.47755350744E+01 -0.13717051207E+01 -0.10413906543E+02  0.11538490366E+02  0.51100000000E-03 0. -1.
         12    1    3    3    0    0  0.27598218095E+01 -0.18437717096E+02 -0.23339287632E+02  0.29871196416E+02  0.00000000000E+00 0. -1.
</event>
<event>
 7    1  0.1714203E-010  0.4778728E+02  0.7816164E-02  0.1312668E+00
        -11   -1    0    0    0    0  0.00000000000E+00  0.00000000000E+00  0.45593999997E+02  0.45594000000E+02  0.51100000000E-03 0.  1.
         11   -1    0    0    0    0 -0.00000000000E+00 -0.00000000000E+00 -0.45593999997E+02  0.45594000000E+02  0.51100000000E-03 0. -1.
    9900012    2    1    2    0    0  0.42379577326E+02  0.58307211032E+01 -0.73209929438E+01  0.47787276266E+02  0.20000023809E+02 0.  0.
        -12    1    1    2    0    0 -0.42379577326E+02 -0.58307211032E+01  0.73209929438E+01  0.43400723734E+02  0.00000000000E+00 0.  1.
         11    1    3    3    0    0  0.14938828533E+02 -0.43802062175E-01 -0.29269822296E+01  0.15222934730E+02  0.51100000000E-03 0. -1.
        -11    1    3    3    0    0  0.81235734940E+01  0.45235481253E+01  0.55163374734E+01  0.10811332635E+02  0.51100000000E-03 0.  1.
        -12    1    3    3    0    0  0.19317175299E+02  0.13509750401E+01 -0.99103481876E+01  0.21753008902E+02  0.00000000000E+00 0.  1.
</event>
<event>
 7    1  0.1714203E-010  0.4778727E+02  0.7816164E-02  0.1312668E+00
        -11   -1    0    0    0    0  0.00000000000E+00  0.00000000000E+00  0.45593999997E+02  0.45594000000E+02  0.51100000000E-03 0. -1.
         11   -1    0    0    0    0 -0.00000000000E+00 -0.00000000000E+00 -0.45593999997E+02  0.45594000000E+02  0.51100000000E-03 0.  1.
    9900012    2    1    2    0    0  0.32618697116E+02  0.19217670373E+02  0.21220865458E+02  0.47787269742E+02  0.19999994064E+02 0.  0.
        -12    1    1    2    0    0 -0.32618697116E+02 -0.19217670373E+02 -0.21220865458E+02  0.43400730258E+02  0.00000000000E+00 0.  1.
         11    1    3    3    0    0  0.14534164105E+02  0.15938811772E+01  0.55387125125E+01  0.15635207705E+02  0.51100000000E-03 0. -1.
        -11    1    3    3    0    0 -0.17236631312E+01  0.12667284373E+01  0.24606557209E+01  0.32604359159E+01  0.51100000000E-03 0.  1.
         12    1    3    3    0    0  0.19808196143E+02  0.16357060758E+02  0.13221497225E+02  0.28891626121E+02  0.00000000000E+00 0. -1.
</event>
<event>
 7    1  0.1714203E-010  0.4778727E+02  0.7816164E-02  0.1312668E+00
        -11   -1    0    0    0    0  0.00000000000E+00  0.00000000000E+00  0.45593999997E+02  0.45594000000E+02  0.51100000000E-03 0.  1.
         11   -1    0    0    0    0 -0.00000000000E+00 -0.00000000000E+00 -0.45593999997E+02  0.45594000000E+02  0.51100000000E-03 0. -1.
    9900012    2    1    2    0    0  0.28706207269E+02  0.20844308424E+02 -0.25001832344E+02  0.47787272472E+02  0.20000006508E+02 0.  0.
        -12    1    1    2    0    0 -0.28706207269E+02 -0.20844308424E+02  0.25001832344E+02  0.43400727528E+02  0.00000000000E+00 0.  1.
         11    1    3    3    0    0  0.18317172668E+01  0.53715204344E+01 -0.18310815310E+01  0.59633279096E+01  0.51100000000E-03 0. -1.
        -11    1    3    3    0    0  0.24196682197E+02  0.14562389506E+02 -0.25583822410E+02  0.38106096453E+02  0.51100000000E-03 0.  1.
        -12    1    3    3    0    0  0.26778078046E+01  0.91039848292E+00  0.24130715968E+01  0.37178481098E+01  0.00000000000E+00 0.  1.
</event>
<event>
 7    1  0.1714203E-010  0.4778727E+02  0.7816164E-02  0.1312668E+00
        -11   -1    0    0    0    0  0.00000000000E+00  0.00000000000E+00  0.45593999997E+02  0.45594000000E+02  0.51100000000E-03 0. -1.
         11   -1    0    0    0    0 -0.00000000000E+00 -0.00000000000E+00 -0.45593999997E+02  0.45594000000E+02  0.51100000000E-03 0.  1.
    9900012    2    1    2    0    0  0.33560024410E+02  0.12613599654E+02 -0.24459049248E+02  0.47787271611E+02  0.20000002581E+02 0.  0.
        -12    1    1    2    0    0 -0.33560024410E+02 -0.12613599654E+02  0.24459049248E+02  0.43400728389E+02  0.00000000000E+00 0.  1.
         11    1    3    3    0    0  0.22001458083E+02  0.47599300060E+01 -0.86006657382E+01  0.24097563006E+02  0.51100000000E-03 0. -1.
        -11    1    3    3    0    0  0.68949052874E+01 -0.12411752516E+01 -0.41291345354E+01  0.81320346285E+01  0.51100000000E-03 0.  1.
        -12    1    3    3    0    0  0.46636610396E+01  0.90948448997E+01 -0.11729248974E+02  0.15557673976E+02  0.00000000000E+00 0.  1.
</event>
<event>
 7    1  0.1714203E-010  0.4778727E+02  0.7816164E-02  0.1312668E+00
        -11   -1    0    0    0    0  0.00000000000E+00  0.00000000000E+00  0.45593999997E+02  0.45594000000E+02  0.51100000000E-03 0.  1.
         11   -1    0    0    0    0 -0.00000000000E+00 -0.00000000000E+00 -0.45593999997E+02  0.45594000000E+02  0.51100000000E-03 0. -1.
    9900012    2    1    2    0    0 -0.60670368283E+01 -0.13239156811E+02 -0.40884461699E+02  0.47787269391E+02  0.19999992463E+02 0.  0.
        -12    1    1    2    0    0  0.60670368283E+01  0.13239156811E+02  0.40884461699E+02  0.43400730609E+02  0.00000000000E+00 0.  1.
         11    1    3    3    0    0 -0.31505426421E+01 -0.90795893147E+01 -0.18207219464E+02  0.20588047551E+02  0.51100000000E-03 0. -1.
        -11    1    3    3    0    0  0.55224449953E+01 -0.24634930462E+01 -0.65223524882E+01  0.88942272827E+01  0.51100000000E-03 0.  1.
         12    1    3    3    0    0 -0.84389391816E+01 -0.16960744498E+01 -0.16154889746E+02  0.18304994558E+02  0.00000000000E+00 0. -1.
</event>
<event>
 7    1  0.1714203E-010  0.4778727E+02  0.7816164E-02  0.1312668E+00
        -11   -1    0    0    0    0  0.00000000000E+00  0.00000000000E+00  0.45593999997E+02  0.45594000000E+02  0.51100000000E-03 0.  1.
         11   -1    0    0    0    0 -0.00000000000E+00 -0.00000000000E+00 -0.45593999997E+02  0.45594000000E+02  0.51100000000E-03 0. -1.
    9900012    2    1    2    0    0  0.10867315884E+02  0.38318209274E+02 -0.17240635260E+02  0.47787271657E+02  0.20000002794E+02 0.  0.
        -12    1    1    2    0    0 -0.10867315884E+02 -0.38318209274E+02  0.17240635260E+02  0.43400728343E+02  0.00000000000E+00 0.  1.
         11    1    3    3    0    0  0.72918652414E+01  0.99069679510E+01 -0.55662842276E+01  0.13501956638E+02  0.51100000000E-03 0. -1.
        -11    1    3    3    0    0 -0.35815281758E+01  0.78142485057E+00 -0.87436753335E+00  0.37686188075E+01  0.51100000000E-03 0.  1.
        -12    1    3    3    0    0  0.71569788179E+01  0.27629816473E+02 -0.10799983499E+02  0.30516696212E+02  0.00000000000E+00 0.  1.
</event>
<event>
 7    1  0.1714203E-010  0.4778727E+02  0.7816164E-02  0.1312668E+00
        -11   -1    0    0    0    0  0.00000000000E+00  0.00000000000E+00  0.45593999997E+02  0.45594000000E+02  0.51100000000E-03 0.  1.
         11   -1    0    0    0    0 -0.00000000000E+00 -0.00000000000E+00 -0.45593999997E+02  0.45594000000E+02  0.51100000000E-03 0. -1.
    9900012    2    1    2    0    0 -0.33605822785E+02  0.44996285118E+01 -0.27092904333E+02  0.47787269050E+02  0.19999990905E+02 0.  0.
        -12    1    1    2    0    0  0.33605822785E+02 -0.44996285118E+01  0.27092904333E+02  0.43400730950E+02  0.00000000000E+00 0.  1.
         11    1    3    3    0    0 -0.58145262015E+01  0.29890976493E+01 -0.93264619704E+01  0.11389745952E+02  0.51100000000E-03 0. -1.
        -11    1    3    3    0    0 -0.15573792501E+02  0.49893379654E+01 -0.25102189924E+01  0.16545020575E+02  0.51100000000E-03 0.  1.
         12    1    3    3    0    0 -0.12217504083E+02 -0.34788071029E+01 -0.15256223370E+02  0.19852502522E+02  0.00000000000E+00 0. -1.
</event>
<event>
 7    1  0.1714203E-010  0.4778726E+02  0.7816164E-02  0.1312668E+00
        -11   -1    0    0    0    0  0.00000000000E+00  0.00000000000E+00  0.45593999997E+02  0.45594000000E+02  0.51100000000E-03 0.  1.
         11   -1    0    0    0    0 -0.00000000000E+00 -0.00000000000E+00 -0.45593999997E+02  0.45594000000E+02  0.51100000000E-03 0. -1.
    9900012    2    1    2    0    0  0.39021240894E+02 -0.30185822093E+01 -0.18757791594E+02  0.47787264695E+02  0.19999971052E+02 0.  0.
        -12    1    1    2    0    0 -0.39021240894E+02  0.30185822093E+01  0.18757791594E+02  0.43400735305E+02  0.00000000000E+00 0.  1.
         11    1    3    3    0    0  0.10395341937E+01  0.30259374559E+01 -0.10241263449E+01  0.33594290971E+01  0.51100000000E-03 0. -1.
        -11    1    3    3    0    0  0.10623672673E+02 -0.80121418588E+01 -0.57370322539E+01  0.14490354639E+02  0.51100000000E-03 0.  1.
         12    1    3    3    0    0  0.27358034028E+02  0.19676221936E+01 -0.11996632995E+02  0.29937480959E+02  0.00000000000E+00 0. -1.
</event>
<event>
 7    1  0.1714203E-010  0.4778727E+02  0.7816164E-02  0.1312668E+00
        -11   -1    0    0    0    0  0.00000000000E+00  0.00000000000E+00  0.45593999997E+02  0.45594000000E+02  0.51100000000E-03 0.  1.
         11   -1    0    0    0    0 -0.00000000000E+00 -0.00000000000E+00 -0.45593999997E+02  0.45594000000E+02  0.51100000000E-03 0. -1.
    9900012    2    1    2    0    0 -0.13937478577E+02 -0.13809602497E+02 -0.38712592694E+02  0.47787271166E+02  0.20000000555E+02 0.  0.
        -12    1    1    2    0    0  0.13937478577E+02  0.13809602497E+02  0.38712592694E+02  0.43400728834E+02  0.00000000000E+00 0.  1.
         11    1    3    3    0    0 -0.64255337948E+01 -0.91695745767E+01 -0.16045035153E+02  0.19565575274E+02  0.51100000000E-03 0. -1.
        -11    1    3    3    0    0  0.21415023167E+01 -0.66084077374E+01 -0.88247626209E+01  0.11230918065E+02  0.51100000000E-03 0.  1.
         12    1    3    3    0    0 -0.96534470987E+01  0.19683798173E+01 -0.13842794920E+02  0.16990777828E+02  0.00000000000E+00 0. -1.
</event>
<event>
 7    1  0.1714203E-010  0.4778727E+02  0.7816164E-02  0.1312668E+00
        -11   -1    0    0    0    0  0.00000000000E+00  0.00000000000E+00  0.45593999997E+02  0.45594000000E+02  0.51100000000E-03 0.  1.
         11   -1    0    0    0    0 -0.00000000000E+00 -0.00000000000E+00 -0.45593999997E+02  0.45594000000E+02  0.51100000000E-03 0. -1.
    9900012    2    1    2    0    0 -0.42181128856E+02 -0.36687810678E+01 -0.95349844896E+01  0.47787268263E+02  0.19999987320E+02 0.  0.
        -12    1    1    2    0    0  0.42181128856E+02  0.36687810678E+01  0.95349844896E+01  0.43400731737E+02  0.00000000000E+00 0.  1.
         11    1    3    3    0    0 -0.22011073663E+02 -0.54543271615E+01 -0.97644827655E+01  0.24689717951E+02  0.51100000000E-03 0. -1.
        -11    1    3    3    0    0 -0.12633748910E+02  0.64989563939E+01  0.18894001722E+00  0.14208579954E+02  0.51100000000E-03 0.  1.
         12    1    3    3    0    0 -0.75363062835E+01 -0.47134103002E+01  0.40558258623E-01  0.88889703582E+01  0.00000000000E+00 0. -1.
</event>
<event>
 7    1  0.1714203E-010  0.4778727E+02  0.7816164E-02  0.1312668E+00
        -11   -1    0    0    0    0  0.00000000000E+00  0.00000000000E+00  0.45593999997E+02  0.45594000000E+02  0.51100000000E-03 0.  1.
         11   -1    0    0    0    0 -0.00000000000E+00 -0.00000000000E+00 -0.45593999997E+02  0.45594000000E+02  0.51100000000E-03 0. -1.
    9900012    2    1    2    0    0 -0.76797005902E+01 -0.21813513591E+02 -0.36726233354E+02  0.47787269676E+02  0.19999993759E+02 0.  0.
        -12    1    1    2    0    0  0.76797005902E+01  0.21813513591E+02  0.36726233354E+02  0.43400730324E+02  0.00000000000E+00 0.  1.
         11    1    3    3    0    0 -0.39634447297E+01 -0.14552628373E+02 -0.18768304239E+02  0.24077731018E+02  0.51100000000E-03 0. -1.
        -11    1    3    3    0    0 -0.75247110024E+01 -0.11827180654E+01 -0.57244909800E+01  0.95283731525E+01  0.51100000000E-03 0.  1.
         12    1    3    3    0    0  0.38084551419E+01 -0.60781671519E+01 -0.12233438135E+02  0.14181165505E+02  0.00000000000E+00 0. -1.
</event>
<event>
 7    1  0.1714203E-010  0.4778727E+02  0.7816164E-02  0.1312668E+00
        -11   -1    0    0    0    0  0.00000000000E+00  0.00000000000E+00  0.45593999997E+02  0.45594000000E+02  0.51100000000E-03 0.  1.
         11   -1    0    0    0    0 -0.00000000000E+00 -0.00000000000E+00 -0.45593999997E+02  0.45594000000E+02  0.51100000000E-03 0. -1.
    9900012    2    1    2    0    0  0.62411207608E+00  0.24188153108E+02 -0.36030086772E+02  0.47787269367E+02  0.19999992354E+02 0.  0.
        -12    1    1    2    0    0 -0.62411207608E+00 -0.24188153108E+02  0.36030086772E+02  0.43400730633E+02  0.00000000000E+00 0.  1.
         11    1    3    3    0    0 -0.38997419050E+01  0.12343415434E+02 -0.20789860708E+02  0.24490532865E+02  0.51100000000E-03 0. -1.
        -11    1    3    3    0    0  0.41966095421E+00 -0.22635867895E+01 -0.46375239263E+01  0.51775060500E+01  0.51100000000E-03 0.  1.
        -12    1    3    3    0    0  0.41041930268E+01  0.14108324464E+02 -0.10602702138E+02  0.18119230453E+02  0.00000000000E+00 0.  1.
</event>
<event>
 7    1  0.1714203E-010  0.4778728E+02  0.7816164E-02  0.1312668E+00
        -11   -1    0    0    0    0  0.00000000000E+00  0.00000000000E+00  0.45593999997E+02  0.45594000000E+02  0.51100000000E-03 0.  1.
         11   -1    0    0    0    0 -0.00000000000E+00 -0.00000000000E+00 -0.45593999997E+02  0.45594000000E+02  0.51100000000E-03 0. -1.
    9900012    2    1    2    0    0 -0.31621592732E+02 -0.12374255643E+01 -0.29701278360E+02  0.47787282436E+02  0.20000051937E+02 0.  0.
        -12    1    1    2    0    0  0.31621592732E+02  0.12374255643E+01  0.29701278360E+02  0.43400717564E+02  0.00000000000E+00 0.  1.
         11    1    3    3    0    0 -0.11607075077E+02  0.58007512795E+01 -0.12231562236E+02  0.17832106501E+02  0.51100000000E-03 0. -1.
        -11    1    3    3    0    0 -0.82344709280E+01 -0.47589228979E+01 -0.97847606781E+00  0.95609243428E+01  0.51100000000E-03 0.  1.
         12    1    3    3    0    0 -0.11780046726E+02 -0.22792539460E+01 -0.16491240056E+02  0.20394251592E+02  0.00000000000E+00 0. -1.
</event>
<event>
 7    1  0.1714203E-010  0.4778727E+02  0.7816164E-02  0.1312668E+00
        -11   -1    0    0    0    0  0.00000000000E+00  0.00000000000E+00  0.45593999997E+02  0.45594000000E+02  0.51100000000E-03 0.  1.
         11   -1    0    0    0    0 -0.00000000000E+00 -0.00000000000E+00 -0.45593999997E+02  0.45594000000E+02  0.51100000000E-03 0. -1.
    9900012    2    1    2    0    0  0.10038336602E+02 -0.12236934872E+02 -0.40411787343E+02  0.47787270363E+02  0.19999996892E+02 0.  0.
        -12    1    1    2    0    0 -0.10038336602E+02  0.12236934872E+02  0.40411787343E+02  0.43400729637E+02  0.00000000000E+00 0.  1.
         11    1    3    3    0    0  0.67628024224E+01 -0.40005186693E+01 -0.19310708570E+02  0.20848096123E+02  0.51100000000E-03 0. -1.
        -11    1    3    3    0    0  0.42576621061E+01 -0.11277857126E+02 -0.10910138549E+02  0.16258809040E+02  0.51100000000E-03 0.  1.
         12    1    3    3    0    0 -0.98212792599E+00  0.30414409237E+01 -0.10190940224E+02  0.10680365200E+02  0.00000000000E+00 0. -1.
</event>
<event>
 7    1  0.1714203E-010  0.4778727E+02  0.7816164E-02  0.1312668E+00
        -11   -1    0    0    0    0  0.00000000000E+00  0.00000000000E+00  0.45593999997E+02  0.45594000000E+02  0.51100000000E-03 0.  1.
         11   -1    0    0    0    0 -0.00000000000E+00 -0.00000000000E+00 -0.45593999997E+02  0.45594000000E+02  0.51100000000E-03 0. -1.
    9900012    2    1    2    0    0 -0.20608963729E+02 -0.94092401689E+00 -0.38183875527E+02  0.47787273345E+02  0.20000010487E+02 0.  0.
        -12    1    1    2    0    0  0.20608963729E+02  0.94092401689E+00  0.38183875527E+02  0.43400726655E+02  0.00000000000E+00 0.  1.
         11    1    3    3    0    0 -0.32855301371E+01 -0.54397900839E-01 -0.54013506856E+01  0.63223616555E+01  0.51100000000E-03 0. -1.
        -11    1    3    3    0    0 -0.24012554165E+01  0.40216054212E+01 -0.21800770076E+02  0.22298271545E+02  0.51100000000E-03 0.  1.
        -12    1    3    3    0    0 -0.14922178175E+02 -0.49081315373E+01 -0.10981754765E+02  0.19166640144E+02  0.00000000000E+00 0.  1.
</event>
<event>
 7    1  0.1714203E-010  0.4778727E+02  0.7816164E-02  0.1312668E+00
        -11   -1    0    0    0    0  0.00000000000E+00  0.00000000000E+00  0.45593999997E+02  0.45594000000E+02  0.51100000000E-03 0.  1.
         11   -1    0    0    0    0 -0.00000000000E+00 -0.00000000000E+00 -0.45593999997E+02  0.45594000000E+02  0.51100000000E-03 0. -1.
    9900012    2    1    2    0    0 -0.16641476734E+02  0.34553210672E+02 -0.20316502926E+02  0.47787269513E+02  0.19999993019E+02 0.  0.
        -12    1    1    2    0    0  0.16641476734E+02 -0.34553210672E+02  0.20316502926E+02  0.43400730487E+02  0.00000000000E+00 0.  1.
         11    1    3    3    0    0 -0.33198923524E+01  0.88457339152E+01 -0.65026231149E+00  0.94705614968E+01  0.51100000000E-03 0. -1.
        -11    1    3    3    0    0 -0.84964517920E+01  0.30218940427E+01 -0.91630907306E+01  0.12856273514E+02  0.51100000000E-03 0.  1.
        -12    1    3    3    0    0 -0.48251325900E+01  0.22685582714E+02 -0.10503149883E+02  0.25460434503E+02  0.00000000000E+00 0.  1.
</event>
<event>
 7    1  0.1714203E-010  0.4778727E+02  0.7816164E-02  0.1312668E+00
        -11   -1    0    0    0    0  0.00000000000E+00  0.00000000000E+00  0.45593999997E+02  0.45594000000E+02  0.51100000000E-03 0.  1.
         11   -1    0    0    0    0 -0.00000000000E+00 -0.00000000000E+00 -0.45593999997E+02  0.45594000000E+02  0.51100000000E-03 0. -1.
    9900012    2    1    2    0    0 -0.11979288276E+01 -0.37305598774E+02 -0.22146799036E+02  0.47787269120E+02  0.19999991226E+02 0.  0.
        -12    1    1    2    0    0  0.11979288276E+01  0.37305598774E+02  0.22146799036E+02  0.43400730880E+02  0.00000000000E+00 0.  1.
         11    1    3    3    0    0 -0.41284732746E+01 -0.14311847340E+02  0.61495482665E+00  0.14908099663E+02  0.51100000000E-03 0. -1.
        -11    1    3    3    0    0  0.79626951625E-01 -0.51408367768E+01 -0.81377304708E+01  0.96258610365E+01  0.51100000000E-03 0.  1.
         12    1    3    3    0    0  0.28509174954E+01 -0.17852914657E+02 -0.14624023391E+02  0.23253308420E+02  0.00000000000E+00 0. -1.
</event>
<event>
 7    1  0.1714203E-010  0.4778727E+02  0.7816164E-02  0.1312668E+00
        -11   -1    0    0    0    0  0.00000000000E+00  0.00000000000E+00  0.45593999997E+02  0.45594000000E+02  0.51100000000E-03 0.  1.
         11   -1    0    0    0    0 -0.00000000000E+00 -0.00000000000E+00 -0.45593999997E+02  0.45594000000E+02  0.51100000000E-03 0. -1.
    9900012    2    1    2    0    0  0.39815990391E+02  0.17171464496E+02  0.18576559767E+01  0.47787272247E+02  0.20000005482E+02 0.  0.
        -12    1    1    2    0    0 -0.39815990391E+02 -0.17171464496E+02 -0.18576559767E+01  0.43400727753E+02  0.00000000000E+00 0.  1.
         11    1    3    3    0    0  0.11249795420E+02  0.34997532397E+01 -0.46540953270E+01  0.12667548039E+02  0.51100000000E-03 0. -1.
        -11    1    3    3    0    0  0.18031680057E+02  0.17379878182E+01  0.63647120246E+01  0.19200824117E+02  0.51100000000E-03 0.  1.
         12    1    3    3    0    0  0.10534514914E+02  0.11933723438E+02  0.14703927907E+00  0.15918900091E+02  0.00000000000E+00 0. -1.
</event>
<event>
 7    1  0.1714203E-010  0.4778727E+02  0.7816164E-02  0.1312668E+00
        -11   -1    0    0    0    0  0.00000000000E+00  0.00000000000E+00  0.45593999997E+02  0.45594000000E+02  0.51100000000E-03 0.  1.
         11   -1    0    0    0    0 -0.00000000000E+00 -0.00000000000E+00 -0.45593999997E+02  0.45594000000E+02  0.51100000000E-03 0. -1.
    9900012    2    1    2    0    0 -0.22466625669E+02 -0.29453195256E+02 -0.22613786456E+02  0.47787270541E+02  0.19999997705E+02 0.  0.
        -12    1    1    2    0    0  0.22466625669E+02  0.29453195256E+02  0.22613786456E+02  0.43400729459E+02  0.00000000000E+00 0.  1.
         11    1    3    3    0    0 -0.12223285574E+02 -0.18681913297E+02 -0.16288993716E+02  0.27636097973E+02  0.51100000000E-03 0. -1.
        -11    1    3    3    0    0 -0.91778537273E+01 -0.94736255983E+00 -0.35660119628E+01  0.98917610384E+01  0.51100000000E-03 0.  1.
         12    1    3    3    0    0 -0.10654863674E+01 -0.98239193985E+01 -0.27587807775E+01  0.10259411529E+02  0.00000000000E+00 0. -1.
</event>
<event>
 7    1  0.1714203E-010  0.4778727E+02  0.7816164E-02  0.1312668E+00
        -11   -1    0    0    0    0  0.00000000000E+00  0.00000000000E+00  0.45593999997E+02  0.45594000000E+02  0.51100000000E-03 0.  1.
         11   -1    0    0    0    0 -0.00000000000E+00 -0.00000000000E+00 -0.45593999997E+02  0.45594000000E+02  0.51100000000E-03 0. -1.
    9900012    2    1    2    0    0  0.17084141706E+02 -0.37681058900E+02 -0.13110804196E+02  0.47787270924E+02  0.19999999450E+02 0.  0.
        -12    1    1    2    0    0 -0.17084141706E+02  0.37681058900E+02  0.13110804196E+02  0.43400729076E+02  0.00000000000E+00 0.  1.
         11    1    3    3    0    0  0.37564870505E+01 -0.59005564651E+01 -0.63780104132E+01  0.94660857091E+01  0.51100000000E-03 0. -1.
        -11    1    3    3    0    0  0.44951414166E+01 -0.20486478229E+02  0.27175937608E+01  0.21149170260E+02  0.51100000000E-03 0.  1.
        -12    1    3    3    0    0  0.88325132388E+01 -0.11294024206E+02 -0.94503875433E+01  0.17172014955E+02  0.00000000000E+00 0.  1.
</event>
<event>
 7    1  0.1714203E-010  0.4778726E+02  0.7816164E-02  0.1312668E+00
        -11   -1    0    0    0    0  0.00000000000E+00  0.00000000000E+00  0.45593999997E+02  0.45594000000E+02  0.51100000000E-03 0. -1.
         11   -1    0    0    0    0 -0.00000000000E+00 -0.00000000000E+00 -0.45593999997E+02  0.45594000000E+02  0.51100000000E-03 0.  1.
    9900012    2    1    2    0    0 -0.21529856660E+02 -0.29464156146E+01  0.37568713437E+02  0.47787258969E+02  0.19999944941E+02 0.  0.
        -12    1    1    2    0    0  0.21529856660E+02  0.29464156146E+01 -0.37568713437E+02  0.43400741031E+02  0.00000000000E+00 0.  1.
         11    1    3    3    0    0 -0.95112223341E+01 -0.46121471356E+01  0.97539201960E+01  0.14383122434E+02  0.51100000000E-03 0. -1.
        -11    1    3    3    0    0  0.27640871965E+01 -0.16802186774E+01  0.63645577879E+01  0.71393913557E+01  0.51100000000E-03 0.  1.
         12    1    3    3    0    0 -0.14782721522E+02  0.33459501985E+01  0.21450235453E+02  0.26264745179E+02  0.00000000000E+00 0. -1.
</event>
<event>
 7    1  0.1714203E-010  0.4778727E+02  0.7816164E-02  0.1312668E+00
        -11   -1    0    0    0    0  0.00000000000E+00  0.00000000000E+00  0.45593999997E+02  0.45594000000E+02  0.51100000000E-03 0. -1.
         11   -1    0    0    0    0 -0.00000000000E+00 -0.00000000000E+00 -0.45593999997E+02  0.45594000000E+02  0.51100000000E-03 0.  1.
    9900012    2    1    2    0    0  0.56872857969E+01 -0.42990230757E+02 -0.17658480601E+01  0.47787269826E+02  0.19999994446E+02 0.  0.
        -12    1    1    2    0    0 -0.56872857969E+01  0.42990230757E+02  0.17658480601E+01  0.43400730174E+02  0.00000000000E+00 0.  1.
         11    1    3    3    0    0  0.60807676861E+01 -0.22898131932E+02  0.31645765088E+01  0.23902190828E+02  0.51100000000E-03 0. -1.
        -11    1    3    3    0    0 -0.24216841838E+01 -0.18210380636E+02 -0.77466414203E+01  0.19937225753E+02  0.51100000000E-03 0.  1.
         12    1    3    3    0    0  0.20282022946E+01 -0.18817181886E+01  0.28162168514E+01  0.39478532449E+01  0.00000000000E+00 0. -1.
</event>
<event>
 7    1  0.1714203E-010  0.4778727E+02  0.7816164E-02  0.1312668E+00
        -11   -1    0    0    0    0  0.00000000000E+00  0.00000000000E+00  0.45593999997E+02  0.45594000000E+02  0.51100000000E-03 0.  1.
         11   -1    0    0    0    0 -0.00000000000E+00 -0.00000000000E+00 -0.45593999997E+02  0.45594000000E+02  0.51100000000E-03 0. -1.
    9900012    2    1    2    0    0  0.48462937185E+01  0.39230970102E+02 -0.17918372143E+02  0.47787266847E+02  0.19999980861E+02 0.  0.
        -12    1    1    2    0    0 -0.48462937185E+01 -0.39230970102E+02  0.17918372143E+02  0.43400733153E+02  0.00000000000E+00 0.  1.
         11    1    3    3    0    0  0.24726150713E+01  0.25440864037E+02 -0.80807518073E+01  0.26807647011E+02  0.51100000000E-03 0. -1.
        -11    1    3    3    0    0  0.30599946630E+01  0.10323525979E+02 -0.12541781461E+02  0.16529822699E+02  0.51100000000E-03 0.  1.
         12    1    3    3    0    0 -0.68631601582E+00  0.34665800861E+01  0.27041611252E+01  0.44497971367E+01  0.00000000000E+00 0. -1.
</event>
<event>
 7    1  0.1714203E-010  0.4778727E+02  0.7816164E-02  0.1312668E+00
        -11   -1    0    0    0    0  0.00000000000E+00  0.00000000000E+00  0.45593999997E+02  0.45594000000E+02  0.51100000000E-03 0.  1.
         11   -1    0    0    0    0 -0.00000000000E+00 -0.00000000000E+00 -0.45593999997E+02  0.45594000000E+02  0.51100000000E-03 0. -1.
    9900012    2    1    2    0    0 -0.61278889992E+00 -0.42145061402E+02 -0.10346100042E+02  0.47787268475E+02  0.19999988287E+02 0.  0.
        -12    1    1    2    0    0  0.61278889992E+00  0.42145061402E+02  0.10346100042E+02  0.43400731525E+02  0.00000000000E+00 0.  1.
         11    1    3    3    0    0  0.25465508426E+01 -0.21416617585E+02 -0.25681668509E+01  0.21719850626E+02  0.51100000000E-03 0. -1.
        -11    1    3    3    0    0 -0.74118124188E+01 -0.16298167218E+02 -0.27160337874E+01  0.18109170544E+02  0.51100000000E-03 0.  1.
         12    1    3    3    0    0  0.42524726762E+01 -0.44302765986E+01 -0.50618994036E+01  0.79582473054E+01  0.00000000000E+00 0. -1.
</event>
<event>
 7    1  0.1714203E-010  0.4778727E+02  0.7816164E-02  0.1312668E+00
        -11   -1    0    0    0    0  0.00000000000E+00  0.00000000000E+00  0.45593999997E+02  0.45594000000E+02  0.51100000000E-03 0. -1.
         11   -1    0    0    0    0 -0.00000000000E+00 -0.00000000000E+00 -0.45593999997E+02  0.45594000000E+02  0.51100000000E-03 0.  1.
    9900012    2    1    2    0    0  0.19811932848E+02 -0.29407785812E+02  0.25025841948E+02  0.47787270573E+02  0.19999997851E+02 0.  0.
        -12    1    1    2    0    0 -0.19811932848E+02  0.29407785812E+02 -0.25025841948E+02  0.43400729427E+02  0.00000000000E+00 0.  1.
         11    1    3    3    0    0  0.14136160522E+02 -0.15007258893E+02  0.15260909727E+02  0.25650423383E+02  0.51100000000E-03 0. -1.
        -11    1    3    3    0    0  0.29426073978E+01  0.12406096076E-01 -0.18062405140E+01  0.34527666102E+01  0.51100000000E-03 0.  1.
         12    1    3    3    0    0  0.27331649283E+01 -0.14412933015E+02  0.11571172735E+02  0.18684080579E+02  0.00000000000E+00 0. -1.
</event>
<event>
 7    1  0.1714203E-010  0.4778727E+02  0.7816164E-02  0.1312668E+00
        -11   -1    0    0    0    0  0.00000000000E+00  0.00000000000E+00  0.45593999997E+02  0.45594000000E+02  0.51100000000E-03 0.  1.
         11   -1    0    0    0    0 -0.00000000000E+00 -0.00000000000E+00 -0.45593999997E+02  0.45594000000E+02  0.51100000000E-03 0. -1.
    9900012    2    1    2    0    0  0.13795290146E+02  0.55632885741E+01 -0.40772086539E+02  0.47787271311E+02  0.20000001216E+02 0.  0.
        -12    1    1    2    0    0 -0.13795290146E+02 -0.55632885741E+01  0.40772086539E+02  0.43400728689E+02  0.00000000000E+00 0.  1.
         11    1    3    3    0    0 -0.75802127805E+00  0.24929775804E+01 -0.13896698496E+02  0.14138874171E+02  0.51100000000E-03 0. -1.
        -11    1    3    3    0    0  0.30896507704E+01 -0.32902383076E+01 -0.97285256387E+00  0.46171476451E+01  0.51100000000E-03 0.  1.
         12    1    3    3    0    0  0.11463660654E+02  0.63605493013E+01 -0.25902535479E+02  0.29031249495E+02  0.00000000000E+00 0. -1.
</event>
<event>
 7    1  0.1714203E-010  0.4778727E+02  0.7816164E-02  0.1312668E+00
        -11   -1    0    0    0    0  0.00000000000E+00  0.00000000000E+00  0.45593999997E+02  0.45594000000E+02  0.51100000000E-03 0. -1.
         11   -1    0    0    0    0 -0.00000000000E+00 -0.00000000000E+00 -0.45593999997E+02  0.45594000000E+02  0.51100000000E-03 0.  1.
    9900012    2    1    2    0    0 -0.72622746957E+01  0.41560575550E+02 -0.10178473904E+02  0.47787269536E+02  0.19999993124E+02 0.  0.
        -12    1    1    2    0    0  0.72622746957E+01 -0.41560575550E+02  0.10178473904E+02  0.43400730464E+02  0.00000000000E+00 0.  1.
         11    1    3    3    0    0 -0.82648948405E+01  0.83848909857E+01 -0.98758643406E+00  0.11814830121E+02  0.51100000000E-03 0. -1.
        -11    1    3    3    0    0  0.12993550261E+01  0.84744824697E+01 -0.71886046771E+01  0.11188441092E+02  0.51100000000E-03 0.  1.
         12    1    3    3    0    0 -0.29673488133E+00  0.24701202094E+02 -0.20022827926E+01  0.24783998323E+02  0.00000000000E+00 0. -1.
</event>
<event>
 7    1  0.1714203E-010  0.4778727E+02  0.7816164E-02  0.1312668E+00
        -11   -1    0    0    0    0  0.00000000000E+00  0.00000000000E+00  0.45593999997E+02  0.45594000000E+02  0.51100000000E-03 0.  1.
         11   -1    0    0    0    0 -0.00000000000E+00 -0.00000000000E+00 -0.45593999997E+02  0.45594000000E+02  0.51100000000E-03 0. -1.
    9900012    2    1    2    0    0 -0.39355106535E+02  0.16930785291E+02 -0.69388375130E+01  0.47787269971E+02  0.19999995108E+02 0.  0.
        -12    1    1    2    0    0  0.39355106535E+02 -0.16930785291E+02  0.69388375130E+01  0.43400730029E+02  0.00000000000E+00 0.  1.
         11    1    3    3    0    0 -0.12727816856E+01  0.59160320006E+01  0.38862505268E+00  0.60638632524E+01  0.51100000000E-03 0.  1.
        -11    1    3    3    0    0 -0.23960235337E+02  0.11642804227E+02 -0.71668864451E+01  0.27586446477E+02  0.51100000000E-03 0. -1.
        -12    1    3    3    0    0 -0.14122089513E+02 -0.62805093646E+00 -0.16057612062E+00  0.14136960242E+02  0.00000000000E+00 0.  1.
</event>
<event>
 7    1  0.1714203E-010  0.4778727E+02  0.7816164E-02  0.1312668E+00
        -11   -1    0    0    0    0  0.00000000000E+00  0.00000000000E+00  0.45593999997E+02  0.45594000000E+02  0.51100000000E-03 0.  1.
         11   -1    0    0    0    0 -0.00000000000E+00 -0.00000000000E+00 -0.45593999997E+02  0.45594000000E+02  0.51100000000E-03 0. -1.
    9900012    2    1    2    0    0  0.10491167829E+02  0.70010099751E+01 -0.41527638223E+02  0.47787268676E+02  0.19999989199E+02 0.  0.
        -12    1    1    2    0    0 -0.10491167829E+02 -0.70010099751E+01  0.41527638223E+02  0.43400731324E+02  0.00000000000E+00 0.  1.
         11    1    3    3    0    0  0.79565026992E+01  0.75257070166E+01 -0.23343771756E+02  0.25785148465E+02  0.51100000000E-03 0. -1.
        -11    1    3    3    0    0 -0.35271975919E+01  0.20197656479E+01 -0.19918552453E+01  0.45263742337E+01  0.51100000000E-03 0.  1.
         12    1    3    3    0    0  0.60618627215E+01 -0.25444626894E+01 -0.16192011222E+02  0.17475745977E+02  0.00000000000E+00 0. -1.
</event>
<event>
 7    1  0.1714203E-010  0.4778728E+02  0.7816164E-02  0.1312668E+00
        -11   -1    0    0    0    0  0.00000000000E+00  0.00000000000E+00  0.45593999997E+02  0.45594000000E+02  0.51100000000E-03 0. -1.
         11   -1    0    0    0    0 -0.00000000000E+00 -0.00000000000E+00 -0.45593999997E+02  0.45594000000E+02  0.51100000000E-03 0.  1.
    9900012    2    1    2    0    0 -0.33286163712E+02 -0.27673036516E+02 -0.31396290179E+01  0.47787275178E+02  0.20000018847E+02 0.  0.
        -12    1    1    2    0    0  0.33286163712E+02  0.27673036516E+02  0.31396290179E+01  0.43400724822E+02  0.00000000000E+00 0.  1.
         11    1    3    3    0    0 -0.14739815070E+02 -0.18069375422E+02 -0.67988720245E+01  0.24289692001E+02  0.51100000000E-03 0. -1.
        -11    1    3    3    0    0  0.73170991180E+00  0.87215250478E+00  0.75415324336E+00  0.13655756157E+01  0.51100000000E-03 0.  1.
         12    1    3    3    0    0 -0.19278058554E+02 -0.10475813598E+02  0.29050897633E+01  0.22132007561E+02  0.00000000000E+00 0. -1.
</event>
<event>
 7    1  0.1714203E-010  0.4778729E+02  0.7816164E-02  0.1312668E+00
        -11   -1    0    0    0    0  0.00000000000E+00  0.00000000000E+00  0.45593999997E+02  0.45594000000E+02  0.51100000000E-03 0.  1.
         11   -1    0    0    0    0 -0.00000000000E+00 -0.00000000000E+00 -0.45593999997E+02  0.45594000000E+02  0.51100000000E-03 0. -1.
    9900012    2    1    2    0    0  0.52430020458E+01 -0.31035550718E+01 -0.42970931183E+02  0.47787285130E+02  0.20000064220E+02 0.  0.
        -12    1    1    2    0    0 -0.52430020458E+01  0.31035550718E+01  0.42970931183E+02  0.43400714870E+02  0.00000000000E+00 0.  1.
         11    1    3    3    0    0  0.22861920181E+00 -0.66044816474E+01 -0.37944607148E+02  0.38515771529E+02  0.51100000000E-03 0. -1.
        -11    1    3    3    0    0  0.21255650801E+01 -0.91171387852E+00 -0.60849311880E+00  0.23915503848E+01  0.51100000000E-03 0.  1.
         12    1    3    3    0    0  0.28888177638E+01  0.44126404542E+01 -0.44178309159E+01  0.68799632159E+01  0.00000000000E+00 0. -1.
</event>
<event>
 7    1  0.1714203E-010  0.4778727E+02  0.7816164E-02  0.1312668E+00
        -11   -1    0    0    0    0  0.00000000000E+00  0.00000000000E+00  0.45593999997E+02  0.45594000000E+02  0.51100000000E-03 0.  1.
         11   -1    0    0    0    0 -0.00000000000E+00 -0.00000000000E+00 -0.45593999997E+02  0.45594000000E+02  0.51100000000E-03 0. -1.
    9900012    2    1    2    0    0  0.22306049577E+02  0.36678150626E+02 -0.63856551503E+01  0.47787272209E+02  0.20000005311E+02 0.  0.
        -12    1    1    2    0    0 -0.22306049577E+02 -0.36678150626E+02  0.63856551503E+01  0.43400727791E+02  0.00000000000E+00 0.  1.
         11    1    3    3    0    0  0.15032209574E+02  0.10597521771E+02 -0.72171982165E+01  0.19757599619E+02  0.51100000000E-03 0. -1.
        -11    1    3    3    0    0 -0.14661735293E+01  0.45491820453E+01  0.13176629502E+00  0.47814312415E+01  0.51100000000E-03 0.  1.
        -12    1    3    3    0    0  0.87400135326E+01  0.21531446810E+02  0.69977677119E+00  0.23248241349E+02  0.00000000000E+00 0.  1.
</event>
<event>
 7    1  0.1714203E-010  0.4778725E+02  0.7816164E-02  0.1312668E+00
        -11   -1    0    0    0    0  0.00000000000E+00  0.00000000000E+00  0.45593999997E+02  0.45594000000E+02  0.51100000000E-03 0.  1.
         11   -1    0    0    0    0 -0.00000000000E+00 -0.00000000000E+00 -0.45593999997E+02  0.45594000000E+02  0.51100000000E-03 0. -1.
    9900012    2    1    2    0    0 -0.38564000510E+00 -0.23724098489E+02 -0.36340654537E+02  0.47787254160E+02  0.19999923015E+02 0.  0.
        -12    1    1    2    0    0  0.38564000510E+00  0.23724098489E+02  0.36340654537E+02  0.43400745840E+02  0.00000000000E+00 0.  1.
         11    1    3    3    0    0 -0.20225150422E+01 -0.21033543757E+02 -0.19831364892E+02  0.28979019373E+02  0.51100000000E-03 0. -1.
        -11    1    3    3    0    0 -0.29785757546E+01 -0.15366507959E+01 -0.11145682263E+02  0.11638704505E+02  0.51100000000E-03 0.  1.
        -12    1    3    3    0    0  0.46154507917E+01 -0.11539039358E+01 -0.53636073821E+01  0.71695302812E+01  0.00000000000E+00 0.  1.
</event>
<event>
 7    1  0.1714203E-010  0.4778727E+02  0.7816164E-02  0.1312668E+00
        -11   -1    0    0    0    0  0.00000000000E+00  0.00000000000E+00  0.45593999997E+02  0.45594000000E+02  0.51100000000E-03 0. -1.
         11   -1    0    0    0    0 -0.00000000000E+00 -0.00000000000E+00 -0.45593999997E+02  0.45594000000E+02  0.51100000000E-03 0.  1.
    9900012    2    1    2    0    0  0.43127946445E+01 -0.38188961139E+02  0.20164985613E+02  0.47787267341E+02  0.19999983115E+02 0.  0.
        -12    1    1    2    0    0 -0.43127946445E+01  0.38188961139E+02 -0.20164985613E+02  0.43400732659E+02  0.00000000000E+00 0.  1.
         11    1    3    3    0    0  0.47451593220E+01 -0.19463855047E+02  0.12505121030E+02  0.23616440090E+02  0.51100000000E-03 0.  1.
        -11    1    3    3    0    0 -0.57095093160E+01 -0.90062557680E+01 -0.94560401880E-01  0.10663961812E+02  0.51100000000E-03 0. -1.
         12    1    3    3    0    0  0.52771446384E+01 -0.97188503244E+01  0.77544249846E+01  0.13506865440E+02  0.00000000000E+00 0. -1.
</event>
<event>
 7    1  0.1714203E-010  0.4778727E+02  0.7816164E-02  0.1312668E+00
        -11   -1    0    0    0    0  0.00000000000E+00  0.00000000000E+00  0.45593999997E+02  0.45594000000E+02  0.51100000000E-03 0.  1.
         11   -1    0    0    0    0 -0.00000000000E+00 -0.00000000000E+00 -0.45593999997E+02  0.45594000000E+02  0.51100000000E-03 0. -1.
    9900012    2    1    2    0    0 -0.76671265999E+01  0.20239771924E+02 -0.37619010199E+02  0.47787272746E+02  0.20000007759E+02 0.  0.
        -12    1    1    2    0    0  0.76671265999E+01 -0.20239771924E+02  0.37619010199E+02  0.43400727254E+02  0.00000000000E+00 0.  1.
         11    1    3    3    0    0 -0.64483241142E+01 -0.12192014232E+01 -0.10593223729E+02  0.12461289068E+02  0.51100000000E-03 0. -1.
        -11    1    3    3    0    0 -0.40473457127E+01  0.13106568392E+02 -0.18754228711E+02  0.23235409124E+02  0.51100000000E-03 0.  1.
        -12    1    3    3    0    0  0.28285432270E+01  0.83524049546E+01 -0.82715577580E+01  0.12090574554E+02  0.00000000000E+00 0.  1.
</event>
<event>
 7    1  0.1714203E-010  0.4778727E+02  0.7816164E-02  0.1312668E+00
        -11   -1    0    0    0    0  0.00000000000E+00  0.00000000000E+00  0.45593999997E+02  0.45594000000E+02  0.51100000000E-03 0. -1.
         11   -1    0    0    0    0 -0.00000000000E+00 -0.00000000000E+00 -0.45593999997E+02  0.45594000000E+02  0.51100000000E-03 0.  1.
    9900012    2    1    2    0    0 -0.18137293302E+02 -0.19365892914E+02  0.34345651225E+02  0.47787274490E+02  0.20000015712E+02 0.  0.
        -12    1    1    2    0    0  0.18137293302E+02  0.19365892914E+02 -0.34345651225E+02  0.43400725510E+02  0.00000000000E+00 0.  1.
         11    1    3    3    0    0 -0.10731412213E+01  0.14971431858E+01  0.88756692837E+01  0.90647986903E+01  0.51100000000E-03 0. -1.
        -11    1    3    3    0    0 -0.16232231499E+02 -0.18312091329E+02  0.26290463253E+02  0.35916660293E+02  0.51100000000E-03 0.  1.
         12    1    3    3    0    0 -0.83192058174E+00 -0.25509447712E+01 -0.82048131142E+00  0.28058155076E+01  0.00000000000E+00 0. -1.
</event>
<event>
 7    1  0.1714203E-010  0.4778725E+02  0.7816164E-02  0.1312668E+00
        -11   -1    0    0    0    0  0.00000000000E+00  0.00000000000E+00  0.45593999997E+02  0.45594000000E+02  0.51100000000E-03 0. -1.
         11   -1    0    0    0    0 -0.00000000000E+00 -0.00000000000E+00 -0.45593999997E+02  0.45594000000E+02  0.51100000000E-03 0.  1.
    9900012    2    1    2    0    0 -0.19707838712E+02  0.29073639518E+02  0.25494105081E+02  0.47787253285E+02  0.19999919027E+02 0.  0.
        -12    1    1    2    0    0  0.19707838712E+02 -0.29073639518E+02 -0.25494105081E+02  0.43400746715E+02  0.00000000000E+00 0.  1.
         11    1    3    3    0    0 -0.49963778841E+01  0.12314529035E+02  0.66875166469E+01  0.14877308106E+02  0.51100000000E-03 0. -1.
        -11    1    3    3    0    0 -0.13178944845E+02  0.58583285766E+01  0.50272098128E+01  0.15273422659E+02  0.51100000000E-03 0.  1.
         12    1    3    3    0    0 -0.15325159829E+01  0.10900781906E+02  0.13779378622E+02  0.17636522520E+02  0.00000000000E+00 0. -1.
</event>
<event>
 7    1  0.1714203E-010  0.4778727E+02  0.7816164E-02  0.1312668E+00
        -11   -1    0    0    0    0  0.00000000000E+00  0.00000000000E+00  0.45593999997E+02  0.45594000000E+02  0.51100000000E-03 0.  1.
         11   -1    0    0    0    0 -0.00000000000E+00 -0.00000000000E+00 -0.45593999997E+02  0.45594000000E+02  0.51100000000E-03 0. -1.
    9900012    2    1    2    0    0 -0.38515586175E+02  0.54977157882E+01 -0.19234030827E+02  0.47787271905E+02  0.20000003925E+02 0.  0.
        -12    1    1    2    0    0  0.38515586175E+02 -0.54977157882E+01  0.19234030827E+02  0.43400728095E+02  0.00000000000E+00 0.  1.
         11    1    3    3    0    0 -0.74315211323E+01  0.34503527121E+01  0.42651648301E-01  0.81935498779E+01  0.51100000000E-03 0. -1.
        -11    1    3    3    0    0  0.13187019879E+01  0.43058762250E+00 -0.29811546900E+01  0.32881095147E+01  0.51100000000E-03 0.  1.
         12    1    3    3    0    0 -0.32402767031E+02  0.16167754537E+01 -0.16295527785E+02  0.36305612513E+02  0.00000000000E+00 0. -1.
</event>
<event>
 7    1  0.1714203E-010  0.4778728E+02  0.7816164E-02  0.1312668E+00
        -11   -1    0    0    0    0  0.00000000000E+00  0.00000000000E+00  0.45593999997E+02  0.45594000000E+02  0.51100000000E-03 0.  1.
         11   -1    0    0    0    0 -0.00000000000E+00 -0.00000000000E+00 -0.45593999997E+02  0.45594000000E+02  0.51100000000E-03 0. -1.
    9900012    2    1    2    0    0 -0.36780987186E+02  0.31342771964E+01 -0.22824499990E+02  0.47787279824E+02  0.20000040031E+02 0.  0.
        -12    1    1    2    0    0  0.36780987186E+02 -0.31342771964E+01  0.22824499990E+02  0.43400720176E+02  0.00000000000E+00 0.  1.
         11    1    3    3    0    0 -0.50528590630E+01  0.72428916421E-01 -0.11718736920E+02  0.12761873919E+02  0.51100000000E-03 0. -1.
        -11    1    3    3    0    0 -0.95571393320E+01  0.39639995124E+01 -0.31502471400E+00  0.10351398223E+02  0.51100000000E-03 0.  1.
        -12    1    3    3    0    0 -0.22170988791E+02 -0.90215123238E+00 -0.10790738356E+02  0.24674007682E+02  0.00000000000E+00 0.  1.
</event>
<event>
 7    1  0.1714203E-010  0.4778727E+02  0.7816164E-02  0.1312668E+00
        -11   -1    0    0    0    0  0.00000000000E+00  0.00000000000E+00  0.45593999997E+02  0.45594000000E+02  0.51100000000E-03 0.  1.
         11   -1    0    0    0    0 -0.00000000000E+00 -0.00000000000E+00 -0.45593999997E+02  0.45594000000E+02  0.51100000000E-03 0. -1.
    9900012    2    1    2    0    0  0.29174651955E+02  0.31434329506E+02  0.66592566424E+01  0.47787273195E+02  0.20000009804E+02 0.  0.
        -12    1    1    2    0    0 -0.29174651955E+02 -0.31434329506E+02 -0.66592566424E+01  0.43400726805E+02  0.00000000000E+00 0.  1.
         11    1    3    3    0    0  0.17154801663E+02  0.10478524549E+02  0.33285632007E+00  0.20104663400E+02  0.51100000000E-03 0. -1.
        -11    1    3    3    0    0  0.77199907977E+01  0.39671589121E+01  0.52087993462E+01  0.10122657687E+02  0.51100000000E-03 0.  1.
         12    1    3    3    0    0  0.42998594945E+01  0.16988646045E+02  0.11176009761E+01  0.17559952109E+02  0.00000000000E+00 0. -1.
</event>
<event>
 7    1  0.1714203E-010  0.4778727E+02  0.7816164E-02  0.1312668E+00
        -11   -1    0    0    0    0  0.00000000000E+00  0.00000000000E+00  0.45593999997E+02  0.45594000000E+02  0.51100000000E-03 0.  1.
         11   -1    0    0    0    0 -0.00000000000E+00 -0.00000000000E+00 -0.45593999997E+02  0.45594000000E+02  0.51100000000E-03 0. -1.
    9900012    2    1    2    0    0 -0.22815615095E+02  0.27389774149E+02 -0.24756239717E+02  0.47787269303E+02  0.19999992060E+02 0.  0.
        -12    1    1    2    0    0  0.22815615095E+02 -0.27389774149E+02  0.24756239717E+02  0.43400730697E+02  0.00000000000E+00 0.  1.
         11    1    3    3    0    0 -0.30237767882E+01  0.50910303300E+01 -0.91466028313E+01  0.10895969874E+02  0.51100000000E-03 0. -1.
        -11    1    3    3    0    0 -0.10462466661E+02  0.20638988032E+02 -0.72322611093E+01  0.24243280237E+02  0.51100000000E-03 0.  1.
        -12    1    3    3    0    0 -0.93293716459E+01  0.16597557870E+01 -0.83773757768E+01  0.12648019192E+02  0.00000000000E+00 0.  1.
</event>
<event>
 7    1  0.1714203E-010  0.4778727E+02  0.7816164E-02  0.1312668E+00
        -11   -1    0    0    0    0  0.00000000000E+00  0.00000000000E+00  0.45593999997E+02  0.45594000000E+02  0.51100000000E-03 0. -1.
         11   -1    0    0    0    0 -0.00000000000E+00 -0.00000000000E+00 -0.45593999997E+02  0.45594000000E+02  0.51100000000E-03 0.  1.
    9900012    2    1    2    0    0 -0.40585088259E+02 -0.80294862126E+01  0.13114927998E+02  0.47787269888E+02  0.19999994729E+02 0.  0.
        -12    1    1    2    0    0  0.40585088259E+02  0.80294862126E+01 -0.13114927998E+02  0.43400730112E+02  0.00000000000E+00 0.  1.
         11    1    3    3    0    0 -0.21920214919E+02 -0.14649883273E+01  0.11199350906E+02  0.24659024188E+02  0.51100000000E-03 0. -1.
        -11    1    3    3    0    0  0.14097332516E+01  0.70112219027E+00  0.75926559450E+00  0.17479715874E+01  0.51100000000E-03 0.  1.
         12    1    3    3    0    0 -0.20074606591E+02 -0.72656200756E+01  0.11563114971E+01  0.21380274113E+02  0.00000000000E+00 0. -1.
</event>
<event>
 7    1  0.2048077E-010  0.4778727E+02  0.7816164E-02  0.1312668E+00
        -11   -1    0    0    0    0  0.00000000000E+00  0.00000000000E+00  0.45593999997E+02  0.45594000000E+02  0.51100000000E-03 0. -1.
         11   -1    0    0    0    0 -0.00000000000E+00 -0.00000000000E+00 -0.45593999997E+02  0.45594000000E+02  0.51100000000E-03 0.  1.
    9900012    2    1    2    0    0  0.18198451771E+02  0.33964241145E+02 -0.19971731270E+02  0.47787269899E+02  0.19999994777E+02 0.  0.
        -12    1    1    2    0    0 -0.18198451771E+02 -0.33964241145E+02  0.19971731270E+02  0.43400730101E+02  0.00000000000E+00 0.  1.
         11    1    3    3    0    0  0.15093724276E+02  0.19482119870E+02 -0.16063016337E+02  0.29417579799E+02  0.51100000000E-03 0. -1.
        -11    1    3    3    0    0  0.27905751608E+01  0.15859577673E+02 -0.46674831102E+01  0.16766004668E+02  0.51100000000E-03 0.  1.
        -12    1    3    3    0    0  0.31415233413E+00 -0.13774563981E+01  0.75876817660E+00  0.16036854316E+01  0.00000000000E+00 0.  1.
</event>
<event>
 7    1  0.1714203E-010  0.4778727E+02  0.7816164E-02  0.1312668E+00
        -11   -1    0    0    0    0  0.00000000000E+00  0.00000000000E+00  0.45593999997E+02  0.45594000000E+02  0.51100000000E-03 0.  1.
         11   -1    0    0    0    0 -0.00000000000E+00 -0.00000000000E+00 -0.45593999997E+02  0.45594000000E+02  0.51100000000E-03 0. -1.
    9900012    2    1    2    0    0  0.35387777766E+02  0.98512332519E+01 -0.23114536150E+02  0.47787269669E+02  0.19999993731E+02 0.  0.
        -12    1    1    2    0    0 -0.35387777766E+02 -0.98512332519E+01  0.23114536150E+02  0.43400730331E+02  0.00000000000E+00 0.  1.
         11    1    3    3    0    0  0.15279607790E+02 -0.53590364794E+00 -0.66799816727E+01  0.16684596559E+02  0.51100000000E-03 0. -1.
        -11    1    3    3    0    0  0.13146070546E+02  0.12635172481E+02 -0.79276451144E+01  0.19882512712E+02  0.51100000000E-03 0.  1.
         12    1    3    3    0    0  0.69620994298E+01 -0.22480355813E+01 -0.85069093629E+01  0.11220160398E+02  0.00000000000E+00 0. -1.
</event>
<event>
 7    1  0.1714203E-010  0.4778727E+02  0.7816164E-02  0.1312668E+00
        -11   -1    0    0    0    0  0.00000000000E+00  0.00000000000E+00  0.45593999997E+02  0.45594000000E+02  0.51100000000E-03 0. -1.
         11   -1    0    0    0    0 -0.00000000000E+00 -0.00000000000E+00 -0.45593999997E+02  0.45594000000E+02  0.51100000000E-03 0.  1.
    9900012    2    1    2    0    0 -0.20566949594E+02 -0.14483557022E+02  0.35367362968E+02  0.47787271862E+02  0.20000003727E+02 0.  0.
        -12    1    1    2    0    0  0.20566949594E+02  0.14483557022E+02 -0.35367362968E+02  0.43400728138E+02  0.00000000000E+00 0.  1.
         11    1    3    3    0    0 -0.12237533895E+02 -0.89338933349E+01  0.10899694168E+02  0.18664806968E+02  0.51100000000E-03 0. -1.
        -11    1    3    3    0    0 -0.58026055520E+01  0.28335497161E+01  0.66483340130E+01  0.92682026626E+01  0.51100000000E-03 0.  1.
         12    1    3    3    0    0 -0.25268101471E+01 -0.83832134035E+01  0.17819334787E+02  0.19854262231E+02  0.00000000000E+00 0. -1.
</event>
<event>
 7    1  0.1714203E-010  0.4778727E+02  0.7816164E-02  0.1312668E+00
        -11   -1    0    0    0    0  0.00000000000E+00  0.00000000000E+00  0.45593999997E+02  0.45594000000E+02  0.51100000000E-03 0. -1.
         11   -1    0    0    0    0 -0.00000000000E+00 -0.00000000000E+00 -0.45593999997E+02  0.45594000000E+02  0.51100000000E-03 0.  1.
    9900012    2    1    2    0    0  0.12568012590E+02  0.35519186312E+02  0.21541956762E+02  0.47787269155E+02  0.19999991386E+02 0.  0.
        -12    1    1    2    0    0 -0.12568012590E+02 -0.35519186312E+02 -0.21541956762E+02  0.43400730845E+02  0.00000000000E+00 0.  1.
         11    1    3    3    0    0  0.54837362692E+01  0.32606447710E+01  0.43921000155E+01  0.77455607027E+01  0.51100000000E-03 0. -1.
        -11    1    3    3    0    0  0.68035154125E+01  0.58778337823E+01  0.82397867007E+01  0.12195525289E+02  0.51100000000E-03 0.  1.
        -12    1    3    3    0    0  0.28076090847E+00  0.26380707759E+02  0.89100700455E+01  0.27846183163E+02  0.00000000000E+00 0.  1.
</event>
<event>
 7    1  0.1714203E-010  0.4778728E+02  0.7816164E-02  0.1312668E+00
        -11   -1    0    0    0    0  0.00000000000E+00  0.00000000000E+00  0.45593999997E+02  0.45594000000E+02  0.51100000000E-03 0. -1.
         11   -1    0    0    0    0 -0.00000000000E+00 -0.00000000000E+00 -0.45593999997E+02  0.45594000000E+02  0.51100000000E-03 0.  1.
    9900012    2    1    2    0    0  0.23468749127E+02  0.35524215852E+02  0.84184643152E+01  0.47787278360E+02  0.20000033354E+02 0.  0.
        -12    1    1    2    0    0 -0.23468749127E+02 -0.35524215852E+02 -0.84184643152E+01  0.43400721640E+02  0.00000000000E+00 0.  1.
         11    1    3    3    0    0  0.85550815537E+01  0.15458516090E+02 -0.25591811847E+01  0.17852298135E+02  0.51100000000E-03 0. -1.
        -11    1    3    3    0    0  0.13058113323E+01 -0.17180997904E+01  0.10288652860E+01  0.23907267019E+01  0.51100000000E-03 0.  1.
         12    1    3    3    0    0  0.13607856241E+02  0.21783799552E+02  0.99487802140E+01  0.27544253523E+02  0.00000000000E+00 0. -1.
</event>
<event>
 7    1  0.1714203E-010  0.4778727E+02  0.7816164E-02  0.1312668E+00
        -11   -1    0    0    0    0  0.00000000000E+00  0.00000000000E+00  0.45593999997E+02  0.45594000000E+02  0.51100000000E-03 0.  1.
         11   -1    0    0    0    0 -0.00000000000E+00 -0.00000000000E+00 -0.45593999997E+02  0.45594000000E+02  0.51100000000E-03 0. -1.
    9900012    2    1    2    0    0  0.52148481870E+01  0.95436711088E+01 -0.42016036099E+02  0.47787267410E+02  0.19999983429E+02 0.  0.
        -12    1    1    2    0    0 -0.52148481870E+01 -0.95436711088E+01  0.42016036099E+02  0.43400732590E+02  0.00000000000E+00 0.  1.
         11    1    3    3    0    0 -0.86512525588E+00  0.30407233562E+01 -0.14120952435E+02  0.14470512713E+02  0.51100000000E-03 0. -1.
        -11    1    3    3    0    0  0.11108921998E+02  0.17768911528E+01 -0.18641150272E+02  0.21772872430E+02  0.51100000000E-03 0.  1.
        -12    1    3    3    0    0 -0.50289485556E+01  0.47260565998E+01 -0.92539333923E+01  0.11543882267E+02  0.00000000000E+00 0.  1.
</event>
<event>
 7    1  0.1714203E-010  0.4778727E+02  0.7816164E-02  0.1312668E+00
        -11   -1    0    0    0    0  0.00000000000E+00  0.00000000000E+00  0.45593999997E+02  0.45594000000E+02  0.51100000000E-03 0. -1.
         11   -1    0    0    0    0 -0.00000000000E+00 -0.00000000000E+00 -0.45593999997E+02  0.45594000000E+02  0.51100000000E-03 0.  1.
    9900012    2    1    2    0    0 -0.53024961371E+01  0.39677264663E+02  0.16769649297E+02  0.47787274960E+02  0.20000017853E+02 0.  0.
        -12    1    1    2    0    0  0.53024961371E+01 -0.39677264663E+02 -0.16769649297E+02  0.43400725040E+02  0.00000000000E+00 0.  1.
         11    1    3    3    0    0 -0.53061999648E+01  0.24648863474E+02  0.97526767625E+01  0.27033995874E+02  0.51100000000E-03 0. -1.
        -11    1    3    3    0    0 -0.28908647170E+01  0.15854100117E+02  0.73734161742E+01  0.17722213622E+02  0.51100000000E-03 0.  1.
        -12    1    3    3    0    0  0.28945685447E+01 -0.82569892759E+00 -0.35644363970E+00  0.30310654640E+01  0.00000000000E+00 0.  1.
</event>
<event>
 7    1  0.1714203E-010  0.4778727E+02  0.7816164E-02  0.1312668E+00
        -11   -1    0    0    0    0  0.00000000000E+00  0.00000000000E+00  0.45593999997E+02  0.45594000000E+02  0.51100000000E-03 0. -1.
         11   -1    0    0    0    0 -0.00000000000E+00 -0.00000000000E+00 -0.45593999997E+02  0.45594000000E+02  0.51100000000E-03 0.  1.
    9900012    2    1    2    0    0 -0.32859513184E+02 -0.25242103489E+02  0.12911682394E+02  0.47787274920E+02  0.20000017672E+02 0.  0.
        -12    1    1    2    0    0  0.32859513184E+02  0.25242103489E+02 -0.12911682394E+02  0.43400725080E+02  0.00000000000E+00 0.  1.
         11    1    3    3    0    0 -0.24450318431E+01 -0.68495075058E+01  0.58259587759E+01  0.93185690804E+01  0.51100000000E-03 0. -1.
        -11    1    3    3    0    0 -0.25755989136E+02 -0.16106191031E+02  0.10631138571E+02  0.32183869771E+02  0.51100000000E-03 0.  1.
        -12    1    3    3    0    0 -0.46584922046E+01 -0.22864049519E+01 -0.35454149527E+01  0.62848360687E+01  0.00000000000E+00 0.  1.
</event>
<event>
 7    1  0.1714203E-010  0.4778727E+02  0.7816164E-02  0.1312668E+00
        -11   -1    0    0    0    0  0.00000000000E+00  0.00000000000E+00  0.45593999997E+02  0.45594000000E+02  0.51100000000E-03 0.  1.
         11   -1    0    0    0    0 -0.00000000000E+00 -0.00000000000E+00 -0.45593999997E+02  0.45594000000E+02  0.51100000000E-03 0. -1.
    9900012    2    1    2    0    0 -0.43959013005E+01  0.14011169910E+02 -0.40840988492E+02  0.47787272224E+02  0.20000005378E+02 0.  0.
        -12    1    1    2    0    0  0.43959013005E+01 -0.14011169910E+02  0.40840988492E+02  0.43400727776E+02  0.00000000000E+00 0.  1.
         11    1    3    3    0    0 -0.70308310586E+01  0.50473697295E+01 -0.89151789851E+01  0.12425334730E+02  0.51100000000E-03 0. -1.
        -11    1    3    3    0    0 -0.35266558991E+01 -0.67797861147E+00 -0.10084309958E+02  0.10704684228E+02  0.51100000000E-03 0.  1.
        -12    1    3    3    0    0  0.61615856572E+01  0.96417787923E+01 -0.21841499549E+02  0.24657253266E+02  0.00000000000E+00 0.  1.
</event>
<event>
 7    1  0.1714203E-010  0.4778727E+02  0.7816164E-02  0.1312668E+00
        -11   -1    0    0    0    0  0.00000000000E+00  0.00000000000E+00  0.45593999997E+02  0.45594000000E+02  0.51100000000E-03 0. -1.
         11   -1    0    0    0    0 -0.00000000000E+00 -0.00000000000E+00 -0.45593999997E+02  0.45594000000E+02  0.51100000000E-03 0.  1.
    9900012    2    1    2    0    0  0.11229386096E+02  0.34012226956E+02  0.24509033003E+02  0.47787269668E+02  0.19999993725E+02 0.  0.
        -12    1    1    2    0    0 -0.11229386096E+02 -0.34012226956E+02 -0.24509033003E+02  0.43400730332E+02  0.00000000000E+00 0.  1.
         11    1    3    3    0    0  0.44642501975E+01 -0.10625154064E+01  0.21510251254E+01  0.50680744042E+01  0.51100000000E-03 0. -1.
        -11    1    3    3    0    0  0.48396716611E+01  0.15620969324E+02  0.67005617259E+01  0.17672991601E+02  0.51100000000E-03 0.  1.
        -12    1    3    3    0    0  0.19254642373E+01  0.19453773038E+02  0.15657446152E+02  0.25046203663E+02  0.00000000000E+00 0.  1.
</event>
<event>
 7    1  0.1714203E-010  0.4778727E+02  0.7816164E-02  0.1312668E+00
        -11   -1    0    0    0    0  0.00000000000E+00  0.00000000000E+00  0.45593999997E+02  0.45594000000E+02  0.51100000000E-03 0. -1.
         11   -1    0    0    0    0 -0.00000000000E+00 -0.00000000000E+00 -0.45593999997E+02  0.45594000000E+02  0.51100000000E-03 0.  1.
    9900012    2    1    2    0    0 -0.43793389796E+01 -0.41379520966E+02  0.12336126049E+02  0.47787269924E+02  0.19999994890E+02 0.  0.
        -12    1    1    2    0    0  0.43793389796E+01  0.41379520966E+02 -0.12336126049E+02  0.43400730076E+02  0.00000000000E+00 0.  1.
         11    1    3    3    0    0 -0.21349164620E+01 -0.31452361516E+01 -0.25614360798E+01  0.45838121473E+01  0.51100000000E-03 0. -1.
        -11    1    3    3    0    0  0.32648390781E+01 -0.24417877982E+01  0.86870937334E-01  0.40778730581E+01  0.51100000000E-03 0.  1.
         12    1    3    3    0    0 -0.55092615957E+01 -0.35792497016E+02  0.14810691192E+02  0.39125584718E+02  0.00000000000E+00 0. -1.
</event>
<event>
 7    1  0.1714203E-010  0.4778725E+02  0.7816164E-02  0.1312668E+00
        -11   -1    0    0    0    0  0.00000000000E+00  0.00000000000E+00  0.45593999997E+02  0.45594000000E+02  0.51100000000E-03 0. -1.
         11   -1    0    0    0    0 -0.00000000000E+00 -0.00000000000E+00 -0.45593999997E+02  0.45594000000E+02  0.51100000000E-03 0.  1.
    9900012    2    1    2    0    0 -0.19674046417E+02  0.37227819665E+02  0.10518872773E+02  0.47787247197E+02  0.19999891270E+02 0.  0.
        -12    1    1    2    0    0  0.19674046417E+02 -0.37227819665E+02 -0.10518872773E+02  0.43400752803E+02  0.00000000000E+00 0.  1.
         11    1    3    3    0    0  0.10479470108E+01  0.92533281589E+00  0.19689770821E+01  0.24148094684E+01  0.51100000000E-03 0. -1.
        -11    1    3    3    0    0 -0.15910380417E+02  0.20052045853E+02 -0.15484626705E+01  0.25644151084E+02  0.51100000000E-03 0.  1.
        -12    1    3    3    0    0 -0.48116130104E+01  0.16250440996E+02  0.10098358362E+02  0.19728286645E+02  0.00000000000E+00 0.  1.
</event>
<event>
 7    1  0.1714203E-010  0.4778729E+02  0.7816164E-02  0.1312668E+00
        -11   -1    0    0    0    0  0.00000000000E+00  0.00000000000E+00  0.45593999997E+02  0.45594000000E+02  0.51100000000E-03 0. -1.
         11   -1    0    0    0    0 -0.00000000000E+00 -0.00000000000E+00 -0.45593999997E+02  0.45594000000E+02  0.51100000000E-03 0.  1.
    9900012    2    1    2    0    0  0.29735051535E+02  0.24807625821E+02  0.19596690202E+02  0.47787287384E+02  0.20000074500E+02 0.  0.
        -12    1    1    2    0    0 -0.29735051535E+02 -0.24807625821E+02 -0.19596690202E+02  0.43400712616E+02  0.00000000000E+00 0.  1.
         11    1    3    3    0    0  0.28668697722E+01  0.85648472965E-01  0.60394981225E+01  0.66859416528E+01  0.51100000000E-03 0. -1.
        -11    1    3    3    0    0  0.13245506916E+01  0.67159216511E+01  0.56207299534E+01  0.88572367942E+01  0.51100000000E-03 0.  1.
         12    1    3    3    0    0  0.25543631071E+02  0.18006055697E+02  0.79364621261E+01  0.32244108937E+02  0.00000000000E+00 0. -1.
</event>
<event>
 7    1  0.1714203E-010  0.4778727E+02  0.7816164E-02  0.1312668E+00
        -11   -1    0    0    0    0  0.00000000000E+00  0.00000000000E+00  0.45593999997E+02  0.45594000000E+02  0.51100000000E-03 0.  1.
         11   -1    0    0    0    0 -0.00000000000E+00 -0.00000000000E+00 -0.45593999997E+02  0.45594000000E+02  0.51100000000E-03 0. -1.
    9900012    2    1    2    0    0  0.19982171353E+02  0.28610409419E+02 -0.25802723370E+02  0.47787271522E+02  0.20000002177E+02 0.  0.
        -12    1    1    2    0    0 -0.19982171353E+02 -0.28610409419E+02  0.25802723370E+02  0.43400728478E+02  0.00000000000E+00 0.  1.
         11    1    3    3    0    0  0.71197519174E+01  0.10097390233E+02 -0.21085651720E+02  0.24438757448E+02  0.51100000000E-03 0. -1.
        -11    1    3    3    0    0  0.78181061420E+01  0.94226233303E+01 -0.41833009123E+01  0.12938648340E+02  0.51100000000E-03 0.  1.
         12    1    3    3    0    0  0.50443132938E+01  0.90903958552E+01 -0.53377073847E+00  0.10409865735E+02  0.00000000000E+00 0. -1.
</event>
<event>
 7    1  0.1714203E-010  0.4778727E+02  0.7816164E-02  0.1312668E+00
        -11   -1    0    0    0    0  0.00000000000E+00  0.00000000000E+00  0.45593999997E+02  0.45594000000E+02  0.51100000000E-03 0.  1.
         11   -1    0    0    0    0 -0.00000000000E+00 -0.00000000000E+00 -0.45593999997E+02  0.45594000000E+02  0.51100000000E-03 0. -1.
    9900012    2    1    2    0    0  0.32126145069E+02  0.11121438522E+02 -0.26978655726E+02  0.47787268940E+02  0.19999990404E+02 0.  0.
        -12    1    1    2    0    0 -0.32126145069E+02 -0.11121438522E+02  0.26978655726E+02  0.43400731060E+02  0.00000000000E+00 0.  1.
         11    1    3    3    0    0  0.79676319657E+00  0.30763697228E+01 -0.45481796624E+01  0.55484070476E+01  0.51100000000E-03 0. -1.
        -11    1    3    3    0    0  0.14459099797E+02 -0.26414498978E+01 -0.44248067796E+01  0.15349975238E+02  0.51100000000E-03 0.  1.
         12    1    3    3    0    0  0.16870282075E+02  0.10686518697E+02 -0.18005669284E+02  0.26888886654E+02  0.00000000000E+00 0. -1.
</event>
<event>
 7    1  0.1714203E-010  0.4778727E+02  0.7816164E-02  0.1312668E+00
        -11   -1    0    0    0    0  0.00000000000E+00  0.00000000000E+00  0.45593999997E+02  0.45594000000E+02  0.51100000000E-03 0.  1.
         11   -1    0    0    0    0 -0.00000000000E+00 -0.00000000000E+00 -0.45593999997E+02  0.45594000000E+02  0.51100000000E-03 0. -1.
    9900012    2    1    2    0    0 -0.11742517947E+02 -0.21831008100E+02 -0.35625042764E+02  0.47787270578E+02  0.19999997872E+02 0.  0.
        -12    1    1    2    0    0  0.11742517947E+02  0.21831008100E+02  0.35625042764E+02  0.43400729422E+02  0.00000000000E+00 0.  1.
         11    1    3    3    0    0 -0.45953840649E+01 -0.18385565116E+01 -0.13470919808E+02  0.14351429388E+02  0.51100000000E-03 0. -1.
        -11    1    3    3    0    0 -0.48129075103E+01  0.87081101451E-01 -0.47176414124E+01  0.67400150280E+01  0.51100000000E-03 0.  1.
         12    1    3    3    0    0 -0.23342263715E+01 -0.20079532690E+02 -0.17436481544E+02  0.26695826162E+02  0.00000000000E+00 0. -1.
</event>
<event>
 7    1  0.1714203E-010  0.4778727E+02  0.7816164E-02  0.1312668E+00
        -11   -1    0    0    0    0  0.00000000000E+00  0.00000000000E+00  0.45593999997E+02  0.45594000000E+02  0.51100000000E-03 0. -1.
         11   -1    0    0    0    0 -0.00000000000E+00 -0.00000000000E+00 -0.45593999997E+02  0.45594000000E+02  0.51100000000E-03 0.  1.
    9900012    2    1    2    0    0  0.35761706296E+02 -0.43685168682E+01  0.24199992096E+02  0.47787271961E+02  0.20000004180E+02 0.  0.
        -12    1    1    2    0    0 -0.35761706296E+02  0.43685168682E+01 -0.24199992096E+02  0.43400728039E+02  0.00000000000E+00 0.  1.
         11    1    3    3    0    0  0.36416964849E+01 -0.23782472098E+01  0.48935964342E+01  0.65471596438E+01  0.51100000000E-03 0. -1.
        -11    1    3    3    0    0  0.12484893476E+02 -0.66954437703E+01  0.14927202354E+02  0.20579672076E+02  0.51100000000E-03 0.  1.
         12    1    3    3    0    0  0.19635116335E+02  0.47051741119E+01  0.43791933078E+01  0.20660440241E+02  0.00000000000E+00 0. -1.
</event>
<event>
 7    1  0.1714203E-010  0.4778727E+02  0.7816164E-02  0.1312668E+00
        -11   -1    0    0    0    0  0.00000000000E+00  0.00000000000E+00  0.45593999997E+02  0.45594000000E+02  0.51100000000E-03 0. -1.
         11   -1    0    0    0    0 -0.00000000000E+00 -0.00000000000E+00 -0.45593999997E+02  0.45594000000E+02  0.51100000000E-03 0.  1.
    9900012    2    1    2    0    0  0.11371339562E+02  0.30639230791E+02  0.28557893659E+02  0.47787272850E+02  0.20000008232E+02 0.  0.
        -12    1    1    2    0    0 -0.11371339562E+02 -0.30639230791E+02 -0.28557893659E+02  0.43400727150E+02  0.00000000000E+00 0.  1.
         11    1    3    3    0    0  0.50874139765E+01  0.17600358030E+02  0.18121057797E+02  0.25768723673E+02  0.51100000000E-03 0. -1.
        -11    1    3    3    0    0  0.98431295084E+01  0.65266474728E+01  0.50321156911E+01  0.12837698950E+02  0.51100000000E-03 0.  1.
         12    1    3    3    0    0 -0.35592039226E+01  0.65122252882E+01  0.54047201707E+01  0.91808502270E+01  0.00000000000E+00 0. -1.
</event>
<event>
 7    1  0.2023767E-010  0.4778727E+02  0.7816164E-02  0.1312668E+00
        -11   -1    0    0    0    0  0.00000000000E+00  0.00000000000E+00  0.45593999997E+02  0.45594000000E+02  0.51100000000E-03 0. -1.
         11   -1    0    0    0    0 -0.00000000000E+00 -0.00000000000E+00 -0.45593999997E+02  0.45594000000E+02  0.51100000000E-03 0.  1.
    9900012    2    1    2    0    0  0.45670972809E+01  0.29844320294E+02  0.31178219372E+02  0.47787271958E+02  0.20000004166E+02 0.  0.
        -12    1    1    2    0    0 -0.45670972809E+01 -0.29844320294E+02 -0.31178219372E+02  0.43400728042E+02  0.00000000000E+00 0.  1.
         11    1    3    3    0    0  0.33961064585E+00  0.19807197752E+02  0.28133030827E+02  0.34407961898E+02  0.51100000000E-03 0. -1.
        -11    1    3    3    0    0  0.38131125773E+01  0.15023161419E+01  0.25354449433E+01  0.48192595530E+01  0.51100000000E-03 0.  1.
         12    1    3    3    0    0  0.41437405778E+00  0.85348064002E+01  0.50974360110E+00  0.85600505073E+01  0.00000000000E+00 0. -1.
</event>
<event>
 7    1  0.1714203E-010  0.4778728E+02  0.7816164E-02  0.1312668E+00
        -11   -1    0    0    0    0  0.00000000000E+00  0.00000000000E+00  0.45593999997E+02  0.45594000000E+02  0.51100000000E-03 0.  1.
         11   -1    0    0    0    0 -0.00000000000E+00 -0.00000000000E+00 -0.45593999997E+02  0.45594000000E+02  0.51100000000E-03 0. -1.
    9900012    2    1    2    0    0  0.72318534949E+00 -0.39793100181E+01 -0.43211856963E+02  0.47787280104E+02  0.20000041306E+02 0.  0.
        -12    1    1    2    0    0 -0.72318534949E+00  0.39793100181E+01  0.43211856963E+02  0.43400719896E+02  0.00000000000E+00 0.  1.
         11    1    3    3    0    0  0.81542665274E+01 -0.44232644615E+01 -0.29093151482E+02  0.30536352017E+02  0.51100000000E-03 0. -1.
        -11    1    3    3    0    0 -0.32465347883E+01 -0.15650071196E+01 -0.16839752788E+01  0.39780659141E+01  0.51100000000E-03 0.  1.
         12    1    3    3    0    0 -0.41845463896E+01  0.20089615630E+01 -0.12434730202E+02  0.13272862172E+02  0.00000000000E+00 0. -1.
</event>
<event>
 7    1  0.1714203E-010  0.4778727E+02  0.7816164E-02  0.1312668E+00
        -11   -1    0    0    0    0  0.00000000000E+00  0.00000000000E+00  0.45593999997E+02  0.45594000000E+02  0.51100000000E-03 0.  1.
         11   -1    0    0    0    0 -0.00000000000E+00 -0.00000000000E+00 -0.45593999997E+02  0.45594000000E+02  0.51100000000E-03 0. -1.
    9900012    2    1    2    0    0 -0.29583496623E+02 -0.26550299193E+02 -0.17421876426E+02  0.47787269155E+02  0.19999991384E+02 0.  0.
        -12    1    1    2    0    0  0.29583496623E+02  0.26550299193E+02  0.17421876426E+02  0.43400730845E+02  0.00000000000E+00 0.  1.
         11    1    3    3    0    0 -0.35486801050E+01 -0.77157375728E+01 -0.88808875829E+01  0.12288038953E+02  0.51100000000E-03 0. -1.
        -11    1    3    3    0    0 -0.98458831514E+01 -0.12005323533E+02 -0.89553062180E+01  0.17923914692E+02  0.51100000000E-03 0.  1.
        -12    1    3    3    0    0 -0.16188933366E+02 -0.68292380881E+01  0.41431737470E+00  0.17575315510E+02  0.00000000000E+00 0.  1.
</event>
<event>
 7    1  0.1714203E-010  0.4778727E+02  0.7816164E-02  0.1312668E+00
        -11   -1    0    0    0    0  0.00000000000E+00  0.00000000000E+00  0.45593999997E+02  0.45594000000E+02  0.51100000000E-03 0.  1.
         11   -1    0    0    0    0 -0.00000000000E+00 -0.00000000000E+00 -0.45593999997E+02  0.45594000000E+02  0.51100000000E-03 0. -1.
    9900012    2    1    2    0    0  0.19246127559E+02  0.35202065601E+02 -0.16553696430E+02  0.47787265973E+02  0.19999976875E+02 0.  0.
        -12    1    1    2    0    0 -0.19246127559E+02 -0.35202065601E+02  0.16553696430E+02  0.43400734027E+02  0.00000000000E+00 0.  1.
         11    1    3    3    0    0  0.50399658811E+01  0.15007422550E+02 -0.27983594923E+01  0.16076529594E+02  0.51100000000E-03 0. -1.
        -11    1    3    3    0    0  0.55386935865E+01  0.48804764737E+01  0.24607293996E+01  0.77814758687E+01  0.51100000000E-03 0.  1.
        -12    1    3    3    0    0  0.86674680911E+01  0.15314166577E+02 -0.16216066338E+02  0.23929260510E+02  0.00000000000E+00 0.  1.
</event>
<event>
 7    1  0.1714203E-010  0.4778728E+02  0.7816164E-02  0.1312668E+00
        -11   -1    0    0    0    0  0.00000000000E+00  0.00000000000E+00  0.45593999997E+02  0.45594000000E+02  0.51100000000E-03 0.  1.
         11   -1    0    0    0    0 -0.00000000000E+00 -0.00000000000E+00 -0.45593999997E+02  0.45594000000E+02  0.51100000000E-03 0. -1.
    9900012    2    1    2    0    0 -0.83998166097E+01  0.83610619659E+01 -0.41751143074E+02  0.47787283137E+02  0.20000055134E+02 0.  0.
        -12    1    1    2    0    0  0.83998166097E+01 -0.83610619659E+01  0.41751143074E+02  0.43400716863E+02  0.00000000000E+00 0.  1.
         11    1    3    3    0    0 -0.44321392072E+00  0.11684060504E+02 -0.28413714974E+02  0.30725443973E+02  0.51100000000E-03 0. -1.
        -11    1    3    3    0    0 -0.70792060309E+01 -0.68780997876E-01 -0.74455000660E+01  0.10274013838E+02  0.51100000000E-03 0.  1.
        -12    1    3    3    0    0 -0.87739665808E+00 -0.32542175406E+01 -0.58919280339E+01  0.67878253258E+01  0.00000000000E+00 0.  1.
</event>
<event>
 7    1  0.1714203E-010  0.4778727E+02  0.7816164E-02  0.1312668E+00
        -11   -1    0    0    0    0  0.00000000000E+00  0.00000000000E+00  0.45593999997E+02  0.45594000000E+02  0.51100000000E-03 0.  1.
         11   -1    0    0    0    0 -0.00000000000E+00 -0.00000000000E+00 -0.45593999997E+02  0.45594000000E+02  0.51100000000E-03 0. -1.
    9900012    2    1    2    0    0 -0.68159160586E+01 -0.19717378830E+02 -0.38057738728E+02  0.47787271703E+02  0.20000003003E+02 0.  0.
        -12    1    1    2    0    0  0.68159160586E+01  0.19717378830E+02  0.38057738728E+02  0.43400728297E+02  0.00000000000E+00 0.  1.
         11    1    3    3    0    0  0.90989355425E+00 -0.95067124004E+01 -0.10773094739E+02  0.14396703007E+02  0.51100000000E-03 0. -1.
        -11    1    3    3    0    0 -0.10584170240E+02 -0.41812177614E+01 -0.11156493651E+02  0.15936580326E+02  0.51100000000E-03 0.  1.
        -12    1    3    3    0    0  0.28583606273E+01 -0.60294486679E+01 -0.16128150338E+02  0.17453988371E+02  0.00000000000E+00 0.  1.
</event>
<event>
 7    1  0.1714203E-010  0.4778727E+02  0.7816164E-02  0.1312668E+00
        -11   -1    0    0    0    0  0.00000000000E+00  0.00000000000E+00  0.45593999997E+02  0.45594000000E+02  0.51100000000E-03 0.  1.
         11   -1    0    0    0    0 -0.00000000000E+00 -0.00000000000E+00 -0.45593999997E+02  0.45594000000E+02  0.51100000000E-03 0. -1.
    9900012    2    1    2    0    0  0.38252127771E+02  0.43484574451E+01 -0.20037183719E+02  0.47787273133E+02  0.20000009524E+02 0.  0.
        -12    1    1    2    0    0 -0.38252127771E+02 -0.43484574451E+01  0.20037183719E+02  0.43400726867E+02  0.00000000000E+00 0.  1.
         11    1    3    3    0    0  0.70433904549E+01  0.15318029672E+01 -0.85831731994E+01  0.11208328683E+02  0.51100000000E-03 0. -1.
        -11    1    3    3    0    0 -0.15172872075E+01 -0.91829803108E+00 -0.91408683432E+00  0.19952410245E+01  0.51100000000E-03 0.  1.
         12    1    3    3    0    0  0.32726024524E+02  0.37349525089E+01 -0.10539923685E+02  0.34583703426E+02  0.00000000000E+00 0. -1.
</event>
<event>
 7    1  0.1714203E-010  0.4778727E+02  0.7816164E-02  0.1312668E+00
        -11   -1    0    0    0    0  0.00000000000E+00  0.00000000000E+00  0.45593999997E+02  0.45594000000E+02  0.51100000000E-03 0.  1.
         11   -1    0    0    0    0 -0.00000000000E+00 -0.00000000000E+00 -0.45593999997E+02  0.45594000000E+02  0.51100000000E-03 0. -1.
    9900012    2    1    2    0    0 -0.17302059290E+02  0.10360937561E+02 -0.38430622345E+02  0.47787274008E+02  0.20000013513E+02 0.  0.
        -12    1    1    2    0    0  0.17302059290E+02 -0.10360937561E+02  0.38430622345E+02  0.43400725992E+02  0.00000000000E+00 0.  1.
         11    1    3    3    0    0 -0.14734691934E+02  0.70287779332E+01 -0.21325133897E+02  0.26856585815E+02  0.51100000000E-03 0. -1.
        -11    1    3    3    0    0 -0.36383239586E-02  0.72988503680E+01 -0.95384434608E+01  0.12010625872E+02  0.51100000000E-03 0.  1.
         12    1    3    3    0    0 -0.25637290315E+01 -0.39666907406E+01 -0.75670449867E+01  0.89200623209E+01  0.00000000000E+00 0. -1.
</event>
<event>
 7    1  0.1714203E-010  0.4778727E+02  0.7816164E-02  0.1312668E+00
        -11   -1    0    0    0    0  0.00000000000E+00  0.00000000000E+00  0.45593999997E+02  0.45594000000E+02  0.51100000000E-03 0. -1.
         11   -1    0    0    0    0 -0.00000000000E+00 -0.00000000000E+00 -0.45593999997E+02  0.45594000000E+02  0.51100000000E-03 0.  1.
    9900012    2    1    2    0    0  0.93081434448E+01 -0.28816270595E+01  0.42292762633E+02  0.47787273278E+02  0.20000010182E+02 0.  0.
        -12    1    1    2    0    0 -0.93081434448E+01  0.28816270595E+01 -0.42292762633E+02  0.43400726722E+02  0.00000000000E+00 0.  1.
         11    1    3    3    0    0  0.82969493846E+01  0.13562041977E+01  0.22467497751E+02  0.23988895648E+02  0.51100000000E-03 0. -1.
        -11    1    3    3    0    0  0.55046142937E+01  0.62097410569E+00  0.46125928718E+01  0.72084950318E+01  0.51100000000E-03 0.  1.
         12    1    3    3    0    0 -0.44934202335E+01 -0.48588053628E+01  0.15212672010E+02  0.16589882598E+02  0.00000000000E+00 0. -1.
</event>
<event>
 7    1  0.1714203E-010  0.4778727E+02  0.7816164E-02  0.1312668E+00
        -11   -1    0    0    0    0  0.00000000000E+00  0.00000000000E+00  0.45593999997E+02  0.45594000000E+02  0.51100000000E-03 0.  1.
         11   -1    0    0    0    0 -0.00000000000E+00 -0.00000000000E+00 -0.45593999997E+02  0.45594000000E+02  0.51100000000E-03 0. -1.
    9900012    2    1    2    0    0 -0.22238780493E+01  0.43330691567E+02 -0.10624807453E+01  0.47787270392E+02  0.19999997023E+02 0.  0.
        -12    1    1    2    0    0  0.22238780493E+01 -0.43330691567E+02  0.10624807453E+01  0.43400729608E+02  0.00000000000E+00 0.  1.
         11    1    3    3    0    0 -0.38321814350E+01  0.14531451478E+02 -0.75654562308E+00  0.15047294047E+02  0.51100000000E-03 0. -1.
        -11    1    3    3    0    0 -0.54237287871E+01  0.11794495877E+02  0.44684407375E+01  0.13729309154E+02  0.51100000000E-03 0.  1.
        -12    1    3    3    0    0  0.70320321729E+01  0.17004744212E+02 -0.47743758597E+01  0.19010667191E+02  0.00000000000E+00 0.  1.
</event>
<event>
 7    1  0.1714203E-010  0.4778727E+02  0.7816164E-02  0.1312668E+00
        -11   -1    0    0    0    0  0.00000000000E+00  0.00000000000E+00  0.45593999997E+02  0.45594000000E+02  0.51100000000E-03 0.  1.
         11   -1    0    0    0    0 -0.00000000000E+00 -0.00000000000E+00 -0.45593999997E+02  0.45594000000E+02  0.51100000000E-03 0. -1.
    9900012    2    1    2    0    0 -0.38758649890E+02  0.85893054445E+01 -0.17538924491E+02  0.47787274412E+02  0.20000015353E+02 0.  0.
        -12    1    1    2    0    0  0.38758649890E+02 -0.85893054445E+01  0.17538924491E+02  0.43400725588E+02  0.00000000000E+00 0.  1.
         11    1    3    3    0    0 -0.72390230392E+01  0.18077087710E+01 -0.23720207097E+01  0.78292878393E+01  0.51100000000E-03 0. -1.
        -11    1    3    3    0    0 -0.22622652719E+02  0.53644271687E+00 -0.17779743937E+02  0.28778316169E+02  0.51100000000E-03 0.  1.
        -12    1    3    3    0    0 -0.88969741317E+01  0.62451539567E+01  0.26128401559E+01  0.11179670403E+02  0.00000000000E+00 0.  1.
</event>
<event>
 7    1  0.1714203E-010  0.4778727E+02  0.7816164E-02  0.1312668E+00
        -11   -1    0    0    0    0  0.00000000000E+00  0.00000000000E+00  0.45593999997E+02  0.45594000000E+02  0.51100000000E-03 0.  1.
         11   -1    0    0    0    0 -0.00000000000E+00 -0.00000000000E+00 -0.45593999997E+02  0.45594000000E+02  0.51100000000E-03 0. -1.
    9900012    2    1    2    0    0 -0.81693197399E+01  0.21155892180E+02 -0.37004246157E+02  0.47787265068E+02  0.19999972752E+02 0.  0.
        -12    1    1    2    0    0  0.81693197399E+01 -0.21155892180E+02  0.37004246157E+02  0.43400734932E+02  0.00000000000E+00 0.  1.
         11    1    3    3    0    0 -0.41600547749E+01  0.17564690299E+02 -0.18375368488E+02  0.25758077730E+02  0.51100000000E-03 0. -1.
        -11    1    3    3    0    0 -0.70662615687E+01  0.20755633561E+01 -0.80360210340E+01  0.10900350917E+02  0.51100000000E-03 0.  1.
        -12    1    3    3    0    0  0.30569966037E+01  0.15156385249E+01 -0.10592856635E+02  0.11128836420E+02  0.00000000000E+00 0.  1.
</event>
<event>
 7    1  0.1714203E-010  0.4778727E+02  0.7816164E-02  0.1312668E+00
        -11   -1    0    0    0    0  0.00000000000E+00  0.00000000000E+00  0.45593999997E+02  0.45594000000E+02  0.51100000000E-03 0. -1.
         11   -1    0    0    0    0 -0.00000000000E+00 -0.00000000000E+00 -0.45593999997E+02  0.45594000000E+02  0.51100000000E-03 0.  1.
    9900012    2    1    2    0    0  0.29160792174E+02 -0.21747041225E+02  0.23671457162E+02  0.47787268596E+02  0.19999988836E+02 0.  0.
        -12    1    1    2    0    0 -0.29160792174E+02  0.21747041225E+02 -0.23671457162E+02  0.43400731404E+02  0.00000000000E+00 0.  1.
         11    1    3    3    0    0 -0.45465975624E+00  0.90190516492E+00  0.14202197469E+01  0.17427486368E+01  0.51100000000E-03 0.  1.
        -11    1    3    3    0    0  0.27892864271E+02 -0.15070379803E+02  0.21345901201E+02  0.38220095801E+02  0.51100000000E-03 0. -1.
         12    1    3    3    0    0  0.17225876591E+01 -0.75785665863E+01  0.90533621340E+00  0.78244241580E+01  0.00000000000E+00 0. -1.
</event>
<event>
 7    1  0.1714203E-010  0.4778727E+02  0.7816164E-02  0.1312668E+00
        -11   -1    0    0    0    0  0.00000000000E+00  0.00000000000E+00  0.45593999997E+02  0.45594000000E+02  0.51100000000E-03 0.  1.
         11   -1    0    0    0    0 -0.00000000000E+00 -0.00000000000E+00 -0.45593999997E+02  0.45594000000E+02  0.51100000000E-03 0. -1.
    9900012    2    1    2    0    0 -0.26942011534E+02  0.14389232283E+01 -0.33995308189E+02  0.47787268849E+02  0.19999989991E+02 0.  0.
        -12    1    1    2    0    0  0.26942011534E+02 -0.14389232283E+01  0.33995308189E+02  0.43400731151E+02  0.00000000000E+00 0.  1.
         11    1    3    3    0    0 -0.21540874306E+02 -0.11909457225E+01 -0.15647326678E+02  0.26650824565E+02  0.51100000000E-03 0. -1.
        -11    1    3    3    0    0  0.15530527845E+01  0.44494089563E+00 -0.26183358309E+00  0.16366130998E+01  0.51100000000E-03 0.  1.
        -12    1    3    3    0    0 -0.69541900127E+01  0.21849280551E+01 -0.18086147928E+02  0.19499831184E+02  0.00000000000E+00 0.  1.
</event>
<event>
 7    1  0.1714203E-010  0.4778727E+02  0.7816164E-02  0.1312668E+00
        -11   -1    0    0    0    0  0.00000000000E+00  0.00000000000E+00  0.45593999997E+02  0.45594000000E+02  0.51100000000E-03 0. -1.
         11   -1    0    0    0    0 -0.00000000000E+00 -0.00000000000E+00 -0.45593999997E+02  0.45594000000E+02  0.51100000000E-03 0.  1.
    9900012    2    1    2    0    0 -0.28697366370E+02  0.15547847656E+02  0.28606797753E+02  0.47787270962E+02  0.19999999626E+02 0.  0.
        -12    1    1    2    0    0  0.28697366370E+02 -0.15547847656E+02 -0.28606797753E+02  0.43400729038E+02  0.00000000000E+00 0.  1.
         11    1    3    3    0    0  0.35673008399E+00  0.11626606279E+01 -0.21694942425E+01  0.24871151195E+01  0.51100000000E-03 0.  1.
        -11    1    3    3    0    0 -0.93721292032E+01  0.26479844303E+01  0.13280886501E+02  0.16469079326E+02  0.51100000000E-03 0. -1.
        -12    1    3    3    0    0 -0.19681967251E+02  0.11737202598E+02  0.17495405494E+02  0.28831076516E+02  0.00000000000E+00 0.  1.
</event>
<event>
 7    1  0.1714203E-010  0.4778727E+02  0.7816164E-02  0.1312668E+00
        -11   -1    0    0    0    0  0.00000000000E+00  0.00000000000E+00  0.45593999997E+02  0.45594000000E+02  0.51100000000E-03 0. -1.
         11   -1    0    0    0    0 -0.00000000000E+00 -0.00000000000E+00 -0.45593999997E+02  0.45594000000E+02  0.51100000000E-03 0.  1.
    9900012    2    1    2    0    0  0.16218257524E+02  0.39601032566E+02  0.72353067757E+01  0.47787270495E+02  0.19999997496E+02 0.  0.
        -12    1    1    2    0    0 -0.16218257524E+02 -0.39601032566E+02 -0.72353067757E+01  0.43400729505E+02  0.00000000000E+00 0.  1.
         11    1    3    3    0    0  0.28408044117E+01  0.59248054436E+01  0.68983610559E+01  0.95268502019E+01  0.51100000000E-03 0. -1.
        -11    1    3    3    0    0  0.68338999937E+00  0.65404295707E+01 -0.44249356107E+01  0.79261779112E+01  0.51100000000E-03 0.  1.
         12    1    3    3    0    0  0.12694063113E+02  0.27135797552E+02  0.47618813305E+01  0.30334242382E+02  0.00000000000E+00 0. -1.
</event>
<event>
 7    1  0.1714203E-010  0.4778727E+02  0.7816164E-02  0.1312668E+00
        -11   -1    0    0    0    0  0.00000000000E+00  0.00000000000E+00  0.45593999997E+02  0.45594000000E+02  0.51100000000E-03 0. -1.
         11   -1    0    0    0    0 -0.00000000000E+00 -0.00000000000E+00 -0.45593999997E+02  0.45594000000E+02  0.51100000000E-03 0.  1.
    9900012    2    1    2    0    0  0.29831600930E+02 -0.27602713670E+02  0.15224617517E+02  0.47787271958E+02  0.20000004167E+02 0.  0.
        -12    1    1    2    0    0 -0.29831600930E+02  0.27602713670E+02 -0.15224617517E+02  0.43400728042E+02  0.00000000000E+00 0.  1.
         11    1    3    3    0    0  0.13966178737E+02 -0.11218893338E+02  0.38131518302E+01  0.18315508276E+02  0.51100000000E-03 0. -1.
        -11    1    3    3    0    0  0.19600374198E+01 -0.12612014507E+02  0.55189138340E+01  0.13905504909E+02  0.51100000000E-03 0.  1.
        -12    1    3    3    0    0  0.13905384773E+02 -0.37718058247E+01  0.58925518522E+01  0.15566258774E+02  0.00000000000E+00 0.  1.
</event>
<event>
 7    1  0.1714203E-010  0.4778727E+02  0.7816164E-02  0.1312668E+00
        -11   -1    0    0    0    0  0.00000000000E+00  0.00000000000E+00  0.45593999997E+02  0.45594000000E+02  0.51100000000E-03 0.  1.
         11   -1    0    0    0    0 -0.00000000000E+00 -0.00000000000E+00 -0.45593999997E+02  0.45594000000E+02  0.51100000000E-03 0. -1.
    9900012    2    1    2    0    0  0.18885677468E+02  0.31476100480E+02  0.23156201697E+02  0.47787269685E+02  0.19999993802E+02 0.  0.
        -12    1    1    2    0    0 -0.18885677468E+02 -0.31476100480E+02 -0.23156201697E+02  0.43400730315E+02  0.00000000000E+00 0.  1.
         11    1    3    3    0    0 -0.22580324341E+01  0.12307654228E+02  0.32067570117E+01  0.12917443783E+02  0.51100000000E-03 0. -1.
        -11    1    3    3    0    0  0.48586242921E+01  0.36603434459E+01  0.48947641629E+01  0.78078845167E+01  0.51100000000E-03 0.  1.
         12    1    3    3    0    0  0.16285085610E+02  0.15508102805E+02  0.15054680522E+02  0.27061941386E+02  0.00000000000E+00 0. -1.
</event>
<event>
 7    1  0.1714203E-010  0.4778728E+02  0.7816164E-02  0.1312668E+00
        -11   -1    0    0    0    0  0.00000000000E+00  0.00000000000E+00  0.45593999997E+02  0.45594000000E+02  0.51100000000E-03 0.  1.
         11   -1    0    0    0    0 -0.00000000000E+00 -0.00000000000E+00 -0.45593999997E+02  0.45594000000E+02  0.51100000000E-03 0. -1.
    9900012    2    1    2    0    0 -0.74251052824E-01 -0.20377530988E+02 -0.38319362774E+02  0.47787275976E+02  0.20000022486E+02 0.  0.
        -12    1    1    2    0    0  0.74251052824E-01  0.20377530988E+02  0.38319362774E+02  0.43400724024E+02  0.00000000000E+00 0.  1.
         11    1    3    3    0    0 -0.99411498864E+00 -0.47365612019E+01 -0.17722973375E+02  0.18371909595E+02  0.51100000000E-03 0. -1.
        -11    1    3    3    0    0  0.52882500732E+01 -0.15687740099E+02 -0.17280198573E+02  0.23930650664E+02  0.51100000000E-03 0.  1.
         12    1    3    3    0    0 -0.43683861374E+01  0.46770312756E-01 -0.33161908260E+01  0.54847157175E+01  0.00000000000E+00 0. -1.
</event>
<event>
 7    1  0.1714203E-010  0.4778727E+02  0.7816164E-02  0.1312668E+00
        -11   -1    0    0    0    0  0.00000000000E+00  0.00000000000E+00  0.45593999997E+02  0.45594000000E+02  0.51100000000E-03 0. -1.
         11   -1    0    0    0    0 -0.00000000000E+00 -0.00000000000E+00 -0.45593999997E+02  0.45594000000E+02  0.51100000000E-03 0.  1.
    9900012    2    1    2    0    0  0.24199530269E+02 -0.62272968157E+01  0.35485589154E+02  0.47787268111E+02  0.19999986626E+02 0.  0.
        -12    1    1    2    0    0 -0.24199530269E+02  0.62272968157E+01 -0.35485589154E+02  0.43400731889E+02  0.00000000000E+00 0.  1.
         11    1    3    3    0    0  0.83466526801E+01 -0.29624562804E+01  0.11163155568E+02  0.14249870198E+02  0.51100000000E-03 0. -1.
        -11    1    3    3    0    0 -0.67634145197E+00  0.35708134285E+01  0.99457841584E+01  0.10588992827E+02  0.51100000000E-03 0.  1.
        -12    1    3    3    0    0  0.16529219041E+02 -0.68356539638E+01  0.14376649428E+02  0.22948405086E+02  0.00000000000E+00 0.  1.
</event>
<event>
 7    1  0.1714203E-010  0.4778727E+02  0.7816164E-02  0.1312668E+00
        -11   -1    0    0    0    0  0.00000000000E+00  0.00000000000E+00  0.45593999997E+02  0.45594000000E+02  0.51100000000E-03 0.  1.
         11   -1    0    0    0    0 -0.00000000000E+00 -0.00000000000E+00 -0.45593999997E+02  0.45594000000E+02  0.51100000000E-03 0. -1.
    9900012    2    1    2    0    0  0.38525814528E+02 -0.19635937738E+02 -0.37168433322E+01  0.47787270050E+02  0.19999995466E+02 0.  0.
        -12    1    1    2    0    0 -0.38525814528E+02  0.19635937738E+02  0.37168433322E+01  0.43400729950E+02  0.00000000000E+00 0.  1.
         11    1    3    3    0    0  0.23245621185E+02 -0.10546046678E+02  0.32286160046E+01  0.25729398873E+02  0.51100000000E-03 0. -1.
        -11    1    3    3    0    0 -0.42180564376E+00  0.82971532628E+00  0.14120708913E+01  0.16912397781E+01  0.51100000000E-03 0.  1.
        -12    1    3    3    0    0  0.15701998986E+02 -0.99196063854E+01 -0.83575302281E+01  0.20366631399E+02  0.00000000000E+00 0.  1.
</event>
<event>
 7    1  0.1714203E-010  0.4778724E+02  0.7816164E-02  0.1312668E+00
        -11   -1    0    0    0    0  0.00000000000E+00  0.00000000000E+00  0.45593999997E+02  0.45594000000E+02  0.51100000000E-03 0.  1.
         11   -1    0    0    0    0 -0.00000000000E+00 -0.00000000000E+00 -0.45593999997E+02  0.45594000000E+02  0.51100000000E-03 0. -1.
    9900012    2    1    2    0    0  0.23922371902E+02  0.28227989930E+02 -0.22683174340E+02  0.47787243197E+02  0.19999873033E+02 0.  0.
        -12    1    1    2    0    0 -0.23922371902E+02 -0.28227989930E+02  0.22683174340E+02  0.43400756803E+02  0.00000000000E+00 0.  1.
         11    1    3    3    0    0  0.17713236429E+02  0.84471387633E+01 -0.66969853287E+01  0.20735537390E+02  0.51100000000E-03 0. -1.
        -11    1    3    3    0    0  0.83161586565E+00  0.71198504150E+01 -0.20168553761E+01  0.74465804735E+01  0.51100000000E-03 0.  1.
         12    1    3    3    0    0  0.53775196074E+01  0.12661000752E+02 -0.13969333635E+02  0.19605125334E+02  0.00000000000E+00 0. -1.
</event>
<event>
 7    1  0.1714203E-010  0.4778727E+02  0.7816164E-02  0.1312668E+00
        -11   -1    0    0    0    0  0.00000000000E+00  0.00000000000E+00  0.45593999997E+02  0.45594000000E+02  0.51100000000E-03 0.  1.
         11   -1    0    0    0    0 -0.00000000000E+00 -0.00000000000E+00 -0.45593999997E+02  0.45594000000E+02  0.51100000000E-03 0. -1.
    9900012    2    1    2    0    0  0.26865675316E+02  0.28576717985E+02 -0.18580365375E+02  0.47787270761E+02  0.19999998708E+02 0.  0.
        -12    1    1    2    0    0 -0.26865675316E+02 -0.28576717985E+02  0.18580365375E+02  0.43400729239E+02  0.00000000000E+00 0.  1.
         11    1    3    3    0    0  0.18359045019E+02  0.11529779831E+02 -0.42321134076E+01  0.22088484356E+02  0.51100000000E-03 0. -1.
        -11    1    3    3    0    0  0.24294945407E+01  0.11511957415E+02 -0.38796640802E+01  0.12388680353E+02  0.51100000000E-03 0.  1.
        -12    1    3    3    0    0  0.60771357561E+01  0.55349807393E+01 -0.10468587887E+02  0.13310106053E+02  0.00000000000E+00 0.  1.
</event>
<event>
 7    1  0.1714203E-010  0.4778727E+02  0.7816164E-02  0.1312668E+00
        -11   -1    0    0    0    0  0.00000000000E+00  0.00000000000E+00  0.45593999997E+02  0.45594000000E+02  0.51100000000E-03 0. -1.
         11   -1    0    0    0    0 -0.00000000000E+00 -0.00000000000E+00 -0.45593999997E+02  0.45594000000E+02  0.51100000000E-03 0.  1.
    9900012    2    1    2    0    0 -0.24140749008E+02 -0.28172480340E+02  0.22520189262E+02  0.47787270333E+02  0.19999996758E+02 0.  0.
        -12    1    1    2    0    0  0.24140749008E+02  0.28172480340E+02 -0.22520189262E+02  0.43400729667E+02  0.00000000000E+00 0.  1.
         11    1    3    3    0    0 -0.18745751920E+02 -0.10739065787E+02  0.17592210368E+02  0.27860664294E+02  0.51100000000E-03 0. -1.
        -11    1    3    3    0    0  0.27520933451E+00 -0.10662409185E+01 -0.11285228751E+01  0.15767606080E+01  0.51100000000E-03 0.  1.
         12    1    3    3    0    0 -0.56702064227E+01 -0.16367173635E+02  0.60565017691E+01  0.18349845431E+02  0.00000000000E+00 0. -1.
</event>
<event>
 7    1  0.1714203E-010  0.4778727E+02  0.7816164E-02  0.1312668E+00
        -11   -1    0    0    0    0  0.00000000000E+00  0.00000000000E+00  0.45593999997E+02  0.45594000000E+02  0.51100000000E-03 0.  1.
         11   -1    0    0    0    0 -0.00000000000E+00 -0.00000000000E+00 -0.45593999997E+02  0.45594000000E+02  0.51100000000E-03 0. -1.
    9900012    2    1    2    0    0  0.18136230379E+02 -0.18328661238E+02 -0.34910748445E+02  0.47787273830E+02  0.20000012700E+02 0.  0.
        -12    1    1    2    0    0 -0.18136230379E+02  0.18328661238E+02  0.34910748445E+02  0.43400726170E+02  0.00000000000E+00 0.  1.
         11    1    3    3    0    0  0.12775017024E+02 -0.90246200098E+01 -0.16871563181E+02  0.23006400647E+02  0.51100000000E-03 0. -1.
        -11    1    3    3    0    0  0.22310077433E+01 -0.70758365681E+01 -0.12082804869E+01  0.75169675193E+01  0.51100000000E-03 0.  1.
         12    1    3    3    0    0  0.31302056121E+01 -0.22282046601E+01 -0.16830904776E+02  0.17263905664E+02  0.00000000000E+00 0. -1.
</event>
<event>
 7    1  0.1714203E-010  0.4778728E+02  0.7816164E-02  0.1312668E+00
        -11   -1    0    0    0    0  0.00000000000E+00  0.00000000000E+00  0.45593999997E+02  0.45594000000E+02  0.51100000000E-03 0.  1.
         11   -1    0    0    0    0 -0.00000000000E+00 -0.00000000000E+00 -0.45593999997E+02  0.45594000000E+02  0.51100000000E-03 0. -1.
    9900012    2    1    2    0    0 -0.17550714261E+02 -0.36518322523E+02 -0.15556586377E+02  0.47787276150E+02  0.20000023280E+02 0.  0.
        -12    1    1    2    0    0  0.17550714261E+02  0.36518322523E+02  0.15556586377E+02  0.43400723850E+02  0.00000000000E+00 0.  1.
         11    1    3    3    0    0 -0.13976926922E+02 -0.32162699372E+02 -0.74777398881E+01  0.35856802858E+02  0.51100000000E-03 0. -1.
        -11    1    3    3    0    0  0.51380921717E+00 -0.46325831584E+01 -0.47088953468E+01  0.66255959943E+01  0.51100000000E-03 0.  1.
         12    1    3    3    0    0 -0.40875965560E+01  0.27696000731E+00 -0.33699511424E+01  0.53048772985E+01  0.00000000000E+00 0. -1.
</event>
<event>
 7    1  0.1714203E-010  0.4778727E+02  0.7816164E-02  0.1312668E+00
        -11   -1    0    0    0    0  0.00000000000E+00  0.00000000000E+00  0.45593999997E+02  0.45594000000E+02  0.51100000000E-03 0.  1.
         11   -1    0    0    0    0 -0.00000000000E+00 -0.00000000000E+00 -0.45593999997E+02  0.45594000000E+02  0.51100000000E-03 0. -1.
    9900012    2    1    2    0    0 -0.28703174206E+02 -0.30496453153E+02 -0.11389374956E+02  0.47787265833E+02  0.19999976238E+02 0.  0.
        -12    1    1    2    0    0  0.28703174206E+02  0.30496453153E+02  0.11389374956E+02  0.43400734167E+02  0.00000000000E+00 0.  1.
         11    1    3    3    0    0 -0.28738894446E+02 -0.21521171770E+02 -0.93947576767E+01  0.37112617267E+02  0.51100000000E-03 0. -1.
        -11    1    3    3    0    0 -0.20567371146E+01 -0.78150848865E+01 -0.17596867322E+01  0.82705632818E+01  0.51100000000E-03 0.  1.
        -12    1    3    3    0    0  0.20924573548E+01 -0.11601964961E+01 -0.23493054671E+00  0.24040852840E+01  0.00000000000E+00 0.  1.
</event>
<event>
 7    1  0.1714203E-010  0.4778728E+02  0.7816164E-02  0.1312668E+00
        -11   -1    0    0    0    0  0.00000000000E+00  0.00000000000E+00  0.45593999997E+02  0.45594000000E+02  0.51100000000E-03 0.  1.
         11   -1    0    0    0    0 -0.00000000000E+00 -0.00000000000E+00 -0.45593999997E+02  0.45594000000E+02  0.51100000000E-03 0. -1.
    9900012    2    1    2    0    0  0.31999066588E+02 -0.22038740559E+02  0.19338473903E+02  0.47787275111E+02  0.20000018543E+02 0.  0.
        -12    1    1    2    0    0 -0.31999066588E+02  0.22038740559E+02 -0.19338473903E+02  0.43400724889E+02  0.00000000000E+00 0.  1.
         11    1    3    3    0    0  0.17142174533E+02 -0.88857901477E+01  0.44701780017E+01  0.19819028884E+02  0.51100000000E-03 0. -1.
        -11    1    3    3    0    0  0.23191165969E+01  0.26425865790E+01  0.19831213257E+01  0.40366243412E+01  0.51100000000E-03 0.  1.
        -12    1    3    3    0    0  0.12537775458E+02 -0.15795536991E+02  0.12885174576E+02  0.23931621886E+02  0.00000000000E+00 0.  1.
</event>
<event>
 7    1  0.1714203E-010  0.4778727E+02  0.7816164E-02  0.1312668E+00
        -11   -1    0    0    0    0  0.00000000000E+00  0.00000000000E+00  0.45593999997E+02  0.45594000000E+02  0.51100000000E-03 0.  1.
         11   -1    0    0    0    0 -0.00000000000E+00 -0.00000000000E+00 -0.45593999997E+02  0.45594000000E+02  0.51100000000E-03 0. -1.
    9900012    2    1    2    0    0  0.13611453806E+02 -0.12913567541E+02 -0.39135552524E+02  0.47787269905E+02  0.19999994807E+02 0.  0.
        -12    1    1    2    0    0 -0.13611453806E+02  0.12913567541E+02  0.39135552524E+02  0.43400730095E+02  0.00000000000E+00 0.  1.
         11    1    3    3    0    0  0.67694835234E+01 -0.80054732560E+01 -0.14023513316E+02  0.17509210011E+02  0.51100000000E-03 0. -1.
        -11    1    3    3    0    0  0.51358068090E+01  0.48172703778E+01 -0.10341235799E+02  0.12510945751E+02  0.51100000000E-03 0.  1.
        -12    1    3    3    0    0  0.17061634732E+01 -0.97253646630E+01 -0.14770803410E+02  0.17767114144E+02  0.00000000000E+00 0.  1.
</event>
<event>
 7    1  0.1714203E-010  0.4778727E+02  0.7816164E-02  0.1312668E+00
        -11   -1    0    0    0    0  0.00000000000E+00  0.00000000000E+00  0.45593999997E+02  0.45594000000E+02  0.51100000000E-03 0.  1.
         11   -1    0    0    0    0 -0.00000000000E+00 -0.00000000000E+00 -0.45593999997E+02  0.45594000000E+02  0.51100000000E-03 0. -1.
    9900012    2    1    2    0    0  0.76138763485E+01 -0.24961397870E+02 -0.34678246425E+02  0.47787271069E+02  0.20000000110E+02 0.  0.
        -12    1    1    2    0    0 -0.76138763485E+01  0.24961397870E+02  0.34678246425E+02  0.43400728931E+02  0.00000000000E+00 0.  1.
         11    1    3    3    0    0  0.88686001243E+01 -0.84053714756E+01 -0.15225232271E+02  0.19522039744E+02  0.51100000000E-03 0. -1.
        -11    1    3    3    0    0 -0.70466530168E+00 -0.24178312576E+01  0.15380110776E+01  0.29509218074E+01  0.51100000000E-03 0.  1.
         12    1    3    3    0    0 -0.55005847405E+00 -0.14138195137E+02 -0.20991025232E+02  0.25314309517E+02  0.00000000000E+00 0. -1.
</event>
<event>
 7    1  0.1714203E-010  0.4778727E+02  0.7816164E-02  0.1312668E+00
        -11   -1    0    0    0    0  0.00000000000E+00  0.00000000000E+00  0.45593999997E+02  0.45594000000E+02  0.51100000000E-03 0.  1.
         11   -1    0    0    0    0 -0.00000000000E+00 -0.00000000000E+00 -0.45593999997E+02  0.45594000000E+02  0.51100000000E-03 0. -1.
    9900012    2    1    2    0    0 -0.32038404852E+02  0.93170389711E+01 -0.27755297536E+02  0.47787272564E+02  0.20000006929E+02 0.  0.
        -12    1    1    2    0    0  0.32038404852E+02 -0.93170389711E+01  0.27755297536E+02  0.43400727436E+02  0.00000000000E+00 0.  1.
         11    1    3    3    0    0 -0.25765883031E+01  0.35737139205E+01 -0.89783847091E+01  0.10001081477E+02  0.51100000000E-03 0. -1.
        -11    1    3    3    0    0 -0.93799425881E+01  0.47646838556E+01 -0.37007245416E+00  0.10527226087E+02  0.51100000000E-03 0.  1.
         12    1    3    3    0    0 -0.20081873961E+02  0.97864119499E+00 -0.18406840373E+02  0.27258965000E+02  0.00000000000E+00 0. -1.
</event>
<event>
 7    1  0.1714203E-010  0.4778726E+02  0.7816164E-02  0.1312668E+00
        -11   -1    0    0    0    0  0.00000000000E+00  0.00000000000E+00  0.45593999997E+02  0.45594000000E+02  0.51100000000E-03 0.  1.
         11   -1    0    0    0    0 -0.00000000000E+00 -0.00000000000E+00 -0.45593999997E+02  0.45594000000E+02  0.51100000000E-03 0. -1.
    9900012    2    1    2    0    0 -0.29580637887E+02  0.21636153658E+02 -0.23248383701E+02  0.47787255449E+02  0.19999928893E+02 0.  0.
        -12    1    1    2    0    0  0.29580637887E+02 -0.21636153658E+02  0.23248383701E+02  0.43400744551E+02  0.00000000000E+00 0.  1.
         11    1    3    3    0    0 -0.62315059533E+01  0.16045459065E+01 -0.11827723145E+02  0.13464815968E+02  0.51100000000E-03 0. -1.
        -11    1    3    3    0    0 -0.22862578712E+02  0.15490962547E+02 -0.11035108526E+02  0.29739553568E+02  0.51100000000E-03 0.  1.
         12    1    3    3    0    0 -0.48655322128E+00  0.45406452050E+01 -0.38555202980E+00  0.45828859120E+01  0.00000000000E+00 0. -1.
</event>
<event>
 7    1  0.1714203E-010  0.4778727E+02  0.7816164E-02  0.1312668E+00
        -11   -1    0    0    0    0  0.00000000000E+00  0.00000000000E+00  0.45593999997E+02  0.45594000000E+02  0.51100000000E-03 0. -1.
         11   -1    0    0    0    0 -0.00000000000E+00 -0.00000000000E+00 -0.45593999997E+02  0.45594000000E+02  0.51100000000E-03 0.  1.
    9900012    2    1    2    0    0 -0.18321173980E+02 -0.78803484707E+01  0.38546829519E+02  0.47787269891E+02  0.19999994743E+02 0.  0.
        -12    1    1    2    0    0  0.18321173980E+02  0.78803484707E+01 -0.38546829519E+02  0.43400730109E+02  0.00000000000E+00 0.  1.
         11    1    3    3    0    0 -0.13345240447E+02 -0.87853947626E+01  0.22969381206E+02  0.27979833398E+02  0.51100000000E-03 0. -1.
        -11    1    3    3    0    0 -0.10935305169E+01  0.24661830916E+00  0.15822329165E+02  0.15861990103E+02  0.51100000000E-03 0.  1.
        -12    1    3    3    0    0 -0.38824030160E+01  0.65842798278E+00 -0.24488085185E+00  0.39454463903E+01  0.00000000000E+00 0.  1.
</event>
<event>
 7    1  0.1714203E-010  0.4778727E+02  0.7816164E-02  0.1312668E+00
        -11   -1    0    0    0    0  0.00000000000E+00  0.00000000000E+00  0.45593999997E+02  0.45594000000E+02  0.51100000000E-03 0.  1.
         11   -1    0    0    0    0 -0.00000000000E+00 -0.00000000000E+00 -0.45593999997E+02  0.45594000000E+02  0.51100000000E-03 0. -1.
    9900012    2    1    2    0    0 -0.21126712813E+02  0.18858052777E+02 -0.32888587575E+02  0.47787270265E+02  0.19999996446E+02 0.  0.
        -12    1    1    2    0    0  0.21126712813E+02 -0.18858052777E+02  0.32888587575E+02  0.43400729735E+02  0.00000000000E+00 0.  1.
         11    1    3    3    0    0 -0.11534801217E+02  0.73166405846E+01 -0.71185458122E+01  0.15403199775E+02  0.51100000000E-03 0.  1.
        -11    1    3    3    0    0  0.18272584520E+01  0.11488260616E+01 -0.10312609344E+02  0.10536061243E+02  0.51100000000E-03 0. -1.
        -12    1    3    3    0    0 -0.11419170049E+02  0.10392586131E+02 -0.15457432419E+02  0.21848009247E+02  0.00000000000E+00 0.  1.
</event>
<event>
 7    1  0.1714203E-010  0.4778727E+02  0.7816164E-02  0.1312668E+00
        -11   -1    0    0    0    0  0.00000000000E+00  0.00000000000E+00  0.45593999997E+02  0.45594000000E+02  0.51100000000E-03 0. -1.
         11   -1    0    0    0    0 -0.00000000000E+00 -0.00000000000E+00 -0.45593999997E+02  0.45594000000E+02  0.51100000000E-03 0.  1.
    9900012    2    1    2    0    0  0.19884087698E+02 -0.59911348639E+01  0.38109744937E+02  0.47787270747E+02  0.19999998643E+02 0.  0.
        -12    1    1    2    0    0 -0.19884087698E+02  0.59911348639E+01 -0.38109744937E+02  0.43400729253E+02  0.00000000000E+00 0.  1.
         11    1    3    3    0    0  0.11506454975E+02  0.32887676930E+00  0.95400324502E+01  0.14950547998E+02  0.51100000000E-03 0. -1.
        -11    1    3    3    0    0 -0.29688733188E+01 -0.32698170424E+01  0.70732992751E+01  0.83389133087E+01  0.51100000000E-03 0.  1.
         12    1    3    3    0    0  0.11346506041E+02 -0.30501945908E+01  0.21496413212E+02  0.24497809440E+02  0.00000000000E+00 0. -1.
</event>
<event>
 7    1  0.1714203E-010  0.4778727E+02  0.7816164E-02  0.1312668E+00
        -11   -1    0    0    0    0  0.00000000000E+00  0.00000000000E+00  0.45593999997E+02  0.45594000000E+02  0.51100000000E-03 0.  1.
         11   -1    0    0    0    0 -0.00000000000E+00 -0.00000000000E+00 -0.45593999997E+02  0.45594000000E+02  0.51100000000E-03 0. -1.
    9900012    2    1    2    0    0 -0.10086421644E+02 -0.54969929676E-01 -0.42212374123E+02  0.47787268988E+02  0.19999990626E+02 0.  0.
        -12    1    1    2    0    0  0.10086421644E+02  0.54969929676E-01  0.42212374123E+02  0.43400731012E+02  0.00000000000E+00 0.  1.
         11    1    3    3    0    0 -0.12108205277E+02  0.68080791406E-01 -0.21116053719E+02  0.24341343326E+02  0.51100000000E-03 0. -1.
        -11    1    3    3    0    0 -0.39010248521E+01 -0.14261490935E+01 -0.80183467396E+01  0.90302702524E+01  0.51100000000E-03 0.  1.
        -12    1    3    3    0    0  0.59228084853E+01  0.13030983724E+01 -0.13077973664E+02  0.14415655410E+02  0.00000000000E+00 0.  1.
</event>
<event>
 7    1  0.1714203E-010  0.4778727E+02  0.7816164E-02  0.1312668E+00
        -11   -1    0    0    0    0  0.00000000000E+00  0.00000000000E+00  0.45593999997E+02  0.45594000000E+02  0.51100000000E-03 0.  1.
         11   -1    0    0    0    0 -0.00000000000E+00 -0.00000000000E+00 -0.45593999997E+02  0.45594000000E+02  0.51100000000E-03 0. -1.
    9900012    2    1    2    0    0 -0.16354548238E+02 -0.13181346338E+02 -0.37978995819E+02  0.47787271172E+02  0.20000000583E+02 0.  0.
        -12    1    1    2    0    0  0.16354548238E+02  0.13181346338E+02  0.37978995819E+02  0.43400728828E+02  0.00000000000E+00 0.  1.
         11    1    3    3    0    0 -0.70985076883E+01 -0.83084903457E+01 -0.22703511411E+02  0.25196611953E+02  0.51100000000E-03 0. -1.
        -11    1    3    3    0    0 -0.64549814759E+01  0.37107263897E+01 -0.53218518583E+01  0.91519606455E+01  0.51100000000E-03 0.  1.
         12    1    3    3    0    0 -0.28010590737E+01 -0.85835823816E+01 -0.99536325495E+01  0.13438698574E+02  0.00000000000E+00 0. -1.
</event>
<event>
 7    1  0.1714203E-010  0.4778727E+02  0.7816164E-02  0.1312668E+00
        -11   -1    0    0    0    0  0.00000000000E+00  0.00000000000E+00  0.45593999997E+02  0.45594000000E+02  0.51100000000E-03 0. -1.
         11   -1    0    0    0    0 -0.00000000000E+00 -0.00000000000E+00 -0.45593999997E+02  0.45594000000E+02  0.51100000000E-03 0.  1.
    9900012    2    1    2    0    0  0.18041084377E+02 -0.20092193438E+02  0.33977141971E+02  0.47787272596E+02  0.20000007074E+02 0.  0.
        -12    1    1    2    0    0 -0.18041084377E+02  0.20092193438E+02 -0.33977141971E+02  0.43400727404E+02  0.00000000000E+00 0.  1.
         11    1    3    3    0    0 -0.19301797191E+01 -0.10284846285E+02  0.96117411870E+01  0.14208772845E+02  0.51100000000E-03 0.  1.
        -11    1    3    3    0    0  0.60814176323E+01 -0.23273281161E+00  0.82169445702E+01  0.10225262017E+02  0.51100000000E-03 0. -1.
        -12    1    3    3    0    0  0.13889846464E+02 -0.95746143418E+01  0.16148456214E+02  0.23353237734E+02  0.00000000000E+00 0.  1.
</event>
<event>
 7    1  0.1714203E-010  0.4778727E+02  0.7816164E-02  0.1312668E+00
        -11   -1    0    0    0    0  0.00000000000E+00  0.00000000000E+00  0.45593999997E+02  0.45594000000E+02  0.51100000000E-03 0. -1.
         11   -1    0    0    0    0 -0.00000000000E+00 -0.00000000000E+00 -0.45593999997E+02  0.45594000000E+02  0.51100000000E-03 0.  1.
    9900012    2    1    2    0    0 -0.34990386622E+02 -0.18760836716E+02 -0.17530753279E+02  0.47787268891E+02  0.19999990184E+02 0.  0.
        -12    1    1    2    0    0  0.34990386622E+02  0.18760836716E+02  0.17530753279E+02  0.43400731109E+02  0.00000000000E+00 0.  1.
         11    1    3    3    0    0 -0.12494718616E+02 -0.70017174618E+01 -0.57714411853E+01  0.15441877293E+02  0.51100000000E-03 0. -1.
        -11    1    3    3    0    0  0.20496184553E+01 -0.29023046303E+01 -0.34691602490E+01  0.49658212890E+01  0.51100000000E-03 0.  1.
         12    1    3    3    0    0 -0.24545286461E+02 -0.88568146239E+01 -0.82901518444E+01  0.27379570310E+02  0.00000000000E+00 0. -1.
</event>
<event>
 7    1  0.1714203E-010  0.4778727E+02  0.7816164E-02  0.1312668E+00
        -11   -1    0    0    0    0  0.00000000000E+00  0.00000000000E+00  0.45593999997E+02  0.45594000000E+02  0.51100000000E-03 0.  1.
         11   -1    0    0    0    0 -0.00000000000E+00 -0.00000000000E+00 -0.45593999997E+02  0.45594000000E+02  0.51100000000E-03 0. -1.
    9900012    2    1    2    0    0 -0.12752517426E+02  0.41477097399E+02 -0.80452868931E+00  0.47787267567E+02  0.19999984145E+02 0.  0.
        -12    1    1    2    0    0  0.12752517426E+02 -0.41477097399E+02  0.80452868931E+00  0.43400732433E+02  0.00000000000E+00 0.  1.
         11    1    3    3    0    0 -0.46956724314E+00  0.29781885273E+02 -0.35691804916E+01  0.29998670528E+02  0.51100000000E-03 0. -1.
        -11    1    3    3    0    0 -0.53154197983E+01  0.43792825192E+01 -0.10948524508E+01  0.69735575688E+01  0.51100000000E-03 0.  1.
         12    1    3    3    0    0 -0.69675303842E+01  0.73159296059E+01  0.38595042531E+01  0.10815039470E+02  0.00000000000E+00 0. -1.
</event>
<event>
 7    1  0.1714203E-010  0.4778727E+02  0.7816164E-02  0.1312668E+00
        -11   -1    0    0    0    0  0.00000000000E+00  0.00000000000E+00  0.45593999997E+02  0.45594000000E+02  0.51100000000E-03 0. -1.
         11   -1    0    0    0    0 -0.00000000000E+00 -0.00000000000E+00 -0.45593999997E+02  0.45594000000E+02  0.51100000000E-03 0.  1.
    9900012    2    1    2    0    0  0.30895143732E+02  0.13355226404E+02 -0.27399841569E+02  0.47787270783E+02  0.19999998808E+02 0.  0.
        -12    1    1    2    0    0 -0.30895143732E+02 -0.13355226404E+02  0.27399841569E+02  0.43400729217E+02  0.00000000000E+00 0.  1.
         11    1    3    3    0    0  0.20007003282E+02  0.82615736271E+01 -0.77700787695E+01  0.22997997814E+02  0.51100000000E-03 0. -1.
        -11    1    3    3    0    0  0.22190610843E+01  0.57277893439E+01 -0.57595448953E+01  0.84204608262E+01  0.51100000000E-03 0.  1.
        -12    1    3    3    0    0  0.86690793659E+01 -0.63413656681E+00 -0.13870217904E+02  0.16368812142E+02  0.00000000000E+00 0.  1.
</event>
<event>
 7    1  0.1714203E-010  0.4778727E+02  0.7816164E-02  0.1312668E+00
        -11   -1    0    0    0    0  0.00000000000E+00  0.00000000000E+00  0.45593999997E+02  0.45594000000E+02  0.51100000000E-03 0.  1.
         11   -1    0    0    0    0 -0.00000000000E+00 -0.00000000000E+00 -0.45593999997E+02  0.45594000000E+02  0.51100000000E-03 0. -1.
    9900012    2    1    2    0    0  0.39745047191E+02 -0.11099382248E+02  0.13444647558E+02  0.47787267167E+02  0.19999982322E+02 0.  0.
        -12    1    1    2    0    0 -0.39745047191E+02  0.11099382248E+02 -0.13444647558E+02  0.43400732833E+02  0.00000000000E+00 0.  1.
         11    1    3    3    0    0  0.15370712165E+02 -0.78723622791E+01  0.61998139542E+01  0.18348585059E+02  0.51100000000E-03 0.  1.
        -11    1    3    3    0    0 -0.33778399713E-01  0.29649156724E+00 -0.27959611216E+01  0.28118405155E+01  0.51100000000E-03 0. -1.
         12    1    3    3    0    0  0.24408113425E+02 -0.35235115360E+01  0.10040794725E+02  0.26626841593E+02  0.00000000000E+00 0. -1.
</event>
<event>
 7    1  0.1714203E-010  0.4778726E+02  0.7816164E-02  0.1312668E+00
        -11   -1    0    0    0    0  0.00000000000E+00  0.00000000000E+00  0.45593999997E+02  0.45594000000E+02  0.51100000000E-03 0.  1.
         11   -1    0    0    0    0 -0.00000000000E+00 -0.00000000000E+00 -0.45593999997E+02  0.45594000000E+02  0.51100000000E-03 0. -1.
    9900012    2    1    2    0    0  0.39285759504E+02 -0.16959747475E+02  0.72539616831E+01  0.47787263896E+02  0.19999967409E+02 0.  0.
        -12    1    1    2    0    0 -0.39285759504E+02  0.16959747475E+02 -0.72539616831E+01  0.43400736104E+02  0.00000000000E+00 0.  1.
         11    1    3    3    0    0  0.25075853321E+02 -0.12998165958E+02  0.23535988578E+01  0.28342374034E+02  0.51100000000E-03 0. -1.
        -11    1    3    3    0    0  0.13174693960E+02  0.14855667523E+01  0.31062639331E+01  0.13617207695E+02  0.51100000000E-03 0.  1.
         12    1    3    3    0    0  0.10352122236E+01 -0.54471482695E+01  0.17940988923E+01  0.58276821681E+01  0.00000000000E+00 0. -1.
</event>
<event>
 7    1  0.1714203E-010  0.4778727E+02  0.7816164E-02  0.1312668E+00
        -11   -1    0    0    0    0  0.00000000000E+00  0.00000000000E+00  0.45593999997E+02  0.45594000000E+02  0.51100000000E-03 0.  1.
         11   -1    0    0    0    0 -0.00000000000E+00 -0.00000000000E+00 -0.45593999997E+02  0.45594000000E+02  0.51100000000E-03 0. -1.
    9900012    2    1    2    0    0  0.28231271777E+02 -0.32940327228E+02  0.12464238356E+01  0.47787269172E+02  0.19999991463E+02 0.  0.
        -12    1    1    2    0    0 -0.28231271777E+02  0.32940327228E+02 -0.12464238356E+01  0.43400730828E+02  0.00000000000E+00 0.  1.
         11    1    3    3    0    0  0.25011009339E+02 -0.14452288517E+02 -0.38867049873E+00  0.28888930346E+02  0.51100000000E-03 0. -1.
        -11    1    3    3    0    0  0.50589151360E+00 -0.66637686456E+01  0.24890536316E+00  0.66875775081E+01  0.51100000000E-03 0.  1.
         12    1    3    3    0    0  0.27143709241E+01 -0.11824270065E+02  0.13861889712E+01  0.12210761318E+02  0.00000000000E+00 0. -1.
</event>
<event>
 7    1  0.1714203E-010  0.4778727E+02  0.7816164E-02  0.1312668E+00
        -11   -1    0    0    0    0  0.00000000000E+00  0.00000000000E+00  0.45593999997E+02  0.45594000000E+02  0.51100000000E-03 0. -1.
         11   -1    0    0    0    0 -0.00000000000E+00 -0.00000000000E+00 -0.45593999997E+02  0.45594000000E+02  0.51100000000E-03 0.  1.
    9900012    2    1    2    0    0 -0.20343010681E+02 -0.18396600317E+01  0.38293616965E+02  0.47787268061E+02  0.19999986398E+02 0.  0.
        -12    1    1    2    0    0  0.20343010681E+02  0.18396600317E+01 -0.38293616965E+02  0.43400731939E+02  0.00000000000E+00 0.  1.
         11    1    3    3    0    0 -0.43042887708E+01  0.44627411827E+01  0.91193747524E+01  0.11027509094E+02  0.51100000000E-03 0. -1.
        -11    1    3    3    0    0  0.20225597147E+01  0.11536227598E+01  0.11524098597E+01  0.25980073167E+01  0.51100000000E-03 0.  1.
         12    1    3    3    0    0 -0.18061281625E+02 -0.74560239743E+01  0.28021832352E+02  0.34161751650E+02  0.00000000000E+00 0. -1.
</event>
<event>
 7    1  0.1714203E-010  0.4778727E+02  0.7816164E-02  0.1312668E+00
        -11   -1    0    0    0    0  0.00000000000E+00  0.00000000000E+00  0.45593999997E+02  0.45594000000E+02  0.51100000000E-03 0.  1.
         11   -1    0    0    0    0 -0.00000000000E+00 -0.00000000000E+00 -0.45593999997E+02  0.45594000000E+02  0.51100000000E-03 0. -1.
    9900012    2    1    2    0    0 -0.12560999533E+02 -0.36323766838E+02  0.20160070987E+02  0.47787271794E+02  0.20000003417E+02 0.  0.
        -12    1    1    2    0    0  0.12560999533E+02  0.36323766838E+02 -0.20160070987E+02  0.43400728206E+02  0.00000000000E+00 0.  1.
         11    1    3    3    0    0 -0.25699598006E+01 -0.52638026461E+01 -0.84931341097E+00  0.59189226388E+01  0.51100000000E-03 0. -1.
        -11    1    3    3    0    0 -0.99130373114E+01 -0.11850530144E+02  0.15498400464E+02  0.21883870559E+02  0.51100000000E-03 0.  1.
         12    1    3    3    0    0 -0.78002421492E-01 -0.19209434048E+02  0.55109839340E+01  0.19984478596E+02  0.00000000000E+00 0. -1.
</event>
<event>
 7    1  0.1714203E-010  0.4778727E+02  0.7816164E-02  0.1312668E+00
        -11   -1    0    0    0    0  0.00000000000E+00  0.00000000000E+00  0.45593999997E+02  0.45594000000E+02  0.51100000000E-03 0.  1.
         11   -1    0    0    0    0 -0.00000000000E+00 -0.00000000000E+00 -0.45593999997E+02  0.45594000000E+02  0.51100000000E-03 0. -1.
    9900012    2    1    2    0    0  0.10880077498E+02 -0.16959537787E+02 -0.38439839941E+02  0.47787270709E+02  0.19999998471E+02 0.  0.
        -12    1    1    2    0    0 -0.10880077498E+02  0.16959537787E+02  0.38439839941E+02  0.43400729291E+02  0.00000000000E+00 0.  1.
         11    1    3    3    0    0  0.70406180872E+01 -0.32945306302E+01 -0.16051410393E+02  0.17834573474E+02  0.51100000000E-03 0. -1.
        -11    1    3    3    0    0  0.14108239349E+01  0.44792618776E+00  0.14957809618E+01  0.21043818550E+01  0.51100000000E-03 0.  1.
         12    1    3    3    0    0  0.24286354759E+01 -0.14112933345E+02 -0.23884210509E+02  0.27848315380E+02  0.00000000000E+00 0. -1.
</event>
<event>
 7    1  0.1714203E-010  0.4778727E+02  0.7816164E-02  0.1312668E+00
        -11   -1    0    0    0    0  0.00000000000E+00  0.00000000000E+00  0.45593999997E+02  0.45594000000E+02  0.51100000000E-03 0. -1.
         11   -1    0    0    0    0 -0.00000000000E+00 -0.00000000000E+00 -0.45593999997E+02  0.45594000000E+02  0.51100000000E-03 0.  1.
    9900012    2    1    2    0    0  0.10527074803E+02 -0.35311689957E+02 -0.22932254667E+02  0.47787273559E+02  0.20000011464E+02 0.  0.
        -12    1    1    2    0    0 -0.10527074803E+02  0.35311689957E+02  0.22932254667E+02  0.43400726441E+02  0.00000000000E+00 0.  1.
         11    1    3    3    0    0  0.43732845743E+01 -0.10673633484E+02 -0.15056249447E+02  0.18966884758E+02  0.51100000000E-03 0.  1.
        -11    1    3    3    0    0  0.48830957975E+01 -0.44531209505E+01  0.10886145117E+01  0.66977602662E+01  0.51100000000E-03 0. -1.
         12    1    3    3    0    0  0.12706944311E+01 -0.20184935522E+02 -0.89646197310E+01  0.22122628535E+02  0.00000000000E+00 0. -1.
</event>
<event>
 7    1  0.1714203E-010  0.4778727E+02  0.7816164E-02  0.1312668E+00
        -11   -1    0    0    0    0  0.00000000000E+00  0.00000000000E+00  0.45593999997E+02  0.45594000000E+02  0.51100000000E-03 0. -1.
         11   -1    0    0    0    0 -0.00000000000E+00 -0.00000000000E+00 -0.45593999997E+02  0.45594000000E+02  0.51100000000E-03 0.  1.
    9900012    2    1    2    0    0  0.42153797761E+02 -0.66175855801E-01 -0.10328414255E+02  0.47787272058E+02  0.20000004620E+02 0.  0.
        -12    1    1    2    0    0 -0.42153797761E+02  0.66175855801E-01  0.10328414255E+02  0.43400727942E+02  0.00000000000E+00 0.  1.
         11    1    3    3    0    0 -0.66487937357E+00 -0.15829105247E+01 -0.40390251731E+01  0.43887805734E+01  0.51100000000E-03 0.  1.
        -11    1    3    3    0    0  0.15263672299E+02  0.95582138530E+00 -0.93226165806E+00  0.15321958055E+02  0.51100000000E-03 0. -1.
        -12    1    3    3    0    0  0.27555004835E+02  0.56091328361E+00 -0.53571274241E+01  0.28076533429E+02  0.00000000000E+00 0.  1.
</event>
<event>
 7    1  0.2247508E-010  0.4778727E+02  0.7816164E-02  0.1312668E+00
        -11   -1    0    0    0    0  0.00000000000E+00  0.00000000000E+00  0.45593999997E+02  0.45594000000E+02  0.51100000000E-03 0.  1.
         11   -1    0    0    0    0 -0.00000000000E+00 -0.00000000000E+00 -0.45593999997E+02  0.45594000000E+02  0.51100000000E-03 0. -1.
    9900012    2    1    2    0    0 -0.16150920160E+02  0.39334661073E+02 -0.86922721353E+01  0.47787269838E+02  0.19999994498E+02 0.  0.
        -12    1    1    2    0    0  0.16150920160E+02 -0.39334661073E+02  0.86922721353E+01  0.43400730162E+02  0.00000000000E+00 0.  1.
         11    1    3    3    0    0 -0.14668809589E+02  0.27240348385E+02 -0.24058157879E+01  0.31032217206E+02  0.51100000000E-03 0. -1.
        -11    1    3    3    0    0 -0.39292125283E+01  0.24000893868E+01 -0.47923265907E+01  0.66457155048E+01  0.51100000000E-03 0.  1.
        -12    1    3    3    0    0  0.24471019573E+01  0.96942233014E+01 -0.14941297567E+01  0.10109337126E+02  0.00000000000E+00 0.  1.
</event>
<event>
 7    1  0.1714203E-010  0.4778727E+02  0.7816164E-02  0.1312668E+00
        -11   -1    0    0    0    0  0.00000000000E+00  0.00000000000E+00  0.45593999997E+02  0.45594000000E+02  0.51100000000E-03 0. -1.
         11   -1    0    0    0    0 -0.00000000000E+00 -0.00000000000E+00 -0.45593999997E+02  0.45594000000E+02  0.51100000000E-03 0.  1.
    9900012    2    1    2    0    0 -0.35022031432E+02 -0.24628816801E+02  0.71064589319E+01  0.47787273495E+02  0.20000011172E+02 0.  0.
        -12    1    1    2    0    0  0.35022031432E+02  0.24628816801E+02 -0.71064589319E+01  0.43400726505E+02  0.00000000000E+00 0.  1.
         11    1    3    3    0    0 -0.19117631243E+02 -0.95283563410E+01 -0.21082162825E+01  0.21464341943E+02  0.51100000000E-03 0. -1.
        -11    1    3    3    0    0 -0.26058295090E+01  0.13310181527E+01  0.32194367416E+01  0.43504861736E+01  0.51100000000E-03 0.  1.
         12    1    3    3    0    0 -0.13298570680E+02 -0.16431478613E+02  0.59952384728E+01  0.21972445378E+02  0.00000000000E+00 0. -1.
</event>
<event>
 7    1  0.1714203E-010  0.4778728E+02  0.7816164E-02  0.1312668E+00
        -11   -1    0    0    0    0  0.00000000000E+00  0.00000000000E+00  0.45593999997E+02  0.45594000000E+02  0.51100000000E-03 0.  1.
         11   -1    0    0    0    0 -0.00000000000E+00 -0.00000000000E+00 -0.45593999997E+02  0.45594000000E+02  0.51100000000E-03 0. -1.
    9900012    2    1    2    0    0 -0.95123458230E+01  0.93246551178E-01 -0.42345357322E+02  0.47787277602E+02  0.20000029898E+02 0.  0.
        -12    1    1    2    0    0  0.95123458230E+01 -0.93246551178E-01  0.42345357322E+02  0.43400722398E+02  0.00000000000E+00 0.  1.
         11    1    3    3    0    0  0.22619019263E+01  0.36817698964E+01 -0.32880847928E+01  0.54298371762E+01  0.51100000000E-03 0.  1.
        -11    1    3    3    0    0 -0.69253805948E+01  0.29172040219E+01 -0.25229533132E+02  0.26324899202E+02  0.51100000000E-03 0. -1.
        -12    1    3    3    0    0 -0.48488671545E+01 -0.65057273671E+01 -0.13827739397E+02  0.16032541224E+02  0.00000000000E+00 0.  1.
</event>
<event>
 7    1  0.1714203E-010  0.4778727E+02  0.7816164E-02  0.1312668E+00
        -11   -1    0    0    0    0  0.00000000000E+00  0.00000000000E+00  0.45593999997E+02  0.45594000000E+02  0.51100000000E-03 0.  1.
         11   -1    0    0    0    0 -0.00000000000E+00 -0.00000000000E+00 -0.45593999997E+02  0.45594000000E+02  0.51100000000E-03 0. -1.
    9900012    2    1    2    0    0 -0.70976998376E+01  0.42751330088E+02 -0.23600064280E+01  0.47787271923E+02  0.20000004006E+02 0.  0.
        -12    1    1    2    0    0  0.70976998376E+01 -0.42751330088E+02  0.23600064280E+01  0.43400728077E+02  0.00000000000E+00 0.  1.
         11    1    3    3    0    0 -0.29525132296E+01  0.14489317485E+02 -0.46685978971E+01  0.15506561906E+02  0.51100000000E-03 0. -1.
        -11    1    3    3    0    0  0.23032377015E+01  0.41024821192E+01  0.53116848847E+01  0.70957212476E+01  0.51100000000E-03 0.  1.
        -12    1    3    3    0    0 -0.64484243095E+01  0.24159530484E+02 -0.30030934157E+01  0.25184988770E+02  0.00000000000E+00 0.  1.
</event>
<event>
 7    1  0.1714203E-010  0.4778726E+02  0.7816164E-02  0.1312668E+00
        -11   -1    0    0    0    0  0.00000000000E+00  0.00000000000E+00  0.45593999997E+02  0.45594000000E+02  0.51100000000E-03 0. -1.
         11   -1    0    0    0    0 -0.00000000000E+00 -0.00000000000E+00 -0.45593999997E+02  0.45594000000E+02  0.51100000000E-03 0.  1.
    9900012    2    1    2    0    0  0.11492224290E+02  0.38940456938E+02  0.15336025166E+02  0.47787261831E+02  0.19999957992E+02 0.  0.
        -12    1    1    2    0    0 -0.11492224290E+02 -0.38940456938E+02 -0.15336025166E+02  0.43400738169E+02  0.00000000000E+00 0.  1.
         11    1    3    3    0    0  0.67649695049E+01  0.89162046061E+01  0.77653017565E+01  0.13622166810E+02  0.51100000000E-03 0. -1.
        -11    1    3    3    0    0 -0.24429064761E+01  0.22776372832E+02  0.70051082948E+01  0.23954174875E+02  0.51100000000E-03 0.  1.
        -12    1    3    3    0    0  0.71701612616E+01  0.72478794999E+01  0.56561511508E+00  0.10210920146E+02  0.00000000000E+00 0.  1.
</event>
<event>
 7    1  0.1714203E-010  0.4778727E+02  0.7816164E-02  0.1312668E+00
        -11   -1    0    0    0    0  0.00000000000E+00  0.00000000000E+00  0.45593999997E+02  0.45594000000E+02  0.51100000000E-03 0.  1.
         11   -1    0    0    0    0 -0.00000000000E+00 -0.00000000000E+00 -0.45593999997E+02  0.45594000000E+02  0.51100000000E-03 0. -1.
    9900012    2    1    2    0    0  0.20775951352E+02 -0.30577854770E+02 -0.22737159157E+02  0.47787265404E+02  0.19999974284E+02 0.  0.
        -12    1    1    2    0    0 -0.20775951352E+02  0.30577854770E+02  0.22737159157E+02  0.43400734596E+02  0.00000000000E+00 0.  1.
         11    1    3    3    0    0  0.66339649021E+01 -0.13990685982E+02 -0.10922894541E+02  0.18948836639E+02  0.51100000000E-03 0. -1.
        -11    1    3    3    0    0  0.98625667867E+01 -0.17076682790E+02 -0.13826417167E+02  0.24084292198E+02  0.51100000000E-03 0.  1.
        -12    1    3    3    0    0  0.42794196629E+01  0.48951400154E+00  0.20121525513E+01  0.47541365671E+01  0.00000000000E+00 0.  1.
</event>
<event>
 7    1  0.1714203E-010  0.4778727E+02  0.7816164E-02  0.1312668E+00
        -11   -1    0    0    0    0  0.00000000000E+00  0.00000000000E+00  0.45593999997E+02  0.45594000000E+02  0.51100000000E-03 0.  1.
         11   -1    0    0    0    0 -0.00000000000E+00 -0.00000000000E+00 -0.45593999997E+02  0.45594000000E+02  0.51100000000E-03 0. -1.
    9900012    2    1    2    0    0 -0.14043561667E+02 -0.36757717872E+02 -0.18310425872E+02  0.47787272551E+02  0.20000006869E+02 0.  0.
        -12    1    1    2    0    0  0.14043561667E+02  0.36757717872E+02  0.18310425872E+02  0.43400727449E+02  0.00000000000E+00 0.  1.
         11    1    3    3    0    0 -0.21799176129E+01 -0.49931820366E+01 -0.64124098411E+01  0.84144463800E+01  0.51100000000E-03 0. -1.
        -11    1    3    3    0    0 -0.12606554172E+02 -0.20686217043E+02 -0.16793451288E+01  0.24283018428E+02  0.51100000000E-03 0.  1.
        -12    1    3    3    0    0  0.74291011754E+00 -0.11078318792E+02 -0.10218670903E+02  0.15089807743E+02  0.00000000000E+00 0.  1.
</event>
<event>
 7    1  0.1714203E-010  0.4778727E+02  0.7816164E-02  0.1312668E+00
        -11   -1    0    0    0    0  0.00000000000E+00  0.00000000000E+00  0.45593999997E+02  0.45594000000E+02  0.51100000000E-03 0. -1.
         11   -1    0    0    0    0 -0.00000000000E+00 -0.00000000000E+00 -0.45593999997E+02  0.45594000000E+02  0.51100000000E-03 0.  1.
    9900012    2    1    2    0    0  0.10823063226E+02 -0.38279244735E+02  0.17354653265E+02  0.47787271146E+02  0.20000000465E+02 0.  0.
        -12    1    1    2    0    0 -0.10823063226E+02  0.38279244735E+02 -0.17354653265E+02  0.43400728854E+02  0.00000000000E+00 0.  1.
         11    1    3    3    0    0 -0.10707114553E+01 -0.86855594758E+00  0.48291928347E+01  0.50221425857E+01  0.51100000000E-03 0. -1.
        -11    1    3    3    0    0  0.11165817386E+02 -0.20946117668E+02  0.11157065974E+02  0.26227760954E+02  0.51100000000E-03 0.  1.
        -12    1    3    3    0    0  0.72795729509E+00 -0.16464571119E+02  0.13683944564E+01  0.16537367606E+02  0.00000000000E+00 0.  1.
</event>
<event>
 7    1  0.1714203E-010  0.4778727E+02  0.7816164E-02  0.1312668E+00
        -11   -1    0    0    0    0  0.00000000000E+00  0.00000000000E+00  0.45593999997E+02  0.45594000000E+02  0.51100000000E-03 0.  1.
         11   -1    0    0    0    0 -0.00000000000E+00 -0.00000000000E+00 -0.45593999997E+02  0.45594000000E+02  0.51100000000E-03 0. -1.
    9900012    2    1    2    0    0 -0.99680904748E+00 -0.34714316180E+02 -0.26029713728E+02  0.47787269904E+02  0.19999994800E+02 0.  0.
        -12    1    1    2    0    0  0.99680904748E+00  0.34714316180E+02  0.26029713728E+02  0.43400730096E+02  0.00000000000E+00 0.  1.
         11    1    3    3    0    0  0.55793803488E+01 -0.88933176193E+01 -0.78805359533E+01  0.13127201931E+02  0.51100000000E-03 0. -1.
        -11    1    3    3    0    0 -0.30690945727E+01 -0.14613895727E+02 -0.25722031049E+01  0.15152607660E+02  0.51100000000E-03 0.  1.
        -12    1    3    3    0    0 -0.35070948236E+01 -0.11207102833E+02 -0.15576974670E+02  0.19507460314E+02  0.00000000000E+00 0.  1.
</event>
<event>
 7    1  0.1714203E-010  0.4778727E+02  0.7816164E-02  0.1312668E+00
        -11   -1    0    0    0    0  0.00000000000E+00  0.00000000000E+00  0.45593999997E+02  0.45594000000E+02  0.51100000000E-03 0. -1.
         11   -1    0    0    0    0 -0.00000000000E+00 -0.00000000000E+00 -0.45593999997E+02  0.45594000000E+02  0.51100000000E-03 0.  1.
    9900012    2    1    2    0    0  0.24559412916E+02 -0.35541393381E+02  0.41554472270E+01  0.47787272496E+02  0.20000006620E+02 0.  0.
        -12    1    1    2    0    0 -0.24559412916E+02  0.35541393381E+02 -0.41554472270E+01  0.43400727504E+02  0.00000000000E+00 0.  1.
         11    1    3    3    0    0  0.39112610145E+01 -0.12595366390E+02  0.27933270556E+01  0.13481242284E+02  0.51100000000E-03 0. -1.
        -11    1    3    3    0    0  0.29418747876E+01  0.17933685121E+01  0.17847912029E+01  0.38802419751E+01  0.51100000000E-03 0.  1.
        -12    1    3    3    0    0  0.17706277114E+02 -0.24739395503E+02 -0.42267103145E+00  0.30425788237E+02  0.00000000000E+00 0.  1.
</event>
<event>
 7    1  0.1714203E-010  0.4778727E+02  0.7816164E-02  0.1312668E+00
        -11   -1    0    0    0    0  0.00000000000E+00  0.00000000000E+00  0.45593999997E+02  0.45594000000E+02  0.51100000000E-03 0.  1.
         11   -1    0    0    0    0 -0.00000000000E+00 -0.00000000000E+00 -0.45593999997E+02  0.45594000000E+02  0.51100000000E-03 0. -1.
    9900012    2    1    2    0    0  0.52533233254E+01 -0.36325896936E+02 -0.23161501767E+02  0.47787270073E+02  0.19999995569E+02 0.  0.
        -12    1    1    2    0    0 -0.52533233254E+01  0.36325896936E+02  0.23161501767E+02  0.43400729927E+02  0.00000000000E+00 0.  1.
         11    1    3    3    0    0  0.10070373982E+01 -0.24870721331E+02 -0.21281829655E+02  0.32748788949E+02  0.51100000000E-03 0. -1.
        -11    1    3    3    0    0 -0.11333227658E+01 -0.53555043828E+01 -0.38224879531E+01  0.66766205597E+01  0.51100000000E-03 0.  1.
        -12    1    3    3    0    0  0.53796086930E+01 -0.60996712214E+01  0.19428158417E+01  0.83618605641E+01  0.00000000000E+00 0.  1.
</event>
<event>
 7    1  0.1714203E-010  0.4778727E+02  0.7816164E-02  0.1312668E+00
        -11   -1    0    0    0    0  0.00000000000E+00  0.00000000000E+00  0.45593999997E+02  0.45594000000E+02  0.51100000000E-03 0.  1.
         11   -1    0    0    0    0 -0.00000000000E+00 -0.00000000000E+00 -0.45593999997E+02  0.45594000000E+02  0.51100000000E-03 0. -1.
    9900012    2    1    2    0    0  0.38637481040E+02  0.31965482152E+01 -0.19507710477E+02  0.47787266946E+02  0.19999981313E+02 0.  0.
        -12    1    1    2    0    0 -0.38637481040E+02 -0.31965482152E+01  0.19507710477E+02  0.43400733054E+02  0.00000000000E+00 0.  1.
         11    1    3    3    0    0  0.25401239183E+02  0.17286529191E+01 -0.14549015680E+02  0.29323796659E+02  0.51100000000E-03 0. -1.
        -11    1    3    3    0    0  0.12909031275E+02  0.52271969008E+01 -0.46257591964E+01  0.14675296396E+02  0.51100000000E-03 0.  1.
         12    1    3    3    0    0  0.32721058180E+00 -0.37593016047E+01 -0.33293560025E+00  0.37881738917E+01  0.00000000000E+00 0. -1.
</event>
<event>
 7    1  0.1714203E-010  0.4778727E+02  0.7816164E-02  0.1312668E+00
        -11   -1    0    0    0    0  0.00000000000E+00  0.00000000000E+00  0.45593999997E+02  0.45594000000E+02  0.51100000000E-03 0.  1.
         11   -1    0    0    0    0 -0.00000000000E+00 -0.00000000000E+00 -0.45593999997E+02  0.45594000000E+02  0.51100000000E-03 0. -1.
    9900012    2    1    2    0    0 -0.26026564742E+02  0.90350787825E+01 -0.33535190229E+02  0.47787266083E+02  0.19999977379E+02 0.  0.
        -12    1    1    2    0    0  0.26026564742E+02 -0.90350787825E+01  0.33535190229E+02  0.43400733917E+02  0.00000000000E+00 0.  1.
         11    1    3    3    0    0  0.10846127114E+01  0.11634366067E+01 -0.58694838620E+01  0.60811849618E+01  0.51100000000E-03 0. -1.
        -11    1    3    3    0    0 -0.16495277548E+02  0.59434779666E+01 -0.25096890608E+02  0.30614915159E+02  0.51100000000E-03 0.  1.
        -12    1    3    3    0    0 -0.10615899905E+02  0.19281642093E+01 -0.25688157588E+01  0.11091165962E+02  0.00000000000E+00 0.  1.
</event>
<event>
 7    1  0.1714203E-010  0.4778727E+02  0.7816164E-02  0.1312668E+00
        -11   -1    0    0    0    0  0.00000000000E+00  0.00000000000E+00  0.45593999997E+02  0.45594000000E+02  0.51100000000E-03 0.  1.
         11   -1    0    0    0    0 -0.00000000000E+00 -0.00000000000E+00 -0.45593999997E+02  0.45594000000E+02  0.51100000000E-03 0. -1.
    9900012    2    1    2    0    0 -0.11021245179E+02  0.39932277607E+02 -0.12944827548E+02  0.47787271891E+02  0.20000003861E+02 0.  0.
        -12    1    1    2    0    0  0.11021245179E+02 -0.39932277607E+02  0.12944827548E+02  0.43400728109E+02  0.00000000000E+00 0.  1.
         11    1    3    3    0    0 -0.10632249048E+02  0.23843191952E+02 -0.11503128187E+02  0.28528310161E+02  0.51100000000E-03 0. -1.
        -11    1    3    3    0    0 -0.27961899612E+00  0.17494247385E+02 -0.22398089749E+01  0.17639263671E+02  0.51100000000E-03 0.  1.
        -12    1    3    3    0    0 -0.10937713413E+00 -0.14051617305E+01  0.79810961458E+00  0.16196980593E+01  0.00000000000E+00 0.  1.
</event>
<event>
 7    1  0.1714203E-010  0.4778727E+02  0.7816164E-02  0.1312668E+00
        -11   -1    0    0    0    0  0.00000000000E+00  0.00000000000E+00  0.45593999997E+02  0.45594000000E+02  0.51100000000E-03 0. -1.
         11   -1    0    0    0    0 -0.00000000000E+00 -0.00000000000E+00 -0.45593999997E+02  0.45594000000E+02  0.51100000000E-03 0.  1.
    9900012    2    1    2    0    0  0.13203265530E+01 -0.39382625841E+02  0.18190356923E+02  0.47787267687E+02  0.19999984690E+02 0.  0.
        -12    1    1    2    0    0 -0.13203265530E+01  0.39382625841E+02 -0.18190356923E+02  0.43400732313E+02  0.00000000000E+00 0.  1.
         11    1    3    3    0    0  0.49591411838E+00 -0.11275921074E+02  0.13408660103E+02  0.17526679460E+02  0.51100000000E-03 0. -1.
        -11    1    3    3    0    0  0.32877664059E+01 -0.33198856336E+01 -0.78332802273E+00  0.47375786655E+01  0.51100000000E-03 0.  1.
        -12    1    3    3    0    0 -0.24633539713E+01 -0.24786819134E+02  0.55650248436E+01  0.25523009561E+02  0.00000000000E+00 0.  1.
</event>
<event>
 7    1  0.2507391E-010  0.4778727E+02  0.7816164E-02  0.1312668E+00
        -11   -1    0    0    0    0  0.00000000000E+00  0.00000000000E+00  0.45593999997E+02  0.45594000000E+02  0.51100000000E-03 0.  1.
         11   -1    0    0    0    0 -0.00000000000E+00 -0.00000000000E+00 -0.45593999997E+02  0.45594000000E+02  0.51100000000E-03 0. -1.
    9900012    2    1    2    0    0 -0.19485689469E+02  0.37929196491E+02 -0.80813040453E+01  0.47787268259E+02  0.19999987302E+02 0.  0.
        -12    1    1    2    0    0  0.19485689469E+02 -0.37929196491E+02  0.80813040453E+01  0.43400731741E+02  0.00000000000E+00 0.  1.
         11    1    3    3    0    0 -0.67185432369E+01  0.17294612246E+02 -0.16494923459E+01  0.18626949864E+02  0.51100000000E-03 0. -1.
        -11    1    3    3    0    0 -0.14545381618E+02  0.11156427841E+02 -0.66886304328E+01  0.19513374540E+02  0.51100000000E-03 0.  1.
        -12    1    3    3    0    0  0.17782353859E+01  0.94781564036E+01  0.25681873343E+00  0.96469438560E+01  0.00000000000E+00 0.  1.
</event>
<event>
 7    1  0.1714203E-010  0.4778727E+02  0.7816164E-02  0.1312668E+00
        -11   -1    0    0    0    0  0.00000000000E+00  0.00000000000E+00  0.45593999997E+02  0.45594000000E+02  0.51100000000E-03 0.  1.
         11   -1    0    0    0    0 -0.00000000000E+00 -0.00000000000E+00 -0.45593999997E+02  0.45594000000E+02  0.51100000000E-03 0. -1.
    9900012    2    1    2    0    0 -0.28288822214E+02  0.28314763338E+02 -0.16782124316E+02  0.47787274410E+02  0.20000015346E+02 0.  0.
        -12    1    1    2    0    0  0.28288822214E+02 -0.28314763338E+02  0.16782124316E+02  0.43400725590E+02  0.00000000000E+00 0.  1.
         11    1    3    3    0    0 -0.42933689294E+01 -0.14133535090E+01 -0.50516822112E+01  0.67786487097E+01  0.51100000000E-03 0.  1.
        -11    1    3    3    0    0 -0.11952025743E+02  0.14231973554E+02 -0.10495961826E+02  0.21343973518E+02  0.51100000000E-03 0. -1.
        -12    1    3    3    0    0 -0.12043427541E+02  0.15496143293E+02 -0.12344802789E+01  0.19664652182E+02  0.00000000000E+00 0.  1.
</event>
<event>
 7    1  0.1714203E-010  0.4778727E+02  0.7816164E-02  0.1312668E+00
        -11   -1    0    0    0    0  0.00000000000E+00  0.00000000000E+00  0.45593999997E+02  0.45594000000E+02  0.51100000000E-03 0. -1.
         11   -1    0    0    0    0 -0.00000000000E+00 -0.00000000000E+00 -0.45593999997E+02  0.45594000000E+02  0.51100000000E-03 0.  1.
    9900012    2    1    2    0    0 -0.20076865000E+02  0.29652524224E+02 -0.24520816603E+02  0.47787272495E+02  0.20000006613E+02 0.  0.
        -12    1    1    2    0    0  0.20076865000E+02 -0.29652524224E+02  0.24520816603E+02  0.43400727505E+02  0.00000000000E+00 0.  1.
         11    1    3    3    0    0 -0.88034102417E+01  0.14676421018E+02 -0.11654227114E+02  0.20705515585E+02  0.51100000000E-03 0. -1.
        -11    1    3    3    0    0  0.25855230957E+01  0.36141293662E+01 -0.68740080766E+01  0.81852824052E+01  0.51100000000E-03 0.  1.
        -12    1    3    3    0    0 -0.13858977854E+02  0.11361973840E+02 -0.59925814128E+01  0.18896474504E+02  0.00000000000E+00 0.  1.
</event>
<event>
 7    1  0.1714203E-010  0.4778726E+02  0.7816164E-02  0.1312668E+00
        -11   -1    0    0    0    0  0.00000000000E+00  0.00000000000E+00  0.45593999997E+02  0.45594000000E+02  0.51100000000E-03 0.  1.
         11   -1    0    0    0    0 -0.00000000000E+00 -0.00000000000E+00 -0.45593999997E+02  0.45594000000E+02  0.51100000000E-03 0. -1.
    9900012    2    1    2    0    0  0.15388075878E+02  0.25303444574E+02  0.31726435404E+02  0.47787263946E+02  0.19999967635E+02 0.  0.
        -12    1    1    2    0    0 -0.15388075878E+02 -0.25303444574E+02 -0.31726435404E+02  0.43400736054E+02  0.00000000000E+00 0.  1.
         11    1    3    3    0    0  0.81429444471E+01  0.12057055072E+02  0.12192738133E+02  0.18982702250E+02  0.51100000000E-03 0. -1.
        -11    1    3    3    0    0  0.10089624287E+02  0.14495107402E+02  0.14326382178E+02  0.22741017643E+02  0.51100000000E-03 0.  1.
        -12    1    3    3    0    0 -0.28444928556E+01 -0.12487179002E+01  0.52073150936E+01  0.60635440531E+01  0.00000000000E+00 0.  1.
</event>
<event>
 7    1  0.1714203E-010  0.4778727E+02  0.7816164E-02  0.1312668E+00
        -11   -1    0    0    0    0  0.00000000000E+00  0.00000000000E+00  0.45593999997E+02  0.45594000000E+02  0.51100000000E-03 0.  1.
         11   -1    0    0    0    0 -0.00000000000E+00 -0.00000000000E+00 -0.45593999997E+02  0.45594000000E+02  0.51100000000E-03 0. -1.
    9900012    2    1    2    0    0 -0.23025723662E+01 -0.21168086960E+02 -0.37818429898E+02  0.47787269764E+02  0.19999994164E+02 0.  0.
        -12    1    1    2    0    0  0.23025723662E+01  0.21168086960E+02  0.37818429898E+02  0.43400730236E+02  0.00000000000E+00 0.  1.
         11    1    3    3    0    0 -0.59467136283E+01 -0.20118115642E+02 -0.23143574840E+02  0.31236629726E+02  0.51100000000E-03 0. -1.
        -11    1    3    3    0    0  0.84378229199E+00 -0.32742535022E+01 -0.37210039897E+01  0.50277803756E+01  0.51100000000E-03 0.  1.
        -12    1    3    3    0    0  0.28003589700E+01  0.22242821848E+01 -0.10953851068E+02  0.11522859663E+02  0.00000000000E+00 0.  1.
</event>
<event>
 7    1  0.1714203E-010  0.4778727E+02  0.7816164E-02  0.1312668E+00
        -11   -1    0    0    0    0  0.00000000000E+00  0.00000000000E+00  0.45593999997E+02  0.45594000000E+02  0.51100000000E-03 0. -1.
         11   -1    0    0    0    0 -0.00000000000E+00 -0.00000000000E+00 -0.45593999997E+02  0.45594000000E+02  0.51100000000E-03 0.  1.
    9900012    2    1    2    0    0 -0.11482843538E+02 -0.65653318846E+01  0.41335993516E+02  0.47787266845E+02  0.19999980851E+02 0.  0.
        -12    1    1    2    0    0  0.11482843538E+02  0.65653318846E+01 -0.41335993516E+02  0.43400733155E+02  0.00000000000E+00 0.  1.
         11    1    3    3    0    0 -0.11969231745E+02 -0.68139431307E+01  0.16720047941E+02  0.21662232871E+02  0.51100000000E-03 0. -1.
        -11    1    3    3    0    0 -0.29007248339E+01  0.54343570644E-01  0.20871583244E+02  0.21072260087E+02  0.51100000000E-03 0.  1.
        -12    1    3    3    0    0  0.33871130412E+01  0.19426767547E+00  0.37443623307E+01  0.50527738864E+01  0.00000000000E+00 0.  1.
</event>
<event>
 7    1  0.1714203E-010  0.4778729E+02  0.7816164E-02  0.1312668E+00
        -11   -1    0    0    0    0  0.00000000000E+00  0.00000000000E+00  0.45593999997E+02  0.45594000000E+02  0.51100000000E-03 0.  1.
         11   -1    0    0    0    0 -0.00000000000E+00 -0.00000000000E+00 -0.45593999997E+02  0.45594000000E+02  0.51100000000E-03 0. -1.
    9900012    2    1    2    0    0  0.40619435569E+02  0.77109044078E+01 -0.13199428067E+02  0.47787291549E+02  0.20000093489E+02 0.  0.
        -12    1    1    2    0    0 -0.40619435569E+02 -0.77109044078E+01  0.13199428067E+02  0.43400708451E+02  0.00000000000E+00 0.  1.
         11    1    3    3    0    0  0.34390726941E+02  0.12689222631E+02 -0.11961035222E+02  0.38559108319E+02  0.51100000000E-03 0. -1.
        -11    1    3    3    0    0  0.49263935626E+01 -0.28500159720E+01 -0.27394116786E+01  0.63163534718E+01  0.51100000000E-03 0.  1.
         12    1    3    3    0    0  0.13023150652E+01 -0.21283022509E+01  0.15010188342E+01  0.29118297582E+01  0.00000000000E+00 0. -1.
</event>
<event>
 7    1  0.1714203E-010  0.4778727E+02  0.7816164E-02  0.1312668E+00
        -11   -1    0    0    0    0  0.00000000000E+00  0.00000000000E+00  0.45593999997E+02  0.45594000000E+02  0.51100000000E-03 0. -1.
         11   -1    0    0    0    0 -0.00000000000E+00 -0.00000000000E+00 -0.45593999997E+02  0.45594000000E+02  0.51100000000E-03 0.  1.
    9900012    2    1    2    0    0  0.79468809931E+01  0.42657476114E+02  0.89995299436E+00  0.47787273032E+02  0.20000009061E+02 0.  0.
        -12    1    1    2    0    0 -0.79468809931E+01 -0.42657476114E+02 -0.89995299436E+00  0.43400726968E+02  0.00000000000E+00 0.  1.
         11    1    3    3    0    0  0.73995610216E+00  0.64251998158E+01 -0.55019320869E+01  0.84912887512E+01  0.51100000000E-03 0. -1.
        -11    1    3    3    0    0 -0.22146787382E+01  0.10076102501E+02 -0.14234679077E+01  0.10414360502E+02  0.51100000000E-03 0.  1.
         12    1    3    3    0    0  0.94216036292E+01  0.26156173798E+02  0.78253529889E+01  0.28881623779E+02  0.00000000000E+00 0. -1.
</event>
<event>
 7    1  0.1714203E-010  0.4778727E+02  0.7816164E-02  0.1312668E+00
        -11   -1    0    0    0    0  0.00000000000E+00  0.00000000000E+00  0.45593999997E+02  0.45594000000E+02  0.51100000000E-03 0.  1.
         11   -1    0    0    0    0 -0.00000000000E+00 -0.00000000000E+00 -0.45593999997E+02  0.45594000000E+02  0.51100000000E-03 0. -1.
    9900012    2    1    2    0    0 -0.62909651211E+01 -0.27821660753E+02 -0.32710886698E+02  0.47787272382E+02  0.20000006097E+02 0.  0.
        -12    1    1    2    0    0  0.62909651211E+01  0.27821660753E+02  0.32710886698E+02  0.43400727618E+02  0.00000000000E+00 0.  1.
         11    1    3    3    0    0 -0.22533838530E+01 -0.13850316924E+02 -0.66349550781E+01  0.15521973033E+02  0.51100000000E-03 0. -1.
        -11    1    3    3    0    0 -0.78239455538E+01 -0.50987000733E+01 -0.13509977739E+02  0.16423469951E+02  0.51100000000E-03 0.  1.
         12    1    3    3    0    0  0.37863642858E+01 -0.88726437552E+01 -0.12565953881E+02  0.15841829397E+02  0.00000000000E+00 0. -1.
</event>
<event>
 7    1  0.1714203E-010  0.4778727E+02  0.7816164E-02  0.1312668E+00
        -11   -1    0    0    0    0  0.00000000000E+00  0.00000000000E+00  0.45593999997E+02  0.45594000000E+02  0.51100000000E-03 0.  1.
         11   -1    0    0    0    0 -0.00000000000E+00 -0.00000000000E+00 -0.45593999997E+02  0.45594000000E+02  0.51100000000E-03 0. -1.
    9900012    2    1    2    0    0 -0.31718109631E+02 -0.24271309705E+02 -0.16984944450E+02  0.47787270843E+02  0.19999999084E+02 0.  0.
        -12    1    1    2    0    0  0.31718109631E+02  0.24271309705E+02  0.16984944450E+02  0.43400729157E+02  0.00000000000E+00 0.  1.
         11    1    3    3    0    0 -0.22788817320E+02 -0.20215467154E+02 -0.20177748435E+02  0.36539524344E+02  0.51100000000E-03 0. -1.
        -11    1    3    3    0    0 -0.41545192981E+01  0.17385008565E+00  0.10152977026E+00  0.41593945480E+01  0.51100000000E-03 0.  1.
         12    1    3    3    0    0 -0.47747730127E+01 -0.42296926366E+01  0.30912742145E+01  0.70883519518E+01  0.00000000000E+00 0. -1.
</event>
<event>
 7    1  0.1714203E-010  0.4778727E+02  0.7816164E-02  0.1312668E+00
        -11   -1    0    0    0    0  0.00000000000E+00  0.00000000000E+00  0.45593999997E+02  0.45594000000E+02  0.51100000000E-03 0. -1.
         11   -1    0    0    0    0 -0.00000000000E+00 -0.00000000000E+00 -0.45593999997E+02  0.45594000000E+02  0.51100000000E-03 0.  1.
    9900012    2    1    2    0    0 -0.30962724116E+02  0.28292364077E+02  0.11156845589E+02  0.47787270130E+02  0.19999995832E+02 0.  0.
        -12    1    1    2    0    0  0.30962724116E+02 -0.28292364077E+02 -0.11156845589E+02  0.43400729870E+02  0.00000000000E+00 0.  1.
         11    1    3    3    0    0 -0.24808954258E+02  0.16958534904E+02  0.15121389803E+02  0.33641232844E+02  0.51100000000E-03 0. -1.
        -11    1    3    3    0    0 -0.16111521445E+01  0.29837538314E+00 -0.62539275391E+00  0.17538402036E+01  0.51100000000E-03 0.  1.
         12    1    3    3    0    0 -0.45426177135E+01  0.11035453790E+02 -0.33391514607E+01  0.12392197082E+02  0.00000000000E+00 0. -1.
</event>
<event>
 7    1  0.1714203E-010  0.4778727E+02  0.7816164E-02  0.1312668E+00
        -11   -1    0    0    0    0  0.00000000000E+00  0.00000000000E+00  0.45593999997E+02  0.45594000000E+02  0.51100000000E-03 0. -1.
         11   -1    0    0    0    0 -0.00000000000E+00 -0.00000000000E+00 -0.45593999997E+02  0.45594000000E+02  0.51100000000E-03 0.  1.
    9900012    2    1    2    0    0 -0.70204456382E+01  0.42474398986E+02  0.55011050660E+01  0.47787269785E+02  0.19999994259E+02 0.  0.
        -12    1    1    2    0    0  0.70204456382E+01 -0.42474398986E+02 -0.55011050660E+01  0.43400730215E+02  0.00000000000E+00 0.  1.
         11    1    3    3    0    0 -0.85961945213E+01  0.35093453195E+02 -0.20977658678E+01  0.36191789667E+02  0.51100000000E-03 0. -1.
        -11    1    3    3    0    0  0.17477308716E+01  0.59149303187E+01  0.31854431125E+01  0.69417585639E+01  0.51100000000E-03 0.  1.
        -12    1    3    3    0    0 -0.17198198851E+00  0.14660154723E+01  0.44134278213E+01  0.46537215541E+01  0.00000000000E+00 0.  1.
</event>
<event>
 7    1  0.1974442E-010  0.4778727E+02  0.7816164E-02  0.1312668E+00
        -11   -1    0    0    0    0  0.00000000000E+00  0.00000000000E+00  0.45593999997E+02  0.45594000000E+02  0.51100000000E-03 0.  1.
         11   -1    0    0    0    0 -0.00000000000E+00 -0.00000000000E+00 -0.45593999997E+02  0.45594000000E+02  0.51100000000E-03 0. -1.
    9900012    2    1    2    0    0  0.42831461335E+02 -0.28306427180E+01 -0.64091197862E+01  0.47787269191E+02  0.19999991551E+02 0.  0.
        -12    1    1    2    0    0 -0.42831461335E+02  0.28306427180E+01  0.64091197862E+01  0.43400730809E+02  0.00000000000E+00 0.  1.
         11    1    3    3    0    0  0.11575542769E+02  0.28420839439E+01 -0.39929260766E+01  0.12570365565E+02  0.51100000000E-03 0. -1.
        -11    1    3    3    0    0  0.91359296220E+01 -0.13304411880E+01  0.61597234627E+01  0.11098534913E+02  0.51100000000E-03 0.  1.
        -12    1    3    3    0    0  0.22119988944E+02 -0.43422854739E+01 -0.85759171724E+01  0.24118368713E+02  0.00000000000E+00 0.  1.
</event>
<event>
 7    1  0.1714203E-010  0.4778727E+02  0.7816164E-02  0.1312668E+00
        -11   -1    0    0    0    0  0.00000000000E+00  0.00000000000E+00  0.45593999997E+02  0.45594000000E+02  0.51100000000E-03 0.  1.
         11   -1    0    0    0    0 -0.00000000000E+00 -0.00000000000E+00 -0.45593999997E+02  0.45594000000E+02  0.51100000000E-03 0. -1.
    9900012    2    1    2    0    0  0.14528371399E+02 -0.26088912120E+02 -0.31494736059E+02  0.47787270622E+02  0.19999998074E+02 0.  0.
        -12    1    1    2    0    0 -0.14528371399E+02  0.26088912120E+02  0.31494736059E+02  0.43400729378E+02  0.00000000000E+00 0.  1.
         11    1    3    3    0    0  0.11605125062E+01 -0.78295180361E+01 -0.12174240963E+02  0.14521029070E+02  0.51100000000E-03 0. -1.
        -11    1    3    3    0    0  0.70312681019E+01 -0.18349493821E+02 -0.18291028125E+02  0.26845937583E+02  0.51100000000E-03 0.  1.
        -12    1    3    3    0    0  0.63365907908E+01  0.90099737306E-01 -0.10294669718E+01  0.64203039693E+01  0.00000000000E+00 0.  1.
</event>
<event>
 7    1  0.1714203E-010  0.4778727E+02  0.7816164E-02  0.1312668E+00
        -11   -1    0    0    0    0  0.00000000000E+00  0.00000000000E+00  0.45593999997E+02  0.45594000000E+02  0.51100000000E-03 0.  1.
         11   -1    0    0    0    0 -0.00000000000E+00 -0.00000000000E+00 -0.45593999997E+02  0.45594000000E+02  0.51100000000E-03 0. -1.
    9900012    2    1    2    0    0 -0.39991712100E+02 -0.13450019523E+02 -0.10167760645E+02  0.47787269379E+02  0.19999992407E+02 0.  0.
        -12    1    1    2    0    0  0.39991712100E+02  0.13450019523E+02  0.10167760645E+02  0.43400730621E+02  0.00000000000E+00 0.  1.
         11    1    3    3    0    0 -0.62661549523E+01 -0.19045487939E+01  0.28876532008E+01  0.71575516249E+01  0.51100000000E-03 0.  1.
        -11    1    3    3    0    0 -0.16629463918E+02 -0.79070753472E+01 -0.13990682081E+02  0.23125745309E+02  0.51100000000E-03 0. -1.
         12    1    3    3    0    0 -0.17096093230E+02 -0.36383953823E+01  0.93526823566E+00  0.17503972445E+02  0.00000000000E+00 0. -1.
</event>
<event>
 7    1  0.1714203E-010  0.4778727E+02  0.7816164E-02  0.1312668E+00
        -11   -1    0    0    0    0  0.00000000000E+00  0.00000000000E+00  0.45593999997E+02  0.45594000000E+02  0.51100000000E-03 0.  1.
         11   -1    0    0    0    0 -0.00000000000E+00 -0.00000000000E+00 -0.45593999997E+02  0.45594000000E+02  0.51100000000E-03 0. -1.
    9900012    2    1    2    0    0  0.24148832708E+01  0.40882920139E+02 -0.14365880368E+02  0.47787270294E+02  0.19999996578E+02 0.  0.
        -12    1    1    2    0    0 -0.24148832708E+01 -0.40882920139E+02  0.14365880368E+02  0.43400729706E+02  0.00000000000E+00 0.  1.
         11    1    3    3    0    0  0.28041762666E+01  0.33846591806E+02 -0.83950062857E+01  0.34984729700E+02  0.51100000000E-03 0. -1.
        -11    1    3    3    0    0  0.11125305142E+01  0.73716683565E+01 -0.75410213595E+01  0.10604066291E+02  0.51100000000E-03 0.  1.
        -12    1    3    3    0    0 -0.15018235100E+01 -0.33534002359E+00  0.15701472773E+01  0.21984743026E+01  0.00000000000E+00 0.  1.
</event>
<event>
 7    1  0.1714203E-010  0.4778728E+02  0.7816164E-02  0.1312668E+00
        -11   -1    0    0    0    0  0.00000000000E+00  0.00000000000E+00  0.45593999997E+02  0.45594000000E+02  0.51100000000E-03 0.  1.
         11   -1    0    0    0    0 -0.00000000000E+00 -0.00000000000E+00 -0.45593999997E+02  0.45594000000E+02  0.51100000000E-03 0. -1.
    9900012    2    1    2    0    0  0.12633584500E+02 -0.16110241210E+02 -0.38268461226E+02  0.47787280493E+02  0.20000043080E+02 0.  0.
        -12    1    1    2    0    0 -0.12633584500E+02  0.16110241210E+02  0.38268461226E+02  0.43400719507E+02  0.00000000000E+00 0.  1.
         11    1    3    3    0    0  0.22745411763E+01 -0.88217535197E+01 -0.17383452401E+02  0.19626036033E+02  0.51100000000E-03 0. -1.
        -11    1    3    3    0    0 -0.28474889761E+01 -0.24236419296E+01 -0.89797608156E+01  0.97271958055E+01  0.51100000000E-03 0.  1.
         12    1    3    3    0    0  0.13206532299E+02 -0.48648457604E+01 -0.11905248009E+02  0.18434048655E+02  0.00000000000E+00 0. -1.
</event>
<event>
 7    1  0.1714203E-010  0.4778727E+02  0.7816164E-02  0.1312668E+00
        -11   -1    0    0    0    0  0.00000000000E+00  0.00000000000E+00  0.45593999997E+02  0.45594000000E+02  0.51100000000E-03 0.  1.
         11   -1    0    0    0    0 -0.00000000000E+00 -0.00000000000E+00 -0.45593999997E+02  0.45594000000E+02  0.51100000000E-03 0. -1.
    9900012    2    1    2    0    0  0.34767511959E+02  0.38704527781E+01 -0.25687796376E+02  0.47787272181E+02  0.20000005181E+02 0.  0.
        -12    1    1    2    0    0 -0.34767511959E+02 -0.38704527781E+01  0.25687796376E+02  0.43400727819E+02  0.00000000000E+00 0.  1.
         11    1    3    3    0    0  0.18497324475E+02 -0.36604790632E+01 -0.72229126427E+01  0.20192092190E+02  0.51100000000E-03 0. -1.
        -11    1    3    3    0    0  0.42531059586E+01  0.45440382237E+00 -0.10944905462E+02  0.11751014806E+02  0.51100000000E-03 0.  1.
         12    1    3    3    0    0  0.12017081525E+02  0.70765280189E+01 -0.75199782712E+01  0.15844165184E+02  0.00000000000E+00 0. -1.
</event>
<event>
 7    1  0.1714203E-010  0.4778727E+02  0.7816164E-02  0.1312668E+00
        -11   -1    0    0    0    0  0.00000000000E+00  0.00000000000E+00  0.45593999997E+02  0.45594000000E+02  0.51100000000E-03 0. -1.
         11   -1    0    0    0    0 -0.00000000000E+00 -0.00000000000E+00 -0.45593999997E+02  0.45594000000E+02  0.51100000000E-03 0.  1.
    9900012    2    1    2    0    0 -0.19337737079E+02 -0.20134363144E+02  0.33230746059E+02  0.47787272608E+02  0.20000007128E+02 0.  0.
        -12    1    1    2    0    0  0.19337737079E+02  0.20134363144E+02 -0.33230746059E+02  0.43400727392E+02  0.00000000000E+00 0.  1.
         11    1    3    3    0    0 -0.12289007030E+02 -0.91842444143E+01  0.22648450326E+02  0.27355481017E+02  0.51100000000E-03 0. -1.
        -11    1    3    3    0    0 -0.98207984378E+01 -0.10119131975E+02  0.67608632076E+01  0.15638228335E+02  0.51100000000E-03 0.  1.
         12    1    3    3    0    0  0.27720683891E+01 -0.83098675479E+00  0.38214325255E+01  0.47935632558E+01  0.00000000000E+00 0. -1.
</event>
<event>
 7    1  0.1714203E-010  0.4778726E+02  0.7816164E-02  0.1312668E+00
        -11   -1    0    0    0    0  0.00000000000E+00  0.00000000000E+00  0.45593999997E+02  0.45594000000E+02  0.51100000000E-03 0.  1.
         11   -1    0    0    0    0 -0.00000000000E+00 -0.00000000000E+00 -0.45593999997E+02  0.45594000000E+02  0.51100000000E-03 0. -1.
    9900012    2    1    2    0    0 -0.30970582361E+02 -0.15475200001E+02 -0.26171839344E+02  0.47787263123E+02  0.19999963882E+02 0.  0.
        -12    1    1    2    0    0  0.30970582361E+02  0.15475200001E+02  0.26171839344E+02  0.43400736877E+02  0.00000000000E+00 0.  1.
         11    1    3    3    0    0 -0.56588071837E+00 -0.10961146047E+01  0.14178732419E+01  0.18793756956E+01  0.51100000000E-03 0. -1.
        -11    1    3    3    0    0 -0.15904580845E+02 -0.84166748570E+01 -0.23695186616E+02  0.29753285139E+02  0.51100000000E-03 0.  1.
         12    1    3    3    0    0 -0.14500120797E+02 -0.59624105389E+01 -0.38945259698E+01  0.16154602288E+02  0.00000000000E+00 0. -1.
</event>
<event>
 7    1  0.1714203E-010  0.4778727E+02  0.7816164E-02  0.1312668E+00
        -11   -1    0    0    0    0  0.00000000000E+00  0.00000000000E+00  0.45593999997E+02  0.45594000000E+02  0.51100000000E-03 0. -1.
         11   -1    0    0    0    0 -0.00000000000E+00 -0.00000000000E+00 -0.45593999997E+02  0.45594000000E+02  0.51100000000E-03 0.  1.
    9900012    2    1    2    0    0  0.70431341946E+00 -0.36115825051E+02 -0.24057732446E+02  0.47787269972E+02  0.19999995109E+02 0.  0.
        -12    1    1    2    0    0 -0.70431341946E+00  0.36115825051E+02  0.24057732446E+02  0.43400730028E+02  0.00000000000E+00 0.  1.
         11    1    3    3    0    0  0.45131409803E+01 -0.16510049006E+02 -0.60818011779E+01  0.18164208365E+02  0.51100000000E-03 0. -1.
        -11    1    3    3    0    0  0.16861434957E+00  0.17421402843E+01 -0.74613859458E+00  0.19026840601E+01  0.51100000000E-03 0.  1.
         12    1    3    3    0    0 -0.39774419104E+01 -0.21347916329E+02 -0.17229792674E+02  0.27720377547E+02  0.00000000000E+00 0. -1.
</event>
<event>
 7    1  0.1714203E-010  0.4778727E+02  0.7816164E-02  0.1312668E+00
        -11   -1    0    0    0    0  0.00000000000E+00  0.00000000000E+00  0.45593999997E+02  0.45594000000E+02  0.51100000000E-03 0.  1.
         11   -1    0    0    0    0 -0.00000000000E+00 -0.00000000000E+00 -0.45593999997E+02  0.45594000000E+02  0.51100000000E-03 0. -1.
    9900012    2    1    2    0    0  0.15943319093E+02  0.26985958373E+02 -0.30019859313E+02  0.47787270442E+02  0.19999997253E+02 0.  0.
        -12    1    1    2    0    0 -0.15943319093E+02 -0.26985958373E+02  0.30019859313E+02  0.43400729558E+02  0.00000000000E+00 0.  1.
         11    1    3    3    0    0  0.95043249948E+01  0.73639735348E+01 -0.11425306175E+02  0.16586076127E+02  0.51100000000E-03 0. -1.
        -11    1    3    3    0    0  0.74019454147E+01  0.43325184556E+01 -0.23945867086E+01  0.89046930243E+01  0.51100000000E-03 0.  1.
         12    1    3    3    0    0 -0.96295131685E+00  0.15289466382E+02 -0.16199966430E+02  0.22296501291E+02  0.00000000000E+00 0. -1.
</event>
<event>
 7    1  0.1714203E-010  0.4778727E+02  0.7816164E-02  0.1312668E+00
        -11   -1    0    0    0    0  0.00000000000E+00  0.00000000000E+00  0.45593999997E+02  0.45594000000E+02  0.51100000000E-03 0.  1.
         11   -1    0    0    0    0 -0.00000000000E+00 -0.00000000000E+00 -0.45593999997E+02  0.45594000000E+02  0.51100000000E-03 0. -1.
    9900012    2    1    2    0    0  0.16896868202E+02 -0.76103433015E+01 -0.39245405692E+02  0.47787270189E+02  0.19999996099E+02 0.  0.
        -12    1    1    2    0    0 -0.16896868202E+02  0.76103433015E+01  0.39245405692E+02  0.43400729811E+02  0.00000000000E+00 0.  1.
         11    1    3    3    0    0  0.62740814063E+01  0.15632296021E+01 -0.12599080072E+01  0.65874997328E+01  0.51100000000E-03 0. -1.
        -11    1    3    3    0    0  0.30055655250E+01 -0.16172254386E+01 -0.27996698991E+01  0.44144075537E+01  0.51100000000E-03 0.  1.
         12    1    3    3    0    0  0.76172212708E+01 -0.75563474650E+01 -0.35185827786E+02  0.36785362902E+02  0.00000000000E+00 0. -1.
</event>
<event>
 7    1  0.1714203E-010  0.4778727E+02  0.7816164E-02  0.1312668E+00
        -11   -1    0    0    0    0  0.00000000000E+00  0.00000000000E+00  0.45593999997E+02  0.45594000000E+02  0.51100000000E-03 0. -1.
         11   -1    0    0    0    0 -0.00000000000E+00 -0.00000000000E+00 -0.45593999997E+02  0.45594000000E+02  0.51100000000E-03 0.  1.
    9900012    2    1    2    0    0  0.32440160954E+02 -0.28831103017E+02  0.16473171676E+00  0.47787266361E+02  0.19999978644E+02 0.  0.
        -12    1    1    2    0    0 -0.32440160954E+02  0.28831103017E+02 -0.16473171676E+00  0.43400733639E+02  0.00000000000E+00 0.  1.
         11    1    3    3    0    0  0.10525695183E+02 -0.47488672155E+01  0.57129227564E+01  0.12883302589E+02  0.51100000000E-03 0. -1.
        -11    1    3    3    0    0 -0.54376636769E+00 -0.28719134393E+01 -0.25302223601E+01  0.38659531965E+01  0.51100000000E-03 0.  1.
        -12    1    3    3    0    0  0.22458232139E+02 -0.21210322362E+02 -0.30179686796E+01  0.31038010575E+02  0.00000000000E+00 0.  1.
</event>
<event>
 7    1  0.1714203E-010  0.4778727E+02  0.7816164E-02  0.1312668E+00
        -11   -1    0    0    0    0  0.00000000000E+00  0.00000000000E+00  0.45593999997E+02  0.45594000000E+02  0.51100000000E-03 0.  1.
         11   -1    0    0    0    0 -0.00000000000E+00 -0.00000000000E+00 -0.45593999997E+02  0.45594000000E+02  0.51100000000E-03 0. -1.
    9900012    2    1    2    0    0  0.11041749727E+02 -0.28606566895E+02 -0.30714285941E+02  0.47787271119E+02  0.20000000340E+02 0.  0.
        -12    1    1    2    0    0 -0.11041749727E+02  0.28606566895E+02  0.30714285941E+02  0.43400728881E+02  0.00000000000E+00 0.  1.
         11    1    3    3    0    0  0.10577422978E+02 -0.21752080889E+02 -0.26646465273E+02  0.35987067283E+02  0.51100000000E-03 0. -1.
        -11    1    3    3    0    0  0.34845618963E+01  0.28431679502E-01 -0.19405260007E+01  0.39885613183E+01  0.51100000000E-03 0.  1.
        -12    1    3    3    0    0 -0.30202351477E+01 -0.68829176856E+01 -0.21272946673E+01  0.78116425172E+01  0.00000000000E+00 0.  1.
</event>
<event>
 7    1  0.1714203E-010  0.4778726E+02  0.7816164E-02  0.1312668E+00
        -11   -1    0    0    0    0  0.00000000000E+00  0.00000000000E+00  0.45593999997E+02  0.45594000000E+02  0.51100000000E-03 0.  1.
         11   -1    0    0    0    0 -0.00000000000E+00 -0.00000000000E+00 -0.45593999997E+02  0.45594000000E+02  0.51100000000E-03 0. -1.
    9900012    2    1    2    0    0 -0.22104365172E+02 -0.29405238446E+02 -0.23029393499E+02  0.47787262994E+02  0.19999963297E+02 0.  0.
        -12    1    1    2    0    0  0.22104365172E+02  0.29405238446E+02  0.23029393499E+02  0.43400737006E+02  0.00000000000E+00 0.  1.
         11    1    3    3    0    0 -0.52919626819E+01 -0.16779697550E+02 -0.13808570417E+02  0.22366039795E+02  0.51100000000E-03 0. -1.
        -11    1    3    3    0    0 -0.14263875028E+02 -0.14036132375E+02 -0.56125356696E+01  0.20783928882E+02  0.51100000000E-03 0.  1.
        -12    1    3    3    0    0 -0.25485274616E+01  0.14105914784E+01 -0.36082874120E+01  0.46372943177E+01  0.00000000000E+00 0.  1.
</event>
<event>
 7    1  0.1714203E-010  0.4778727E+02  0.7816164E-02  0.1312668E+00
        -11   -1    0    0    0    0  0.00000000000E+00  0.00000000000E+00  0.45593999997E+02  0.45594000000E+02  0.51100000000E-03 0.  1.
         11   -1    0    0    0    0 -0.00000000000E+00 -0.00000000000E+00 -0.45593999997E+02  0.45594000000E+02  0.51100000000E-03 0. -1.
    9900012    2    1    2    0    0 -0.22454520781E+02 -0.13577582744E+02 -0.34569742689E+02  0.47787269980E+02  0.19999995146E+02 0.  0.
        -12    1    1    2    0    0  0.22454520781E+02  0.13577582744E+02  0.34569742689E+02  0.43400730020E+02  0.00000000000E+00 0.  1.
         11    1    3    3    0    0 -0.85093046506E+01 -0.68509712733E+00 -0.14040297263E+02  0.16431907108E+02  0.51100000000E-03 0. -1.
        -11    1    3    3    0    0 -0.28798721356E+01 -0.39813003682E+01 -0.15538302099E+02  0.16296725085E+02  0.51100000000E-03 0.  1.
        -12    1    3    3    0    0 -0.11065343995E+02 -0.89111852485E+01 -0.49911433271E+01  0.15058637786E+02  0.00000000000E+00 0.  1.
</event>
<event>
 7    1  0.1714203E-010  0.4778727E+02  0.7816164E-02  0.1312668E+00
        -11   -1    0    0    0    0  0.00000000000E+00  0.00000000000E+00  0.45593999997E+02  0.45594000000E+02  0.51100000000E-03 0.  1.
         11   -1    0    0    0    0 -0.00000000000E+00 -0.00000000000E+00 -0.45593999997E+02  0.45594000000E+02  0.51100000000E-03 0. -1.
    9900012    2    1    2    0    0  0.19997524131E+02 -0.29919531885E+02 -0.24259930758E+02  0.47787267288E+02  0.19999982875E+02 0.  0.
        -12    1    1    2    0    0 -0.19997524131E+02  0.29919531885E+02  0.24259930758E+02  0.43400732712E+02  0.00000000000E+00 0.  1.
         11    1    3    3    0    0  0.53427681781E+01 -0.11943695033E+01 -0.11332225783E+02  0.12585349887E+02  0.51100000000E-03 0. -1.
        -11    1    3    3    0    0  0.92627215615E+01 -0.12062145861E+02 -0.66244270764E+01  0.16588441996E+02  0.51100000000E-03 0.  1.
        -12    1    3    3    0    0  0.53920343909E+01 -0.16663016520E+02 -0.63032778985E+01  0.18613475406E+02  0.00000000000E+00 0.  1.
</event>
<event>
 7    1  0.1714203E-010  0.4778727E+02  0.7816164E-02  0.1312668E+00
        -11   -1    0    0    0    0  0.00000000000E+00  0.00000000000E+00  0.45593999997E+02  0.45594000000E+02  0.51100000000E-03 0. -1.
         11   -1    0    0    0    0 -0.00000000000E+00 -0.00000000000E+00 -0.45593999997E+02  0.45594000000E+02  0.51100000000E-03 0.  1.
    9900012    2    1    2    0    0  0.55571727003E+01  0.28391991695E+02  0.32351755325E+02  0.47787269206E+02  0.19999991619E+02 0.  0.
        -12    1    1    2    0    0 -0.55571727003E+01 -0.28391991695E+02 -0.32351755325E+02  0.43400730794E+02  0.00000000000E+00 0.  1.
         11    1    3    3    0    0  0.16033479751E+01  0.14208965568E+02  0.62449141632E+01  0.15603345167E+02  0.51100000000E-03 0. -1.
        -11    1    3    3    0    0 -0.41808863251E+01  0.40097839851E+01  0.82839635534E+01  0.10108522666E+02  0.51100000000E-03 0.  1.
         12    1    3    3    0    0  0.81347110504E+01  0.10173242142E+02  0.17822877608E+02  0.22075401373E+02  0.00000000000E+00 0. -1.
</event>
<event>
 7    1  0.1714203E-010  0.4778726E+02  0.7816164E-02  0.1312668E+00
        -11   -1    0    0    0    0  0.00000000000E+00  0.00000000000E+00  0.45593999997E+02  0.45594000000E+02  0.51100000000E-03 0.  1.
         11   -1    0    0    0    0 -0.00000000000E+00 -0.00000000000E+00 -0.45593999997E+02  0.45594000000E+02  0.51100000000E-03 0. -1.
    9900012    2    1    2    0    0  0.35632543389E+02 -0.23640022655E+02 -0.74226069142E+01  0.47787263682E+02  0.19999966432E+02 0.  0.
        -12    1    1    2    0    0 -0.35632543389E+02  0.23640022655E+02  0.74226069142E+01  0.43400736318E+02  0.00000000000E+00 0.  1.
         11    1    3    3    0    0  0.12394727604E+01 -0.90176957494E+01 -0.79119561493E+00  0.91368003215E+01  0.51100000000E-03 0. -1.
        -11    1    3    3    0    0  0.10371646302E+02 -0.20963661352E+01  0.63920825759E+00  0.10600678537E+02  0.51100000000E-03 0.  1.
         12    1    3    3    0    0  0.24021424327E+02 -0.12525960771E+02 -0.72706195569E+01  0.28049784824E+02  0.00000000000E+00 0. -1.
</event>
<event>
 7    1  0.1714203E-010  0.4778728E+02  0.7816164E-02  0.1312668E+00
        -11   -1    0    0    0    0  0.00000000000E+00  0.00000000000E+00  0.45593999997E+02  0.45594000000E+02  0.51100000000E-03 0.  1.
         11   -1    0    0    0    0 -0.00000000000E+00 -0.00000000000E+00 -0.45593999997E+02  0.45594000000E+02  0.51100000000E-03 0. -1.
    9900012    2    1    2    0    0 -0.43739421717E+01 -0.11040907524E+02 -0.41744330042E+02  0.47787284572E+02  0.20000061675E+02 0.  0.
        -12    1    1    2    0    0  0.43739421717E+01  0.11040907524E+02  0.41744330042E+02  0.43400715428E+02  0.00000000000E+00 0.  1.
         11    1    3    3    0    0 -0.48830177479E+00  0.38226162314E+00 -0.10505539978E+02  0.10523826920E+02  0.51100000000E-03 0. -1.
        -11    1    3    3    0    0  0.44899239295E+01  0.15437698959E+01 -0.56610642557E+01  0.73885242879E+01  0.51100000000E-03 0.  1.
         12    1    3    3    0    0 -0.83755643265E+01 -0.12966939043E+02 -0.25577725809E+02  0.29874933363E+02  0.00000000000E+00 0. -1.
</event>
<event>
 7    1  0.1714203E-010  0.4778727E+02  0.7816164E-02  0.1312668E+00
        -11   -1    0    0    0    0  0.00000000000E+00  0.00000000000E+00  0.45593999997E+02  0.45594000000E+02  0.51100000000E-03 0.  1.
         11   -1    0    0    0    0 -0.00000000000E+00 -0.00000000000E+00 -0.45593999997E+02  0.45594000000E+02  0.51100000000E-03 0. -1.
    9900012    2    1    2    0    0 -0.27397075720E+02  0.82005662003E+01 -0.32646192714E+02  0.47787274859E+02  0.20000017393E+02 0.  0.
        -12    1    1    2    0    0  0.27397075720E+02 -0.82005662003E+01  0.32646192714E+02  0.43400725141E+02  0.00000000000E+00 0.  1.
         11    1    3    3    0    0 -0.14338907798E+02 -0.29041458578E+01 -0.99200179682E+01  0.17676116563E+02  0.51100000000E-03 0. -1.
        -11    1    3    3    0    0  0.16451433932E+00  0.84711797628E+00 -0.73005712684E+01  0.73513954417E+01  0.51100000000E-03 0.  1.
        -12    1    3    3    0    0 -0.13222682261E+02  0.10257594082E+02 -0.15425603478E+02  0.22759762854E+02  0.00000000000E+00 0.  1.
</event>
<event>
 7    1  0.1714203E-010  0.4778727E+02  0.7816164E-02  0.1312668E+00
        -11   -1    0    0    0    0  0.00000000000E+00  0.00000000000E+00  0.45593999997E+02  0.45594000000E+02  0.51100000000E-03 0.  1.
         11   -1    0    0    0    0 -0.00000000000E+00 -0.00000000000E+00 -0.45593999997E+02  0.45594000000E+02  0.51100000000E-03 0. -1.
    9900012    2    1    2    0    0  0.19469273089E+02  0.37577440546E+01 -0.38606350016E+02  0.47787268479E+02  0.19999988305E+02 0.  0.
        -12    1    1    2    0    0 -0.19469273089E+02 -0.37577440546E+01  0.38606350016E+02  0.43400731521E+02  0.00000000000E+00 0.  1.
         11    1    3    3    0    0  0.13426250934E+02  0.98624203120E+00 -0.26220642363E+02  0.29474717533E+02  0.51100000000E-03 0. -1.
        -11    1    3    3    0    0 -0.22699097188E+01  0.25311527975E+01 -0.84570841668E+01  0.91149052371E+01  0.51100000000E-03 0.  1.
         12    1    3    3    0    0  0.83129318741E+01  0.24034922591E+00 -0.39286234861E+01  0.91976457091E+01  0.00000000000E+00 0. -1.
</event>
<event>
 7    1  0.1714203E-010  0.4778727E+02  0.7816164E-02  0.1312668E+00
        -11   -1    0    0    0    0  0.00000000000E+00  0.00000000000E+00  0.45593999997E+02  0.45594000000E+02  0.51100000000E-03 0.  1.
         11   -1    0    0    0    0 -0.00000000000E+00 -0.00000000000E+00 -0.45593999997E+02  0.45594000000E+02  0.51100000000E-03 0. -1.
    9900012    2    1    2    0    0 -0.22994471065E+02 -0.31965178473E+02 -0.18251164565E+02  0.47787270255E+02  0.19999996403E+02 0.  0.
        -12    1    1    2    0    0  0.22994471065E+02  0.31965178473E+02  0.18251164565E+02  0.43400729745E+02  0.00000000000E+00 0.  1.
         11    1    3    3    0    0 -0.19387903597E+02 -0.15585365435E+02 -0.13262138944E+02  0.28190047025E+02  0.51100000000E-03 0. -1.
        -11    1    3    3    0    0  0.18326958692E+01 -0.40985020138E+01 -0.41908204424E+01  0.61416177956E+01  0.51100000000E-03 0.  1.
        -12    1    3    3    0    0 -0.54392633377E+01 -0.12281311024E+02 -0.79820517902E+00  0.13455605435E+02  0.00000000000E+00 0.  1.
</event>
<event>
 7    1  0.1714203E-010  0.4778726E+02  0.7816164E-02  0.1312668E+00
        -11   -1    0    0    0    0  0.00000000000E+00  0.00000000000E+00  0.45593999997E+02  0.45594000000E+02  0.51100000000E-03 0. -1.
         11   -1    0    0    0    0 -0.00000000000E+00 -0.00000000000E+00 -0.45593999997E+02  0.45594000000E+02  0.51100000000E-03 0.  1.
    9900012    2    1    2    0    0 -0.20532469051E+02  0.38206934068E+02  0.15072687336E+01  0.47787263195E+02  0.19999964211E+02 0.  0.
        -12    1    1    2    0    0  0.20532469051E+02 -0.38206934068E+02 -0.15072687336E+01  0.43400736805E+02  0.00000000000E+00 0.  1.
         11    1    3    3    0    0 -0.26593511708E+01  0.15451849936E+02 -0.11800558422E+01  0.15723369459E+02  0.51100000000E-03 0. -1.
        -11    1    3    3    0    0 -0.12710339476E+02  0.15228141654E+02  0.81299226919E+01  0.21436993051E+02  0.51100000000E-03 0.  1.
         12    1    3    3    0    0 -0.51627784047E+01  0.75269424777E+01 -0.54425981162E+01  0.10626900685E+02  0.00000000000E+00 0. -1.
</event>
<event>
 7    1  0.1714203E-010  0.4778727E+02  0.7816164E-02  0.1312668E+00
        -11   -1    0    0    0    0  0.00000000000E+00  0.00000000000E+00  0.45593999997E+02  0.45594000000E+02  0.51100000000E-03 0.  1.
         11   -1    0    0    0    0 -0.00000000000E+00 -0.00000000000E+00 -0.45593999997E+02  0.45594000000E+02  0.51100000000E-03 0. -1.
    9900012    2    1    2    0    0  0.28462072558E+02 -0.16052491552E+02  0.28563110244E+02  0.47787270443E+02  0.19999997256E+02 0.  0.
        -12    1    1    2    0    0 -0.28462072558E+02  0.16052491552E+02 -0.28563110244E+02  0.43400729557E+02  0.00000000000E+00 0.  1.
         11    1    3    3    0    0  0.11670089624E+02 -0.22982356387E+01  0.24838705755E+01  0.12150822695E+02  0.51100000000E-03 0. -1.
        -11    1    3    3    0    0  0.22017294064E+01 -0.39388055564E+01  0.42269769134E+00  0.45321601019E+01  0.51100000000E-03 0.  1.
        -12    1    3    3    0    0  0.14590253528E+02 -0.98154503567E+01  0.25656541977E+02  0.31104287645E+02  0.00000000000E+00 0.  1.
</event>
<event>
 7    1  0.1714203E-010  0.4778728E+02  0.7816164E-02  0.1312668E+00
        -11   -1    0    0    0    0  0.00000000000E+00  0.00000000000E+00  0.45593999997E+02  0.45594000000E+02  0.51100000000E-03 0.  1.
         11   -1    0    0    0    0 -0.00000000000E+00 -0.00000000000E+00 -0.45593999997E+02  0.45594000000E+02  0.51100000000E-03 0. -1.
    9900012    2    1    2    0    0 -0.30436491230E+01  0.36131298699E+01 -0.43142836799E+02  0.47787275645E+02  0.20000020976E+02 0.  0.
        -12    1    1    2    0    0  0.30436491230E+01 -0.36131298699E+01  0.43142836799E+02  0.43400724355E+02  0.00000000000E+00 0.  1.
         11    1    3    3    0    0 -0.42437811366E+01  0.30103717757E+01 -0.34807624927E+02  0.35194357074E+02  0.51100000000E-03 0. -1.
        -11    1    3    3    0    0 -0.81112694396E+00  0.47555680822E+01 -0.41630965558E+01  0.63721839190E+01  0.51100000000E-03 0.  1.
         12    1    3    3    0    0  0.20112589576E+01 -0.41528099880E+01 -0.41721153166E+01  0.62207346516E+01  0.00000000000E+00 0. -1.
</event>
<event>
 7    1  0.1714203E-010  0.4778728E+02  0.7816164E-02  0.1312668E+00
        -11   -1    0    0    0    0  0.00000000000E+00  0.00000000000E+00  0.45593999997E+02  0.45594000000E+02  0.51100000000E-03 0.  1.
         11   -1    0    0    0    0 -0.00000000000E+00 -0.00000000000E+00 -0.45593999997E+02  0.45594000000E+02  0.51100000000E-03 0. -1.
    9900012    2    1    2    0    0 -0.21398100309E+02  0.26498993255E+02  0.26898839551E+02  0.47787275242E+02  0.20000019137E+02 0.  0.
        -12    1    1    2    0    0  0.21398100309E+02 -0.26498993255E+02 -0.26898839551E+02  0.43400724758E+02  0.00000000000E+00 0.  1.
         11    1    3    3    0    0 -0.18082106564E+02  0.89566687170E+01  0.81523412005E+01  0.21763390352E+02  0.51100000000E-03 0.  1.
        -11    1    3    3    0    0 -0.27555893585E+00  0.86106178628E+01  0.88864430235E+01  0.12376895514E+02  0.51100000000E-03 0. -1.
        -12    1    3    3    0    0 -0.30404348086E+01  0.89317066749E+01  0.98600553274E+01  0.13646989375E+02  0.00000000000E+00 0.  1.
</event>
<event>
 7    1  0.1714203E-010  0.4778727E+02  0.7816164E-02  0.1312668E+00
        -11   -1    0    0    0    0  0.00000000000E+00  0.00000000000E+00  0.45593999997E+02  0.45594000000E+02  0.51100000000E-03 0. -1.
         11   -1    0    0    0    0 -0.00000000000E+00 -0.00000000000E+00 -0.45593999997E+02  0.45594000000E+02  0.51100000000E-03 0.  1.
    9900012    2    1    2    0    0 -0.35029221628E+02  0.18362905419E+02  0.17871215983E+02  0.47787273923E+02  0.20000013126E+02 0.  0.
        -12    1    1    2    0    0  0.35029221628E+02 -0.18362905419E+02 -0.17871215983E+02  0.43400726077E+02  0.00000000000E+00 0.  1.
         11    1    3    3    0    0 -0.92604841160E+01  0.67440721119E+00  0.86583314436E+01  0.12695593519E+02  0.51100000000E-03 0. -1.
        -11    1    3    3    0    0 -0.83945510907E+01  0.24541172318E+01 -0.26212115461E+01  0.91302754412E+01  0.51100000000E-03 0.  1.
        -12    1    3    3    0    0 -0.17374186421E+02  0.15234380976E+02  0.11834096085E+02  0.25961404963E+02  0.00000000000E+00 0.  1.
</event>
<event>
 7    1  0.1714203E-010  0.4778727E+02  0.7816164E-02  0.1312668E+00
        -11   -1    0    0    0    0  0.00000000000E+00  0.00000000000E+00  0.45593999997E+02  0.45594000000E+02  0.51100000000E-03 0.  1.
         11   -1    0    0    0    0 -0.00000000000E+00 -0.00000000000E+00 -0.45593999997E+02  0.45594000000E+02  0.51100000000E-03 0. -1.
    9900012    2    1    2    0    0  0.10302009447E+02 -0.44720576746E+01 -0.41922459089E+02  0.47787271036E+02  0.19999999962E+02 0.  0.
        -12    1    1    2    0    0 -0.10302009447E+02  0.44720576746E+01  0.41922459089E+02  0.43400728964E+02  0.00000000000E+00 0.  1.
         11    1    3    3    0    0  0.37653876388E+01 -0.20761666403E+01 -0.32344203768E+01  0.53805285450E+01  0.51100000000E-03 0. -1.
        -11    1    3    3    0    0 -0.15727043137E+01  0.47715378709E+01 -0.21623870273E+02  0.22199836449E+02  0.51100000000E-03 0.  1.
        -12    1    3    3    0    0  0.81093261220E+01 -0.71674289052E+01 -0.17064168440E+02  0.20206906043E+02  0.00000000000E+00 0.  1.
</event>
<event>
 7    1  0.1714203E-010  0.4778727E+02  0.7816164E-02  0.1312668E+00
        -11   -1    0    0    0    0  0.00000000000E+00  0.00000000000E+00  0.45593999997E+02  0.45594000000E+02  0.51100000000E-03 0.  1.
         11   -1    0    0    0    0 -0.00000000000E+00 -0.00000000000E+00 -0.45593999997E+02  0.45594000000E+02  0.51100000000E-03 0. -1.
    9900012    2    1    2    0    0  0.36850777405E+02  0.22778995163E+02  0.26001019635E+01  0.47787274820E+02  0.20000017213E+02 0.  0.
        -12    1    1    2    0    0 -0.36850777405E+02 -0.22778995163E+02 -0.26001019635E+01  0.43400725180E+02  0.00000000000E+00 0.  1.
         11    1    3    3    0    0  0.50636480947E+01  0.44754028117E+01  0.54934019808E+00  0.67802313581E+01  0.51100000000E-03 0. -1.
        -11    1    3    3    0    0  0.15874974302E+01  0.76534880358E+01 -0.34001231290E+01  0.85238996216E+01  0.51100000000E-03 0.  1.
        -12    1    3    3    0    0  0.30199631880E+02  0.10650104316E+02  0.54508848944E+01  0.32483143840E+02  0.00000000000E+00 0.  1.
</event>
<event>
 7    1  0.1714203E-010  0.4778727E+02  0.7816164E-02  0.1312668E+00
        -11   -1    0    0    0    0  0.00000000000E+00  0.00000000000E+00  0.45593999997E+02  0.45594000000E+02  0.51100000000E-03 0.  1.
         11   -1    0    0    0    0 -0.00000000000E+00 -0.00000000000E+00 -0.45593999997E+02  0.45594000000E+02  0.51100000000E-03 0. -1.
    9900012    2    1    2    0    0  0.18934364340E+02 -0.36084554866E+02  0.14933786734E+02  0.47787271445E+02  0.20000001827E+02 0.  0.
        -12    1    1    2    0    0 -0.18934364340E+02  0.36084554866E+02 -0.14933786734E+02  0.43400728555E+02  0.00000000000E+00 0.  1.
         11    1    3    3    0    0  0.11577948370E+01 -0.20408795956E+02  0.10932374302E+02  0.23181377211E+02  0.51100000000E-03 0. -1.
        -11    1    3    3    0    0  0.44078856609E+01 -0.13080539160E+01  0.11405428554E+00  0.45992901287E+01  0.51100000000E-03 0.  1.
         12    1    3    3    0    0  0.13368683842E+02 -0.14367704994E+02  0.38873581465E+01  0.20006604106E+02  0.00000000000E+00 0. -1.
</event>
<event>
 7    1  0.1714203E-010  0.4778727E+02  0.7816164E-02  0.1312668E+00
        -11   -1    0    0    0    0  0.00000000000E+00  0.00000000000E+00  0.45593999997E+02  0.45594000000E+02  0.51100000000E-03 0.  1.
         11   -1    0    0    0    0 -0.00000000000E+00 -0.00000000000E+00 -0.45593999997E+02  0.45594000000E+02  0.51100000000E-03 0. -1.
    9900012    2    1    2    0    0 -0.28155276655E+01  0.26517826278E+02 -0.34241805014E+02  0.47787268242E+02  0.19999987221E+02 0.  0.
        -12    1    1    2    0    0  0.28155276655E+01 -0.26517826278E+02  0.34241805014E+02  0.43400731758E+02  0.00000000000E+00 0.  1.
         11    1    3    3    0    0 -0.21719037398E+01  0.70614995524E+00 -0.53693179169E+01  0.58348426515E+01  0.51100000000E-03 0. -1.
        -11    1    3    3    0    0 -0.57140196985E+01  0.25091200465E+01 -0.36001630840E+01  0.72046428791E+01  0.51100000000E-03 0.  1.
         12    1    3    3    0    0  0.50703957727E+01  0.23302556276E+02 -0.25272324013E+02  0.34747782711E+02  0.00000000000E+00 0. -1.
</event>
<event>
 7    1  0.1714203E-010  0.4778727E+02  0.7816164E-02  0.1312668E+00
        -11   -1    0    0    0    0  0.00000000000E+00  0.00000000000E+00  0.45593999997E+02  0.45594000000E+02  0.51100000000E-03 0.  1.
         11   -1    0    0    0    0 -0.00000000000E+00 -0.00000000000E+00 -0.45593999997E+02  0.45594000000E+02  0.51100000000E-03 0. -1.
    9900012    2    1    2    0    0 -0.16432135398E+02 -0.11129841689E+02 -0.38597079582E+02  0.47787274176E+02  0.20000014280E+02 0.  0.
        -12    1    1    2    0    0  0.16432135398E+02  0.11129841689E+02  0.38597079582E+02  0.43400725824E+02  0.00000000000E+00 0.  1.
         11    1    3    3    0    0 -0.16779232098E+01 -0.68349728365E+01 -0.11810233643E+02  0.13748232575E+02  0.51100000000E-03 0. -1.
        -11    1    3    3    0    0 -0.20895712317E+01  0.28874675526E+01 -0.14980460981E-01  0.35642673125E+01  0.51100000000E-03 0.  1.
        -12    1    3    3    0    0 -0.12664640957E+02 -0.71823364051E+01 -0.26771865478E+02  0.30474774289E+02  0.00000000000E+00 0.  1.
</event>
<event>
 7    1  0.1714203E-010  0.4778727E+02  0.7816164E-02  0.1312668E+00
        -11   -1    0    0    0    0  0.00000000000E+00  0.00000000000E+00  0.45593999997E+02  0.45594000000E+02  0.51100000000E-03 0.  1.
         11   -1    0    0    0    0 -0.00000000000E+00 -0.00000000000E+00 -0.45593999997E+02  0.45594000000E+02  0.51100000000E-03 0. -1.
    9900012    2    1    2    0    0 -0.13056769397E+02  0.29375983951E+02 -0.29158116304E+02  0.47787269516E+02  0.19999993031E+02 0.  0.
        -12    1    1    2    0    0  0.13056769397E+02 -0.29375983951E+02  0.29158116304E+02  0.43400730484E+02  0.00000000000E+00 0.  1.
         11    1    3    3    0    0 -0.79000891682E+01  0.59635229379E+01 -0.95723057337E+01  0.13769678719E+02  0.51100000000E-03 0. -1.
        -11    1    3    3    0    0  0.34477140816E+01  0.78658012517E+01 -0.11857035168E+02  0.14640588955E+02  0.51100000000E-03 0.  1.
         12    1    3    3    0    0 -0.86043943103E+01  0.15546659761E+02 -0.77287754022E+01  0.19377001842E+02  0.00000000000E+00 0. -1.
</event>
<event>
 7    1  0.1714203E-010  0.4778727E+02  0.7816164E-02  0.1312668E+00
        -11   -1    0    0    0    0  0.00000000000E+00  0.00000000000E+00  0.45593999997E+02  0.45594000000E+02  0.51100000000E-03 0.  1.
         11   -1    0    0    0    0 -0.00000000000E+00 -0.00000000000E+00 -0.45593999997E+02  0.45594000000E+02  0.51100000000E-03 0. -1.
    9900012    2    1    2    0    0 -0.28105594653E+02  0.43029540448E+01 -0.32789990516E+02  0.47787270256E+02  0.19999996403E+02 0.  0.
        -12    1    1    2    0    0  0.28105594653E+02 -0.43029540448E+01  0.32789990516E+02  0.43400729744E+02  0.00000000000E+00 0.  1.
         11    1    3    3    0    0 -0.94175658375E+01  0.37130871070E+01 -0.44427253987E+01  0.11055106123E+02  0.51100000000E-03 0.  1.
        -11    1    3    3    0    0 -0.16562848300E+02 -0.21047359590E+01 -0.28780889058E+02  0.33273073686E+02  0.51100000000E-03 0. -1.
         12    1    3    3    0    0 -0.21251805152E+01  0.26946028967E+01  0.43362394076E+00  0.34590904462E+01  0.00000000000E+00 0. -1.
</event>
<event>
 7    1  0.1714203E-010  0.4778727E+02  0.7816164E-02  0.1312668E+00
        -11   -1    0    0    0    0  0.00000000000E+00  0.00000000000E+00  0.45593999997E+02  0.45594000000E+02  0.51100000000E-03 0.  1.
         11   -1    0    0    0    0 -0.00000000000E+00 -0.00000000000E+00 -0.45593999997E+02  0.45594000000E+02  0.51100000000E-03 0. -1.
    9900012    2    1    2    0    0 -0.81529790652E+01  0.76793687407E+01 -0.41930647602E+02  0.47787274427E+02  0.20000015424E+02 0.  0.
        -12    1    1    2    0    0  0.81529790652E+01 -0.76793687407E+01  0.41930647602E+02  0.43400725573E+02  0.00000000000E+00 0.  1.
         11    1    3    3    0    0 -0.25528601620E+00  0.57212022757E+00 -0.86202120628E+01  0.86429479214E+01  0.51100000000E-03 0. -1.
        -11    1    3    3    0    0 -0.60463985673E+01 -0.44057363679E+01 -0.65107014629E+01  0.99175945863E+01  0.51100000000E-03 0.  1.
        -12    1    3    3    0    0 -0.18512944816E+01  0.11512984881E+02 -0.26799734077E+02  0.29226731920E+02  0.00000000000E+00 0.  1.
</event>
<event>
 7    1  0.1714203E-010  0.4778731E+02  0.7816164E-02  0.1312668E+00
        -11   -1    0    0    0    0  0.00000000000E+00  0.00000000000E+00  0.45593999997E+02  0.45594000000E+02  0.51100000000E-03 0.  1.
         11   -1    0    0    0    0 -0.00000000000E+00 -0.00000000000E+00 -0.45593999997E+02  0.45594000000E+02  0.51100000000E-03 0. -1.
    9900012    2    1    2    0    0  0.13825902508E+02  0.85395384711E+01 -0.40243517380E+02  0.47787308893E+02  0.20000172567E+02 0.  0.
        -12    1    1    2    0    0 -0.13825902508E+02 -0.85395384711E+01  0.40243517380E+02  0.43400691107E+02  0.00000000000E+00 0.  1.
         11    1    3    3    0    0  0.84996689736E+01  0.99119896714E+01 -0.15695810907E+02  0.20416914365E+02  0.51100000000E-03 0. -1.
        -11    1    3    3    0    0  0.26431539921E+01 -0.36841042617E+01 -0.27845516900E+01  0.53209600273E+01  0.51100000000E-03 0.  1.
         12    1    3    3    0    0  0.26830795420E+01  0.23116530615E+01 -0.21763154783E+02  0.22049434501E+02  0.00000000000E+00 0. -1.
</event>
<event>
 7    1  0.1714203E-010  0.4778727E+02  0.7816164E-02  0.1312668E+00
        -11   -1    0    0    0    0  0.00000000000E+00  0.00000000000E+00  0.45593999997E+02  0.45594000000E+02  0.51100000000E-03 0. -1.
         11   -1    0    0    0    0 -0.00000000000E+00 -0.00000000000E+00 -0.45593999997E+02  0.45594000000E+02  0.51100000000E-03 0.  1.
    9900012    2    1    2    0    0  0.36539248973E+02 -0.18907589264E+02 -0.13820616253E+02  0.47787273267E+02  0.20000010135E+02 0.  0.
        -12    1    1    2    0    0 -0.36539248973E+02  0.18907589264E+02  0.13820616253E+02  0.43400726733E+02  0.00000000000E+00 0.  1.
         11    1    3    3    0    0  0.16111488093E+02 -0.95251022648E+01 -0.24494759734E+01  0.18876110683E+02  0.51100000000E-03 0. -1.
        -11    1    3    3    0    0  0.28418155117E+01  0.26073670126E+01  0.13840187332E+01  0.40975341678E+01  0.51100000000E-03 0.  1.
         12    1    3    3    0    0  0.17585945368E+02 -0.11989854012E+02 -0.12755159013E+02  0.24813628416E+02  0.00000000000E+00 0. -1.
</event>
<event>
 7    1  0.1714203E-010  0.4778728E+02  0.7816164E-02  0.1312668E+00
        -11   -1    0    0    0    0  0.00000000000E+00  0.00000000000E+00  0.45593999997E+02  0.45594000000E+02  0.51100000000E-03 0. -1.
         11   -1    0    0    0    0 -0.00000000000E+00 -0.00000000000E+00 -0.45593999997E+02  0.45594000000E+02  0.51100000000E-03 0.  1.
    9900012    2    1    2    0    0  0.41219454149E+02 -0.11432202199E+02  0.73405810201E+01  0.47787276767E+02  0.20000026091E+02 0.  0.
        -12    1    1    2    0    0 -0.41219454149E+02  0.11432202199E+02 -0.73405810201E+01  0.43400723233E+02  0.00000000000E+00 0.  1.
         11    1    3    3    0    0  0.12679375651E+02 -0.38557543800E+01  0.20462585238E+00  0.13254255193E+02  0.51100000000E-03 0. -1.
        -11    1    3    3    0    0  0.21276553646E+02 -0.12145464727E+02  0.21131678834E+01  0.24590029021E+02  0.51100000000E-03 0.  1.
        -12    1    3    3    0    0  0.72635248518E+01  0.45690169088E+01  0.50227872843E+01  0.99429925520E+01  0.00000000000E+00 0.  1.
</event>
<event>
 7    1  0.1714203E-010  0.4778727E+02  0.7816164E-02  0.1312668E+00
        -11   -1    0    0    0    0  0.00000000000E+00  0.00000000000E+00  0.45593999997E+02  0.45594000000E+02  0.51100000000E-03 0.  1.
         11   -1    0    0    0    0 -0.00000000000E+00 -0.00000000000E+00 -0.45593999997E+02  0.45594000000E+02  0.51100000000E-03 0. -1.
    9900012    2    1    2    0    0 -0.70522780497E+01  0.36860678347E+02 -0.21798598563E+02  0.47787272665E+02  0.20000007390E+02 0.  0.
        -12    1    1    2    0    0  0.70522780497E+01 -0.36860678347E+02  0.21798598563E+02  0.43400727335E+02  0.00000000000E+00 0.  1.
         11    1    3    3    0    0 -0.69653688780E+01  0.12001427744E+02 -0.39684917569E-01  0.13876318195E+02  0.51100000000E-03 0. -1.
        -11    1    3    3    0    0  0.20714321881E+01  0.18541192507E+01 -0.34472709533E+01  0.44285739005E+01  0.51100000000E-03 0.  1.
         12    1    3    3    0    0 -0.21583413598E+01  0.23005131352E+02 -0.18311642692E+02  0.29482380569E+02  0.00000000000E+00 0. -1.
</event>
<event>
 7    1  0.1714203E-010  0.4778727E+02  0.7816164E-02  0.1312668E+00
        -11   -1    0    0    0    0  0.00000000000E+00  0.00000000000E+00  0.45593999997E+02  0.45594000000E+02  0.51100000000E-03 0.  1.
         11   -1    0    0    0    0 -0.00000000000E+00 -0.00000000000E+00 -0.45593999997E+02  0.45594000000E+02  0.51100000000E-03 0. -1.
    9900012    2    1    2    0    0 -0.37051418520E+02  0.20837242116E+02  0.87535565455E+01  0.47787273906E+02  0.20000013046E+02 0.  0.
        -12    1    1    2    0    0  0.37051418520E+02 -0.20837242116E+02 -0.87535565455E+01  0.43400726094E+02  0.00000000000E+00 0.  1.
         11    1    3    3    0    0 -0.85048175502E+01  0.14206541132E+01  0.39336113865E+01  0.94775249127E+01  0.51100000000E-03 0. -1.
        -11    1    3    3    0    0 -0.52466203045E+01  0.12723483646E+02  0.16723995920E+01  0.13864017504E+02  0.51100000000E-03 0.  1.
         12    1    3    3    0    0 -0.23299980665E+02  0.66931043572E+01  0.31475455670E+01  0.24445731489E+02  0.00000000000E+00 0. -1.
</event>
<event>
 7    1  0.1714203E-010  0.4778726E+02  0.7816164E-02  0.1312668E+00
        -11   -1    0    0    0    0  0.00000000000E+00  0.00000000000E+00  0.45593999997E+02  0.45594000000E+02  0.51100000000E-03 0.  1.
         11   -1    0    0    0    0 -0.00000000000E+00 -0.00000000000E+00 -0.45593999997E+02  0.45594000000E+02  0.51100000000E-03 0. -1.
    9900012    2    1    2    0    0  0.30447759527E+02  0.40839414936E+01 -0.30657452210E+02  0.47787262514E+02  0.19999961105E+02 0.  0.
        -12    1    1    2    0    0 -0.30447759527E+02 -0.40839414936E+01  0.30657452210E+02  0.43400737486E+02  0.00000000000E+00 0.  1.
         11    1    3    3    0    0  0.62492036706E+01  0.60146455670E+01 -0.98461765946E+01  0.13121573900E+02  0.51100000000E-03 0. -1.
        -11    1    3    3    0    0  0.23135551941E+02 -0.99143837014E-01 -0.12927663208E+02  0.26502604955E+02  0.51100000000E-03 0.  1.
         12    1    3    3    0    0  0.10630039145E+01 -0.18315602364E+01 -0.78836124080E+01  0.81630836588E+01  0.00000000000E+00 0. -1.
</event>
<event>
 7    1  0.1714203E-010  0.4778727E+02  0.7816164E-02  0.1312668E+00
        -11   -1    0    0    0    0  0.00000000000E+00  0.00000000000E+00  0.45593999997E+02  0.45594000000E+02  0.51100000000E-03 0.  1.
         11   -1    0    0    0    0 -0.00000000000E+00 -0.00000000000E+00 -0.45593999997E+02  0.45594000000E+02  0.51100000000E-03 0. -1.
    9900012    2    1    2    0    0  0.17508636523E+02  0.30405604053E+02 -0.25545454022E+02  0.47787270376E+02  0.19999996951E+02 0.  0.
        -12    1    1    2    0    0 -0.17508636523E+02 -0.30405604053E+02  0.25545454022E+02  0.43400729624E+02  0.00000000000E+00 0.  1.
         11    1    3    3    0    0  0.60968872057E+01  0.23026502415E+02 -0.21517325985E+02  0.32099644311E+02  0.51100000000E-03 0. -1.
        -11    1    3    3    0    0  0.86905270518E+01  0.84501116161E+01 -0.39957123354E+01  0.12763046818E+02  0.51100000000E-03 0.  1.
        -12    1    3    3    0    0  0.27212222656E+01 -0.10710099780E+01 -0.32415701738E-01  0.29245792466E+01  0.00000000000E+00 0.  1.
</event>
<event>
 7    1  0.1714203E-010  0.4778727E+02  0.7816164E-02  0.1312668E+00
        -11   -1    0    0    0    0  0.00000000000E+00  0.00000000000E+00  0.45593999997E+02  0.45594000000E+02  0.51100000000E-03 0.  1.
         11   -1    0    0    0    0 -0.00000000000E+00 -0.00000000000E+00 -0.45593999997E+02  0.45594000000E+02  0.51100000000E-03 0. -1.
    9900012    2    1    2    0    0 -0.24951438337E+02 -0.35486673739E+02  0.13210209134E+01  0.47787269771E+02  0.19999994192E+02 0.  0.
        -12    1    1    2    0    0  0.24951438337E+02  0.35486673739E+02 -0.13210209134E+01  0.43400730229E+02  0.00000000000E+00 0.  1.
         11    1    3    3    0    0 -0.23342136715E+02 -0.29152993864E+02 -0.36965741270E+01  0.37528882986E+02  0.51100000000E-03 0. -1.
        -11    1    3    3    0    0 -0.26893329004E+01 -0.17892313401E+00  0.13821202003E+01  0.30289901694E+01  0.51100000000E-03 0.  1.
         12    1    3    3    0    0  0.10800312778E+01 -0.61547567409E+01  0.36354748402E+01  0.72293966148E+01  0.00000000000E+00 0. -1.
</event>
<event>
 7    1  0.1714203E-010  0.4778728E+02  0.7816164E-02  0.1312668E+00
        -11   -1    0    0    0    0  0.00000000000E+00  0.00000000000E+00  0.45593999997E+02  0.45594000000E+02  0.51100000000E-03 0.  1.
         11   -1    0    0    0    0 -0.00000000000E+00 -0.00000000000E+00 -0.45593999997E+02  0.45594000000E+02  0.51100000000E-03 0. -1.
    9900012    2    1    2    0    0  0.17157511661E+02 -0.31561334176E+02 -0.24354150241E+02  0.47787278170E+02  0.20000032490E+02 0.  0.
        -12    1    1    2    0    0 -0.17157511661E+02  0.31561334176E+02  0.24354150241E+02  0.43400721830E+02  0.00000000000E+00 0.  1.
         11    1    3    3    0    0  0.59722069216E+00 -0.10316354021E+02 -0.12896157230E+02  0.16525577279E+02  0.51100000000E-03 0. -1.
        -11    1    3    3    0    0  0.94162148105E+01 -0.81436719865E+01 -0.26367756953E-02  0.12449277168E+02  0.51100000000E-03 0.  1.
        -12    1    3    3    0    0  0.71440761588E+01 -0.13101308169E+02 -0.11455356235E+02  0.18812423724E+02  0.00000000000E+00 0.  1.
</event>
<event>
 7    1  0.1714203E-010  0.4778727E+02  0.7816164E-02  0.1312668E+00
        -11   -1    0    0    0    0  0.00000000000E+00  0.00000000000E+00  0.45593999997E+02  0.45594000000E+02  0.51100000000E-03 0.  1.
         11   -1    0    0    0    0 -0.00000000000E+00 -0.00000000000E+00 -0.45593999997E+02  0.45594000000E+02  0.51100000000E-03 0. -1.
    9900012    2    1    2    0    0  0.30711970360E+02  0.12417464994E+01 -0.30640767184E+02  0.47787266465E+02  0.19999979119E+02 0.  0.
        -12    1    1    2    0    0 -0.30711970360E+02 -0.12417464994E+01  0.30640767184E+02  0.43400733535E+02  0.00000000000E+00 0.  1.
         11    1    3    3    0    0  0.12873696340E+02  0.36668351752E+01 -0.46780698706E+01  0.14179635949E+02  0.51100000000E-03 0. -1.
        -11    1    3    3    0    0  0.11860079718E+02  0.38847795819E+01 -0.13195713234E+02  0.18162594840E+02  0.51100000000E-03 0.  1.
         12    1    3    3    0    0  0.59781943023E+01 -0.63098682577E+01 -0.12766984079E+02  0.15445035676E+02  0.00000000000E+00 0. -1.
</event>
<event>
 7    1  0.1714203E-010  0.4778727E+02  0.7816164E-02  0.1312668E+00
        -11   -1    0    0    0    0  0.00000000000E+00  0.00000000000E+00  0.45593999997E+02  0.45594000000E+02  0.51100000000E-03 0. -1.
         11   -1    0    0    0    0 -0.00000000000E+00 -0.00000000000E+00 -0.45593999997E+02  0.45594000000E+02  0.51100000000E-03 0.  1.
    9900012    2    1    2    0    0  0.40766303898E+02 -0.14872082038E+02 -0.74375976787E+00  0.47787268021E+02  0.19999986216E+02 0.  0.
        -12    1    1    2    0    0 -0.40766303898E+02  0.14872082038E+02  0.74375976787E+00  0.43400731979E+02  0.00000000000E+00 0.  1.
         11    1    3    3    0    0  0.48453985260E+01 -0.44572636287E+01  0.36301375603E+00  0.65936988997E+01  0.51100000000E-03 0. -1.
        -11    1    3    3    0    0  0.11980039471E+02  0.10707022480E+01  0.63661599241E+01  0.13608664206E+02  0.51100000000E-03 0.  1.
         12    1    3    3    0    0  0.23940865901E+02 -0.11485520658E+02 -0.74729334480E+01  0.27584904915E+02  0.00000000000E+00 0. -1.
</event>
<event>
 7    1  0.1714203E-010  0.4778727E+02  0.7816164E-02  0.1312668E+00
        -11   -1    0    0    0    0  0.00000000000E+00  0.00000000000E+00  0.45593999997E+02  0.45594000000E+02  0.51100000000E-03 0.  1.
         11   -1    0    0    0    0 -0.00000000000E+00 -0.00000000000E+00 -0.45593999997E+02  0.45594000000E+02  0.51100000000E-03 0. -1.
    9900012    2    1    2    0    0 -0.35388506422E+02 -0.20359452409E+02  0.14723097499E+02  0.47787270869E+02  0.19999999199E+02 0.  0.
        -12    1    1    2    0    0  0.35388506422E+02  0.20359452409E+02 -0.14723097499E+02  0.43400729131E+02  0.00000000000E+00 0.  1.
         11    1    3    3    0    0 -0.18251315495E+02 -0.83329844575E+01 -0.61792085738E+00  0.20073140604E+02  0.51100000000E-03 0. -1.
        -11    1    3    3    0    0 -0.86124903287E+01 -0.66525260036E+01  0.21145026563E+01  0.11086127080E+02  0.51100000000E-03 0.  1.
        -12    1    3    3    0    0 -0.85247005982E+01 -0.53739419481E+01  0.13226515700E+02  0.16628003185E+02  0.00000000000E+00 0.  1.
</event>
<event>
 7    1  0.1714203E-010  0.4778727E+02  0.7816164E-02  0.1312668E+00
        -11   -1    0    0    0    0  0.00000000000E+00  0.00000000000E+00  0.45593999997E+02  0.45594000000E+02  0.51100000000E-03 0.  1.
         11   -1    0    0    0    0 -0.00000000000E+00 -0.00000000000E+00 -0.45593999997E+02  0.45594000000E+02  0.51100000000E-03 0. -1.
    9900012    2    1    2    0    0 -0.35831697979E+02 -0.22324362204E+02 -0.10066552647E+02  0.47787271779E+02  0.20000003351E+02 0.  0.
        -12    1    1    2    0    0  0.35831697979E+02  0.22324362204E+02  0.10066552647E+02  0.43400728221E+02  0.00000000000E+00 0.  1.
         11    1    3    3    0    0 -0.25799662710E+02 -0.81383194327E+01 -0.90978587787E+01  0.28541651559E+02  0.51100000000E-03 0. -1.
        -11    1    3    3    0    0 -0.53135633666E+01 -0.40871980696E+01  0.30918047610E+01  0.73823032079E+01  0.51100000000E-03 0.  1.
        -12    1    3    3    0    0 -0.47184719029E+01 -0.10098844702E+02 -0.40604986295E+01  0.11863317012E+02  0.00000000000E+00 0.  1.
</event>
<event>
 7    1  0.1714203E-010  0.4778727E+02  0.7816164E-02  0.1312668E+00
        -11   -1    0    0    0    0  0.00000000000E+00  0.00000000000E+00  0.45593999997E+02  0.45594000000E+02  0.51100000000E-03 0.  1.
         11   -1    0    0    0    0 -0.00000000000E+00 -0.00000000000E+00 -0.45593999997E+02  0.45594000000E+02  0.51100000000E-03 0. -1.
    9900012    2    1    2    0    0  0.37709635391E+02 -0.55325134369E+01 -0.20760488563E+02  0.47787271992E+02  0.20000004321E+02 0.  0.
        -12    1    1    2    0    0 -0.37709635391E+02  0.55325134369E+01  0.20760488563E+02  0.43400728008E+02  0.00000000000E+00 0.  1.
         11    1    3    3    0    0  0.10219240251E+02 -0.13845365141E+01 -0.28797506182E+01  0.10707136711E+02  0.51100000000E-03 0. -1.
        -11    1    3    3    0    0  0.10502659418E+02 -0.14712473792E+01  0.20013446371E+01  0.10792395671E+02  0.51100000000E-03 0.  1.
         12    1    3    3    0    0  0.16987735721E+02 -0.26767295436E+01 -0.19882082582E+02  0.26287739610E+02  0.00000000000E+00 0. -1.
</event>
<event>
 7    1  0.1714203E-010  0.4778728E+02  0.7816164E-02  0.1312668E+00
        -11   -1    0    0    0    0  0.00000000000E+00  0.00000000000E+00  0.45593999997E+02  0.45594000000E+02  0.51100000000E-03 0. -1.
         11   -1    0    0    0    0 -0.00000000000E+00 -0.00000000000E+00 -0.45593999997E+02  0.45594000000E+02  0.51100000000E-03 0.  1.
    9900012    2    1    2    0    0  0.14532542968E+02  0.39498219526E+02 -0.10598019195E+02  0.47787283857E+02  0.20000058419E+02 0.  0.
        -12    1    1    2    0    0 -0.14532542968E+02 -0.39498219526E+02  0.10598019195E+02  0.43400716143E+02  0.00000000000E+00 0.  1.
         11    1    3    3    0    0  0.29183284497E+01  0.11075075949E+02  0.22197060599E+01  0.11666235188E+02  0.51100000000E-03 0. -1.
        -11    1    3    3    0    0  0.17516393867E+01  0.20987490940E+01  0.28411457322E+01  0.39427271822E+01  0.51100000000E-03 0.  1.
         12    1    3    3    0    0  0.98625751315E+01  0.26324394483E+02 -0.15658870987E+02  0.32178321487E+02  0.00000000000E+00 0. -1.
</event>
<event>
 7    1  0.1714203E-010  0.4778727E+02  0.7816164E-02  0.1312668E+00
        -11   -1    0    0    0    0  0.00000000000E+00  0.00000000000E+00  0.45593999997E+02  0.45594000000E+02  0.51100000000E-03 0. -1.
         11   -1    0    0    0    0 -0.00000000000E+00 -0.00000000000E+00 -0.45593999997E+02  0.45594000000E+02  0.51100000000E-03 0.  1.
    9900012    2    1    2    0    0  0.41949552136E+02 -0.22009543410E+00 -0.11126991430E+02  0.47787270690E+02  0.19999998382E+02 0.  0.
        -12    1    1    2    0    0 -0.41949552136E+02  0.22009543410E+00  0.11126991430E+02  0.43400729310E+02  0.00000000000E+00 0.  1.
         11    1    3    3    0    0  0.11063199677E+02 -0.22075460121E+01 -0.86480154766E+00  0.11314394746E+02  0.51100000000E-03 0. -1.
        -11    1    3    3    0    0  0.19526259713E+02  0.68833294473E+01 -0.49223238540E+00  0.20709836688E+02  0.51100000000E-03 0.  1.
        -12    1    3    3    0    0  0.11360092746E+02 -0.48958788692E+01 -0.97699574965E+01  0.15763039256E+02  0.00000000000E+00 0.  1.
</event>
<event>
 7    1  0.1714203E-010  0.4778728E+02  0.7816164E-02  0.1312668E+00
        -11   -1    0    0    0    0  0.00000000000E+00  0.00000000000E+00  0.45593999997E+02  0.45594000000E+02  0.51100000000E-03 0.  1.
         11   -1    0    0    0    0 -0.00000000000E+00 -0.00000000000E+00 -0.45593999997E+02  0.45594000000E+02  0.51100000000E-03 0. -1.
    9900012    2    1    2    0    0  0.34948571937E+02  0.16912283503E+02 -0.19395739310E+02  0.47787277459E+02  0.20000029245E+02 0.  0.
        -12    1    1    2    0    0 -0.34948571937E+02 -0.16912283503E+02  0.19395739310E+02  0.43400722541E+02  0.00000000000E+00 0.  1.
         11    1    3    3    0    0  0.82012097716E+01  0.15332326231E+01 -0.10211290504E+02  0.13186398220E+02  0.51100000000E-03 0. -1.
        -11    1    3    3    0    0  0.24853974732E+02  0.87139814118E+01 -0.83096226512E+01  0.27617084584E+02  0.51100000000E-03 0.  1.
         12    1    3    3    0    0  0.18933874332E+01  0.66650694677E+01 -0.87482615512E+00  0.69837946550E+01  0.00000000000E+00 0. -1.
</event>
<event>
 7    1  0.1714203E-010  0.4778727E+02  0.7816164E-02  0.1312668E+00
        -11   -1    0    0    0    0  0.00000000000E+00  0.00000000000E+00  0.45593999997E+02  0.45594000000E+02  0.51100000000E-03 0. -1.
         11   -1    0    0    0    0 -0.00000000000E+00 -0.00000000000E+00 -0.45593999997E+02  0.45594000000E+02  0.51100000000E-03 0.  1.
    9900012    2    1    2    0    0  0.39516250531E+02 -0.13935180145E+02 -0.11309280837E+02  0.47787272647E+02  0.20000007306E+02 0.  0.
        -12    1    1    2    0    0 -0.39516250531E+02  0.13935180145E+02  0.11309280837E+02  0.43400727353E+02  0.00000000000E+00 0.  1.
         11    1    3    3    0    0  0.21883125542E+02 -0.71991137922E+01 -0.53214622399E+00  0.23043038054E+02  0.51100000000E-03 0. -1.
        -11    1    3    3    0    0  0.15376742288E+02 -0.97184990333E+01 -0.10478135186E+02  0.20992492565E+02  0.51100000000E-03 0.  1.
         12    1    3    3    0    0  0.22563827009E+01  0.29824326803E+01 -0.29899942689E+00  0.37517420278E+01  0.00000000000E+00 0. -1.
</event>
<event>
 7    1  0.1714203E-010  0.4778727E+02  0.7816164E-02  0.1312668E+00
        -11   -1    0    0    0    0  0.00000000000E+00  0.00000000000E+00  0.45593999997E+02  0.45594000000E+02  0.51100000000E-03 0.  1.
         11   -1    0    0    0    0 -0.00000000000E+00 -0.00000000000E+00 -0.45593999997E+02  0.45594000000E+02  0.51100000000E-03 0. -1.
    9900012    2    1    2    0    0  0.12924225269E+02 -0.16755675954E+01 -0.41397825956E+02  0.47787272824E+02  0.20000008112E+02 0.  0.
        -12    1    1    2    0    0 -0.12924225269E+02  0.16755675954E+01  0.41397825956E+02  0.43400727176E+02  0.00000000000E+00 0.  1.
         11    1    3    3    0    0  0.78417803873E+01  0.78626150676E+00 -0.31947168718E+02  0.32904913253E+02  0.51100000000E-03 0. -1.
        -11    1    3    3    0    0  0.22478018581E+01 -0.58232869012E+01 -0.26439676872E+01  0.67789268265E+01  0.51100000000E-03 0.  1.
         12    1    3    3    0    0  0.28346430236E+01  0.33614577990E+01 -0.68066895505E+01  0.81034327444E+01  0.00000000000E+00 0. -1.
</event>
<event>
 7    1  0.1714203E-010  0.4778727E+02  0.7816164E-02  0.1312668E+00
        -11   -1    0    0    0    0  0.00000000000E+00  0.00000000000E+00  0.45593999997E+02  0.45594000000E+02  0.51100000000E-03 0.  1.
         11   -1    0    0    0    0 -0.00000000000E+00 -0.00000000000E+00 -0.45593999997E+02  0.45594000000E+02  0.51100000000E-03 0. -1.
    9900012    2    1    2    0    0 -0.13454076497E+02  0.27490649939E+02 -0.30771337314E+02  0.47787271797E+02  0.20000003431E+02 0.  0.
        -12    1    1    2    0    0  0.13454076497E+02 -0.27490649939E+02  0.30771337314E+02  0.43400728203E+02  0.00000000000E+00 0.  1.
         11    1    3    3    0    0 -0.73399187965E+01  0.91445697494E+01 -0.98102909115E+01  0.15288537271E+02  0.51100000000E-03 0. -1.
        -11    1    3    3    0    0  0.55445450211E+00 -0.11143293920E+01  0.15606545666E+01  0.19961945612E+01  0.51100000000E-03 0.  1.
         12    1    3    3    0    0 -0.66686122024E+01  0.19460409582E+02 -0.22521700969E+02  0.30502539965E+02  0.00000000000E+00 0. -1.
</event>
<event>
 7    1  0.1714203E-010  0.4778727E+02  0.7816164E-02  0.1312668E+00
        -11   -1    0    0    0    0  0.00000000000E+00  0.00000000000E+00  0.45593999997E+02  0.45594000000E+02  0.51100000000E-03 0.  1.
         11   -1    0    0    0    0 -0.00000000000E+00 -0.00000000000E+00 -0.45593999997E+02  0.45594000000E+02  0.51100000000E-03 0. -1.
    9900012    2    1    2    0    0  0.90789944449E+00 -0.18341318979E+02 -0.39324232498E+02  0.47787268153E+02  0.19999986818E+02 0.  0.
        -12    1    1    2    0    0 -0.90789944449E+00  0.18341318979E+02  0.39324232498E+02  0.43400731847E+02  0.00000000000E+00 0.  1.
         11    1    3    3    0    0  0.46416082699E+01 -0.87671061634E+01 -0.17506870872E+02  0.20122057693E+02  0.51100000000E-03 0. -1.
        -11    1    3    3    0    0 -0.91944906073E+00  0.82672223683E-01  0.17846116592E+01  0.20092437152E+01  0.51100000000E-03 0.  1.
         12    1    3    3    0    0 -0.28142597647E+01 -0.96568850388E+01 -0.23601973285E+02  0.25655966745E+02  0.00000000000E+00 0. -1.
</event>
<event>
 7    1  0.1714203E-010  0.4778727E+02  0.7816164E-02  0.1312668E+00
        -11   -1    0    0    0    0  0.00000000000E+00  0.00000000000E+00  0.45593999997E+02  0.45594000000E+02  0.51100000000E-03 0.  1.
         11   -1    0    0    0    0 -0.00000000000E+00 -0.00000000000E+00 -0.45593999997E+02  0.45594000000E+02  0.51100000000E-03 0. -1.
    9900012    2    1    2    0    0  0.13833100409E+01  0.42916192697E+02 -0.63174195513E+01  0.47787274982E+02  0.20000017953E+02 0.  0.
        -12    1    1    2    0    0 -0.13833100409E+01 -0.42916192697E+02  0.63174195513E+01  0.43400725018E+02  0.00000000000E+00 0.  1.
         11    1    3    3    0    0  0.20222890763E+00  0.56154041631E-01 -0.84038984863E+00  0.86620157369E+00  0.51100000000E-03 0. -1.
        -11    1    3    3    0    0 -0.74503098894E+01  0.10911194329E+02 -0.39567354572E+01  0.13791919188E+02  0.51100000000E-03 0.  1.
        -12    1    3    3    0    0  0.86313910227E+01  0.31948844326E+02 -0.15202942454E+01  0.33129154220E+02  0.00000000000E+00 0.  1.
</event>
<event>
 7    1  0.1714203E-010  0.4778727E+02  0.7816164E-02  0.1312668E+00
        -11   -1    0    0    0    0  0.00000000000E+00  0.00000000000E+00  0.45593999997E+02  0.45594000000E+02  0.51100000000E-03 0.  1.
         11   -1    0    0    0    0 -0.00000000000E+00 -0.00000000000E+00 -0.45593999997E+02  0.45594000000E+02  0.51100000000E-03 0. -1.
    9900012    2    1    2    0    0  0.15702514714E+02  0.10975289981E+01 -0.40445636564E+02  0.47787273562E+02  0.20000011480E+02 0.  0.
        -12    1    1    2    0    0 -0.15702514714E+02 -0.10975289981E+01  0.40445636564E+02  0.43400726438E+02  0.00000000000E+00 0.  1.
         11    1    3    3    0    0  0.65736458903E+01 -0.21071465777E+01 -0.17600088862E+02  0.18905449352E+02  0.51100000000E-03 0. -1.
        -11    1    3    3    0    0  0.95610083463E+01 -0.24204482747E+01 -0.20543937181E+02  0.22788699077E+02  0.51100000000E-03 0.  1.
        -12    1    3    3    0    0 -0.43213952240E+00  0.56251238505E+01 -0.23016105206E+01  0.60931251332E+01  0.00000000000E+00 0.  1.
</event>
<event>
 7    1  0.1714203E-010  0.4778729E+02  0.7816164E-02  0.1312668E+00
        -11   -1    0    0    0    0  0.00000000000E+00  0.00000000000E+00  0.45593999997E+02  0.45594000000E+02  0.51100000000E-03 0. -1.
         11   -1    0    0    0    0 -0.00000000000E+00 -0.00000000000E+00 -0.45593999997E+02  0.45594000000E+02  0.51100000000E-03 0.  1.
    9900012    2    1    2    0    0  0.58932871039E+01 -0.18746346133E+02  0.38697097277E+02  0.47787289592E+02  0.20000084567E+02 0.  0.
        -12    1    1    2    0    0 -0.58932871039E+01  0.18746346133E+02 -0.38697097277E+02  0.43400710408E+02  0.00000000000E+00 0.  1.
         11    1    3    3    0    0 -0.74485787166E+00 -0.48612178933E+01  0.27331929252E+01  0.56264195083E+01  0.51100000000E-03 0. -1.
        -11    1    3    3    0    0 -0.26387194104E+01 -0.77007301745E+01  0.57799594272E+01  0.99835873607E+01  0.51100000000E-03 0.  1.
         12    1    3    3    0    0  0.92768643859E+01 -0.61843980654E+01  0.30183944924E+02  0.32177282723E+02  0.00000000000E+00 0. -1.
</event>
<event>
 7    1  0.1714203E-010  0.4778727E+02  0.7816164E-02  0.1312668E+00
        -11   -1    0    0    0    0  0.00000000000E+00  0.00000000000E+00  0.45593999997E+02  0.45594000000E+02  0.51100000000E-03 0.  1.
         11   -1    0    0    0    0 -0.00000000000E+00 -0.00000000000E+00 -0.45593999997E+02  0.45594000000E+02  0.51100000000E-03 0. -1.
    9900012    2    1    2    0    0 -0.13299918601E+02 -0.92089608613E+01 -0.40273198347E+02  0.47787270743E+02  0.19999998625E+02 0.  0.
        -12    1    1    2    0    0  0.13299918601E+02  0.92089608613E+01  0.40273198347E+02  0.43400729257E+02  0.00000000000E+00 0.  1.
         11    1    3    3    0    0 -0.28799120903E+01 -0.97511155230E+01 -0.21515634472E+02  0.23797072815E+02  0.51100000000E-03 0. -1.
        -11    1    3    3    0    0  0.17183317942E+01  0.21050536223E+01 -0.33640032017E+01  0.43243996936E+01  0.51100000000E-03 0.  1.
        -12    1    3    3    0    0 -0.12138338305E+02 -0.15628989606E+01 -0.15393560674E+02  0.19665798234E+02  0.00000000000E+00 0.  1.
</event>
<event>
 7    1  0.1714203E-010  0.4778727E+02  0.7816164E-02  0.1312668E+00
        -11   -1    0    0    0    0  0.00000000000E+00  0.00000000000E+00  0.45593999997E+02  0.45594000000E+02  0.51100000000E-03 0.  1.
         11   -1    0    0    0    0 -0.00000000000E+00 -0.00000000000E+00 -0.45593999997E+02  0.45594000000E+02  0.51100000000E-03 0. -1.
    9900012    2    1    2    0    0 -0.28520622619E+02 -0.32621806559E+02 -0.24525715123E+01  0.47787270919E+02  0.19999999427E+02 0.  0.
        -12    1    1    2    0    0  0.28520622619E+02  0.32621806559E+02  0.24525715123E+01  0.43400729081E+02  0.00000000000E+00 0.  1.
         11    1    3    3    0    0 -0.12085109672E+02 -0.68341025990E+01 -0.35379026802E+01  0.14327302250E+02  0.51100000000E-03 0. -1.
        -11    1    3    3    0    0 -0.15813758983E+02 -0.13404833504E+02 -0.15354077337E+01  0.20787544626E+02  0.51100000000E-03 0.  1.
         12    1    3    3    0    0 -0.62175396455E+00 -0.12382870456E+02  0.26207389016E+01  0.12672424043E+02  0.00000000000E+00 0. -1.
</event>
<event>
 7    1  0.1714203E-010  0.4778726E+02  0.7816164E-02  0.1312668E+00
        -11   -1    0    0    0    0  0.00000000000E+00  0.00000000000E+00  0.45593999997E+02  0.45594000000E+02  0.51100000000E-03 0. -1.
         11   -1    0    0    0    0 -0.00000000000E+00 -0.00000000000E+00 -0.45593999997E+02  0.45594000000E+02  0.51100000000E-03 0.  1.
    9900012    2    1    2    0    0  0.18458271875E+02  0.26812204055E+02  0.28705788946E+02  0.47787258003E+02  0.19999940538E+02 0.  0.
        -12    1    1    2    0    0 -0.18458271875E+02 -0.26812204055E+02 -0.28705788946E+02  0.43400741997E+02  0.00000000000E+00 0.  1.
         11    1    3    3    0    0  0.13872941556E+01  0.10039213206E+02  0.79249050717E+01  0.12865244169E+02  0.51100000000E-03 0. -1.
        -11    1    3    3    0    0  0.11195301051E+02  0.10249462325E+02  0.35571367466E+01  0.15589723079E+02  0.51100000000E-03 0.  1.
         12    1    3    3    0    0  0.58756766681E+01  0.65235285235E+01  0.17223747128E+02  0.19332290755E+02  0.00000000000E+00 0. -1.
</event>
<event>
 7    1  0.1714203E-010  0.4778727E+02  0.7816164E-02  0.1312668E+00
        -11   -1    0    0    0    0  0.00000000000E+00  0.00000000000E+00  0.45593999997E+02  0.45594000000E+02  0.51100000000E-03 0. -1.
         11   -1    0    0    0    0 -0.00000000000E+00 -0.00000000000E+00 -0.45593999997E+02  0.45594000000E+02  0.51100000000E-03 0.  1.
    9900012    2    1    2    0    0 -0.36397235154E+02 -0.18384841572E+02  0.14861447772E+02  0.47787265486E+02  0.19999974655E+02 0.  0.
        -12    1    1    2    0    0  0.36397235154E+02  0.18384841572E+02 -0.14861447772E+02  0.43400734514E+02  0.00000000000E+00 0.  1.
         11    1    3    3    0    0 -0.16242502730E+02 -0.11027896255E+02 -0.40878892135E-01  0.19632500149E+02  0.51100000000E-03 0. -1.
        -11    1    3    3    0    0 -0.11088241278E+02  0.91311041855E+00  0.42676772966E+01  0.11916204725E+02  0.51100000000E-03 0.  1.
        -12    1    3    3    0    0 -0.90664911464E+01 -0.82700557359E+01  0.10634649368E+02  0.16238560612E+02  0.00000000000E+00 0.  1.
</event>
<event>
 7    1  0.1714203E-010  0.4778726E+02  0.7816164E-02  0.1312668E+00
        -11   -1    0    0    0    0  0.00000000000E+00  0.00000000000E+00  0.45593999997E+02  0.45594000000E+02  0.51100000000E-03 0.  1.
         11   -1    0    0    0    0 -0.00000000000E+00 -0.00000000000E+00 -0.45593999997E+02  0.45594000000E+02  0.51100000000E-03 0. -1.
    9900012    2    1    2    0    0 -0.16849781415E+02 -0.20191915829E+02 -0.34525289911E+02  0.47787259891E+02  0.19999949147E+02 0.  0.
        -12    1    1    2    0    0  0.16849781415E+02  0.20191915829E+02  0.34525289911E+02  0.43400740109E+02  0.00000000000E+00 0.  1.
         11    1    3    3    0    0  0.13333850888E+01 -0.79918692905E+01 -0.16235294206E+02  0.18144769736E+02  0.51100000000E-03 0. -1.
        -11    1    3    3    0    0 -0.56324724045E+01 -0.50053155531E+01 -0.18798041354E+01  0.77660538900E+01  0.51100000000E-03 0.  1.
         12    1    3    3    0    0 -0.12550694099E+02 -0.71947309858E+01 -0.16410191569E+02  0.21876436265E+02  0.00000000000E+00 0. -1.
</event>
<event>
 7    1  0.1714203E-010  0.4778727E+02  0.7816164E-02  0.1312668E+00
        -11   -1    0    0    0    0  0.00000000000E+00  0.00000000000E+00  0.45593999997E+02  0.45594000000E+02  0.51100000000E-03 0. -1.
         11   -1    0    0    0    0 -0.00000000000E+00 -0.00000000000E+00 -0.45593999997E+02  0.45594000000E+02  0.51100000000E-03 0.  1.
    9900012    2    1    2    0    0 -0.39970069829E+02 -0.15338698791E+02  0.71232679394E+01  0.47787272945E+02  0.20000008667E+02 0.  0.
        -12    1    1    2    0    0  0.39970069829E+02  0.15338698791E+02 -0.71232679394E+01  0.43400727055E+02  0.00000000000E+00 0.  1.
         11    1    3    3    0    0 -0.13339045373E+02 -0.10731677204E+02  0.58705694244E+00  0.17130197407E+02  0.51100000000E-03 0. -1.
        -11    1    3    3    0    0 -0.25911284067E+01  0.30836082963E+01 -0.12936848859E+01  0.42303909264E+01  0.51100000000E-03 0.  1.
         12    1    3    3    0    0 -0.24039896049E+02 -0.76906298832E+01  0.78298958828E+01  0.26426684612E+02  0.00000000000E+00 0. -1.
</event>
<event>
 7    1  0.1714203E-010  0.4778727E+02  0.7816164E-02  0.1312668E+00
        -11   -1    0    0    0    0  0.00000000000E+00  0.00000000000E+00  0.45593999997E+02  0.45594000000E+02  0.51100000000E-03 0.  1.
         11   -1    0    0    0    0 -0.00000000000E+00 -0.00000000000E+00 -0.45593999997E+02  0.45594000000E+02  0.51100000000E-03 0. -1.
    9900012    2    1    2    0    0  0.21282600980E+02 -0.60317224168E+01 -0.37340225633E+02  0.47787271549E+02  0.20000002299E+02 0.  0.
        -12    1    1    2    0    0 -0.21282600980E+02  0.60317224168E+01  0.37340225633E+02  0.43400728451E+02  0.00000000000E+00 0.  1.
         11    1    3    3    0    0  0.33240787602E+01  0.25497268977E+01 -0.74855961037E+01  0.85781557543E+01  0.51100000000E-03 0. -1.
        -11    1    3    3    0    0  0.11004807763E+02 -0.12797732937E+02 -0.16701276139E+02  0.23744902340E+02  0.51100000000E-03 0.  1.
        -12    1    3    3    0    0  0.69537144574E+01  0.42162836226E+01 -0.13153353390E+02  0.15464213454E+02  0.00000000000E+00 0.  1.
</event>
<event>
 7    1  0.1714203E-010  0.4778727E+02  0.7816164E-02  0.1312668E+00
        -11   -1    0    0    0    0  0.00000000000E+00  0.00000000000E+00  0.45593999997E+02  0.45594000000E+02  0.51100000000E-03 0. -1.
         11   -1    0    0    0    0 -0.00000000000E+00 -0.00000000000E+00 -0.45593999997E+02  0.45594000000E+02  0.51100000000E-03 0.  1.
    9900012    2    1    2    0    0  0.33173200671E+02  0.27977265610E+02  0.65947110975E+00  0.47787268026E+02  0.19999986237E+02 0.  0.
        -12    1    1    2    0    0 -0.33173200671E+02 -0.27977265610E+02 -0.65947110975E+00  0.43400731974E+02  0.00000000000E+00 0.  1.
         11    1    3    3    0    0  0.17194605766E+02  0.17308201796E+02  0.77472876723E+01  0.25597827708E+02  0.51100000000E-03 0. -1.
        -11    1    3    3    0    0  0.73490659625E+00  0.17004313972E+01  0.16334248638E+01  0.24697432434E+01  0.51100000000E-03 0.  1.
        -12    1    3    3    0    0  0.15243688308E+02  0.89686324170E+01 -0.87212414263E+01  0.19719697074E+02  0.00000000000E+00 0.  1.
</event>
<event>
 7    1  0.1714203E-010  0.4778727E+02  0.7816164E-02  0.1312668E+00
        -11   -1    0    0    0    0  0.00000000000E+00  0.00000000000E+00  0.45593999997E+02  0.45594000000E+02  0.51100000000E-03 0.  1.
         11   -1    0    0    0    0 -0.00000000000E+00 -0.00000000000E+00 -0.45593999997E+02  0.45594000000E+02  0.51100000000E-03 0. -1.
    9900012    2    1    2    0    0  0.23248515207E+02 -0.99053720845E+01 -0.35284750292E+02  0.47787268916E+02  0.19999990294E+02 0.  0.
        -12    1    1    2    0    0 -0.23248515207E+02  0.99053720845E+01  0.35284750292E+02  0.43400731084E+02  0.00000000000E+00 0.  1.
         11    1    3    3    0    0  0.19258106638E+01 -0.24877246326E+01 -0.52887901361E+01  0.61537648578E+01  0.51100000000E-03 0. -1.
        -11    1    3    3    0    0  0.99060163513E+01 -0.12622171453E+02 -0.13928014695E+02  0.21247069580E+02  0.51100000000E-03 0.  1.
         12    1    3    3    0    0  0.11416688192E+02  0.52045240015E+01 -0.16067945462E+02  0.20386434478E+02  0.00000000000E+00 0. -1.
</event>
<event>
 7    1  0.1714203E-010  0.4778727E+02  0.7816164E-02  0.1312668E+00
        -11   -1    0    0    0    0  0.00000000000E+00  0.00000000000E+00  0.45593999997E+02  0.45594000000E+02  0.51100000000E-03 0.  1.
         11   -1    0    0    0    0 -0.00000000000E+00 -0.00000000000E+00 -0.45593999997E+02  0.45594000000E+02  0.51100000000E-03 0. -1.
    9900012    2    1    2    0    0 -0.66857852688E+01  0.31645599543E+02 -0.28939235647E+02  0.47787273567E+02  0.20000011501E+02 0.  0.
        -12    1    1    2    0    0  0.66857852688E+01 -0.31645599543E+02  0.28939235647E+02  0.43400726433E+02  0.00000000000E+00 0.  1.
         11    1    3    3    0    0 -0.83103589337E+01  0.10219711200E+02 -0.19486734170E+02  0.23520998522E+02  0.51100000000E-03 0. -1.
        -11    1    3    3    0    0  0.30767871584E+01  0.51041804780E+01 -0.23302505815E+01  0.63991675712E+01  0.51100000000E-03 0.  1.
        -12    1    3    3    0    0 -0.14522134935E+01  0.16321707865E+02 -0.71222508959E+01  0.17867107474E+02  0.00000000000E+00 0.  1.
</event>
<event>
 7    1  0.1714203E-010  0.4778727E+02  0.7816164E-02  0.1312668E+00
        -11   -1    0    0    0    0  0.00000000000E+00  0.00000000000E+00  0.45593999997E+02  0.45594000000E+02  0.51100000000E-03 0.  1.
         11   -1    0    0    0    0 -0.00000000000E+00 -0.00000000000E+00 -0.45593999997E+02  0.45594000000E+02  0.51100000000E-03 0. -1.
    9900012    2    1    2    0    0 -0.11600637664E+02 -0.37515807442E+02 -0.18482772425E+02  0.47787268684E+02  0.19999989237E+02 0.  0.
        -12    1    1    2    0    0  0.11600637664E+02  0.37515807442E+02  0.18482772425E+02  0.43400731316E+02  0.00000000000E+00 0.  1.
         11    1    3    3    0    0  0.39387985012E+01 -0.17065159007E+02 -0.80953062132E+01  0.19294241849E+02  0.51100000000E-03 0. -1.
        -11    1    3    3    0    0 -0.45332989654E+01 -0.70188485452E+01 -0.19540565351E+00  0.83578237623E+01  0.51100000000E-03 0.  1.
         12    1    3    3    0    0 -0.11006137200E+02 -0.13431799890E+02 -0.10192060559E+02  0.20135203073E+02  0.00000000000E+00 0. -1.
</event>
<event>
 7    1  0.1714203E-010  0.4778727E+02  0.7816164E-02  0.1312668E+00
        -11   -1    0    0    0    0  0.00000000000E+00  0.00000000000E+00  0.45593999997E+02  0.45594000000E+02  0.51100000000E-03 0.  1.
         11   -1    0    0    0    0 -0.00000000000E+00 -0.00000000000E+00 -0.45593999997E+02  0.45594000000E+02  0.51100000000E-03 0. -1.
    9900012    2    1    2    0    0  0.29318062446E+02  0.59978768234E+01 -0.31434058261E+02  0.47787270390E+02  0.19999997014E+02 0.  0.
        -12    1    1    2    0    0 -0.29318062446E+02 -0.59978768234E+01  0.31434058261E+02  0.43400729610E+02  0.00000000000E+00 0.  1.
         11    1    3    3    0    0  0.10605270875E+02  0.83224424092E-01 -0.13993447192E+02  0.17558338794E+02  0.51100000000E-03 0. -1.
        -11    1    3    3    0    0  0.15501099354E+02  0.20439941189E+01 -0.43858040175E+01  0.16238758274E+02  0.51100000000E-03 0.  1.
        -12    1    3    3    0    0  0.32116922173E+01  0.38706582804E+01 -0.13054807051E+02  0.13990173322E+02  0.00000000000E+00 0.  1.
</event>
<event>
 7    1  0.1714203E-010  0.4778727E+02  0.7816164E-02  0.1312668E+00
        -11   -1    0    0    0    0  0.00000000000E+00  0.00000000000E+00  0.45593999997E+02  0.45594000000E+02  0.51100000000E-03 0. -1.
         11   -1    0    0    0    0 -0.00000000000E+00 -0.00000000000E+00 -0.45593999997E+02  0.45594000000E+02  0.51100000000E-03 0.  1.
    9900012    2    1    2    0    0  0.35774999261E+02  0.17092250715E+02 -0.17652984755E+02  0.47787268700E+02  0.19999989309E+02 0.  0.
        -12    1    1    2    0    0 -0.35774999261E+02 -0.17092250715E+02  0.17652984755E+02  0.43400731300E+02  0.00000000000E+00 0.  1.
         11    1    3    3    0    0  0.34562574369E+01  0.48590582082E+01 -0.20884773165E+01  0.63180614038E+01  0.51100000000E-03 0. -1.
        -11    1    3    3    0    0  0.29538447584E+02  0.94095164980E+01 -0.18884178464E+02  0.36299739433E+02  0.51100000000E-03 0.  1.
        -12    1    3    3    0    0  0.27802942401E+01  0.28236760087E+01  0.33196710252E+01  0.51694678623E+01  0.00000000000E+00 0.  1.
</event>
<event>
 7    1  0.1714203E-010  0.4778727E+02  0.7816164E-02  0.1312668E+00
        -11   -1    0    0    0    0  0.00000000000E+00  0.00000000000E+00  0.45593999997E+02  0.45594000000E+02  0.51100000000E-03 0.  1.
         11   -1    0    0    0    0 -0.00000000000E+00 -0.00000000000E+00 -0.45593999997E+02  0.45594000000E+02  0.51100000000E-03 0. -1.
    9900012    2    1    2    0    0  0.38441869942E+02  0.58594708941E+00 -0.20137095252E+02  0.47787270700E+02  0.19999998428E+02 0.  0.
        -12    1    1    2    0    0 -0.38441869942E+02 -0.58594708941E+00  0.20137095252E+02  0.43400729300E+02  0.00000000000E+00 0.  1.
         11    1    3    3    0    0  0.11225849946E+02 -0.79225279325E-01 -0.13384344161E+02  0.17469019794E+02  0.51100000000E-03 0. -1.
        -11    1    3    3    0    0  0.24141405574E+02  0.26703203264E+01 -0.91267465797E+01  0.25946783560E+02  0.51100000000E-03 0.  1.
        -12    1    3    3    0    0  0.30746144217E+01 -0.20051479576E+01  0.23739954890E+01  0.43714673459E+01  0.00000000000E+00 0.  1.
</event>
<event>
 7    1  0.1714203E-010  0.4778727E+02  0.7816164E-02  0.1312668E+00
        -11   -1    0    0    0    0  0.00000000000E+00  0.00000000000E+00  0.45593999997E+02  0.45594000000E+02  0.51100000000E-03 0.  1.
         11   -1    0    0    0    0 -0.00000000000E+00 -0.00000000000E+00 -0.45593999997E+02  0.45594000000E+02  0.51100000000E-03 0. -1.
    9900012    2    1    2    0    0  0.21464061032E+02  0.37387987515E+02 -0.50056168340E+01  0.47787265832E+02  0.19999976235E+02 0.  0.
        -12    1    1    2    0    0 -0.21464061032E+02 -0.37387987515E+02  0.50056168340E+01  0.43400734168E+02  0.00000000000E+00 0.  1.
         11    1    3    3    0    0  0.23904170749E+01  0.74704729496E+01 -0.53916014157E+01  0.95179528245E+01  0.51100000000E-03 0. -1.
        -11    1    3    3    0    0  0.98488616455E+01  0.25491135153E+02  0.35553250230E+01  0.27557909634E+02  0.51100000000E-03 0.  1.
        -12    1    3    3    0    0  0.92247823120E+01  0.44263794122E+01 -0.31693404413E+01  0.10711403374E+02  0.00000000000E+00 0.  1.
</event>
<event>
 7    1  0.1714203E-010  0.4778727E+02  0.7816164E-02  0.1312668E+00
        -11   -1    0    0    0    0  0.00000000000E+00  0.00000000000E+00  0.45593999997E+02  0.45594000000E+02  0.51100000000E-03 0. -1.
         11   -1    0    0    0    0 -0.00000000000E+00 -0.00000000000E+00 -0.45593999997E+02  0.45594000000E+02  0.51100000000E-03 0.  1.
    9900012    2    1    2    0    0  0.43385782354E+02 -0.10754937639E+01 -0.37484066952E+00  0.47787270711E+02  0.19999998479E+02 0.  0.
        -12    1    1    2    0    0 -0.43385782354E+02  0.10754937639E+01  0.37484066952E+00  0.43400729289E+02  0.00000000000E+00 0.  1.
         11    1    3    3    0    0  0.15632613169E+02  0.41076260832E+01  0.38314415998E+01  0.16611174899E+02  0.51100000000E-03 0.  1.
        -11    1    3    3    0    0  0.22661223485E+02 -0.70017161556E+01 -0.74622986098E+01  0.24864452131E+02  0.51100000000E-03 0. -1.
         12    1    3    3    0    0  0.50919457001E+01  0.18185963085E+01  0.32560163405E+01  0.63116436810E+01  0.00000000000E+00 0. -1.
</event>
<event>
 7    1  0.1714203E-010  0.4778727E+02  0.7816164E-02  0.1312668E+00
        -11   -1    0    0    0    0  0.00000000000E+00  0.00000000000E+00  0.45593999997E+02  0.45594000000E+02  0.51100000000E-03 0.  1.
         11   -1    0    0    0    0 -0.00000000000E+00 -0.00000000000E+00 -0.45593999997E+02  0.45594000000E+02  0.51100000000E-03 0. -1.
    9900012    2    1    2    0    0  0.28914667163E+02  0.54246032494E+00 -0.32361569306E+02  0.47787269496E+02  0.19999992940E+02 0.  0.
        -12    1    1    2    0    0 -0.28914667163E+02 -0.54246032494E+00  0.32361569306E+02  0.43400730504E+02  0.00000000000E+00 0.  1.
         11    1    3    3    0    0  0.19305060324E+02  0.60522256028E-01 -0.75248565906E+01  0.20719857240E+02  0.51100000000E-03 0. -1.
        -11    1    3    3    0    0  0.16706420614E+00 -0.65134794367E+00 -0.52610936259E+01  0.53038920610E+01  0.51100000000E-03 0.  1.
         12    1    3    3    0    0  0.94425426322E+01  0.11332860126E+01 -0.19575619089E+02  0.21763520195E+02  0.00000000000E+00 0. -1.
</event>
<event>
 7    1  0.1714203E-010  0.4778727E+02  0.7816164E-02  0.1312668E+00
        -11   -1    0    0    0    0  0.00000000000E+00  0.00000000000E+00  0.45593999997E+02  0.45594000000E+02  0.51100000000E-03 0.  1.
         11   -1    0    0    0    0 -0.00000000000E+00 -0.00000000000E+00 -0.45593999997E+02  0.45594000000E+02  0.51100000000E-03 0. -1.
    9900012    2    1    2    0    0  0.38027039159E+02  0.12895829033E+02 -0.16470129702E+02  0.47787270904E+02  0.19999999358E+02 0.  0.
        -12    1    1    2    0    0 -0.38027039159E+02 -0.12895829033E+02  0.16470129702E+02  0.43400729096E+02  0.00000000000E+00 0.  1.
         11    1    3    3    0    0 -0.86036439568E+00  0.89369284831E+00 -0.37149645470E+00  0.12949608787E+01  0.51100000000E-03 0. -1.
        -11    1    3    3    0    0  0.44537637011E+01 -0.34233868873E+01 -0.41873672574E+00  0.56330213556E+01  0.51100000000E-03 0.  1.
         12    1    3    3    0    0  0.34433639854E+02  0.15425523072E+02 -0.15679896522E+02  0.40859288669E+02  0.00000000000E+00 0. -1.
</event>
<event>
 7    1  0.1714203E-010  0.4778727E+02  0.7816164E-02  0.1312668E+00
        -11   -1    0    0    0    0  0.00000000000E+00  0.00000000000E+00  0.45593999997E+02  0.45594000000E+02  0.51100000000E-03 0.  1.
         11   -1    0    0    0    0 -0.00000000000E+00 -0.00000000000E+00 -0.45593999997E+02  0.45594000000E+02  0.51100000000E-03 0. -1.
    9900012    2    1    2    0    0  0.30115018357E+02  0.74267742397E+01 -0.30357074558E+02  0.47787270951E+02  0.19999999576E+02 0.  0.
        -12    1    1    2    0    0 -0.30115018357E+02 -0.74267742397E+01  0.30357074558E+02  0.43400729049E+02  0.00000000000E+00 0.  1.
         11    1    3    3    0    0  0.50660869833E+01  0.83954799625E+01 -0.12375022428E+02  0.15788936047E+02  0.51100000000E-03 0. -1.
        -11    1    3    3    0    0  0.41209776452E+01 -0.22574358753E+01 -0.55003385417E+00  0.47308573203E+01  0.51100000000E-03 0.  1.
         12    1    3    3    0    0  0.20927953729E+02  0.12887301524E+01 -0.17432018275E+02  0.27267477584E+02  0.00000000000E+00 0. -1.
</event>
<event>
 7    1  0.1714203E-010  0.4778726E+02  0.7816164E-02  0.1312668E+00
        -11   -1    0    0    0    0  0.00000000000E+00  0.00000000000E+00  0.45593999997E+02  0.45594000000E+02  0.51100000000E-03 0. -1.
         11   -1    0    0    0    0 -0.00000000000E+00 -0.00000000000E+00 -0.45593999997E+02  0.45594000000E+02  0.51100000000E-03 0.  1.
    9900012    2    1    2    0    0 -0.29559799954E+02  0.14282858954E+02  0.28387358230E+02  0.47787263364E+02  0.19999964984E+02 0.  0.
        -12    1    1    2    0    0  0.29559799954E+02 -0.14282858954E+02 -0.28387358230E+02  0.43400736636E+02  0.00000000000E+00 0.  1.
         11    1    3    3    0    0 -0.10524713742E+02  0.91198341010E+01  0.51711678440E+01  0.14855367734E+02  0.51100000000E-03 0. -1.
        -11    1    3    3    0    0 -0.80131074786E+01 -0.39620425384E+01  0.74115384814E+01  0.11612001355E+02  0.51100000000E-03 0.  1.
         12    1    3    3    0    0 -0.11021978734E+02  0.91250673914E+01  0.15804651905E+02  0.21319894276E+02  0.00000000000E+00 0. -1.
</event>
<event>
 7    1  0.1714203E-010  0.4778728E+02  0.7816164E-02  0.1312668E+00
        -11   -1    0    0    0    0  0.00000000000E+00  0.00000000000E+00  0.45593999997E+02  0.45594000000E+02  0.51100000000E-03 0.  1.
         11   -1    0    0    0    0 -0.00000000000E+00 -0.00000000000E+00 -0.45593999997E+02  0.45594000000E+02  0.51100000000E-03 0. -1.
    9900012    2    1    2    0    0 -0.16817212533E+02  0.68833441674E+01 -0.39413494707E+02  0.47787278470E+02  0.20000033854E+02 0.  0.
        -12    1    1    2    0    0  0.16817212533E+02 -0.68833441674E+01  0.39413494707E+02  0.43400721530E+02  0.00000000000E+00 0.  1.
         11    1    3    3    0    0 -0.47564366492E+01  0.16979972475E+01 -0.13061134838E+02  0.14003575536E+02  0.51100000000E-03 0. -1.
        -11    1    3    3    0    0 -0.49062751140E+01 -0.25048785678E+01 -0.10173481027E+00  0.55096553764E+01  0.51100000000E-03 0.  1.
        -12    1    3    3    0    0 -0.71545007699E+01  0.76902254877E+01 -0.26250625059E+02  0.28274047558E+02  0.00000000000E+00 0.  1.
</event>
<event>
 7    1  0.1714203E-010  0.4778727E+02  0.7816164E-02  0.1312668E+00
        -11   -1    0    0    0    0  0.00000000000E+00  0.00000000000E+00  0.45593999997E+02  0.45594000000E+02  0.51100000000E-03 0.  1.
         11   -1    0    0    0    0 -0.00000000000E+00 -0.00000000000E+00 -0.45593999997E+02  0.45594000000E+02  0.51100000000E-03 0. -1.
    9900012    2    1    2    0    0 -0.35910170407E+02 -0.61994692523E+01 -0.23572221314E+02  0.47787269875E+02  0.19999994669E+02 0.  0.
        -12    1    1    2    0    0  0.35910170407E+02  0.61994692523E+01  0.23572221314E+02  0.43400730125E+02  0.00000000000E+00 0.  1.
         11    1    3    3    0    0 -0.35825808768E+02 -0.84124663133E+01 -0.19640845442E+02  0.41713558627E+02  0.51100000000E-03 0. -1.
        -11    1    3    3    0    0 -0.10272789309E+01  0.30371090778E+01 -0.20226313699E+01  0.37908272807E+01  0.51100000000E-03 0.  1.
         12    1    3    3    0    0  0.94291729188E+00 -0.82411201682E+00 -0.19087445021E+01  0.22828839677E+01  0.00000000000E+00 0. -1.
</event>
<event>
 7    1  0.1714203E-010  0.4778728E+02  0.7816164E-02  0.1312668E+00
        -11   -1    0    0    0    0  0.00000000000E+00  0.00000000000E+00  0.45593999997E+02  0.45594000000E+02  0.51100000000E-03 0. -1.
         11   -1    0    0    0    0 -0.00000000000E+00 -0.00000000000E+00 -0.45593999997E+02  0.45594000000E+02  0.51100000000E-03 0.  1.
    9900012    2    1    2    0    0  0.71634533975E+01  0.37263818114E+02  0.21064543061E+02  0.47787283653E+02  0.20000057488E+02 0.  0.
        -12    1    1    2    0    0 -0.71634533975E+01 -0.37263818114E+02 -0.21064543061E+02  0.43400716347E+02  0.00000000000E+00 0.  1.
         11    1    3    3    0    0 -0.29072457198E+01  0.12665525586E+02  0.35393447870E+01  0.13468280433E+02  0.51100000000E-03 0. -1.
        -11    1    3    3    0    0  0.34780146193E+00  0.97322517550E+01  0.55805924414E+00  0.97544410635E+01  0.51100000000E-03 0.  1.
        -12    1    3    3    0    0  0.97228976553E+01  0.14866040774E+02  0.16967139030E+02  0.24564562157E+02  0.00000000000E+00 0.  1.
</event>
<event>
 7    1  0.1714203E-010  0.4778727E+02  0.7816164E-02  0.1312668E+00
        -11   -1    0    0    0    0  0.00000000000E+00  0.00000000000E+00  0.45593999997E+02  0.45594000000E+02  0.51100000000E-03 0.  1.
         11   -1    0    0    0    0 -0.00000000000E+00 -0.00000000000E+00 -0.45593999997E+02  0.45594000000E+02  0.51100000000E-03 0. -1.
    9900012    2    1    2    0    0  0.27301084276E+02  0.71598905889E+01 -0.32969830763E+02  0.47787274471E+02  0.20000015625E+02 0.  0.
        -12    1    1    2    0    0 -0.27301084276E+02 -0.71598905889E+01  0.32969830763E+02  0.43400725529E+02  0.00000000000E+00 0.  1.
         11    1    3    3    0    0  0.98875275595E+01  0.38876869752E+01 -0.10779439509E+02  0.15135178481E+02  0.51100000000E-03 0. -1.
        -11    1    3    3    0    0  0.56574209039E+01  0.91824704674E+01 -0.95405998702E+01  0.14399556289E+02  0.51100000000E-03 0.  1.
        -12    1    3    3    0    0  0.11756135812E+02 -0.59102668537E+01 -0.12649791384E+02  0.18252539702E+02  0.00000000000E+00 0.  1.
</event>
<event>
 7    1  0.1714203E-010  0.4778727E+02  0.7816164E-02  0.1312668E+00
        -11   -1    0    0    0    0  0.00000000000E+00  0.00000000000E+00  0.45593999997E+02  0.45594000000E+02  0.51100000000E-03 0.  1.
         11   -1    0    0    0    0 -0.00000000000E+00 -0.00000000000E+00 -0.45593999997E+02  0.45594000000E+02  0.51100000000E-03 0. -1.
    9900012    2    1    2    0    0 -0.21113245704E+01 -0.26552388377E+02 -0.34265669429E+02  0.47787272802E+02  0.20000008012E+02 0.  0.
        -12    1    1    2    0    0  0.21113245704E+01  0.26552388377E+02  0.34265669429E+02  0.43400727198E+02  0.00000000000E+00 0.  1.
         11    1    3    3    0    0  0.13139005204E+01 -0.92471784076E+01 -0.18835815088E+02  0.21024380451E+02  0.51100000000E-03 0. -1.
        -11    1    3    3    0    0 -0.70789351874E+01 -0.45539401330E+01 -0.77153770660E+01  0.11418263338E+02  0.51100000000E-03 0.  1.
        -12    1    3    3    0    0  0.36537100966E+01 -0.12751269836E+02 -0.77144772751E+01  0.15344629013E+02  0.00000000000E+00 0.  1.
</event>
<event>
 7    1  0.1714203E-010  0.4778727E+02  0.7816164E-02  0.1312668E+00
        -11   -1    0    0    0    0  0.00000000000E+00  0.00000000000E+00  0.45593999997E+02  0.45594000000E+02  0.51100000000E-03 0. -1.
         11   -1    0    0    0    0 -0.00000000000E+00 -0.00000000000E+00 -0.45593999997E+02  0.45594000000E+02  0.51100000000E-03 0.  1.
    9900012    2    1    2    0    0  0.33964373905E+02  0.15694905609E+02 -0.21993511320E+02  0.47787270778E+02  0.19999998784E+02 0.  0.
        -12    1    1    2    0    0 -0.33964373905E+02 -0.15694905609E+02  0.21993511320E+02  0.43400729222E+02  0.00000000000E+00 0.  1.
         11    1    3    3    0    0  0.25979099900E+02  0.46459164809E+01 -0.81136116030E+01  0.27610303604E+02  0.51100000000E-03 0. -1.
        -11    1    3    3    0    0  0.47836933170E+01  0.22653310193E+01 -0.51969469948E+01  0.74177964859E+01  0.51100000000E-03 0.  1.
        -12    1    3    3    0    0  0.32015806875E+01  0.87836581089E+01 -0.86829527225E+01  0.12759170688E+02  0.00000000000E+00 0.  1.
</event>
<event>
 7    1  0.1714203E-010  0.4778727E+02  0.7816164E-02  0.1312668E+00
        -11   -1    0    0    0    0  0.00000000000E+00  0.00000000000E+00  0.45593999997E+02  0.45594000000E+02  0.51100000000E-03 0. -1.
         11   -1    0    0    0    0 -0.00000000000E+00 -0.00000000000E+00 -0.45593999997E+02  0.45594000000E+02  0.51100000000E-03 0.  1.
    9900012    2    1    2    0    0  0.18035058244E+02 -0.23337583059E+01  0.39407023950E+02  0.47787270855E+02  0.19999999136E+02 0.  0.
        -12    1    1    2    0    0 -0.18035058244E+02  0.23337583059E+01 -0.39407023950E+02  0.43400729145E+02  0.00000000000E+00 0.  1.
         11    1    3    3    0    0 -0.83745752431E+00  0.15210241236E+00 -0.98671098949E-01  0.85685850393E+00  0.51100000000E-03 0. -1.
        -11    1    3    3    0    0  0.34417556098E+01 -0.80441643672E+01  0.16507568366E+02  0.18682988938E+02  0.51100000000E-03 0.  1.
         12    1    3    3    0    0  0.15430760159E+02  0.55583036490E+01  0.22998126683E+02  0.28247423413E+02  0.00000000000E+00 0. -1.
</event>
<event>
 7    1  0.1714203E-010  0.4778727E+02  0.7816164E-02  0.1312668E+00
        -11   -1    0    0    0    0  0.00000000000E+00  0.00000000000E+00  0.45593999997E+02  0.45594000000E+02  0.51100000000E-03 0.  1.
         11   -1    0    0    0    0 -0.00000000000E+00 -0.00000000000E+00 -0.45593999997E+02  0.45594000000E+02  0.51100000000E-03 0. -1.
    9900012    2    1    2    0    0  0.91253340567E+01 -0.47897024531E+01 -0.42159340535E+02  0.47787274596E+02  0.20000016193E+02 0.  0.
        -12    1    1    2    0    0 -0.91253340567E+01  0.47897024531E+01  0.42159340535E+02  0.43400725404E+02  0.00000000000E+00 0.  1.
         11    1    3    3    0    0  0.23920515846E+01 -0.18642763609E+01 -0.22303405618E+02  0.22508650327E+02  0.51100000000E-03 0. -1.
        -11    1    3    3    0    0  0.47118865331E+01 -0.13467803043E+01 -0.21618239196E+02  0.22166730884E+02  0.51100000000E-03 0.  1.
        -12    1    3    3    0    0  0.20213959391E+01 -0.15786457879E+01  0.17623042788E+01  0.31118933847E+01  0.00000000000E+00 0.  1.
</event>
<event>
 7    1  0.1714203E-010  0.4778726E+02  0.7816164E-02  0.1312668E+00
        -11   -1    0    0    0    0  0.00000000000E+00  0.00000000000E+00  0.45593999997E+02  0.45594000000E+02  0.51100000000E-03 0.  1.
         11   -1    0    0    0    0 -0.00000000000E+00 -0.00000000000E+00 -0.45593999997E+02  0.45594000000E+02  0.51100000000E-03 0. -1.
    9900012    2    1    2    0    0 -0.33642497351E+02 -0.27408792283E+02  0.75123015403E+00  0.47787264186E+02  0.19999968730E+02 0.  0.
        -12    1    1    2    0    0  0.33642497351E+02  0.27408792283E+02 -0.75123015403E+00  0.43400735814E+02  0.00000000000E+00 0.  1.
         11    1    3    3    0    0 -0.20598024474E+02 -0.12605650383E+02  0.13738493481E+00  0.24149532266E+02  0.51100000000E-03 0. -1.
        -11    1    3    3    0    0 -0.60223362172E+01 -0.11961361327E+02 -0.49085728389E+01  0.14263126792E+02  0.51100000000E-03 0.  1.
         12    1    3    3    0    0 -0.70221366600E+01 -0.28417805736E+01  0.55224180581E+01  0.93746051282E+01  0.00000000000E+00 0. -1.
</event>
<event>
 7    1  0.1714203E-010  0.4778727E+02  0.7816164E-02  0.1312668E+00
        -11   -1    0    0    0    0  0.00000000000E+00  0.00000000000E+00  0.45593999997E+02  0.45594000000E+02  0.51100000000E-03 0.  1.
         11   -1    0    0    0    0 -0.00000000000E+00 -0.00000000000E+00 -0.45593999997E+02  0.45594000000E+02  0.51100000000E-03 0. -1.
    9900012    2    1    2    0    0 -0.11293946934E+02  0.29407665508E+02 -0.29853963842E+02  0.47787272068E+02  0.20000004665E+02 0.  0.
        -12    1    1    2    0    0  0.11293946934E+02 -0.29407665508E+02  0.29853963842E+02  0.43400727932E+02  0.00000000000E+00 0.  1.
         11    1    3    3    0    0  0.16070546431E+01  0.15568818209E+02 -0.89792188353E+01  0.18044309247E+02  0.51100000000E-03 0. -1.
        -11    1    3    3    0    0 -0.20305561431E+01 -0.13078532149E+01 -0.35402060400E+01  0.42856384995E+01  0.51100000000E-03 0.  1.
        -12    1    3    3    0    0 -0.10870445434E+02  0.15146700514E+02 -0.17334538966E+02  0.25457324321E+02  0.00000000000E+00 0.  1.
</event>
<event>
 7    1  0.1714203E-010  0.4778727E+02  0.7816164E-02  0.1312668E+00
        -11   -1    0    0    0    0  0.00000000000E+00  0.00000000000E+00  0.45593999997E+02  0.45594000000E+02  0.51100000000E-03 0.  1.
         11   -1    0    0    0    0 -0.00000000000E+00 -0.00000000000E+00 -0.45593999997E+02  0.45594000000E+02  0.51100000000E-03 0. -1.
    9900012    2    1    2    0    0 -0.22016606132E+02  0.32733299095E+02 -0.18094847068E+02  0.47787270679E+02  0.19999998334E+02 0.  0.
        -12    1    1    2    0    0  0.22016606132E+02 -0.32733299095E+02  0.18094847068E+02  0.43400729321E+02  0.00000000000E+00 0.  1.
         11    1    3    3    0    0 -0.42805926315E+01  0.15982563486E+02 -0.15796839550E+02  0.22875881380E+02  0.51100000000E-03 0. -1.
        -11    1    3    3    0    0 -0.94110685078E+01  0.83425334621E+01 -0.34000537788E+01  0.13027910077E+02  0.51100000000E-03 0.  1.
        -12    1    3    3    0    0 -0.83249449923E+01  0.84082021465E+01  0.11020462610E+01  0.11883479222E+02  0.00000000000E+00 0.  1.
</event>
<event>
 7    1  0.1714203E-010  0.4778727E+02  0.7816164E-02  0.1312668E+00
        -11   -1    0    0    0    0  0.00000000000E+00  0.00000000000E+00  0.45593999997E+02  0.45594000000E+02  0.51100000000E-03 0. -1.
         11   -1    0    0    0    0 -0.00000000000E+00 -0.00000000000E+00 -0.45593999997E+02  0.45594000000E+02  0.51100000000E-03 0.  1.
    9900012    2    1    2    0    0 -0.34450117861E+02  0.19165289471E+01  0.26327546166E+02  0.47787269696E+02  0.19999993851E+02 0.  0.
        -12    1    1    2    0    0  0.34450117861E+02 -0.19165289471E+01 -0.26327546166E+02  0.43400730304E+02  0.00000000000E+00 0.  1.
         11    1    3    3    0    0 -0.79745839505E+00 -0.15409042758E+01  0.71164992503E+01  0.73249496735E+01  0.51100000000E-03 0. -1.
        -11    1    3    3    0    0 -0.16701838894E+02  0.44078876867E+01  0.15219329350E+02  0.23021921780E+02  0.51100000000E-03 0.  1.
        -12    1    3    3    0    0 -0.16950820571E+02 -0.95045446380E+00  0.39917175655E+01  0.17440398242E+02  0.00000000000E+00 0.  1.
</event>
<event>
 7    1  0.1714203E-010  0.4778727E+02  0.7816164E-02  0.1312668E+00
        -11   -1    0    0    0    0  0.00000000000E+00  0.00000000000E+00  0.45593999997E+02  0.45594000000E+02  0.51100000000E-03 0.  1.
         11   -1    0    0    0    0 -0.00000000000E+00 -0.00000000000E+00 -0.45593999997E+02  0.45594000000E+02  0.51100000000E-03 0. -1.
    9900012    2    1    2    0    0 -0.27424472247E+02  0.43497841973E+01 -0.33355672469E+02  0.47787272051E+02  0.20000004591E+02 0.  0.
        -12    1    1    2    0    0  0.27424472247E+02 -0.43497841973E+01  0.33355672469E+02  0.43400727949E+02  0.00000000000E+00 0.  1.
         11    1    3    3    0    0 -0.92537308199E+01 -0.89262784285E+00 -0.93342777156E+01  0.13174105635E+02  0.51100000000E-03 0. -1.
        -11    1    3    3    0    0  0.27465616533E+01  0.19083928010E+01 -0.56935339077E+01  0.66031729204E+01  0.51100000000E-03 0.  1.
         12    1    3    3    0    0 -0.20917303081E+02  0.33340192391E+01 -0.18327860846E+02  0.28009993496E+02  0.00000000000E+00 0. -1.
</event>
<event>
 7    1  0.1714203E-010  0.4778727E+02  0.7816164E-02  0.1312668E+00
        -11   -1    0    0    0    0  0.00000000000E+00  0.00000000000E+00  0.45593999997E+02  0.45594000000E+02  0.51100000000E-03 0.  1.
         11   -1    0    0    0    0 -0.00000000000E+00 -0.00000000000E+00 -0.45593999997E+02  0.45594000000E+02  0.51100000000E-03 0. -1.
    9900012    2    1    2    0    0  0.12312282751E+02 -0.37809174392E+02 -0.17392451056E+02  0.47787270416E+02  0.19999997133E+02 0.  0.
        -12    1    1    2    0    0 -0.12312282751E+02  0.37809174392E+02  0.17392451056E+02  0.43400729584E+02  0.00000000000E+00 0.  1.
         11    1    3    3    0    0 -0.21058654360E+00 -0.96622767537E+01 -0.55353348697E+01  0.11137498424E+02  0.51100000000E-03 0. -1.
        -11    1    3    3    0    0  0.16031280963E+02 -0.21947234374E+02 -0.11516756150E+02  0.29518108653E+02  0.51100000000E-03 0.  1.
        -12    1    3    3    0    0 -0.35084116687E+01 -0.61996632637E+01 -0.34036003683E+00  0.71316633386E+01  0.00000000000E+00 0.  1.
</event>
<event>
 7    1  0.1714203E-010  0.4778727E+02  0.7816164E-02  0.1312668E+00
        -11   -1    0    0    0    0  0.00000000000E+00  0.00000000000E+00  0.45593999997E+02  0.45594000000E+02  0.51100000000E-03 0.  1.
         11   -1    0    0    0    0 -0.00000000000E+00 -0.00000000000E+00 -0.45593999997E+02  0.45594000000E+02  0.51100000000E-03 0. -1.
    9900012    2    1    2    0    0  0.18470956559E+01 -0.30987601345E+02 -0.30331170037E+02  0.47787273332E+02  0.20000010432E+02 0.  0.
        -12    1    1    2    0    0 -0.18470956559E+01  0.30987601345E+02  0.30331170037E+02  0.43400726668E+02  0.00000000000E+00 0.  1.
         11    1    3    3    0    0  0.45931810279E+01 -0.10697161631E+02 -0.21689823410E+02  0.24616559847E+02  0.51100000000E-03 0. -1.
        -11    1    3    3    0    0 -0.37174798346E+01 -0.52813332843E+01 -0.26181786609E+01  0.69690026074E+01  0.51100000000E-03 0.  1.
        -12    1    3    3    0    0  0.97139446266E+00 -0.15009106429E+02 -0.60231679663E+01  0.16201710878E+02  0.00000000000E+00 0.  1.
</event>
<event>
 7    1  0.1714203E-010  0.4778727E+02  0.7816164E-02  0.1312668E+00
        -11   -1    0    0    0    0  0.00000000000E+00  0.00000000000E+00  0.45593999997E+02  0.45594000000E+02  0.51100000000E-03 0.  1.
         11   -1    0    0    0    0 -0.00000000000E+00 -0.00000000000E+00 -0.45593999997E+02  0.45594000000E+02  0.51100000000E-03 0. -1.
    9900012    2    1    2    0    0  0.15560193188E+02 -0.35808827562E+02 -0.18953414740E+02  0.47787266438E+02  0.19999978998E+02 0.  0.
        -12    1    1    2    0    0 -0.15560193188E+02  0.35808827562E+02  0.18953414740E+02  0.43400733562E+02  0.00000000000E+00 0.  1.
         11    1    3    3    0    0  0.32496029285E+01 -0.87815711006E+01 -0.13166330842E+02  0.16156366494E+02  0.51100000000E-03 0. -1.
        -11    1    3    3    0    0  0.91191643815E+01 -0.98418026157E+01 -0.42959826814E+01  0.14088140587E+02  0.51100000000E-03 0.  1.
        -12    1    3    3    0    0  0.31914258779E+01 -0.17185453845E+02 -0.14911012167E+01  0.17542759357E+02  0.00000000000E+00 0.  1.
</event>
<event>
 7    1  0.1714203E-010  0.4778725E+02  0.7816164E-02  0.1312668E+00
        -11   -1    0    0    0    0  0.00000000000E+00  0.00000000000E+00  0.45593999997E+02  0.45594000000E+02  0.51100000000E-03 0.  1.
         11   -1    0    0    0    0 -0.00000000000E+00 -0.00000000000E+00 -0.45593999997E+02  0.45594000000E+02  0.51100000000E-03 0. -1.
    9900012    2    1    2    0    0 -0.23974746982E+02  0.35344550077E+02 -0.77200447181E+01  0.47787253423E+02  0.19999919658E+02 0.  0.
        -12    1    1    2    0    0  0.23974746982E+02 -0.35344550077E+02  0.77200447181E+01  0.43400746577E+02  0.00000000000E+00 0.  1.
         11    1    3    3    0    0 -0.72258007187E+00  0.31021978435E+01 -0.55454047350E+01  0.63950971342E+01  0.51100000000E-03 0. -1.
        -11    1    3    3    0    0 -0.84098718166E+01  0.95275995900E+01  0.44434346572E+01  0.13462734111E+02  0.51100000000E-03 0.  1.
         12    1    3    3    0    0 -0.14842295093E+02  0.22714752643E+02 -0.66180746404E+01  0.27929422178E+02  0.00000000000E+00 0. -1.
</event>
<event>
 7    1  0.1714203E-010  0.4778731E+02  0.7816164E-02  0.1312668E+00
        -11   -1    0    0    0    0  0.00000000000E+00  0.00000000000E+00  0.45593999997E+02  0.45594000000E+02  0.51100000000E-03 0.  1.
         11   -1    0    0    0    0 -0.00000000000E+00 -0.00000000000E+00 -0.45593999997E+02  0.45594000000E+02  0.51100000000E-03 0. -1.
    9900012    2    1    2    0    0 -0.38793781995E+02  0.13240999698E+02 -0.14259679567E+02  0.47787308118E+02  0.20000169035E+02 0.  0.
        -12    1    1    2    0    0  0.38793781995E+02 -0.13240999698E+02  0.14259679567E+02  0.43400691882E+02  0.00000000000E+00 0.  1.
         11    1    3    3    0    0 -0.93298081571E+01  0.46246508125E+01 -0.18407886560E+01  0.10574555240E+02  0.51100000000E-03 0. -1.
        -11    1    3    3    0    0 -0.24184260841E+02  0.28392830683E+01 -0.23550224786E+01  0.24463976208E+02  0.51100000000E-03 0.  1.
         12    1    3    3    0    0 -0.52797129969E+01  0.57770658169E+01 -0.10063868432E+02  0.12748776671E+02  0.00000000000E+00 0. -1.
</event>
<event>
 7    1  0.1714203E-010  0.4778727E+02  0.7816164E-02  0.1312668E+00
        -11   -1    0    0    0    0  0.00000000000E+00  0.00000000000E+00  0.45593999997E+02  0.45594000000E+02  0.51100000000E-03 0.  1.
         11   -1    0    0    0    0 -0.00000000000E+00 -0.00000000000E+00 -0.45593999997E+02  0.45594000000E+02  0.51100000000E-03 0. -1.
    9900012    2    1    2    0    0 -0.13114265382E+02  0.37132280669E+02 -0.18243711459E+02  0.47787271527E+02  0.20000002201E+02 0.  0.
        -12    1    1    2    0    0  0.13114265382E+02 -0.37132280669E+02  0.18243711459E+02  0.43400728473E+02  0.00000000000E+00 0.  1.
         11    1    3    3    0    0 -0.34953863364E+01  0.15316861161E+02 -0.41705235992E+01  0.16254760189E+02  0.51100000000E-03 0. -1.
        -11    1    3    3    0    0 -0.86790904103E+01  0.74443650565E+01 -0.12663507007E+02  0.17061933988E+02  0.51100000000E-03 0.  1.
        -12    1    3    3    0    0 -0.93978863575E+00  0.14371054451E+02 -0.14096808530E+01  0.14470577350E+02  0.00000000000E+00 0.  1.
</event>
<event>
 7    1  0.1714203E-010  0.4778727E+02  0.7816164E-02  0.1312668E+00
        -11   -1    0    0    0    0  0.00000000000E+00  0.00000000000E+00  0.45593999997E+02  0.45594000000E+02  0.51100000000E-03 0. -1.
         11   -1    0    0    0    0 -0.00000000000E+00 -0.00000000000E+00 -0.45593999997E+02  0.45594000000E+02  0.51100000000E-03 0.  1.
    9900012    2    1    2    0    0  0.29271180476E+02  0.10451833153E+01  0.32027007018E+02  0.47787267366E+02  0.19999983229E+02 0.  0.
        -12    1    1    2    0    0 -0.29271180476E+02 -0.10451833153E+01 -0.32027007018E+02  0.43400732634E+02  0.00000000000E+00 0.  1.
         11    1    3    3    0    0  0.13011433793E+02 -0.29492285034E+01  0.17302449116E+02  0.21848800969E+02  0.51100000000E-03 0. -1.
        -11    1    3    3    0    0  0.17700479078E+02  0.59131871255E+01  0.11506180035E+02  0.21924071721E+02  0.51100000000E-03 0.  1.
        -12    1    3    3    0    0 -0.14407323957E+01 -0.19187753069E+01  0.32183778680E+01  0.40143946761E+01  0.00000000000E+00 0.  1.
</event>
<event>
 7    1  0.1714203E-010  0.4778729E+02  0.7816164E-02  0.1312668E+00
        -11   -1    0    0    0    0  0.00000000000E+00  0.00000000000E+00  0.45593999997E+02  0.45594000000E+02  0.51100000000E-03 0.  1.
         11   -1    0    0    0    0 -0.00000000000E+00 -0.00000000000E+00 -0.45593999997E+02  0.45594000000E+02  0.51100000000E-03 0. -1.
    9900012    2    1    2    0    0  0.44725948924E+01  0.32638211402E+01 -0.43046075690E+02  0.47787294178E+02  0.20000105476E+02 0.  0.
        -12    1    1    2    0    0 -0.44725948924E+01 -0.32638211402E+01  0.43046075690E+02  0.43400705822E+02  0.00000000000E+00 0.  1.
         11    1    3    3    0    0  0.60634434180E+01  0.99979994279E+01 -0.30050141836E+02  0.32244943220E+02  0.51100000000E-03 0. -1.
        -11    1    3    3    0    0  0.15248473106E+01 -0.29169546665E+01 -0.73204284281E+01  0.80263601015E+01  0.51100000000E-03 0.  1.
         12    1    3    3    0    0 -0.31156958361E+01 -0.38172236212E+01 -0.56755054257E+01  0.75159908565E+01  0.00000000000E+00 0. -1.
</event>
<event>
 7    1  0.1714203E-010  0.4778727E+02  0.7816164E-02  0.1312668E+00
        -11   -1    0    0    0    0  0.00000000000E+00  0.00000000000E+00  0.45593999997E+02  0.45594000000E+02  0.51100000000E-03 0. -1.
         11   -1    0    0    0    0 -0.00000000000E+00 -0.00000000000E+00 -0.45593999997E+02  0.45594000000E+02  0.51100000000E-03 0.  1.
    9900012    2    1    2    0    0  0.24464563628E+02 -0.79120980130E+00  0.35839679323E+02  0.47787268434E+02  0.19999988099E+02 0.  0.
        -12    1    1    2    0    0 -0.24464563628E+02  0.79120980130E+00 -0.35839679323E+02  0.43400731566E+02  0.00000000000E+00 0.  1.
         11    1    3    3    0    0  0.10333596587E+02 -0.30209136000E+01  0.12383156319E+02  0.16408890824E+02  0.51100000000E-03 0. -1.
        -11    1    3    3    0    0  0.42844870876E+01  0.23675615697E+01  0.20529635172E+02  0.21105167565E+02  0.51100000000E-03 0.  1.
        -12    1    3    3    0    0  0.98464799540E+01 -0.13785777101E+00  0.29268878319E+01  0.10273210045E+02  0.00000000000E+00 0.  1.
</event>
<event>
 7    1  0.1714203E-010  0.4778728E+02  0.7816164E-02  0.1312668E+00
        -11   -1    0    0    0    0  0.00000000000E+00  0.00000000000E+00  0.45593999997E+02  0.45594000000E+02  0.51100000000E-03 0.  1.
         11   -1    0    0    0    0 -0.00000000000E+00 -0.00000000000E+00 -0.45593999997E+02  0.45594000000E+02  0.51100000000E-03 0. -1.
    9900012    2    1    2    0    0 -0.35387722995E+02 -0.16083398871E+02 -0.19304291229E+02  0.47787282058E+02  0.20000050216E+02 0.  0.
        -12    1    1    2    0    0  0.35387722995E+02  0.16083398871E+02  0.19304291229E+02  0.43400717942E+02  0.00000000000E+00 0.  1.
         11    1    3    3    0    0 -0.12120949744E+02 -0.99836301724E+01 -0.16011514075E+02  0.22426744689E+02  0.51100000000E-03 0. -1.
        -11    1    3    3    0    0 -0.16970882971E+02 -0.61902152772E+01 -0.51704785017E+01  0.18789983560E+02  0.51100000000E-03 0.  1.
        -12    1    3    3    0    0 -0.62958902807E+01  0.90446578273E-01  0.18777013479E+01  0.65705538094E+01  0.00000000000E+00 0.  1.
</event>
<event>
 7    1  0.1714203E-010  0.4778726E+02  0.7816164E-02  0.1312668E+00
        -11   -1    0    0    0    0  0.00000000000E+00  0.00000000000E+00  0.45593999997E+02  0.45594000000E+02  0.51100000000E-03 0. -1.
         11   -1    0    0    0    0 -0.00000000000E+00 -0.00000000000E+00 -0.45593999997E+02  0.45594000000E+02  0.51100000000E-03 0.  1.
    9900012    2    1    2    0    0 -0.29505994065E+02 -0.14257053721E+02  0.28456232626E+02  0.47787257589E+02  0.19999938651E+02 0.  0.
        -12    1    1    2    0    0  0.29505994065E+02  0.14257053721E+02 -0.28456232626E+02  0.43400742411E+02  0.00000000000E+00 0.  1.
         11    1    3    3    0    0 -0.11718368741E+01  0.36893099930E+01  0.33872995402E+01  0.51437348611E+01  0.51100000000E-03 0.  1.
        -11    1    3    3    0    0 -0.18399403711E+02 -0.70136985696E+01  0.15248746180E+02  0.24904904835E+02  0.51100000000E-03 0. -1.
        -12    1    3    3    0    0 -0.99347534799E+01 -0.10932665145E+02  0.98201869063E+01  0.17738617893E+02  0.00000000000E+00 0.  1.
</event>
<event>
 7    1  0.1714203E-010  0.4778728E+02  0.7816164E-02  0.1312668E+00
        -11   -1    0    0    0    0  0.00000000000E+00  0.00000000000E+00  0.45593999997E+02  0.45594000000E+02  0.51100000000E-03 0.  1.
         11   -1    0    0    0    0 -0.00000000000E+00 -0.00000000000E+00 -0.45593999997E+02  0.45594000000E+02  0.51100000000E-03 0. -1.
    9900012    2    1    2    0    0 -0.75912835282E+00  0.40713710228E+02 -0.15014666431E+02  0.47787277835E+02  0.20000030960E+02 0.  0.
        -12    1    1    2    0    0  0.75912835282E+00 -0.40713710228E+02  0.15014666431E+02  0.43400722165E+02  0.00000000000E+00 0.  1.
         11    1    3    3    0    0 -0.43533002323E+01  0.32199539433E+02 -0.18320151345E+02  0.37301333866E+02  0.51100000000E-03 0. -1.
        -11    1    3    3    0    0  0.86246548934E+00  0.62528038735E+01  0.14206603485E+01  0.64699056475E+01  0.51100000000E-03 0.  1.
        -12    1    3    3    0    0  0.27317063901E+01  0.22613669216E+01  0.18848245652E+01  0.40160383212E+01  0.00000000000E+00 0.  1.
</event>
<event>
 7    1  0.1714203E-010  0.4778728E+02  0.7816164E-02  0.1312668E+00
        -11   -1    0    0    0    0  0.00000000000E+00  0.00000000000E+00  0.45593999997E+02  0.45594000000E+02  0.51100000000E-03 0.  1.
         11   -1    0    0    0    0 -0.00000000000E+00 -0.00000000000E+00 -0.45593999997E+02  0.45594000000E+02  0.51100000000E-03 0. -1.
    9900012    2    1    2    0    0 -0.42256837962E+02  0.97772413839E+01  0.15453105861E+01  0.47787276637E+02  0.20000025497E+02 0.  0.
        -12    1    1    2    0    0  0.42256837962E+02 -0.97772413839E+01 -0.15453105861E+01  0.43400723363E+02  0.00000000000E+00 0.  1.
         11    1    3    3    0    0 -0.21371956000E+02  0.88260042460E+01  0.11413694807E+01  0.23150844019E+02  0.51100000000E-03 0. -1.
        -11    1    3    3    0    0 -0.24901964181E+01  0.16199069822E+01  0.48617157885E+01  0.56974957219E+01  0.51100000000E-03 0.  1.
         12    1    3    3    0    0 -0.18394685544E+02 -0.66866984431E+00 -0.44577746830E+01  0.18938936896E+02  0.00000000000E+00 0. -1.
</event>
<event>
 7    1  0.1714203E-010  0.4778728E+02  0.7816164E-02  0.1312668E+00
        -11   -1    0    0    0    0  0.00000000000E+00  0.00000000000E+00  0.45593999997E+02  0.45594000000E+02  0.51100000000E-03 0.  1.
         11   -1    0    0    0    0 -0.00000000000E+00 -0.00000000000E+00 -0.45593999997E+02  0.45594000000E+02  0.51100000000E-03 0. -1.
    9900012    2    1    2    0    0  0.25332032821E+00 -0.11600386920E+02 -0.41820919192E+02  0.47787280767E+02  0.20000044329E+02 0.  0.
        -12    1    1    2    0    0 -0.25332032821E+00  0.11600386920E+02  0.41820919192E+02  0.43400719233E+02  0.00000000000E+00 0.  1.
         11    1    3    3    0    0  0.44210629387E+01 -0.21116934056E+01 -0.16427967265E+02  0.17143020600E+02  0.51100000000E-03 0. -1.
        -11    1    3    3    0    0 -0.77340572346E+01 -0.65216971007E+01 -0.23588698956E+02  0.25666610471E+02  0.51100000000E-03 0.  1.
        -12    1    3    3    0    0  0.35663146241E+01 -0.29669964135E+01 -0.18042529706E+01  0.49776496962E+01  0.00000000000E+00 0.  1.
</event>
<event>
 7    1  0.1714203E-010  0.4778727E+02  0.7816164E-02  0.1312668E+00
        -11   -1    0    0    0    0  0.00000000000E+00  0.00000000000E+00  0.45593999997E+02  0.45594000000E+02  0.51100000000E-03 0.  1.
         11   -1    0    0    0    0 -0.00000000000E+00 -0.00000000000E+00 -0.45593999997E+02  0.45594000000E+02  0.51100000000E-03 0. -1.
    9900012    2    1    2    0    0 -0.14707985149E+02 -0.37638581590E+02 -0.15831477472E+02  0.47787270395E+02  0.19999997039E+02 0.  0.
        -12    1    1    2    0    0  0.14707985149E+02  0.37638581590E+02  0.15831477472E+02  0.43400729605E+02  0.00000000000E+00 0.  1.
         11    1    3    3    0    0  0.19801026342E+01 -0.11450954089E+02 -0.10233521423E+02  0.15484512165E+02  0.51100000000E-03 0. -1.
        -11    1    3    3    0    0 -0.95012347483E+01 -0.16969631479E+02 -0.66813499685E+01  0.20564102021E+02  0.51100000000E-03 0.  1.
        -12    1    3    3    0    0 -0.71868530353E+01 -0.92179960216E+01  0.10833939192E+01  0.11738656209E+02  0.00000000000E+00 0.  1.
</event>
<event>
 7    1  0.1714203E-010  0.4778727E+02  0.7816164E-02  0.1312668E+00
        -11   -1    0    0    0    0  0.00000000000E+00  0.00000000000E+00  0.45593999997E+02  0.45594000000E+02  0.51100000000E-03 0.  1.
         11   -1    0    0    0    0 -0.00000000000E+00 -0.00000000000E+00 -0.45593999997E+02  0.45594000000E+02  0.51100000000E-03 0. -1.
    9900012    2    1    2    0    0  0.19142288180E+01  0.20907644451E+01 -0.43308053551E+02  0.47787273389E+02  0.20000010691E+02 0.  0.
        -12    1    1    2    0    0 -0.19142288180E+01 -0.20907644451E+01  0.43308053551E+02  0.43400726611E+02  0.00000000000E+00 0.  1.
         11    1    3    3    0    0  0.37546713210E+01  0.22775703804E+01 -0.90963039744E+01  0.10100872726E+02  0.51100000000E-03 0. -1.
        -11    1    3    3    0    0 -0.60910674976E+01 -0.92995209533E+00 -0.44181784582E+01  0.75819664540E+01  0.51100000000E-03 0.  1.
        -12    1    3    3    0    0  0.42506249946E+01  0.74314616000E+00 -0.29793571119E+02  0.30104434209E+02  0.00000000000E+00 0.  1.
</event>
<event>
 7    1  0.1714203E-010  0.4778725E+02  0.7816164E-02  0.1312668E+00
        -11   -1    0    0    0    0  0.00000000000E+00  0.00000000000E+00  0.45593999997E+02  0.45594000000E+02  0.51100000000E-03 0.  1.
         11   -1    0    0    0    0 -0.00000000000E+00 -0.00000000000E+00 -0.45593999997E+02  0.45594000000E+02  0.51100000000E-03 0. -1.
    9900012    2    1    2    0    0 -0.17315953041E+02 -0.10411123917E+02 -0.38410821996E+02  0.47787251419E+02  0.19999910521E+02 0.  0.
        -12    1    1    2    0    0  0.17315953041E+02  0.10411123917E+02  0.38410821996E+02  0.43400748581E+02  0.00000000000E+00 0.  1.
         11    1    3    3    0    0 -0.54045495844E+01  0.20585689935E+01 -0.50455679690E+01  0.76749344559E+01  0.51100000000E-03 0. -1.
        -11    1    3    3    0    0 -0.28386534226E+01  0.58082028622E+00 -0.17198515642E+02  0.17440878591E+02  0.51100000000E-03 0.  1.
        -12    1    3    3    0    0 -0.90727500343E+01 -0.13050513197E+02 -0.16166738385E+02  0.22671438373E+02  0.00000000000E+00 0.  1.
</event>
<event>
 7    1  0.1714203E-010  0.4778727E+02  0.7816164E-02  0.1312668E+00
        -11   -1    0    0    0    0  0.00000000000E+00  0.00000000000E+00  0.45593999997E+02  0.45594000000E+02  0.51100000000E-03 0.  1.
         11   -1    0    0    0    0 -0.00000000000E+00 -0.00000000000E+00 -0.45593999997E+02  0.45594000000E+02  0.51100000000E-03 0. -1.
    9900012    2    1    2    0    0 -0.28041547241E+02  0.32761276567E+02 -0.48983669216E+01  0.47787267143E+02  0.19999982214E+02 0.  0.
        -12    1    1    2    0    0  0.28041547241E+02 -0.32761276567E+02  0.48983669216E+01  0.43400732857E+02  0.00000000000E+00 0.  1.
         11    1    3    3    0    0 -0.12938768922E+02  0.11078193375E+02  0.30297729413E+01  0.17300798652E+02  0.51100000000E-03 0. -1.
        -11    1    3    3    0    0  0.13556417796E+01  0.56083692238E+01 -0.43004489692E+01  0.71962095289E+01  0.51100000000E-03 0.  1.
         12    1    3    3    0    0 -0.16458420099E+02  0.16074713968E+02 -0.36276908936E+01  0.23290258962E+02  0.00000000000E+00 0. -1.
</event>
<event>
 7    1  0.1714203E-010  0.4778727E+02  0.7816164E-02  0.1312668E+00
        -11   -1    0    0    0    0  0.00000000000E+00  0.00000000000E+00  0.45593999997E+02  0.45594000000E+02  0.51100000000E-03 0. -1.
         11   -1    0    0    0    0 -0.00000000000E+00 -0.00000000000E+00 -0.45593999997E+02  0.45594000000E+02  0.51100000000E-03 0.  1.
    9900012    2    1    2    0    0  0.13665522656E+02  0.10675359683E+02  0.39785850811E+02  0.47787265691E+02  0.19999975589E+02 0.  0.
        -12    1    1    2    0    0 -0.13665522656E+02 -0.10675359683E+02 -0.39785850811E+02  0.43400734309E+02  0.00000000000E+00 0.  1.
         11    1    3    3    0    0  0.59533595465E+00  0.87757467509E+01  0.15504328071E+02  0.17825609250E+02  0.51100000000E-03 0.  1.
        -11    1    3    3    0    0  0.38809344848E+01 -0.19308981080E+01  0.17216679403E+02  0.17753987437E+02  0.51100000000E-03 0. -1.
        -12    1    3    3    0    0  0.91892522166E+01  0.38305110399E+01  0.70648433374E+01  0.12207669004E+02  0.00000000000E+00 0.  1.
</event>
<event>
 7    1  0.1714203E-010  0.4778729E+02  0.7816164E-02  0.1312668E+00
        -11   -1    0    0    0    0  0.00000000000E+00  0.00000000000E+00  0.45593999997E+02  0.45594000000E+02  0.51100000000E-03 0.  1.
         11   -1    0    0    0    0 -0.00000000000E+00 -0.00000000000E+00 -0.45593999997E+02  0.45594000000E+02  0.51100000000E-03 0. -1.
    9900012    2    1    2    0    0  0.39840983087E+02 -0.17153995913E+02 -0.14347470149E+01  0.47787285627E+02  0.20000066486E+02 0.  0.
        -12    1    1    2    0    0 -0.39840983087E+02  0.17153995913E+02  0.14347470149E+01  0.43400714373E+02  0.00000000000E+00 0.  1.
         11    1    3    3    0    0  0.16118376486E+00 -0.18984224170E+00  0.19006006122E+01  0.19168472112E+01  0.51100000000E-03 0. -1.
        -11    1    3    3    0    0  0.26228113078E+02 -0.18657697119E+02 -0.26175075795E+01  0.32293574030E+02  0.51100000000E-03 0.  1.
         12    1    3    3    0    0  0.13451686244E+02  0.16935434477E+01 -0.71784004757E+00  0.13576864386E+02  0.00000000000E+00 0. -1.
</event>
<event>
 7    1  0.1714203E-010  0.4778727E+02  0.7816164E-02  0.1312668E+00
        -11   -1    0    0    0    0  0.00000000000E+00  0.00000000000E+00  0.45593999997E+02  0.45594000000E+02  0.51100000000E-03 0.  1.
         11   -1    0    0    0    0 -0.00000000000E+00 -0.00000000000E+00 -0.45593999997E+02  0.45594000000E+02  0.51100000000E-03 0. -1.
    9900012    2    1    2    0    0 -0.62018495978E+01  0.25401011762E+02 -0.34640281942E+02  0.47787268786E+02  0.19999989701E+02 0.  0.
        -12    1    1    2    0    0  0.62018495978E+01 -0.25401011762E+02  0.34640281942E+02  0.43400731214E+02  0.00000000000E+00 0.  1.
         11    1    3    3    0    0 -0.49879674518E+01  0.85543438130E+01 -0.96859156530E+01  0.13851843909E+02  0.51100000000E-03 0.  1.
        -11    1    3    3    0    0  0.43728533137E+01  0.25748521041E+01 -0.53214926913E+00  0.51024398641E+01  0.51100000000E-03 0. -1.
         12    1    3    3    0    0 -0.55867354598E+01  0.14271815844E+02 -0.24422217020E+02  0.28832985013E+02  0.00000000000E+00 0. -1.
</event>
<event>
 7    1  0.1714203E-010  0.4778727E+02  0.7816164E-02  0.1312668E+00
        -11   -1    0    0    0    0  0.00000000000E+00  0.00000000000E+00  0.45593999997E+02  0.45594000000E+02  0.51100000000E-03 0. -1.
         11   -1    0    0    0    0 -0.00000000000E+00 -0.00000000000E+00 -0.45593999997E+02  0.45594000000E+02  0.51100000000E-03 0.  1.
    9900012    2    1    2    0    0  0.38816972903E+02  0.11857932553E+02  0.15370589590E+02  0.47787274498E+02  0.20000015744E+02 0.  0.
        -12    1    1    2    0    0 -0.38816972903E+02 -0.11857932553E+02 -0.15370589590E+02  0.43400725502E+02  0.00000000000E+00 0.  1.
         11    1    3    3    0    0  0.21406486516E+02  0.44147079898E+01  0.14004535073E+02  0.25958704022E+02  0.51100000000E-03 0. -1.
        -11    1    3    3    0    0  0.61530265022E+01  0.16122340314E+01  0.55873968611E+01  0.84662883044E+01  0.51100000000E-03 0.  1.
        -12    1    3    3    0    0  0.11257459885E+02  0.58309905316E+01 -0.42213423447E+01  0.13362282171E+02  0.00000000000E+00 0.  1.
</event>
<event>
 7    1  0.1714203E-010  0.4778727E+02  0.7816164E-02  0.1312668E+00
        -11   -1    0    0    0    0  0.00000000000E+00  0.00000000000E+00  0.45593999997E+02  0.45594000000E+02  0.51100000000E-03 0. -1.
         11   -1    0    0    0    0 -0.00000000000E+00 -0.00000000000E+00 -0.45593999997E+02  0.45594000000E+02  0.51100000000E-03 0.  1.
    9900012    2    1    2    0    0  0.18511286214E+02 -0.35242765410E+02  0.17288819458E+02  0.47787268332E+02  0.19999987634E+02 0.  0.
        -12    1    1    2    0    0 -0.18511286214E+02  0.35242765410E+02 -0.17288819458E+02  0.43400731668E+02  0.00000000000E+00 0.  1.
         11    1    3    3    0    0  0.60800277326E+01 -0.62833634697E+01  0.22381625838E+01  0.90253402005E+01  0.51100000000E-03 0. -1.
        -11    1    3    3    0    0  0.55294246006E-01 -0.67467015103E+01 -0.31952095774E+01  0.74652798493E+01  0.51100000000E-03 0.  1.
        -12    1    3    3    0    0  0.12375964235E+02 -0.22212700430E+02  0.18245866451E+02  0.31296648282E+02  0.00000000000E+00 0.  1.
</event>
<event>
 7    1  0.1714203E-010  0.4778727E+02  0.7816164E-02  0.1312668E+00
        -11   -1    0    0    0    0  0.00000000000E+00  0.00000000000E+00  0.45593999997E+02  0.45594000000E+02  0.51100000000E-03 0. -1.
         11   -1    0    0    0    0 -0.00000000000E+00 -0.00000000000E+00 -0.45593999997E+02  0.45594000000E+02  0.51100000000E-03 0.  1.
    9900012    2    1    2    0    0  0.21849323656E+02  0.99291766363E+01  0.36161332791E+02  0.47787268645E+02  0.19999989062E+02 0.  0.
        -12    1    1    2    0    0 -0.21849323656E+02 -0.99291766363E+01 -0.36161332791E+02  0.43400731355E+02  0.00000000000E+00 0.  1.
         11    1    3    3    0    0  0.72987377704E+01  0.22246502165E+01  0.82498305665E+01  0.11237452837E+02  0.51100000000E-03 0. -1.
        -11    1    3    3    0    0  0.11667521678E+02  0.37668949184E+01  0.51962303618E+01  0.13316207030E+02  0.51100000000E-03 0.  1.
         12    1    3    3    0    0  0.28830642073E+01  0.39376315014E+01  0.22715271862E+02  0.23233608778E+02  0.00000000000E+00 0. -1.
</event>
<event>
 7    1  0.1714203E-010  0.4778727E+02  0.7816164E-02  0.1312668E+00
        -11   -1    0    0    0    0  0.00000000000E+00  0.00000000000E+00  0.45593999997E+02  0.45594000000E+02  0.51100000000E-03 0.  1.
         11   -1    0    0    0    0 -0.00000000000E+00 -0.00000000000E+00 -0.45593999997E+02  0.45594000000E+02  0.51100000000E-03 0. -1.
    9900012    2    1    2    0    0  0.29189561460E+01 -0.33903524138E+02 -0.26937968178E+02  0.47787269781E+02  0.19999994238E+02 0.  0.
        -12    1    1    2    0    0 -0.29189561460E+01  0.33903524138E+02  0.26937968178E+02  0.43400730219E+02  0.00000000000E+00 0.  1.
         11    1    3    3    0    0  0.52025445274E+01 -0.82974036253E+01 -0.43596441107E+01  0.10720068727E+02  0.51100000000E-03 0. -1.
        -11    1    3    3    0    0 -0.40770728770E+01 -0.55408437029E+00 -0.46481577859E+01  0.62076488139E+01  0.51100000000E-03 0.  1.
         12    1    3    3    0    0  0.17934844956E+01 -0.25052036143E+02 -0.17930166282E+02  0.30859552240E+02  0.00000000000E+00 0. -1.
</event>
<event>
 7    1  0.1714203E-010  0.4778727E+02  0.7816164E-02  0.1312668E+00
        -11   -1    0    0    0    0  0.00000000000E+00  0.00000000000E+00  0.45593999997E+02  0.45594000000E+02  0.51100000000E-03 0.  1.
         11   -1    0    0    0    0 -0.00000000000E+00 -0.00000000000E+00 -0.45593999997E+02  0.45594000000E+02  0.51100000000E-03 0. -1.
    9900012    2    1    2    0    0 -0.33230860014E+02  0.21955912086E+01 -0.27830063714E+02  0.47787272766E+02  0.20000007851E+02 0.  0.
        -12    1    1    2    0    0  0.33230860014E+02 -0.21955912086E+01  0.27830063714E+02  0.43400727234E+02  0.00000000000E+00 0.  1.
         11    1    3    3    0    0 -0.29719199285E-01 -0.54898654689E+00  0.46332330345E+00  0.71898414733E+00  0.51100000000E-03 0. -1.
        -11    1    3    3    0    0 -0.89811961224E+01 -0.70718170487E+01 -0.75035404107E+01  0.13673902117E+02  0.51100000000E-03 0.  1.
         12    1    3    3    0    0 -0.24219944693E+02  0.98163948043E+01 -0.20789846607E+02  0.33394386502E+02  0.00000000000E+00 0. -1.
</event>
<event>
 7    1  0.1714203E-010  0.4778727E+02  0.7816164E-02  0.1312668E+00
        -11   -1    0    0    0    0  0.00000000000E+00  0.00000000000E+00  0.45593999997E+02  0.45594000000E+02  0.51100000000E-03 0. -1.
         11   -1    0    0    0    0 -0.00000000000E+00 -0.00000000000E+00 -0.45593999997E+02  0.45594000000E+02  0.51100000000E-03 0.  1.
    9900012    2    1    2    0    0 -0.10392171909E+02 -0.32592529702E+02  0.26708669391E+02  0.47787271319E+02  0.20000001254E+02 0.  0.
        -12    1    1    2    0    0  0.10392171909E+02  0.32592529702E+02 -0.26708669391E+02  0.43400728681E+02  0.00000000000E+00 0.  1.
         11    1    3    3    0    0 -0.37987312801E+01 -0.23202835446E+01  0.10866877107E+02  0.11743214781E+02  0.51100000000E-03 0. -1.
        -11    1    3    3    0    0 -0.25213670107E+01 -0.16920940212E+02  0.13710491201E+02  0.21923801643E+02  0.51100000000E-03 0.  1.
        -12    1    3    3    0    0 -0.40720736184E+01 -0.13351305945E+02  0.21313010829E+01  0.14120254895E+02  0.00000000000E+00 0.  1.
</event>
<event>
 7    1  0.1714203E-010  0.4778727E+02  0.7816164E-02  0.1312668E+00
        -11   -1    0    0    0    0  0.00000000000E+00  0.00000000000E+00  0.45593999997E+02  0.45594000000E+02  0.51100000000E-03 0.  1.
         11   -1    0    0    0    0 -0.00000000000E+00 -0.00000000000E+00 -0.45593999997E+02  0.45594000000E+02  0.51100000000E-03 0. -1.
    9900012    2    1    2    0    0 -0.28186339502E+02  0.16302080996E+01 -0.32962038596E+02  0.47787270728E+02  0.19999998556E+02 0.  0.
        -12    1    1    2    0    0  0.28186339502E+02 -0.16302080996E+01  0.32962038596E+02  0.43400729272E+02  0.00000000000E+00 0.  1.
         11    1    3    3    0    0 -0.26950985785E+02  0.28961944906E+01 -0.32194362125E+02  0.42085870910E+02  0.51100000000E-03 0. -1.
        -11    1    3    3    0    0  0.66562431691E+00  0.13027689216E+01 -0.18216876228E+01  0.23364093500E+01  0.51100000000E-03 0.  1.
         12    1    3    3    0    0 -0.19009780340E+01 -0.25687553126E+01  0.10540111524E+01  0.33649904682E+01  0.00000000000E+00 0. -1.
</event>
<event>
 7    1  0.1714203E-010  0.4778728E+02  0.7816164E-02  0.1312668E+00
        -11   -1    0    0    0    0  0.00000000000E+00  0.00000000000E+00  0.45593999997E+02  0.45594000000E+02  0.51100000000E-03 0.  1.
         11   -1    0    0    0    0 -0.00000000000E+00 -0.00000000000E+00 -0.45593999997E+02  0.45594000000E+02  0.51100000000E-03 0. -1.
    9900012    2    1    2    0    0 -0.31472519808E+02 -0.12115871981E+02 -0.27318657530E+02  0.47787275281E+02  0.20000019315E+02 0.  0.
        -12    1    1    2    0    0  0.31472519808E+02  0.12115871981E+02  0.27318657530E+02  0.43400724719E+02  0.00000000000E+00 0.  1.
         11    1    3    3    0    0 -0.10715166833E+02 -0.58422919068E+01 -0.11538699552E+02  0.16795498284E+02  0.51100000000E-03 0. -1.
        -11    1    3    3    0    0  0.22529498817E+01 -0.20335273599E+01 -0.57877010687E+00  0.30896588470E+01  0.51100000000E-03 0.  1.
        -12    1    3    3    0    0 -0.23010302856E+02 -0.42400527144E+01 -0.15201187870E+02  0.27902118150E+02  0.00000000000E+00 0.  1.
</event>
<event>
 7    1  0.1714203E-010  0.4778728E+02  0.7816164E-02  0.1312668E+00
        -11   -1    0    0    0    0  0.00000000000E+00  0.00000000000E+00  0.45593999997E+02  0.45594000000E+02  0.51100000000E-03 0. -1.
         11   -1    0    0    0    0 -0.00000000000E+00 -0.00000000000E+00 -0.45593999997E+02  0.45594000000E+02  0.51100000000E-03 0.  1.
    9900012    2    1    2    0    0  0.35359773108E+02  0.79950502694E+00  0.25152933994E+02  0.47787275916E+02  0.20000022210E+02 0.  0.
        -12    1    1    2    0    0 -0.35359773108E+02 -0.79950502694E+00 -0.25152933994E+02  0.43400724084E+02  0.00000000000E+00 0.  1.
         11    1    3    3    0    0  0.61005735162E+01 -0.49130542560E+01  0.86116817981E+01  0.11641140967E+02  0.51100000000E-03 0. -1.
        -11    1    3    3    0    0  0.44193066244E+01  0.32121969868E+01 -0.11048515425E+01  0.55739732430E+01  0.51100000000E-03 0.  1.
         12    1    3    3    0    0  0.24839892967E+02  0.25003622962E+01  0.17646103738E+02  0.30572161706E+02  0.00000000000E+00 0. -1.
</event>
<event>
 7    1  0.1714203E-010  0.4778727E+02  0.7816164E-02  0.1312668E+00
        -11   -1    0    0    0    0  0.00000000000E+00  0.00000000000E+00  0.45593999997E+02  0.45594000000E+02  0.51100000000E-03 0.  1.
         11   -1    0    0    0    0 -0.00000000000E+00 -0.00000000000E+00 -0.45593999997E+02  0.45594000000E+02  0.51100000000E-03 0. -1.
    9900012    2    1    2    0    0 -0.60334851029E+01 -0.98547788130E+01 -0.41834241590E+02  0.47787269853E+02  0.19999994566E+02 0.  0.
        -12    1    1    2    0    0  0.60334851029E+01  0.98547788130E+01  0.41834241590E+02  0.43400730147E+02  0.00000000000E+00 0.  1.
         11    1    3    3    0    0 -0.72398719648E+01 -0.13590843946E+02 -0.28249094636E+02  0.32173562645E+02  0.51100000000E-03 0.  1.
        -11    1    3    3    0    0  0.28716771065E+00  0.95858369074E+00 -0.12426920242E+02  0.12467144619E+02  0.51100000000E-03 0. -1.
        -12    1    3    3    0    0  0.91921915131E+00  0.27774814425E+01 -0.11582267116E+01  0.31465625891E+01  0.00000000000E+00 0.  1.
</event>
<event>
 7    1  0.1714203E-010  0.4778728E+02  0.7816164E-02  0.1312668E+00
        -11   -1    0    0    0    0  0.00000000000E+00  0.00000000000E+00  0.45593999997E+02  0.45594000000E+02  0.51100000000E-03 0.  1.
         11   -1    0    0    0    0 -0.00000000000E+00 -0.00000000000E+00 -0.45593999997E+02  0.45594000000E+02  0.51100000000E-03 0. -1.
    9900012    2    1    2    0    0 -0.42814363248E+02  0.70067052884E+01 -0.12079155229E+01  0.47787277895E+02  0.20000031234E+02 0.  0.
        -12    1    1    2    0    0  0.42814363248E+02 -0.70067052884E+01  0.12079155229E+01  0.43400722105E+02  0.00000000000E+00 0.  1.
         11    1    3    3    0    0 -0.15145249327E+02  0.14164874105E+01  0.12870042112E+01  0.15265693364E+02  0.51100000000E-03 0. -1.
        -11    1    3    3    0    0 -0.41553924209E+01  0.60276681648E+01 -0.50075838176E+01  0.88699473295E+01  0.51100000000E-03 0.  1.
        -12    1    3    3    0    0 -0.23513721500E+02 -0.43745028688E+00  0.25126640835E+01  0.23651637202E+02  0.00000000000E+00 0.  1.
</event>
<event>
 7    1  0.1714203E-010  0.4778728E+02  0.7816164E-02  0.1312668E+00
        -11   -1    0    0    0    0  0.00000000000E+00  0.00000000000E+00  0.45593999997E+02  0.45594000000E+02  0.51100000000E-03 0. -1.
         11   -1    0    0    0    0 -0.00000000000E+00 -0.00000000000E+00 -0.45593999997E+02  0.45594000000E+02  0.51100000000E-03 0.  1.
    9900012    2    1    2    0    0 -0.13080419472E+02 -0.24137246820E+02  0.33614264113E+02  0.47787276395E+02  0.20000024395E+02 0.  0.
        -12    1    1    2    0    0  0.13080419472E+02  0.24137246820E+02 -0.33614264113E+02  0.43400723605E+02  0.00000000000E+00 0.  1.
         11    1    3    3    0    0 -0.44056628948E+01 -0.49729547226E+01  0.11680523103E+02  0.13437810999E+02  0.51100000000E-03 0. -1.
        -11    1    3    3    0    0 -0.12017966880E+02 -0.81399846933E+01  0.15146041158E+02  0.20978404176E+02  0.51100000000E-03 0.  1.
        -12    1    3    3    0    0  0.33432103037E+01 -0.11024307404E+02  0.67876998513E+01  0.13371061220E+02  0.00000000000E+00 0.  1.
</event>
<event>
 7    1  0.1714203E-010  0.4778727E+02  0.7816164E-02  0.1312668E+00
        -11   -1    0    0    0    0  0.00000000000E+00  0.00000000000E+00  0.45593999997E+02  0.45594000000E+02  0.51100000000E-03 0.  1.
         11   -1    0    0    0    0 -0.00000000000E+00 -0.00000000000E+00 -0.45593999997E+02  0.45594000000E+02  0.51100000000E-03 0. -1.
    9900012    2    1    2    0    0  0.81312569313E+01  0.42468982205E+02  0.37271217507E+01  0.47787271604E+02  0.20000002550E+02 0.  0.
        -12    1    1    2    0    0 -0.81312569313E+01 -0.42468982205E+02 -0.37271217507E+01  0.43400728396E+02  0.00000000000E+00 0.  1.
         11    1    3    3    0    0  0.77623384756E+00  0.19657373198E+02  0.84036514848E+01  0.21392433676E+02  0.51100000000E-03 0.  1.
        -11    1    3    3    0    0  0.23479964420E+01  0.49543555241E+00 -0.24277283360E+01  0.34135624811E+01  0.51100000000E-03 0. -1.
         12    1    3    3    0    0  0.50070266417E+01  0.22316173454E+02 -0.22488013982E+01  0.22981275447E+02  0.00000000000E+00 0. -1.
</event>
<event>
 7    1  0.1714203E-010  0.4778726E+02  0.7816164E-02  0.1312668E+00
        -11   -1    0    0    0    0  0.00000000000E+00  0.00000000000E+00  0.45593999997E+02  0.45594000000E+02  0.51100000000E-03 0.  1.
         11   -1    0    0    0    0 -0.00000000000E+00 -0.00000000000E+00 -0.45593999997E+02  0.45594000000E+02  0.51100000000E-03 0. -1.
    9900012    2    1    2    0    0  0.18595384225E+02  0.28223172170E+02 -0.27226609334E+02  0.47787262475E+02  0.19999960930E+02 0.  0.
        -12    1    1    2    0    0 -0.18595384225E+02 -0.28223172170E+02  0.27226609334E+02  0.43400737525E+02  0.00000000000E+00 0.  1.
         11    1    3    3    0    0  0.59540646050E+01  0.15506509684E+02 -0.15477731004E+02  0.22703807724E+02  0.51100000000E-03 0. -1.
        -11    1    3    3    0    0 -0.30537900546E+00  0.52129978658E+01 -0.81718819812E+01  0.96978481356E+01  0.51100000000E-03 0.  1.
        -12    1    3    3    0    0  0.12946698626E+02  0.75036646212E+01 -0.35769963490E+01  0.15385606616E+02  0.00000000000E+00 0.  1.
</event>
<event>
 7    1  0.1714203E-010  0.4778726E+02  0.7816164E-02  0.1312668E+00
        -11   -1    0    0    0    0  0.00000000000E+00  0.00000000000E+00  0.45593999997E+02  0.45594000000E+02  0.51100000000E-03 0. -1.
         11   -1    0    0    0    0 -0.00000000000E+00 -0.00000000000E+00 -0.45593999997E+02  0.45594000000E+02  0.51100000000E-03 0.  1.
    9900012    2    1    2    0    0 -0.11087688749E+02  0.64342173231E+01  0.41464297324E+02  0.47787263290E+02  0.19999964645E+02 0.  0.
        -12    1    1    2    0    0  0.11087688749E+02 -0.64342173231E+01 -0.41464297324E+02  0.43400736710E+02  0.00000000000E+00 0.  1.
         11    1    3    3    0    0  0.52735416051E+00 -0.23457756614E+00  0.65843163093E+01  0.66095650816E+01  0.51100000000E-03 0. -1.
        -11    1    3    3    0    0 -0.10371041914E+02  0.11980794250E+02  0.21340439228E+02  0.26580298868E+02  0.51100000000E-03 0.  1.
        -12    1    3    3    0    0 -0.12440009960E+01 -0.53119993608E+01  0.13539541787E+02  0.14597399340E+02  0.00000000000E+00 0.  1.
</event>
<event>
 7    1  0.1714203E-010  0.4778727E+02  0.7816164E-02  0.1312668E+00
        -11   -1    0    0    0    0  0.00000000000E+00  0.00000000000E+00  0.45593999997E+02  0.45594000000E+02  0.51100000000E-03 0. -1.
         11   -1    0    0    0    0 -0.00000000000E+00 -0.00000000000E+00 -0.45593999997E+02  0.45594000000E+02  0.51100000000E-03 0.  1.
    9900012    2    1    2    0    0 -0.14707857057E+02  0.31645875638E+02  0.25803887428E+02  0.47787272926E+02  0.20000008581E+02 0.  0.
        -12    1    1    2    0    0  0.14707857057E+02 -0.31645875638E+02 -0.25803887428E+02  0.43400727074E+02  0.00000000000E+00 0.  1.
         11    1    3    3    0    0 -0.17325585947E+02  0.31132661299E+02  0.24751528386E+02  0.43382677254E+02  0.51100000000E-03 0. -1.
        -11    1    3    3    0    0  0.10938527695E+01 -0.53414535957E+00  0.19888969278E+01  0.23318525676E+01  0.51100000000E-03 0.  1.
         12    1    3    3    0    0  0.15238761207E+01  0.10473596985E+01 -0.93653788583E+00  0.20727431054E+01  0.00000000000E+00 0. -1.
</event>
<event>
 7    1  0.1714203E-010  0.4778727E+02  0.7816164E-02  0.1312668E+00
        -11   -1    0    0    0    0  0.00000000000E+00  0.00000000000E+00  0.45593999997E+02  0.45594000000E+02  0.51100000000E-03 0. -1.
         11   -1    0    0    0    0 -0.00000000000E+00 -0.00000000000E+00 -0.45593999997E+02  0.45594000000E+02  0.51100000000E-03 0.  1.
    9900012    2    1    2    0    0 -0.38897799160E+02 -0.13936697224E+02 -0.13279796549E+02  0.47787270682E+02  0.19999998345E+02 0.  0.
        -12    1    1    2    0    0  0.38897799160E+02  0.13936697224E+02  0.13279796549E+02  0.43400729318E+02  0.00000000000E+00 0.  1.
         11    1    3    3    0    0 -0.15881861982E+02 -0.32977553703E+01 -0.22658321554E+01  0.16378117295E+02  0.51100000000E-03 0. -1.
        -11    1    3    3    0    0  0.47631452966E+00  0.16476426492E+01  0.13248243963E+01  0.21672013687E+01  0.51100000000E-03 0.  1.
         12    1    3    3    0    0 -0.23492251707E+02 -0.12286584503E+02 -0.12338788790E+02  0.29241952018E+02  0.00000000000E+00 0. -1.
</event>
<event>
 7    1  0.1714203E-010  0.4778728E+02  0.7816164E-02  0.1312668E+00
        -11   -1    0    0    0    0  0.00000000000E+00  0.00000000000E+00  0.45593999997E+02  0.45594000000E+02  0.51100000000E-03 0.  1.
         11   -1    0    0    0    0 -0.00000000000E+00 -0.00000000000E+00 -0.45593999997E+02  0.45594000000E+02  0.51100000000E-03 0. -1.
    9900012    2    1    2    0    0 -0.32227776709E+02 -0.44647956547E+00 -0.29065339002E+02  0.47787275733E+02  0.20000021376E+02 0.  0.
        -12    1    1    2    0    0  0.32227776709E+02  0.44647956547E+00  0.29065339002E+02  0.43400724267E+02  0.00000000000E+00 0.  1.
         11    1    3    3    0    0 -0.16754783922E+02 -0.25618339449E+01 -0.13971827129E+02  0.21965830988E+02  0.51100000000E-03 0. -1.
        -11    1    3    3    0    0 -0.86354134741E+01 -0.57352009764E+01 -0.91892485556E+01  0.13852984710E+02  0.51100000000E-03 0.  1.
        -12    1    3    3    0    0 -0.68375793134E+01  0.78505553558E+01 -0.59042633173E+01  0.11968460034E+02  0.00000000000E+00 0.  1.
</event>
<event>
 7    1  0.1714203E-010  0.4778728E+02  0.7816164E-02  0.1312668E+00
        -11   -1    0    0    0    0  0.00000000000E+00  0.00000000000E+00  0.45593999997E+02  0.45594000000E+02  0.51100000000E-03 0.  1.
         11   -1    0    0    0    0 -0.00000000000E+00 -0.00000000000E+00 -0.45593999997E+02  0.45594000000E+02  0.51100000000E-03 0. -1.
    9900012    2    1    2    0    0  0.14828824814E+02 -0.37748237538E+02 -0.15453120526E+02  0.47787280921E+02  0.20000045030E+02 0.  0.
        -12    1    1    2    0    0 -0.14828824814E+02  0.37748237538E+02  0.15453120526E+02  0.43400719079E+02  0.00000000000E+00 0.  1.
         11    1    3    3    0    0  0.97460320027E+01 -0.11973563266E+02 -0.39997992397E+01  0.15948346350E+02  0.51100000000E-03 0. -1.
        -11    1    3    3    0    0 -0.20853248330E+01 -0.20954338482E+02 -0.85234189250E+01  0.22717428360E+02  0.51100000000E-03 0.  1.
        -12    1    3    3    0    0  0.71681176447E+01 -0.48203357906E+01 -0.29299023609E+01  0.91215062104E+01  0.00000000000E+00 0.  1.
</event>
<event>
 7    1  0.1714203E-010  0.4778727E+02  0.7816164E-02  0.1312668E+00
        -11   -1    0    0    0    0  0.00000000000E+00  0.00000000000E+00  0.45593999997E+02  0.45594000000E+02  0.51100000000E-03 0.  1.
         11   -1    0    0    0    0 -0.00000000000E+00 -0.00000000000E+00 -0.45593999997E+02  0.45594000000E+02  0.51100000000E-03 0. -1.
    9900012    2    1    2    0    0 -0.33148562260E+02 -0.27821085500E+02 -0.32837485147E+01  0.47787274400E+02  0.20000015300E+02 0.  0.
        -12    1    1    2    0    0  0.33148562260E+02  0.27821085500E+02  0.32837485147E+01  0.43400725600E+02  0.00000000000E+00 0.  1.
         11    1    3    3    0    0 -0.64034133646E+01 -0.82826157053E+01  0.30879830381E+01  0.10915175910E+02  0.51100000000E-03 0. -1.
        -11    1    3    3    0    0  0.11975284138E+01 -0.42072958898E+01 -0.15298381906E+01  0.46342009189E+01  0.51100000000E-03 0.  1.
         12    1    3    3    0    0 -0.27942677309E+02 -0.15331173905E+02 -0.48418933622E+01  0.32237897571E+02  0.00000000000E+00 0. -1.
</event>
<event>
 7    1  0.1714203E-010  0.4778727E+02  0.7816164E-02  0.1312668E+00
        -11   -1    0    0    0    0  0.00000000000E+00  0.00000000000E+00  0.45593999997E+02  0.45594000000E+02  0.51100000000E-03 0.  1.
         11   -1    0    0    0    0 -0.00000000000E+00 -0.00000000000E+00 -0.45593999997E+02  0.45594000000E+02  0.51100000000E-03 0. -1.
    9900012    2    1    2    0    0  0.12425736216E+02 -0.36547807360E+02 -0.19836381094E+02  0.47787272377E+02  0.20000006075E+02 0.  0.
        -12    1    1    2    0    0 -0.12425736216E+02  0.36547807360E+02  0.19836381094E+02  0.43400727623E+02  0.00000000000E+00 0.  1.
         11    1    3    3    0    0  0.48249212673E+01 -0.14707531268E+02 -0.27528207436E+00  0.15481186056E+02  0.51100000000E-03 0. -1.
        -11    1    3    3    0    0  0.32131365799E+00 -0.82861090029E+00  0.14578824371E+01  0.17074132343E+01  0.51100000000E-03 0.  1.
         12    1    3    3    0    0  0.72795012908E+01 -0.21011665192E+02 -0.21018981457E+02  0.30598673086E+02  0.00000000000E+00 0. -1.
</event>
<event>
 7    1  0.1714203E-010  0.4778727E+02  0.7816164E-02  0.1312668E+00
        -11   -1    0    0    0    0  0.00000000000E+00  0.00000000000E+00  0.45593999997E+02  0.45594000000E+02  0.51100000000E-03 0.  1.
         11   -1    0    0    0    0 -0.00000000000E+00 -0.00000000000E+00 -0.45593999997E+02  0.45594000000E+02  0.51100000000E-03 0. -1.
    9900012    2    1    2    0    0  0.33281805807E+01  0.22544759513E+02 -0.36936164168E+02  0.47787272000E+02  0.20000004359E+02 0.  0.
        -12    1    1    2    0    0 -0.33281805807E+01 -0.22544759513E+02  0.36936164168E+02  0.43400728000E+02  0.00000000000E+00 0.  1.
         11    1    3    3    0    0  0.11515178102E+00 -0.62588387319E+00 -0.56595722105E+01  0.56952391014E+01  0.51100000000E-03 0. -1.
        -11    1    3    3    0    0  0.25674953064E+01  0.14012630461E+02 -0.64799641000E+01  0.15650424262E+02  0.51100000000E-03 0.  1.
        -12    1    3    3    0    0  0.64553349334E+00  0.91580129254E+01 -0.24796627857E+02  0.26441608637E+02  0.00000000000E+00 0.  1.
</event>
<event>
 7    1  0.1714203E-010  0.4778728E+02  0.7816164E-02  0.1312668E+00
        -11   -1    0    0    0    0  0.00000000000E+00  0.00000000000E+00  0.45593999997E+02  0.45594000000E+02  0.51100000000E-03 0.  1.
         11   -1    0    0    0    0 -0.00000000000E+00 -0.00000000000E+00 -0.45593999997E+02  0.45594000000E+02  0.51100000000E-03 0. -1.
    9900012    2    1    2    0    0  0.25176087095E+02  0.19345881008E+02 -0.29589261878E+02  0.47787275445E+02  0.20000020065E+02 0.  0.
        -12    1    1    2    0    0 -0.25176087095E+02 -0.19345881008E+02  0.29589261878E+02  0.43400724555E+02  0.00000000000E+00 0.  1.
         11    1    3    3    0    0 -0.85469658825E+00  0.82913631596E+00 -0.17248179757E+01  0.20959414588E+01  0.51100000000E-03 0. -1.
        -11    1    3    3    0    0  0.13965010809E+01  0.17080158265E+01  0.23600896508E+01  0.32307207792E+01  0.51100000000E-03 0.  1.
         12    1    3    3    0    0  0.24634282603E+02  0.16808728866E+02 -0.30224533553E+02  0.42460613207E+02  0.00000000000E+00 0. -1.
</event>
<event>
 7    1  0.1714203E-010  0.4778727E+02  0.7816164E-02  0.1312668E+00
        -11   -1    0    0    0    0  0.00000000000E+00  0.00000000000E+00  0.45593999997E+02  0.45594000000E+02  0.51100000000E-03 0.  1.
         11   -1    0    0    0    0 -0.00000000000E+00 -0.00000000000E+00 -0.45593999997E+02  0.45594000000E+02  0.51100000000E-03 0. -1.
    9900012    2    1    2    0    0 -0.57434814403E+00 -0.28082204651E+02 -0.33086001941E+02  0.47787267077E+02  0.19999981910E+02 0.  0.
        -12    1    1    2    0    0  0.57434814403E+00  0.28082204651E+02  0.33086001941E+02  0.43400732923E+02  0.00000000000E+00 0.  1.
         11    1    3    3    0    0  0.27780147378E+01 -0.28163935928E+02 -0.27970052085E+02  0.39790054872E+02  0.51100000000E-03 0. -1.
        -11    1    3    3    0    0 -0.32030291184E+01 -0.14432859024E+01 -0.53966199212E+01  0.64394080912E+01  0.51100000000E-03 0.  1.
         12    1    3    3    0    0 -0.14933376344E+00  0.15250171795E+01  0.28067006510E+00  0.15578041135E+01  0.00000000000E+00 0. -1.
</event>
<event>
 7    1  0.1714203E-010  0.4778725E+02  0.7816164E-02  0.1312668E+00
        -11   -1    0    0    0    0  0.00000000000E+00  0.00000000000E+00  0.45593999997E+02  0.45594000000E+02  0.51100000000E-03 0. -1.
         11   -1    0    0    0    0 -0.00000000000E+00 -0.00000000000E+00 -0.45593999997E+02  0.45594000000E+02  0.51100000000E-03 0.  1.
    9900012    2    1    2    0    0  0.66796550954E+01  0.42788624255E+02  0.28531917035E+01  0.47787252763E+02  0.19999916649E+02 0.  0.
        -12    1    1    2    0    0 -0.66796550954E+01 -0.42788624255E+02 -0.28531917035E+01  0.43400747237E+02  0.00000000000E+00 0.  1.
         11    1    3    3    0    0  0.35393074022E+01  0.17145737647E+02  0.14534345799E+01  0.17567455384E+02  0.51100000000E-03 0. -1.
        -11    1    3    3    0    0 -0.47907073218E+01  0.34197604617E+01  0.29285967636E+01  0.65743682224E+01  0.51100000000E-03 0.  1.
        -12    1    3    3    0    0  0.79310550150E+01  0.22223126146E+02 -0.15288396400E+01  0.23645429157E+02  0.00000000000E+00 0.  1.
</event>
<event>
 7    1  0.1714203E-010  0.4778727E+02  0.7816164E-02  0.1312668E+00
        -11   -1    0    0    0    0  0.00000000000E+00  0.00000000000E+00  0.45593999997E+02  0.45594000000E+02  0.51100000000E-03 0.  1.
         11   -1    0    0    0    0 -0.00000000000E+00 -0.00000000000E+00 -0.45593999997E+02  0.45594000000E+02  0.51100000000E-03 0. -1.
    9900012    2    1    2    0    0  0.71517975533E+01  0.82318949462E+01 -0.42008460516E+02  0.47787273536E+02  0.20000011361E+02 0.  0.
        -12    1    1    2    0    0 -0.71517975533E+01 -0.82318949462E+01  0.42008460516E+02  0.43400726464E+02  0.00000000000E+00 0.  1.
         11    1    3    3    0    0  0.84746900668E+01 -0.29077863723E+01 -0.14612707913E+02  0.17140794209E+02  0.51100000000E-03 0.  1.
        -11    1    3    3    0    0 -0.88713984569E+00  0.24638066939E+01 -0.16525193517E+02  0.16731389110E+02  0.51100000000E-03 0. -1.
        -12    1    3    3    0    0 -0.43575266786E+00  0.86758746246E+01 -0.10870559087E+02  0.13915090217E+02  0.00000000000E+00 0.  1.
</event>
<event>
 7    1  0.1714203E-010  0.4778728E+02  0.7816164E-02  0.1312668E+00
        -11   -1    0    0    0    0  0.00000000000E+00  0.00000000000E+00  0.45593999997E+02  0.45594000000E+02  0.51100000000E-03 0. -1.
         11   -1    0    0    0    0 -0.00000000000E+00 -0.00000000000E+00 -0.45593999997E+02  0.45594000000E+02  0.51100000000E-03 0.  1.
    9900012    2    1    2    0    0 -0.12284800810E+02  0.28414722049E+02  0.30418905423E+02  0.47787279186E+02  0.20000037119E+02 0.  0.
        -12    1    1    2    0    0  0.12284800810E+02 -0.28414722049E+02 -0.30418905423E+02  0.43400720814E+02  0.00000000000E+00 0.  1.
         11    1    3    3    0    0  0.28549170097E+01  0.53950002467E+01  0.92503497321E+01  0.11082668867E+02  0.51100000000E-03 0. -1.
        -11    1    3    3    0    0 -0.15355102133E+02  0.23497984445E+02  0.17673851519E+02  0.33170762160E+02  0.51100000000E-03 0.  1.
        -12    1    3    3    0    0  0.21538431388E+00 -0.47826264259E+00  0.34947041716E+01  0.35338481582E+01  0.00000000000E+00 0.  1.
</event>
<event>
 7    1  0.1714203E-010  0.4778727E+02  0.7816164E-02  0.1312668E+00
        -11   -1    0    0    0    0  0.00000000000E+00  0.00000000000E+00  0.45593999997E+02  0.45594000000E+02  0.51100000000E-03 0.  1.
         11   -1    0    0    0    0 -0.00000000000E+00 -0.00000000000E+00 -0.45593999997E+02  0.45594000000E+02  0.51100000000E-03 0. -1.
    9900012    2    1    2    0    0  0.59903663074E+01 -0.42392090317E+02  0.71168250648E+01  0.47787274096E+02  0.20000013915E+02 0.  0.
        -12    1    1    2    0    0 -0.59903663074E+01  0.42392090317E+02 -0.71168250648E+01  0.43400725904E+02  0.00000000000E+00 0.  1.
         11    1    3    3    0    0  0.68807655827E+01 -0.11643328189E+02 -0.29232808889E+01  0.13836820362E+02  0.51100000000E-03 0. -1.
        -11    1    3    3    0    0 -0.94728906258E+00 -0.19517648199E+01  0.39647528668E+01  0.45195141371E+01  0.51100000000E-03 0.  1.
        -12    1    3    3    0    0  0.56889787229E-01 -0.28796997308E+02  0.60753530869E+01  0.29430939597E+02  0.00000000000E+00 0.  1.
</event>
<event>
 7    1  0.1714203E-010  0.4778727E+02  0.7816164E-02  0.1312668E+00
        -11   -1    0    0    0    0  0.00000000000E+00  0.00000000000E+00  0.45593999997E+02  0.45594000000E+02  0.51100000000E-03 0.  1.
         11   -1    0    0    0    0 -0.00000000000E+00 -0.00000000000E+00 -0.45593999997E+02  0.45594000000E+02  0.51100000000E-03 0. -1.
    9900012    2    1    2    0    0 -0.26539933487E+02 -0.34147647842E+02  0.36322496025E+01  0.47787272359E+02  0.20000005992E+02 0.  0.
        -12    1    1    2    0    0  0.26539933487E+02  0.34147647842E+02 -0.36322496025E+01  0.43400727641E+02  0.00000000000E+00 0.  1.
         11    1    3    3    0    0 -0.97494450007E+01 -0.10388369507E+02  0.70166089951E+01  0.15880891061E+02  0.51100000000E-03 0. -1.
        -11    1    3    3    0    0  0.11559519943E+01 -0.73415580993E+00 -0.23199927071E+01  0.26939888991E+01  0.51100000000E-03 0.  1.
         12    1    3    3    0    0 -0.17946440481E+02 -0.23025122525E+02 -0.10643666856E+01  0.29212392399E+02  0.00000000000E+00 0. -1.
</event>
<event>
 7    1  0.1714203E-010  0.4778729E+02  0.7816164E-02  0.1312668E+00
        -11   -1    0    0    0    0  0.00000000000E+00  0.00000000000E+00  0.45593999997E+02  0.45594000000E+02  0.51100000000E-03 0.  1.
         11   -1    0    0    0    0 -0.00000000000E+00 -0.00000000000E+00 -0.45593999997E+02  0.45594000000E+02  0.51100000000E-03 0. -1.
    9900012    2    1    2    0    0 -0.16810511932E+02  0.12286433456E+02 -0.38079808123E+02  0.47787290960E+02  0.20000090803E+02 0.  0.
        -12    1    1    2    0    0  0.16810511932E+02 -0.12286433456E+02  0.38079808123E+02  0.43400709040E+02  0.00000000000E+00 0.  1.
         11    1    3    3    0    0 -0.11093058463E+02  0.70177527514E+01 -0.24261657994E+02  0.27585011304E+02  0.51100000000E-03 0. -1.
        -11    1    3    3    0    0 -0.75939790221E+01  0.31064462985E+01 -0.25735522066E+01  0.85989358188E+01  0.51100000000E-03 0.  1.
        -12    1    3    3    0    0  0.18765255530E+01  0.21622344060E+01 -0.11244597922E+02  0.11603343837E+02  0.00000000000E+00 0.  1.
</event>
<event>
 7    1  0.1714203E-010  0.4778727E+02  0.7816164E-02  0.1312668E+00
        -11   -1    0    0    0    0  0.00000000000E+00  0.00000000000E+00  0.45593999997E+02  0.45594000000E+02  0.51100000000E-03 0. -1.
         11   -1    0    0    0    0 -0.00000000000E+00 -0.00000000000E+00 -0.45593999997E+02  0.45594000000E+02  0.51100000000E-03 0.  1.
    9900012    2    1    2    0    0 -0.15927184576E+02 -0.24437870608E+02  0.32136257633E+02  0.47787265179E+02  0.19999973255E+02 0.  0.
        -12    1    1    2    0    0  0.15927184576E+02  0.24437870608E+02 -0.32136257633E+02  0.43400734821E+02  0.00000000000E+00 0.  1.
         11    1    3    3    0    0 -0.14936205051E+02 -0.23630742060E+02  0.31139609969E+02  0.41847072788E+02  0.51100000000E-03 0. -1.
        -11    1    3    3    0    0 -0.59349368456E+00  0.98020790438E+00  0.30088239722E+01  0.32196372849E+01  0.51100000000E-03 0.  1.
         12    1    3    3    0    0 -0.39748584006E+00 -0.17873364530E+01 -0.20121763081E+01  0.27205551059E+01  0.00000000000E+00 0. -1.
</event>
<event>
 7    1  0.1714203E-010  0.4778727E+02  0.7816164E-02  0.1312668E+00
        -11   -1    0    0    0    0  0.00000000000E+00  0.00000000000E+00  0.45593999997E+02  0.45594000000E+02  0.51100000000E-03 0.  1.
         11   -1    0    0    0    0 -0.00000000000E+00 -0.00000000000E+00 -0.45593999997E+02  0.45594000000E+02  0.51100000000E-03 0. -1.
    9900012    2    1    2    0    0  0.29603313064E+02  0.26835603569E+00 -0.31736342648E+02  0.47787267242E+02  0.19999982661E+02 0.  0.
        -12    1    1    2    0    0 -0.29603313064E+02 -0.26835603569E+00  0.31736342648E+02  0.43400732758E+02  0.00000000000E+00 0.  1.
         11    1    3    3    0    0  0.92153495836E+01 -0.15471410662E+01 -0.17150325036E+02  0.19530744034E+02  0.51100000000E-03 0. -1.
        -11    1    3    3    0    0  0.21689215222E+02  0.33702102529E+01 -0.14329672869E+02  0.26212971959E+02  0.51100000000E-03 0.  1.
         12    1    3    3    0    0 -0.13012517424E+01 -0.15547131510E+01 -0.25634474275E+00  0.20435512487E+01  0.00000000000E+00 0. -1.
</event>
<event>
 7    1  0.1714203E-010  0.4778727E+02  0.7816164E-02  0.1312668E+00
        -11   -1    0    0    0    0  0.00000000000E+00  0.00000000000E+00  0.45593999997E+02  0.45594000000E+02  0.51100000000E-03 0. -1.
         11   -1    0    0    0    0 -0.00000000000E+00 -0.00000000000E+00 -0.45593999997E+02  0.45594000000E+02  0.51100000000E-03 0.  1.
    9900012    2    1    2    0    0 -0.35248405046E+01 -0.39510304538E+02  0.17610645122E+02  0.47787268591E+02  0.19999988813E+02 0.  0.
        -12    1    1    2    0    0  0.35248405046E+01  0.39510304538E+02 -0.17610645122E+02  0.43400731409E+02  0.00000000000E+00 0.  1.
         11    1    3    3    0    0  0.11231423790E+01 -0.47025619620E+01 -0.37522654162E+01  0.61200517829E+01  0.51100000000E-03 0.  1.
        -11    1    3    3    0    0 -0.33684398269E+01 -0.84054958619E+01  0.78302376883E+01  0.11971272700E+02  0.51100000000E-03 0. -1.
        -12    1    3    3    0    0 -0.12795430568E+01 -0.26402246714E+02  0.13532672850E+02  0.29695944108E+02  0.00000000000E+00 0.  1.
</event>
<event>
 7    1  0.1714203E-010  0.4778727E+02  0.7816164E-02  0.1312668E+00
        -11   -1    0    0    0    0  0.00000000000E+00  0.00000000000E+00  0.45593999997E+02  0.45594000000E+02  0.51100000000E-03 0.  1.
         11   -1    0    0    0    0 -0.00000000000E+00 -0.00000000000E+00 -0.45593999997E+02  0.45594000000E+02  0.51100000000E-03 0. -1.
    9900012    2    1    2    0    0  0.38635129973E+02  0.16173489946E+02 -0.11374018157E+02  0.47787270351E+02  0.19999996836E+02 0.  0.
        -12    1    1    2    0    0 -0.38635129973E+02 -0.16173489946E+02  0.11374018157E+02  0.43400729649E+02  0.00000000000E+00 0.  1.
         11    1    3    3    0    0  0.77375095201E+01  0.15190712225E+01 -0.80791845814E+01  0.11289369102E+02  0.51100000000E-03 0. -1.
        -11    1    3    3    0    0  0.28798496043E+02  0.92605025420E+01 -0.45060522085E+01  0.30584551467E+02  0.51100000000E-03 0.  1.
        -12    1    3    3    0    0  0.20991244095E+01  0.53939161818E+01  0.12112186328E+01  0.59133497816E+01  0.00000000000E+00 0.  1.
</event>
<event>
 7    1  0.1714203E-010  0.4778727E+02  0.7816164E-02  0.1312668E+00
        -11   -1    0    0    0    0  0.00000000000E+00  0.00000000000E+00  0.45593999997E+02  0.45594000000E+02  0.51100000000E-03 0.  1.
         11   -1    0    0    0    0 -0.00000000000E+00 -0.00000000000E+00 -0.45593999997E+02  0.45594000000E+02  0.51100000000E-03 0. -1.
    9900012    2    1    2    0    0  0.19427751327E+02  0.21035091176E+02 -0.32614578610E+02  0.47787270510E+02  0.19999997562E+02 0.  0.
        -12    1    1    2    0    0 -0.19427751327E+02 -0.21035091176E+02  0.32614578610E+02  0.43400729490E+02  0.00000000000E+00 0.  1.
         11    1    3    3    0    0  0.22497291066E+01  0.10994314506E+02 -0.48241821776E+01  0.12215112216E+02  0.51100000000E-03 0.  1.
        -11    1    3    3    0    0  0.25944939801E+01 -0.11677148119E+00 -0.10353835481E+02  0.10674593389E+02  0.51100000000E-03 0. -1.
        -12    1    3    3    0    0  0.14583528241E+02  0.10157548152E+02 -0.17436560951E+02  0.24897564905E+02  0.00000000000E+00 0.  1.
</event>
<event>
 7    1  0.1714203E-010  0.4778727E+02  0.7816164E-02  0.1312668E+00
        -11   -1    0    0    0    0  0.00000000000E+00  0.00000000000E+00  0.45593999997E+02  0.45594000000E+02  0.51100000000E-03 0.  1.
         11   -1    0    0    0    0 -0.00000000000E+00 -0.00000000000E+00 -0.45593999997E+02  0.45594000000E+02  0.51100000000E-03 0. -1.
    9900012    2    1    2    0    0  0.97182664240E+01 -0.20938869499E+02 -0.36752445030E+02  0.47787272196E+02  0.20000005252E+02 0.  0.
        -12    1    1    2    0    0 -0.97182664240E+01  0.20938869499E+02  0.36752445030E+02  0.43400727804E+02  0.00000000000E+00 0.  1.
         11    1    3    3    0    0 -0.44472166150E+01 -0.64553380418E+01 -0.10072565151E+02  0.12763451486E+02  0.51100000000E-03 0. -1.
        -11    1    3    3    0    0  0.42073349747E+01 -0.33225645630E+01 -0.12245341095E+01  0.54991441981E+01  0.51100000000E-03 0.  1.
         12    1    3    3    0    0  0.99581480642E+01 -0.11160966894E+02 -0.25455345770E+02  0.29524676513E+02  0.00000000000E+00 0. -1.
</event>
<event>
 7    1  0.1714203E-010  0.4778727E+02  0.7816164E-02  0.1312668E+00
        -11   -1    0    0    0    0  0.00000000000E+00  0.00000000000E+00  0.45593999997E+02  0.45594000000E+02  0.51100000000E-03 0.  1.
         11   -1    0    0    0    0 -0.00000000000E+00 -0.00000000000E+00 -0.45593999997E+02  0.45594000000E+02  0.51100000000E-03 0. -1.
    9900012    2    1    2    0    0 -0.32689034929E+02  0.28538077526E+02 -0.79274285438E+00  0.47787270574E+02  0.19999997854E+02 0.  0.
        -12    1    1    2    0    0  0.32689034929E+02 -0.28538077526E+02  0.79274285438E+00  0.43400729426E+02  0.00000000000E+00 0.  1.
         11    1    3    3    0    0 -0.16542696870E+02  0.13759543571E+02 -0.78946334159E+01  0.22919666142E+02  0.51100000000E-03 0. -1.
        -11    1    3    3    0    0 -0.59191806917E+01  0.10431471816E+02  0.63594160013E+00  0.12010692165E+02  0.51100000000E-03 0.  1.
        -12    1    3    3    0    0 -0.10227157368E+02  0.43470621385E+01  0.64659489614E+01  0.12856912266E+02  0.00000000000E+00 0.  1.
</event>
<event>
 7    1  0.1714203E-010  0.4778728E+02  0.7816164E-02  0.1312668E+00
        -11   -1    0    0    0    0  0.00000000000E+00  0.00000000000E+00  0.45593999997E+02  0.45594000000E+02  0.51100000000E-03 0.  1.
         11   -1    0    0    0    0 -0.00000000000E+00 -0.00000000000E+00 -0.45593999997E+02  0.45594000000E+02  0.51100000000E-03 0. -1.
    9900012    2    1    2    0    0  0.11411410576E+02 -0.12161942718E+02 -0.40068559591E+02  0.47787278696E+02  0.20000034885E+02 0.  0.
        -12    1    1    2    0    0 -0.11411410576E+02  0.12161942718E+02  0.40068559591E+02  0.43400721304E+02  0.00000000000E+00 0.  1.
         11    1    3    3    0    0  0.29720047422E+01 -0.37755883128E+00 -0.11059523185E+02  0.11458115735E+02  0.51100000000E-03 0. -1.
        -11    1    3    3    0    0  0.29095532015E+01  0.38707913742E+01 -0.98575078391E+01  0.10982667561E+02  0.51100000000E-03 0.  1.
         12    1    3    3    0    0  0.55298526326E+01 -0.15655175261E+02 -0.19151528567E+02  0.25346495400E+02  0.00000000000E+00 0. -1.
</event>
<event>
 7    1  0.1714203E-010  0.4778726E+02  0.7816164E-02  0.1312668E+00
        -11   -1    0    0    0    0  0.00000000000E+00  0.00000000000E+00  0.45593999997E+02  0.45594000000E+02  0.51100000000E-03 0.  1.
         11   -1    0    0    0    0 -0.00000000000E+00 -0.00000000000E+00 -0.45593999997E+02  0.45594000000E+02  0.51100000000E-03 0. -1.
    9900012    2    1    2    0    0 -0.24350544384E+02  0.22834907441E+02 -0.27735217122E+02  0.47787259471E+02  0.19999947232E+02 0.  0.
        -12    1    1    2    0    0  0.24350544384E+02 -0.22834907441E+02  0.27735217122E+02  0.43400740529E+02  0.00000000000E+00 0.  1.
         11    1    3    3    0    0 -0.64165365151E+01  0.13032783132E+02 -0.12684125600E+02  0.19285030969E+02  0.51100000000E-03 0. -1.
        -11    1    3    3    0    0 -0.42152160741E+01 -0.15804761196E+01 -0.82968492781E+01  0.94394734768E+01  0.51100000000E-03 0.  1.
         12    1    3    3    0    0 -0.13718791795E+02  0.11382600429E+02 -0.67542422448E+01  0.19062755025E+02  0.00000000000E+00 0. -1.
</event>
<event>
 7    1  0.1714203E-010  0.4778727E+02  0.7816164E-02  0.1312668E+00
        -11   -1    0    0    0    0  0.00000000000E+00  0.00000000000E+00  0.45593999997E+02  0.45594000000E+02  0.51100000000E-03 0.  1.
         11   -1    0    0    0    0 -0.00000000000E+00 -0.00000000000E+00 -0.45593999997E+02  0.45594000000E+02  0.51100000000E-03 0. -1.
    9900012    2    1    2    0    0  0.39501423669E+02  0.16348960520E+01 -0.17904975757E+02  0.47787268280E+02  0.19999987394E+02 0.  0.
        -12    1    1    2    0    0 -0.39501423669E+02 -0.16348960520E+01  0.17904975757E+02  0.43400731720E+02  0.00000000000E+00 0.  1.
         11    1    3    3    0    0  0.23382944332E+02  0.59470643519E+01 -0.48401586931E+01  0.24608063647E+02  0.51100000000E-03 0. -1.
        -11    1    3    3    0    0  0.15376281996E+01  0.12015787956E+01 -0.55318675341E+01  0.58659739820E+01  0.51100000000E-03 0.  1.
         12    1    3    3    0    0  0.14580851138E+02 -0.55137470955E+01 -0.75329495299E+01  0.17313230651E+02  0.00000000000E+00 0. -1.
</event>
<event>
 7    1  0.1714203E-010  0.4778727E+02  0.7816164E-02  0.1312668E+00
        -11   -1    0    0    0    0  0.00000000000E+00  0.00000000000E+00  0.45593999997E+02  0.45594000000E+02  0.51100000000E-03 0.  1.
         11   -1    0    0    0    0 -0.00000000000E+00 -0.00000000000E+00 -0.45593999997E+02  0.45594000000E+02  0.51100000000E-03 0. -1.
    9900012    2    1    2    0    0  0.21275229591E+02  0.25047503043E+02 -0.28348018837E+02  0.47787274490E+02  0.20000015709E+02 0.  0.
        -12    1    1    2    0    0 -0.21275229591E+02 -0.25047503043E+02  0.28348018837E+02  0.43400725510E+02  0.00000000000E+00 0.  1.
         11    1    3    3    0    0  0.85537272628E+01  0.10512302717E+02 -0.54519700523E+01  0.14608173610E+02  0.51100000000E-03 0. -1.
        -11    1    3    3    0    0  0.74535265848E+01 -0.50143907060E+00 -0.10992900837E+02  0.13290988254E+02  0.51100000000E-03 0.  1.
        -12    1    3    3    0    0  0.52679757438E+01  0.15036639396E+02 -0.11903147947E+02  0.19888112626E+02  0.00000000000E+00 0.  1.
</event>
<event>
 7    1  0.1714203E-010  0.4778727E+02  0.7816164E-02  0.1312668E+00
        -11   -1    0    0    0    0  0.00000000000E+00  0.00000000000E+00  0.45593999997E+02  0.45594000000E+02  0.51100000000E-03 0.  1.
         11   -1    0    0    0    0 -0.00000000000E+00 -0.00000000000E+00 -0.45593999997E+02  0.45594000000E+02  0.51100000000E-03 0. -1.
    9900012    2    1    2    0    0 -0.15339557658E+02  0.32531988407E+02 -0.24289731325E+02  0.47787270206E+02  0.19999996175E+02 0.  0.
        -12    1    1    2    0    0  0.15339557658E+02 -0.32531988407E+02  0.24289731325E+02  0.43400729794E+02  0.00000000000E+00 0.  1.
         11    1    3    3    0    0 -0.33683748258E+01  0.20084923107E+02 -0.69048731308E+01  0.21504124218E+02  0.51100000000E-03 0.  1.
        -11    1    3    3    0    0 -0.10718827792E+02  0.98472635448E+01 -0.83101926276E+01  0.16760703157E+02  0.51100000000E-03 0. -1.
        -12    1    3    3    0    0 -0.12523550409E+01  0.25998017551E+01 -0.90746655668E+01  0.95224428307E+01  0.00000000000E+00 0.  1.
</event>
<event>
 7    1  0.1714203E-010  0.4778727E+02  0.7816164E-02  0.1312668E+00
        -11   -1    0    0    0    0  0.00000000000E+00  0.00000000000E+00  0.45593999997E+02  0.45594000000E+02  0.51100000000E-03 0.  1.
         11   -1    0    0    0    0 -0.00000000000E+00 -0.00000000000E+00 -0.45593999997E+02  0.45594000000E+02  0.51100000000E-03 0. -1.
    9900012    2    1    2    0    0 -0.12956349586E+02  0.24267267587E+02 -0.33568675396E+02  0.47787271451E+02  0.20000001854E+02 0.  0.
        -12    1    1    2    0    0  0.12956349586E+02 -0.24267267587E+02  0.33568675396E+02  0.43400728549E+02  0.00000000000E+00 0.  1.
         11    1    3    3    0    0 -0.37529008482E+01  0.39305099722E-01 -0.14303081041E+01  0.40164152178E+01  0.51100000000E-03 0. -1.
        -11    1    3    3    0    0 -0.63955019935E+00  0.11508304954E+02 -0.23491844774E+02  0.26167095340E+02  0.51100000000E-03 0.  1.
        -12    1    3    3    0    0 -0.85638985384E+01  0.12719657534E+02 -0.86465225179E+01  0.17603760894E+02  0.00000000000E+00 0.  1.
</event>
<event>
 7    1  0.1714203E-010  0.4778728E+02  0.7816164E-02  0.1312668E+00
        -11   -1    0    0    0    0  0.00000000000E+00  0.00000000000E+00  0.45593999997E+02  0.45594000000E+02  0.51100000000E-03 0.  1.
         11   -1    0    0    0    0 -0.00000000000E+00 -0.00000000000E+00 -0.45593999997E+02  0.45594000000E+02  0.51100000000E-03 0. -1.
    9900012    2    1    2    0    0  0.33739006304E+02  0.20826430100E+02  0.17651119164E+02  0.47787277139E+02  0.20000027790E+02 0.  0.
        -12    1    1    2    0    0 -0.33739006304E+02 -0.20826430100E+02 -0.17651119164E+02  0.43400722861E+02  0.00000000000E+00 0.  1.
         11    1    3    3    0    0  0.20065296086E+02  0.17258632684E+02  0.19712308359E+01  0.26539824046E+02  0.51100000000E-03 0. -1.
        -11    1    3    3    0    0  0.67720547444E+01  0.24298206104E+01  0.64208036193E+01  0.96432086485E+01  0.51100000000E-03 0.  1.
         12    1    3    3    0    0  0.69016554736E+01  0.11379768055E+01  0.92590847093E+01  0.11604244445E+02  0.00000000000E+00 0. -1.
</event>
<event>
 7    1  0.1714203E-010  0.4778727E+02  0.7816164E-02  0.1312668E+00
        -11   -1    0    0    0    0  0.00000000000E+00  0.00000000000E+00  0.45593999997E+02  0.45594000000E+02  0.51100000000E-03 0.  1.
         11   -1    0    0    0    0 -0.00000000000E+00 -0.00000000000E+00 -0.45593999997E+02  0.45594000000E+02  0.51100000000E-03 0. -1.
    9900012    2    1    2    0    0  0.11439088738E+02  0.36002144700E+02 -0.21368581521E+02  0.47787269011E+02  0.19999990730E+02 0.  0.
        -12    1    1    2    0    0 -0.11439088738E+02 -0.36002144700E+02  0.21368581521E+02  0.43400730989E+02  0.00000000000E+00 0.  1.
         11    1    3    3    0    0 -0.21527427128E+01  0.57452384248E+01 -0.43966989587E+01  0.75480479423E+01  0.51100000000E-03 0. -1.
        -11    1    3    3    0    0  0.12658969812E+02  0.25246458543E+02 -0.70873120603E+01  0.29118090222E+02  0.51100000000E-03 0.  1.
         12    1    3    3    0    0  0.93286163956E+00  0.50104477318E+01 -0.98845705021E+01  0.11121130847E+02  0.00000000000E+00 0. -1.
</event>
<event>
 7    1  0.1714203E-010  0.4778727E+02  0.7816164E-02  0.1312668E+00
        -11   -1    0    0    0    0  0.00000000000E+00  0.00000000000E+00  0.45593999997E+02  0.45594000000E+02  0.51100000000E-03 0.  1.
         11   -1    0    0    0    0 -0.00000000000E+00 -0.00000000000E+00 -0.45593999997E+02  0.45594000000E+02  0.51100000000E-03 0. -1.
    9900012    2    1    2    0    0  0.33949268510E+02  0.31046446629E+01 -0.26859481331E+02  0.47787269727E+02  0.19999993994E+02 0.  0.
        -12    1    1    2    0    0 -0.33949268510E+02 -0.31046446629E+01  0.26859481331E+02  0.43400730273E+02  0.00000000000E+00 0.  1.
         11    1    3    3    0    0  0.20368558027E+02  0.56636566102E+01 -0.23091739816E+02  0.31307884156E+02  0.51100000000E-03 0. -1.
        -11    1    3    3    0    0  0.47866783076E+01 -0.22363005060E+01 -0.53716616500E+01  0.75344593912E+01  0.51100000000E-03 0.  1.
        -12    1    3    3    0    0  0.87940321751E+01 -0.32271144134E+00  0.16039201351E+01  0.89449261803E+01  0.00000000000E+00 0.  1.
</event>
<event>
 7    1  0.1714203E-010  0.4778727E+02  0.7816164E-02  0.1312668E+00
        -11   -1    0    0    0    0  0.00000000000E+00  0.00000000000E+00  0.45593999997E+02  0.45594000000E+02  0.51100000000E-03 0.  1.
         11   -1    0    0    0    0 -0.00000000000E+00 -0.00000000000E+00 -0.45593999997E+02  0.45594000000E+02  0.51100000000E-03 0. -1.
    9900012    2    1    2    0    0  0.28192888838E+02  0.28633345159E+01 -0.32872259328E+02  0.47787273060E+02  0.20000009190E+02 0.  0.
        -12    1    1    2    0    0 -0.28192888838E+02 -0.28633345159E+01  0.32872259328E+02  0.43400726940E+02  0.00000000000E+00 0.  1.
         11    1    3    3    0    0  0.15911854414E+02 -0.76419791249E+01 -0.16293696831E+02  0.24022312805E+02  0.51100000000E-03 0. -1.
        -11    1    3    3    0    0  0.90189116333E+00  0.31527664962E+01 -0.19002175061E+01  0.37900093775E+01  0.51100000000E-03 0.  1.
         12    1    3    3    0    0  0.11379143260E+02  0.73525471446E+01 -0.14678344991E+02  0.19974950877E+02  0.00000000000E+00 0. -1.
</event>
<event>
 7    1  0.1714203E-010  0.4778728E+02  0.7816164E-02  0.1312668E+00
        -11   -1    0    0    0    0  0.00000000000E+00  0.00000000000E+00  0.45593999997E+02  0.45594000000E+02  0.51100000000E-03 0.  1.
         11   -1    0    0    0    0 -0.00000000000E+00 -0.00000000000E+00 -0.45593999997E+02  0.45594000000E+02  0.51100000000E-03 0. -1.
    9900012    2    1    2    0    0  0.30480213550E+02  0.27645957830E+02 -0.13794215358E+02  0.47787276737E+02  0.20000025955E+02 0.  0.
        -12    1    1    2    0    0 -0.30480213550E+02 -0.27645957830E+02  0.13794215358E+02  0.43400723263E+02  0.00000000000E+00 0.  1.
         11    1    3    3    0    0  0.16878391107E+02  0.12042147889E+02 -0.14752917355E+02  0.25446846226E+02  0.51100000000E-03 0. -1.
        -11    1    3    3    0    0 -0.11850089379E-03  0.50445422028E+01 -0.44314648813E+00  0.50639693049E+01  0.51100000000E-03 0.  1.
         12    1    3    3    0    0  0.13601940944E+02  0.10559267739E+02  0.14018484845E+01  0.17276461206E+02  0.00000000000E+00 0. -1.
</event>
<event>
 7    1  0.1714203E-010  0.4778727E+02  0.7816164E-02  0.1312668E+00
        -11   -1    0    0    0    0  0.00000000000E+00  0.00000000000E+00  0.45593999997E+02  0.45594000000E+02  0.51100000000E-03 0.  1.
         11   -1    0    0    0    0 -0.00000000000E+00 -0.00000000000E+00 -0.45593999997E+02  0.45594000000E+02  0.51100000000E-03 0. -1.
    9900012    2    1    2    0    0  0.30241925992E+02  0.30284618215E+02 -0.72035753873E+01  0.47787266291E+02  0.19999978326E+02 0.  0.
        -12    1    1    2    0    0 -0.30241925992E+02 -0.30284618215E+02  0.72035753873E+01  0.43400733709E+02  0.00000000000E+00 0.  1.
         11    1    3    3    0    0  0.42695582321E+01  0.11292500797E+02 -0.52628057671E+00  0.12084149670E+02  0.51100000000E-03 0. -1.
        -11    1    3    3    0    0  0.23079529834E+02  0.17151573419E+02 -0.64216692383E+00  0.28762015693E+02  0.51100000000E-03 0.  1.
        -12    1    3    3    0    0  0.28928379261E+01  0.18405439991E+01 -0.60351278868E+01  0.69411009277E+01  0.00000000000E+00 0.  1.
</event>
<event>
 7    1  0.1714203E-010  0.4778727E+02  0.7816164E-02  0.1312668E+00
        -11   -1    0    0    0    0  0.00000000000E+00  0.00000000000E+00  0.45593999997E+02  0.45594000000E+02  0.51100000000E-03 0.  1.
         11   -1    0    0    0    0 -0.00000000000E+00 -0.00000000000E+00 -0.45593999997E+02  0.45594000000E+02  0.51100000000E-03 0. -1.
    9900012    2    1    2    0    0  0.21903084489E+02  0.23277107828E+02 -0.29360764154E+02  0.47787270390E+02  0.19999997017E+02 0.  0.
        -12    1    1    2    0    0 -0.21903084489E+02 -0.23277107828E+02  0.29360764154E+02  0.43400729610E+02  0.00000000000E+00 0.  1.
         11    1    3    3    0    0 -0.11804748802E+01  0.94927293135E+00 -0.36723344875E+01  0.39724905148E+01  0.51100000000E-03 0. -1.
        -11    1    3    3    0    0  0.33191733175E+01  0.38634574400E+00 -0.96450172699E+01  0.10207474367E+02  0.51100000000E-03 0.  1.
         12    1    3    3    0    0  0.19764386052E+02  0.21941489153E+02 -0.16043412396E+02  0.33607305509E+02  0.00000000000E+00 0. -1.
</event>
<event>
 7    1  0.1714203E-010  0.4778727E+02  0.7816164E-02  0.1312668E+00
        -11   -1    0    0    0    0  0.00000000000E+00  0.00000000000E+00  0.45593999997E+02  0.45594000000E+02  0.51100000000E-03 0.  1.
         11   -1    0    0    0    0 -0.00000000000E+00 -0.00000000000E+00 -0.45593999997E+02  0.45594000000E+02  0.51100000000E-03 0. -1.
    9900012    2    1    2    0    0  0.24388872435E+01  0.63908529122E+01 -0.42858280229E+02  0.47787270097E+02  0.19999995679E+02 0.  0.
        -12    1    1    2    0    0 -0.24388872435E+01 -0.63908529122E+01  0.42858280229E+02  0.43400729903E+02  0.00000000000E+00 0.  1.
         11    1    3    3    0    0  0.31147838331E+00  0.67347463886E+01 -0.19360021438E+02  0.20500347755E+02  0.51100000000E-03 0. -1.
        -11    1    3    3    0    0  0.19046523244E+01  0.17370988414E+01  0.95144289682E+00  0.27478094382E+01  0.51100000000E-03 0.  1.
         12    1    3    3    0    0  0.22275653580E+00 -0.20809923178E+01 -0.24449701688E+02  0.24539112904E+02  0.00000000000E+00 0. -1.
</event>
<event>
 7    1  0.1714203E-010  0.4778731E+02  0.7816164E-02  0.1312668E+00
        -11   -1    0    0    0    0  0.00000000000E+00  0.00000000000E+00  0.45593999997E+02  0.45594000000E+02  0.51100000000E-03 0.  1.
         11   -1    0    0    0    0 -0.00000000000E+00 -0.00000000000E+00 -0.45593999997E+02  0.45594000000E+02  0.51100000000E-03 0. -1.
    9900012    2    1    2    0    0 -0.94050253472E+01  0.30865338027E+02 -0.29025780113E+02  0.47787314470E+02  0.20000197992E+02 0.  0.
        -12    1    1    2    0    0  0.94050253472E+01 -0.30865338027E+02  0.29025780113E+02  0.43400685530E+02  0.00000000000E+00 0.  1.
         11    1    3    3    0    0 -0.12703584440E+02  0.13680215569E+02 -0.17110255511E+02  0.25323708250E+02  0.51100000000E-03 0. -1.
        -11    1    3    3    0    0 -0.10835938909E+00  0.12426771998E+02 -0.10887106674E+02  0.16521667471E+02  0.51100000000E-03 0.  1.
        -12    1    3    3    0    0  0.34069184824E+01  0.47583504604E+01 -0.10284179285E+01  0.59419387481E+01  0.00000000000E+00 0.  1.
</event>
<event>
 7    1  0.1714203E-010  0.4778727E+02  0.7816164E-02  0.1312668E+00
        -11   -1    0    0    0    0  0.00000000000E+00  0.00000000000E+00  0.45593999997E+02  0.45594000000E+02  0.51100000000E-03 0.  1.
         11   -1    0    0    0    0 -0.00000000000E+00 -0.00000000000E+00 -0.45593999997E+02  0.45594000000E+02  0.51100000000E-03 0. -1.
    9900012    2    1    2    0    0 -0.66376220239E+01  0.35707893828E+02 -0.23759452088E+02  0.47787271074E+02  0.20000000136E+02 0.  0.
        -12    1    1    2    0    0  0.66376220239E+01 -0.35707893828E+02  0.23759452088E+02  0.43400728926E+02  0.00000000000E+00 0.  1.
         11    1    3    3    0    0 -0.11219886556E+02  0.15866938383E+02 -0.76574732820E+01  0.20887376219E+02  0.51100000000E-03 0. -1.
        -11    1    3    3    0    0  0.20586337522E+01  0.11174927558E+02 -0.45505489566E+01  0.12240280835E+02  0.51100000000E-03 0.  1.
        -12    1    3    3    0    0  0.25236307803E+01  0.86660278871E+01 -0.11551429850E+02  0.14659614020E+02  0.00000000000E+00 0.  1.
</event>
<event>
 7    1  0.1714203E-010  0.4778727E+02  0.7816164E-02  0.1312668E+00
        -11   -1    0    0    0    0  0.00000000000E+00  0.00000000000E+00  0.45593999997E+02  0.45594000000E+02  0.51100000000E-03 0.  1.
         11   -1    0    0    0    0 -0.00000000000E+00 -0.00000000000E+00 -0.45593999997E+02  0.45594000000E+02  0.51100000000E-03 0. -1.
    9900012    2    1    2    0    0 -0.26749354986E+02 -0.32622310050E+02  0.10192185310E+02  0.47787265599E+02  0.19999975171E+02 0.  0.
        -12    1    1    2    0    0  0.26749354986E+02  0.32622310050E+02 -0.10192185310E+02  0.43400734401E+02  0.00000000000E+00 0.  1.
         11    1    3    3    0    0 -0.88123503761E+01 -0.22009834199E+02  0.56154742308E+01  0.24364397627E+02  0.51100000000E-03 0. -1.
        -11    1    3    3    0    0 -0.49222191496E+01 -0.62328712892E+01 -0.20106695357E+01  0.81926624553E+01  0.51100000000E-03 0.  1.
        -12    1    3    3    0    0 -0.13014785461E+02 -0.43796045615E+01  0.65873806153E+01  0.15230205516E+02  0.00000000000E+00 0.  1.
</event>
<event>
 7    1  0.1742848E-010  0.4778727E+02  0.7816164E-02  0.1312668E+00
        -11   -1    0    0    0    0  0.00000000000E+00  0.00000000000E+00  0.45593999997E+02  0.45594000000E+02  0.51100000000E-03 0. -1.
         11   -1    0    0    0    0 -0.00000000000E+00 -0.00000000000E+00 -0.45593999997E+02  0.45594000000E+02  0.51100000000E-03 0.  1.
    9900012    2    1    2    0    0 -0.23307548686E+02 -0.22389284360E+02  0.28967241701E+02  0.47787274526E+02  0.20000015873E+02 0.  0.
        -12    1    1    2    0    0  0.23307548686E+02  0.22389284360E+02 -0.28967241701E+02  0.43400725474E+02  0.00000000000E+00 0.  1.
         11    1    3    3    0    0 -0.17938695940E+02 -0.11465438251E+02  0.13624186662E+02  0.25275908466E+02  0.51100000000E-03 0. -1.
        -11    1    3    3    0    0 -0.11430074354E+00 -0.22966738865E+01 -0.15889546227E+01  0.27950943911E+01  0.51100000000E-03 0.  1.
        -12    1    3    3    0    0 -0.52545520018E+01 -0.86271722227E+01  0.16932009663E+02  0.19716271669E+02  0.00000000000E+00 0.  1.
</event>
<event>
 7    1  0.1714203E-010  0.4778727E+02  0.7816164E-02  0.1312668E+00
        -11   -1    0    0    0    0  0.00000000000E+00  0.00000000000E+00  0.45593999997E+02  0.45594000000E+02  0.51100000000E-03 0. -1.
         11   -1    0    0    0    0 -0.00000000000E+00 -0.00000000000E+00 -0.45593999997E+02  0.45594000000E+02  0.51100000000E-03 0.  1.
    9900012    2    1    2    0    0 -0.27695245994E+02  0.32647770109E+02 -0.71217820292E+01  0.47787270478E+02  0.19999997416E+02 0.  0.
        -12    1    1    2    0    0  0.27695245994E+02 -0.32647770109E+02  0.71217820292E+01  0.43400729522E+02  0.00000000000E+00 0.  1.
         11    1    3    3    0    0 -0.26538716502E+02  0.26207894484E+02 -0.10167301930E+02  0.38659167550E+02  0.51100000000E-03 0. -1.
        -11    1    3    3    0    0  0.10282571101E+01  0.38270897816E+01 -0.74498332209E+00  0.40322362644E+01  0.51100000000E-03 0.  1.
        -12    1    3    3    0    0 -0.21847866021E+01  0.26127858436E+01  0.37905032231E+01  0.50958666629E+01  0.00000000000E+00 0.  1.
</event>
<event>
 7    1  0.1714203E-010  0.4778727E+02  0.7816164E-02  0.1312668E+00
        -11   -1    0    0    0    0  0.00000000000E+00  0.00000000000E+00  0.45593999997E+02  0.45594000000E+02  0.51100000000E-03 0. -1.
         11   -1    0    0    0    0 -0.00000000000E+00 -0.00000000000E+00 -0.45593999997E+02  0.45594000000E+02  0.51100000000E-03 0.  1.
    9900012    2    1    2    0    0  0.39353720268E+02 -0.17808961620E+02  0.42129945936E+01  0.47787265716E+02  0.19999975707E+02 0.  0.
        -12    1    1    2    0    0 -0.39353720268E+02  0.17808961620E+02 -0.42129945936E+01  0.43400734284E+02  0.00000000000E+00 0.  1.
         11    1    3    3    0    0  0.22632265495E+02 -0.96670746434E+01  0.67204127737E+01  0.25511482154E+02  0.51100000000E-03 0. -1.
        -11    1    3    3    0    0  0.16821215703E+02 -0.92369497473E+01 -0.47574900283E+01  0.19771399798E+02  0.51100000000E-03 0.  1.
        -12    1    3    3    0    0 -0.99760929695E-01  0.10950627705E+01  0.22500718482E+01  0.25043837638E+01  0.00000000000E+00 0.  1.
</event>
<event>
 7    1  0.1714203E-010  0.4778726E+02  0.7816164E-02  0.1312668E+00
        -11   -1    0    0    0    0  0.00000000000E+00  0.00000000000E+00  0.45593999997E+02  0.45594000000E+02  0.51100000000E-03 0.  1.
         11   -1    0    0    0    0 -0.00000000000E+00 -0.00000000000E+00 -0.45593999997E+02  0.45594000000E+02  0.51100000000E-03 0. -1.
    9900012    2    1    2    0    0 -0.16968080827E+02  0.38679136081E+02 -0.99816177310E+01  0.47787262363E+02  0.19999960419E+02 0.  0.
        -12    1    1    2    0    0  0.16968080827E+02 -0.38679136081E+02  0.99816177310E+01  0.43400737637E+02  0.00000000000E+00 0.  1.
         11    1    3    3    0    0 -0.86587675635E+01  0.46197661646E+01 -0.52715374382E+00  0.98282443226E+01  0.51100000000E-03 0. -1.
        -11    1    3    3    0    0 -0.14596972192E+01 -0.14135127044E+00 -0.16671880469E+01  0.22204081602E+01  0.51100000000E-03 0.  1.
         12    1    3    3    0    0 -0.68496160442E+01  0.34200721186E+02 -0.77872759403E+01  0.35738609880E+02  0.00000000000E+00 0. -1.
</event>
<event>
 7    1  0.1714203E-010  0.4778727E+02  0.7816164E-02  0.1312668E+00
        -11   -1    0    0    0    0  0.00000000000E+00  0.00000000000E+00  0.45593999997E+02  0.45594000000E+02  0.51100000000E-03 0.  1.
         11   -1    0    0    0    0 -0.00000000000E+00 -0.00000000000E+00 -0.45593999997E+02  0.45594000000E+02  0.51100000000E-03 0. -1.
    9900012    2    1    2    0    0  0.60296565447E+01  0.37201124898E+02 -0.21525398531E+02  0.47787271508E+02  0.20000002112E+02 0.  0.
        -12    1    1    2    0    0 -0.60296565447E+01 -0.37201124898E+02  0.21525398531E+02  0.43400728492E+02  0.00000000000E+00 0.  1.
         11    1    3    3    0    0  0.86631770777E+01  0.17408353994E+02 -0.10686509497E+02  0.22187900111E+02  0.51100000000E-03 0. -1.
        -11    1    3    3    0    0 -0.43184074103E+01  0.12835983037E+01 -0.30899812403E+01  0.54629892452E+01  0.51100000000E-03 0.  1.
         12    1    3    3    0    0  0.16848868773E+01  0.18509172601E+02 -0.77489077936E+01  0.20136382152E+02  0.00000000000E+00 0. -1.
</event>
<event>
 7    1  0.1714203E-010  0.4778728E+02  0.7816164E-02  0.1312668E+00
        -11   -1    0    0    0    0  0.00000000000E+00  0.00000000000E+00  0.45593999997E+02  0.45594000000E+02  0.51100000000E-03 0.  1.
         11   -1    0    0    0    0 -0.00000000000E+00 -0.00000000000E+00 -0.45593999997E+02  0.45594000000E+02  0.51100000000E-03 0. -1.
    9900012    2    1    2    0    0  0.23305363231E+02  0.11038413098E+02 -0.34908969362E+02  0.47787278105E+02  0.20000032194E+02 0.  0.
        -12    1    1    2    0    0 -0.23305363231E+02 -0.11038413098E+02  0.34908969362E+02  0.43400721895E+02  0.00000000000E+00 0.  1.
         11    1    3    3    0    0  0.20879416440E+02  0.85776864327E+01 -0.33157471592E+02  0.40111652398E+02  0.51100000000E-03 0. -1.
        -11    1    3    3    0    0 -0.11341416051E+01  0.32235081473E+01 -0.21115873252E+01  0.40169743899E+01  0.51100000000E-03 0.  1.
        -12    1    3    3    0    0  0.35600883959E+01 -0.76278148211E+00  0.36008955541E+00  0.36586513177E+01  0.00000000000E+00 0.  1.
</event>
<event>
 7    1  0.3288074E-010  0.4778727E+02  0.7816164E-02  0.1312668E+00
        -11   -1    0    0    0    0  0.00000000000E+00  0.00000000000E+00  0.45593999997E+02  0.45594000000E+02  0.51100000000E-03 0.  1.
         11   -1    0    0    0    0 -0.00000000000E+00 -0.00000000000E+00 -0.45593999997E+02  0.45594000000E+02  0.51100000000E-03 0. -1.
    9900012    2    1    2    0    0  0.17532706664E+02  0.38946311265E+02 -0.77079372125E+01  0.47787271202E+02  0.20000000719E+02 0.  0.
        -12    1    1    2    0    0 -0.17532706664E+02 -0.38946311265E+02  0.77079372125E+01  0.43400728798E+02  0.00000000000E+00 0.  1.
         11    1    3    3    0    0  0.65388203494E+01  0.18568032018E+02 -0.54697222527E+01  0.20431491536E+02  0.51100000000E-03 0. -1.
        -11    1    3    3    0    0  0.80289904331E+01  0.32278162191E+01 -0.45854592663E+01  0.97933611116E+01  0.51100000000E-03 0.  1.
        -12    1    3    3    0    0  0.29648958814E+01  0.17150463028E+02  0.23472443065E+01  0.17562418554E+02  0.00000000000E+00 0.  1.
</event>
<event>
 7    1  0.1714203E-010  0.4778727E+02  0.7816164E-02  0.1312668E+00
        -11   -1    0    0    0    0  0.00000000000E+00  0.00000000000E+00  0.45593999997E+02  0.45594000000E+02  0.51100000000E-03 0. -1.
         11   -1    0    0    0    0 -0.00000000000E+00 -0.00000000000E+00 -0.45593999997E+02  0.45594000000E+02  0.51100000000E-03 0.  1.
    9900012    2    1    2    0    0 -0.33400170712E+02  0.19671726205E+02  0.19521156553E+02  0.47787265344E+02  0.19999974010E+02 0.  0.
        -12    1    1    2    0    0  0.33400170712E+02 -0.19671726205E+02 -0.19521156553E+02  0.43400734656E+02  0.00000000000E+00 0.  1.
         11    1    3    3    0    0 -0.18134645413E+02  0.14677219463E+02  0.99716484378E+01  0.25371635900E+02  0.51100000000E-03 0. -1.
        -11    1    3    3    0    0 -0.56947974718E+01  0.76989161513E+01  0.77261889512E+01  0.12304390441E+02  0.51100000000E-03 0.  1.
         12    1    3    3    0    0 -0.95707278279E+01 -0.27044094096E+01  0.18233191639E+01  0.10111239003E+02  0.00000000000E+00 0. -1.
</event>
<event>
 7    1  0.1714203E-010  0.4778727E+02  0.7816164E-02  0.1312668E+00
        -11   -1    0    0    0    0  0.00000000000E+00  0.00000000000E+00  0.45593999997E+02  0.45594000000E+02  0.51100000000E-03 0. -1.
         11   -1    0    0    0    0 -0.00000000000E+00 -0.00000000000E+00 -0.45593999997E+02  0.45594000000E+02  0.51100000000E-03 0.  1.
    9900012    2    1    2    0    0 -0.23973877174E+02  0.14070025894E+02  0.33330328317E+02  0.47787271882E+02  0.20000003821E+02 0.  0.
        -12    1    1    2    0    0  0.23973877174E+02 -0.14070025894E+02 -0.33330328317E+02  0.43400728118E+02  0.00000000000E+00 0.  1.
         11    1    3    3    0    0 -0.90159272799E+01  0.72057850675E+01  0.27020548378E+01  0.11853749776E+02  0.51100000000E-03 0. -1.
        -11    1    3    3    0    0 -0.13404872511E+02  0.78178130785E+01  0.20872802463E+02  0.26009280868E+02  0.51100000000E-03 0.  1.
        -12    1    3    3    0    0 -0.15530773834E+01 -0.95357225176E+00  0.97554710164E+01  0.99242412380E+01  0.00000000000E+00 0.  1.
</event>
<event>
 7    1  0.1714203E-010  0.4778726E+02  0.7816164E-02  0.1312668E+00
        -11   -1    0    0    0    0  0.00000000000E+00  0.00000000000E+00  0.45593999997E+02  0.45594000000E+02  0.51100000000E-03 0.  1.
         11   -1    0    0    0    0 -0.00000000000E+00 -0.00000000000E+00 -0.45593999997E+02  0.45594000000E+02  0.51100000000E-03 0. -1.
    9900012    2    1    2    0    0  0.35599691160E+02  0.98861456754E+01  0.22771691694E+02  0.47787264642E+02  0.19999970807E+02 0.  0.
        -12    1    1    2    0    0 -0.35599691160E+02 -0.98861456754E+01 -0.22771691694E+02  0.43400735358E+02  0.00000000000E+00 0.  1.
         11    1    3    3    0    0  0.26831411070E+02  0.10606470112E+02  0.76136698386E+01  0.29839400076E+02  0.51100000000E-03 0. -1.
        -11    1    3    3    0    0  0.36437604026E+00 -0.11356982089E+01  0.20467922480E+01  0.23689531629E+01  0.51100000000E-03 0.  1.
         12    1    3    3    0    0  0.84039040501E+01  0.41537377255E+00  0.13111229608E+02  0.15578911402E+02  0.00000000000E+00 0. -1.
</event>
<event>
 7    1  0.1870390E-010  0.4778727E+02  0.7816164E-02  0.1312668E+00
        -11   -1    0    0    0    0  0.00000000000E+00  0.00000000000E+00  0.45593999997E+02  0.45594000000E+02  0.51100000000E-03 0.  1.
         11   -1    0    0    0    0 -0.00000000000E+00 -0.00000000000E+00 -0.45593999997E+02  0.45594000000E+02  0.51100000000E-03 0. -1.
    9900012    2    1    2    0    0 -0.10763998152E+02  0.41937322206E+02  0.30034490420E+01  0.47787270097E+02  0.19999995678E+02 0.  0.
        -12    1    1    2    0    0  0.10763998152E+02 -0.41937322206E+02 -0.30034490420E+01  0.43400729903E+02  0.00000000000E+00 0.  1.
         11    1    3    3    0    0 -0.63296072348E+01  0.12891340252E+02  0.19753602357E+01  0.14496642010E+02  0.51100000000E-03 0. -1.
        -11    1    3    3    0    0  0.30108486001E+01  0.26767300489E+01  0.40644383695E+01  0.57227399529E+01  0.51100000000E-03 0.  1.
        -12    1    3    3    0    0 -0.74452395173E+01  0.26369251904E+02 -0.30363495633E+01  0.27567888133E+02  0.00000000000E+00 0.  1.
</event>
<event>
 7    1  0.1714203E-010  0.4778727E+02  0.7816164E-02  0.1312668E+00
        -11   -1    0    0    0    0  0.00000000000E+00  0.00000000000E+00  0.45593999997E+02  0.45594000000E+02  0.51100000000E-03 0.  1.
         11   -1    0    0    0    0 -0.00000000000E+00 -0.00000000000E+00 -0.45593999997E+02  0.45594000000E+02  0.51100000000E-03 0. -1.
    9900012    2    1    2    0    0 -0.16420373450E+02  0.18064347530E+02 -0.35884173484E+02  0.47787271635E+02  0.20000002693E+02 0.  0.
        -12    1    1    2    0    0  0.16420373450E+02 -0.18064347530E+02  0.35884173484E+02  0.43400728365E+02  0.00000000000E+00 0.  1.
         11    1    3    3    0    0 -0.15268906086E+02  0.77982172588E+01 -0.17643316017E+02  0.24601591124E+02  0.51100000000E-03 0. -1.
        -11    1    3    3    0    0  0.87437538158E+00 -0.18341464060E+01 -0.22725148918E+01  0.30484339490E+01  0.51100000000E-03 0.  1.
        -12    1    3    3    0    0 -0.20258427457E+01  0.12100276677E+02 -0.15968342575E+02  0.20137246562E+02  0.00000000000E+00 0.  1.
</event>
<event>
 7    1  0.1714203E-010  0.4778727E+02  0.7816164E-02  0.1312668E+00
        -11   -1    0    0    0    0  0.00000000000E+00  0.00000000000E+00  0.45593999997E+02  0.45594000000E+02  0.51100000000E-03 0. -1.
         11   -1    0    0    0    0 -0.00000000000E+00 -0.00000000000E+00 -0.45593999997E+02  0.45594000000E+02  0.51100000000E-03 0.  1.
    9900012    2    1    2    0    0 -0.28378810527E+02  0.17244981068E+02 -0.27944178396E+02  0.47787269992E+02  0.19999995202E+02 0.  0.
        -12    1    1    2    0    0  0.28378810527E+02 -0.17244981068E+02  0.27944178396E+02  0.43400730008E+02  0.00000000000E+00 0.  1.
         11    1    3    3    0    0  0.38678947973E+00  0.47909440667E+01 -0.62941461271E+01  0.79195345117E+01  0.51100000000E-03 0.  1.
        -11    1    3    3    0    0 -0.13485549575E+02  0.10794992753E+02 -0.15837831043E+02  0.23435631169E+02  0.51100000000E-03 0. -1.
         12    1    3    3    0    0 -0.15280050432E+02  0.16590442487E+01 -0.58122012262E+01  0.16432104311E+02  0.00000000000E+00 0. -1.
</event>
<event>
 7    1  0.1714203E-010  0.4778725E+02  0.7816164E-02  0.1312668E+00
        -11   -1    0    0    0    0  0.00000000000E+00  0.00000000000E+00  0.45593999997E+02  0.45594000000E+02  0.51100000000E-03 0.  1.
         11   -1    0    0    0    0 -0.00000000000E+00 -0.00000000000E+00 -0.45593999997E+02  0.45594000000E+02  0.51100000000E-03 0. -1.
    9900012    2    1    2    0    0 -0.27356941518E+02  0.17705113873E+02 -0.28666215484E+02  0.47787248662E+02  0.19999897951E+02 0.  0.
        -12    1    1    2    0    0  0.27356941518E+02 -0.17705113873E+02  0.28666215484E+02  0.43400751338E+02  0.00000000000E+00 0.  1.
         11    1    3    3    0    0  0.12653446493E+01 -0.11606030856E+01 -0.29100499985E+01  0.33788293622E+01  0.51100000000E-03 0. -1.
        -11    1    3    3    0    0 -0.21707086442E+02  0.87298751716E+01 -0.13249799852E+02  0.26888018125E+02  0.51100000000E-03 0.  1.
         12    1    3    3    0    0 -0.69151997253E+01  0.10135841787E+02 -0.12506365634E+02  0.17520401175E+02  0.00000000000E+00 0. -1.
</event>
<event>
 7    1  0.1714203E-010  0.4778727E+02  0.7816164E-02  0.1312668E+00
        -11   -1    0    0    0    0  0.00000000000E+00  0.00000000000E+00  0.45593999997E+02  0.45594000000E+02  0.51100000000E-03 0.  1.
         11   -1    0    0    0    0 -0.00000000000E+00 -0.00000000000E+00 -0.45593999997E+02  0.45594000000E+02  0.51100000000E-03 0. -1.
    9900012    2    1    2    0    0 -0.12643402833E+02  0.16742985976E+02 -0.37992628954E+02  0.47787273400E+02  0.20000010738E+02 0.  0.
        -12    1    1    2    0    0  0.12643402833E+02 -0.16742985976E+02  0.37992628954E+02  0.43400726600E+02  0.00000000000E+00 0.  1.
         11    1    3    3    0    0 -0.49931912781E+00  0.75018940868E+01 -0.25230902346E+02  0.26327289415E+02  0.51100000000E-03 0. -1.
        -11    1    3    3    0    0 -0.27021806498E+01  0.27535774854E+01  0.55062035339E+00  0.38970697026E+01  0.51100000000E-03 0.  1.
        -12    1    3    3    0    0 -0.94419030556E+01  0.64875144038E+01 -0.13312346961E+02  0.17562914282E+02  0.00000000000E+00 0.  1.
</event>
<event>
 7    1  0.1714203E-010  0.4778727E+02  0.7816164E-02  0.1312668E+00
        -11   -1    0    0    0    0  0.00000000000E+00  0.00000000000E+00  0.45593999997E+02  0.45594000000E+02  0.51100000000E-03 0.  1.
         11   -1    0    0    0    0 -0.00000000000E+00 -0.00000000000E+00 -0.45593999997E+02  0.45594000000E+02  0.51100000000E-03 0. -1.
    9900012    2    1    2    0    0  0.39737435660E+02 -0.43208793241E+01 -0.16908275365E+02  0.47787267670E+02  0.19999984613E+02 0.  0.
        -12    1    1    2    0    0 -0.39737435660E+02  0.43208793241E+01  0.16908275365E+02  0.43400732330E+02  0.00000000000E+00 0.  1.
         11    1    3    3    0    0  0.74972479457E+00 -0.15384214550E+01 -0.24913645138E+01  0.30225362268E+01  0.51100000000E-03 0. -1.
        -11    1    3    3    0    0  0.87483710989E+01 -0.61787006552E+01  0.80470586753E+00  0.10740479061E+02  0.51100000000E-03 0.  1.
         12    1    3    3    0    0  0.30239339767E+02  0.33962427861E+01 -0.15221616719E+02  0.34024252382E+02  0.00000000000E+00 0. -1.
</event>
<event>
 7    1  0.1714203E-010  0.4778727E+02  0.7816164E-02  0.1312668E+00
        -11   -1    0    0    0    0  0.00000000000E+00  0.00000000000E+00  0.45593999997E+02  0.45594000000E+02  0.51100000000E-03 0.  1.
         11   -1    0    0    0    0 -0.00000000000E+00 -0.00000000000E+00 -0.45593999997E+02  0.45594000000E+02  0.51100000000E-03 0. -1.
    9900012    2    1    2    0    0  0.27212702236E+02 -0.72134907222E+00 -0.33801953815E+02  0.47787267412E+02  0.19999983436E+02 0.  0.
        -12    1    1    2    0    0 -0.27212702236E+02  0.72134907222E+00  0.33801953815E+02  0.43400732588E+02  0.00000000000E+00 0.  1.
         11    1    3    3    0    0  0.23874274673E+02 -0.22440295081E+01 -0.21370292571E+02  0.32120181576E+02  0.51100000000E-03 0.  1.
        -11    1    3    3    0    0  0.44559405847E+01  0.23905257187E+01 -0.13143880332E+02  0.14083025604E+02  0.51100000000E-03 0. -1.
        -12    1    3    3    0    0 -0.11175130217E+01 -0.86784528286E+00  0.71221908840E+00  0.15840602320E+01  0.00000000000E+00 0.  1.
</event>
<event>
 7    1  0.1714203E-010  0.4778727E+02  0.7816164E-02  0.1312668E+00
        -11   -1    0    0    0    0  0.00000000000E+00  0.00000000000E+00  0.45593999997E+02  0.45594000000E+02  0.51100000000E-03 0.  1.
         11   -1    0    0    0    0 -0.00000000000E+00 -0.00000000000E+00 -0.45593999997E+02  0.45594000000E+02  0.51100000000E-03 0. -1.
    9900012    2    1    2    0    0  0.31406533551E+02 -0.23933122097E+02 -0.18012739092E+02  0.47787268985E+02  0.19999990612E+02 0.  0.
        -12    1    1    2    0    0 -0.31406533551E+02  0.23933122097E+02  0.18012739092E+02  0.43400731015E+02  0.00000000000E+00 0.  1.
         11    1    3    3    0    0  0.21888618577E+02 -0.18921434306E+02 -0.16104325598E+02  0.33113163585E+02  0.51100000000E-03 0. -1.
        -11    1    3    3    0    0  0.17310713004E+01  0.24336986990E+01 -0.24849645892E+01  0.38851700703E+01  0.51100000000E-03 0.  1.
        -12    1    3    3    0    0  0.77868436736E+01 -0.74453864905E+01  0.57655109480E+00  0.10788935330E+02  0.00000000000E+00 0.  1.
</event>
<event>
 7    1  0.1714203E-010  0.4778726E+02  0.7816164E-02  0.1312668E+00
        -11   -1    0    0    0    0  0.00000000000E+00  0.00000000000E+00  0.45593999997E+02  0.45594000000E+02  0.51100000000E-03 0.  1.
         11   -1    0    0    0    0 -0.00000000000E+00 -0.00000000000E+00 -0.45593999997E+02  0.45594000000E+02  0.51100000000E-03 0. -1.
    9900012    2    1    2    0    0  0.31722741612E+02 -0.57748213938E+01 -0.29050696764E+02  0.47787264062E+02  0.19999968163E+02 0.  0.
        -12    1    1    2    0    0 -0.31722741612E+02  0.57748213938E+01  0.29050696764E+02  0.43400735938E+02  0.00000000000E+00 0.  1.
         11    1    3    3    0    0  0.28034165929E+02 -0.89519999641E+01 -0.24614411007E+02  0.38365635564E+02  0.51100000000E-03 0. -1.
        -11    1    3    3    0    0 -0.49956042872E+00 -0.38584504668E+00 -0.38390501571E+01  0.38905967913E+01  0.51100000000E-03 0.  1.
         12    1    3    3    0    0  0.41881361112E+01  0.35630236170E+01 -0.59723559993E+00  0.55310317069E+01  0.00000000000E+00 0. -1.
</event>
<event>
 7    1  0.1714203E-010  0.4778730E+02  0.7816164E-02  0.1312668E+00
        -11   -1    0    0    0    0  0.00000000000E+00  0.00000000000E+00  0.45593999997E+02  0.45594000000E+02  0.51100000000E-03 0.  1.
         11   -1    0    0    0    0 -0.00000000000E+00 -0.00000000000E+00 -0.45593999997E+02  0.45594000000E+02  0.51100000000E-03 0. -1.
    9900012    2    1    2    0    0  0.13001233864E+02  0.14930290800E+02 -0.38622204311E+02  0.47787304946E+02  0.20000154569E+02 0.  0.
        -12    1    1    2    0    0 -0.13001233864E+02 -0.14930290800E+02  0.38622204311E+02  0.43400695054E+02  0.00000000000E+00 0.  1.
         11    1    3    3    0    0  0.45087055858E+01  0.49414938434E+01 -0.14243808521E+02  0.15736355007E+02  0.51100000000E-03 0. -1.
        -11    1    3    3    0    0  0.37214295381E+01  0.59534180941E+01 -0.14233987934E+00  0.70222849353E+01  0.51100000000E-03 0.  1.
         12    1    3    3    0    0  0.47710987406E+01  0.40353788626E+01 -0.24236055911E+02  0.25028665003E+02  0.00000000000E+00 0. -1.
</event>
<event>
 7    1  0.1714203E-010  0.4778727E+02  0.7816164E-02  0.1312668E+00
        -11   -1    0    0    0    0  0.00000000000E+00  0.00000000000E+00  0.45593999997E+02  0.45594000000E+02  0.51100000000E-03 0. -1.
         11   -1    0    0    0    0 -0.00000000000E+00 -0.00000000000E+00 -0.45593999997E+02  0.45594000000E+02  0.51100000000E-03 0.  1.
    9900012    2    1    2    0    0 -0.31121429189E+02  0.23534671785E+02  0.19005240183E+02  0.47787270914E+02  0.19999999404E+02 0.  0.
        -12    1    1    2    0    0  0.31121429189E+02 -0.23534671785E+02 -0.19005240183E+02  0.43400729086E+02  0.00000000000E+00 0.  1.
         11    1    3    3    0    0 -0.34933142033E+01  0.69316363434E+01  0.21714476607E+01  0.80601496093E+01  0.51100000000E-03 0. -1.
        -11    1    3    3    0    0 -0.16301410351E+02  0.15523458908E+02  0.45166787371E+01  0.22958966505E+02  0.51100000000E-03 0.  1.
        -12    1    3    3    0    0 -0.11326704635E+02  0.10795765335E+01  0.12317113786E+02  0.16768154800E+02  0.00000000000E+00 0.  1.
</event>
<event>
 7    1  0.1714203E-010  0.4778727E+02  0.7816164E-02  0.1312668E+00
        -11   -1    0    0    0    0  0.00000000000E+00  0.00000000000E+00  0.45593999997E+02  0.45594000000E+02  0.51100000000E-03 0. -1.
         11   -1    0    0    0    0 -0.00000000000E+00 -0.00000000000E+00 -0.45593999997E+02  0.45594000000E+02  0.51100000000E-03 0.  1.
    9900012    2    1    2    0    0  0.32903992141E+01 -0.36934649924E+02  0.22552783310E+02  0.47787272736E+02  0.20000007714E+02 0.  0.
        -12    1    1    2    0    0 -0.32903992141E+01  0.36934649924E+02 -0.22552783310E+02  0.43400727264E+02  0.00000000000E+00 0.  1.
         11    1    3    3    0    0  0.80307744792E+01 -0.21556520177E+02  0.11920165627E+02  0.25908825711E+02  0.51100000000E-03 0. -1.
        -11    1    3    3    0    0  0.80614910069E+00  0.99536537215E+00 -0.43381074129E+00  0.13523389431E+01  0.51100000000E-03 0.  1.
         12    1    3    3    0    0 -0.55465243657E+01 -0.16373495119E+02  0.11066428423E+02  0.20526108082E+02  0.00000000000E+00 0. -1.
</event>
<event>
 7    1  0.1714203E-010  0.4778727E+02  0.7816164E-02  0.1312668E+00
        -11   -1    0    0    0    0  0.00000000000E+00  0.00000000000E+00  0.45593999997E+02  0.45594000000E+02  0.51100000000E-03 0. -1.
         11   -1    0    0    0    0 -0.00000000000E+00 -0.00000000000E+00 -0.45593999997E+02  0.45594000000E+02  0.51100000000E-03 0.  1.
    9900012    2    1    2    0    0 -0.80315643625E+01  0.41957369428E+02 -0.76613680511E+01  0.47787269178E+02  0.19999991491E+02 0.  0.
        -12    1    1    2    0    0  0.80315643625E+01 -0.41957369428E+02  0.76613680511E+01  0.43400730822E+02  0.00000000000E+00 0.  1.
         11    1    3    3    0    0  0.20111367279E+01  0.15705810708E+02 -0.39223697820E+01  0.16312637613E+02  0.51100000000E-03 0. -1.
        -11    1    3    3    0    0 -0.21987129576E+01 -0.11020942418E+01 -0.16087710253E+01  0.29388934756E+01  0.51100000000E-03 0.  1.
        -12    1    3    3    0    0 -0.78439881328E+01  0.27353652963E+02 -0.21302272438E+01  0.28535738090E+02  0.00000000000E+00 0.  1.
</event>
<event>
 7    1  0.1714203E-010  0.4778727E+02  0.7816164E-02  0.1312668E+00
        -11   -1    0    0    0    0  0.00000000000E+00  0.00000000000E+00  0.45593999997E+02  0.45594000000E+02  0.51100000000E-03 0.  1.
         11   -1    0    0    0    0 -0.00000000000E+00 -0.00000000000E+00 -0.45593999997E+02  0.45594000000E+02  0.51100000000E-03 0. -1.
    9900012    2    1    2    0    0 -0.15608856086E+02  0.24514021916E+02 -0.32234298250E+02  0.47787266798E+02  0.19999980639E+02 0.  0.
        -12    1    1    2    0    0  0.15608856086E+02 -0.24514021916E+02  0.32234298250E+02  0.43400733202E+02  0.00000000000E+00 0.  1.
         11    1    3    3    0    0 -0.18243930598E+01 -0.10839645676E+00 -0.58589761314E+01  0.61374067323E+01  0.51100000000E-03 0. -1.
        -11    1    3    3    0    0 -0.58196836611E+01  0.23430214476E+02 -0.20645698375E+02  0.31766153843E+02  0.51100000000E-03 0.  1.
         12    1    3    3    0    0 -0.79647793648E+01  0.11922038966E+01 -0.57296237434E+01  0.98837062230E+01  0.00000000000E+00 0. -1.
</event>
<event>
 7    1  0.1714203E-010  0.4778727E+02  0.7816164E-02  0.1312668E+00
        -11   -1    0    0    0    0  0.00000000000E+00  0.00000000000E+00  0.45593999997E+02  0.45594000000E+02  0.51100000000E-03 0.  1.
         11   -1    0    0    0    0 -0.00000000000E+00 -0.00000000000E+00 -0.45593999997E+02  0.45594000000E+02  0.51100000000E-03 0. -1.
    9900012    2    1    2    0    0  0.41379215792E+02 -0.12781538669E+02  0.28312521716E+01  0.47787271675E+02  0.20000002874E+02 0.  0.
        -12    1    1    2    0    0 -0.41379215792E+02  0.12781538669E+02 -0.28312521716E+01  0.43400728325E+02  0.00000000000E+00 0.  1.
         11    1    3    3    0    0  0.15784837881E+02 -0.27128187276E+01  0.64220496018E+01  0.17255816809E+02  0.51100000000E-03 0.  1.
        -11    1    3    3    0    0  0.26965322328E+02 -0.99098007302E+01 -0.26277355958E+01  0.28848531217E+02  0.51100000000E-03 0. -1.
         12    1    3    3    0    0 -0.13709444174E+01 -0.15891921088E+00 -0.96306183443E+00  0.16829236490E+01  0.00000000000E+00 0. -1.
</event>
<event>
 7    1  0.1714203E-010  0.4778727E+02  0.7816164E-02  0.1312668E+00
        -11   -1    0    0    0    0  0.00000000000E+00  0.00000000000E+00  0.45593999997E+02  0.45594000000E+02  0.51100000000E-03 0.  1.
         11   -1    0    0    0    0 -0.00000000000E+00 -0.00000000000E+00 -0.45593999997E+02  0.45594000000E+02  0.51100000000E-03 0. -1.
    9900012    2    1    2    0    0 -0.12965377811E+02 -0.35569065786E+02 -0.21221773759E+02  0.47787272539E+02  0.20000006814E+02 0.  0.
        -12    1    1    2    0    0  0.12965377811E+02  0.35569065786E+02  0.21221773759E+02  0.43400727461E+02  0.00000000000E+00 0.  1.
         11    1    3    3    0    0 -0.20680016460E+01 -0.12048002710E+02 -0.10496318817E+02  0.16112222351E+02  0.51100000000E-03 0. -1.
        -11    1    3    3    0    0 -0.19877517766E+01 -0.59827285899E+01  0.36736798496E+01  0.72965829266E+01  0.51100000000E-03 0.  1.
         12    1    3    3    0    0 -0.89096243884E+01 -0.17538334486E+02 -0.14399134792E+02  0.24378467262E+02  0.00000000000E+00 0. -1.
</event>
<event>
 7    1  0.1714203E-010  0.4778727E+02  0.7816164E-02  0.1312668E+00
        -11   -1    0    0    0    0  0.00000000000E+00  0.00000000000E+00  0.45593999997E+02  0.45594000000E+02  0.51100000000E-03 0. -1.
         11   -1    0    0    0    0 -0.00000000000E+00 -0.00000000000E+00 -0.45593999997E+02  0.45594000000E+02  0.51100000000E-03 0.  1.
    9900012    2    1    2    0    0  0.25951154993E+02 -0.34734704735E+02  0.19133660715E+01  0.47787272722E+02  0.20000007650E+02 0.  0.
        -12    1    1    2    0    0 -0.25951154993E+02  0.34734704735E+02 -0.19133660715E+01  0.43400727278E+02  0.00000000000E+00 0.  1.
         11    1    3    3    0    0  0.16805721591E+02 -0.24589287586E+02  0.72138740286E+01  0.30644825354E+02  0.51100000000E-03 0. -1.
        -11    1    3    3    0    0  0.67996184008E+01 -0.77891388835E+01  0.61369462445E+00  0.10357708062E+02  0.51100000000E-03 0.  1.
        -12    1    3    3    0    0  0.23458150018E+01 -0.23562782651E+01 -0.59142025816E+01  0.67847393068E+01  0.00000000000E+00 0.  1.
</event>
<event>
 7    1  0.1714203E-010  0.4778729E+02  0.7816164E-02  0.1312668E+00
        -11   -1    0    0    0    0  0.00000000000E+00  0.00000000000E+00  0.45593999997E+02  0.45594000000E+02  0.51100000000E-03 0.  1.
         11   -1    0    0    0    0 -0.00000000000E+00 -0.00000000000E+00 -0.45593999997E+02  0.45594000000E+02  0.51100000000E-03 0. -1.
    9900012    2    1    2    0    0 -0.27526954283E+02 -0.24097232996E+02 -0.23349769070E+02  0.47787290723E+02  0.20000089720E+02 0.  0.
        -12    1    1    2    0    0  0.27526954283E+02  0.24097232996E+02  0.23349769070E+02  0.43400709277E+02  0.00000000000E+00 0.  1.
         11    1    3    3    0    0 -0.22699109615E+02 -0.16172637108E+02 -0.11730608228E+02  0.30239228463E+02  0.51100000000E-03 0. -1.
        -11    1    3    3    0    0 -0.54573701442E+01 -0.15668128345E+01 -0.90039265924E+01  0.10644645870E+02  0.51100000000E-03 0.  1.
         12    1    3    3    0    0  0.62952547643E+00 -0.63577830532E+01 -0.26152342497E+01  0.69034163903E+01  0.00000000000E+00 0. -1.
</event>
<event>
 7    1  0.1714203E-010  0.4778727E+02  0.7816164E-02  0.1312668E+00
        -11   -1    0    0    0    0  0.00000000000E+00  0.00000000000E+00  0.45593999997E+02  0.45594000000E+02  0.51100000000E-03 0.  1.
         11   -1    0    0    0    0 -0.00000000000E+00 -0.00000000000E+00 -0.45593999997E+02  0.45594000000E+02  0.51100000000E-03 0. -1.
    9900012    2    1    2    0    0  0.32128101255E+02 -0.12845084207E+02 -0.26199476528E+02  0.47787266724E+02  0.19999980301E+02 0.  0.
        -12    1    1    2    0    0 -0.32128101255E+02  0.12845084207E+02  0.26199476528E+02  0.43400733276E+02  0.00000000000E+00 0.  1.
         11    1    3    3    0    0  0.17525348040E+02 -0.32038370741E+01 -0.13029514088E+02  0.22071942224E+02  0.51100000000E-03 0. -1.
        -11    1    3    3    0    0  0.29265293078E+01 -0.49455145596E+01 -0.11712321390E+02  0.13046116688E+02  0.51100000000E-03 0.  1.
         12    1    3    3    0    0  0.11676223908E+02 -0.46957325731E+01 -0.14576410508E+01  0.12669207812E+02  0.00000000000E+00 0. -1.
</event>
<event>
 7    1  0.1714203E-010  0.4778731E+02  0.7816164E-02  0.1312668E+00
        -11   -1    0    0    0    0  0.00000000000E+00  0.00000000000E+00  0.45593999997E+02  0.45594000000E+02  0.51100000000E-03 0. -1.
         11   -1    0    0    0    0 -0.00000000000E+00 -0.00000000000E+00 -0.45593999997E+02  0.45594000000E+02  0.51100000000E-03 0.  1.
    9900012    2    1    2    0    0 -0.30134089746E+01 -0.22787262980E+02  0.36814127666E+02  0.47787308950E+02  0.20000172828E+02 0.  0.
        -12    1    1    2    0    0  0.30134089746E+01  0.22787262980E+02 -0.36814127666E+02  0.43400691050E+02  0.00000000000E+00 0.  1.
         11    1    3    3    0    0 -0.13338802065E+01 -0.15726132708E+02  0.21850980376E+02  0.26954699590E+02  0.51100000000E-03 0. -1.
        -11    1    3    3    0    0  0.42625728151E+01 -0.17980500950E+01  0.11056906020E+02  0.11985728270E+02  0.51100000000E-03 0.  1.
        -12    1    3    3    0    0 -0.59421015831E+01 -0.52630801772E+01  0.39062412699E+01  0.88468810908E+01  0.00000000000E+00 0.  1.
</event>
<event>
 7    1  0.1714203E-010  0.4778728E+02  0.7816164E-02  0.1312668E+00
        -11   -1    0    0    0    0  0.00000000000E+00  0.00000000000E+00  0.45593999997E+02  0.45594000000E+02  0.51100000000E-03 0.  1.
         11   -1    0    0    0    0 -0.00000000000E+00 -0.00000000000E+00 -0.45593999997E+02  0.45594000000E+02  0.51100000000E-03 0. -1.
    9900012    2    1    2    0    0 -0.51291183765E+01  0.41723197238E+02 -0.10793019308E+02  0.47787282162E+02  0.20000050689E+02 0.  0.
        -12    1    1    2    0    0  0.51291183765E+01 -0.41723197238E+02  0.10793019308E+02  0.43400717838E+02  0.00000000000E+00 0.  1.
         11    1    3    3    0    0 -0.96333221306E+00  0.29537299270E+02  0.17867476437E+01  0.29606967499E+02  0.51100000000E-03 0.  1.
        -11    1    3    3    0    0 -0.32781253306E+01  0.58157377919E+01 -0.68771438954E+01  0.95845719866E+01  0.51100000000E-03 0. -1.
        -12    1    3    3    0    0 -0.88766083280E+00  0.63701601762E+01 -0.57026230567E+01  0.85957426760E+01  0.00000000000E+00 0.  1.
</event>
<event>
 7    1  0.1714203E-010  0.4778727E+02  0.7816164E-02  0.1312668E+00
        -11   -1    0    0    0    0  0.00000000000E+00  0.00000000000E+00  0.45593999997E+02  0.45594000000E+02  0.51100000000E-03 0.  1.
         11   -1    0    0    0    0 -0.00000000000E+00 -0.00000000000E+00 -0.45593999997E+02  0.45594000000E+02  0.51100000000E-03 0. -1.
    9900012    2    1    2    0    0 -0.39452407181E+02 -0.67917138005E+01 -0.16763167950E+02  0.47787267190E+02  0.19999982425E+02 0.  0.
        -12    1    1    2    0    0  0.39452407181E+02  0.67917138005E+01  0.16763167950E+02  0.43400732810E+02  0.00000000000E+00 0.  1.
         11    1    3    3    0    0  0.65088082780E+00 -0.69395973861E+00 -0.35339798906E+00  0.10149464866E+01  0.51100000000E-03 0. -1.
        -11    1    3    3    0    0 -0.38851945222E+02 -0.18585275692E+01 -0.12456478660E+02  0.40842277522E+02  0.51100000000E-03 0.  1.
        -12    1    3    3    0    0 -0.12513427868E+01 -0.42392264927E+01 -0.39532913010E+01  0.59300431817E+01  0.00000000000E+00 0.  1.
</event>
<event>
 7    1  0.1714203E-010  0.4778728E+02  0.7816164E-02  0.1312668E+00
        -11   -1    0    0    0    0  0.00000000000E+00  0.00000000000E+00  0.45593999997E+02  0.45594000000E+02  0.51100000000E-03 0. -1.
         11   -1    0    0    0    0 -0.00000000000E+00 -0.00000000000E+00 -0.45593999997E+02  0.45594000000E+02  0.51100000000E-03 0.  1.
    9900012    2    1    2    0    0 -0.18186418513E+02  0.18913267413E+01  0.39361147359E+02  0.47787275852E+02  0.20000021921E+02 0.  0.
        -12    1    1    2    0    0  0.18186418513E+02 -0.18913267413E+01 -0.39361147359E+02  0.43400724148E+02  0.00000000000E+00 0.  1.
         11    1    3    3    0    0 -0.92814575667E+00  0.81569561444E+01  0.14101813554E+02  0.16317430369E+02  0.51100000000E-03 0. -1.
        -11    1    3    3    0    0 -0.84484906624E+01 -0.16426311386E+01  0.93717436042E+01  0.12724182095E+02  0.51100000000E-03 0.  1.
        -12    1    3    3    0    0 -0.88097820936E+01 -0.46229982644E+01  0.15887590201E+02  0.18745663389E+02  0.00000000000E+00 0.  1.
</event>
<event>
 7    1  0.1714203E-010  0.4778727E+02  0.7816164E-02  0.1312668E+00
        -11   -1    0    0    0    0  0.00000000000E+00  0.00000000000E+00  0.45593999997E+02  0.45594000000E+02  0.51100000000E-03 0.  1.
         11   -1    0    0    0    0 -0.00000000000E+00 -0.00000000000E+00 -0.45593999997E+02  0.45594000000E+02  0.51100000000E-03 0. -1.
    9900012    2    1    2    0    0 -0.25794504922E+02  0.10848612040E+02 -0.33174908308E+02  0.47787269493E+02  0.19999992925E+02 0.  0.
        -12    1    1    2    0    0  0.25794504922E+02 -0.10848612040E+02  0.33174908308E+02  0.43400730507E+02  0.00000000000E+00 0.  1.
         11    1    3    3    0    0 -0.88540868827E+01 -0.20416028684E+01 -0.31920830986E+01  0.96308043054E+01  0.51100000000E-03 0. -1.
        -11    1    3    3    0    0 -0.30630869623E+01  0.24451379992E+01 -0.14050891752E+02  0.14587280790E+02  0.51100000000E-03 0.  1.
         12    1    3    3    0    0 -0.13877331077E+02  0.10445076909E+02 -0.15931933457E+02  0.23569184397E+02  0.00000000000E+00 0. -1.
</event>
<event>
 7    1  0.1714203E-010  0.4778721E+02  0.7816164E-02  0.1312668E+00
        -11   -1    0    0    0    0  0.00000000000E+00  0.00000000000E+00  0.45593999997E+02  0.45594000000E+02  0.51100000000E-03 0.  1.
         11   -1    0    0    0    0 -0.00000000000E+00 -0.00000000000E+00 -0.45593999997E+02  0.45594000000E+02  0.51100000000E-03 0. -1.
    9900012    2    1    2    0    0 -0.50654267872E+01 -0.42580031831E+02 -0.67015320220E+01  0.47787214400E+02  0.19999741734E+02 0.  0.
        -12    1    1    2    0    0  0.50654267872E+01  0.42580031831E+02  0.67015320220E+01  0.43400785600E+02  0.00000000000E+00 0.  1.
         11    1    3    3    0    0  0.18225622028E+01 -0.76180465067E+01  0.42820930765E+01  0.89270760576E+01  0.51100000000E-03 0. -1.
        -11    1    3    3    0    0 -0.69290216533E+01 -0.92519800893E+01 -0.37445781384E+01  0.12150405028E+02  0.51100000000E-03 0.  1.
         12    1    3    3    0    0  0.41032663353E-01 -0.25710005235E+02 -0.72390469600E+01  0.26709733315E+02  0.00000000000E+00 0. -1.
</event>
<event>
 7    1  0.1714203E-010  0.4778728E+02  0.7816164E-02  0.1312668E+00
        -11   -1    0    0    0    0  0.00000000000E+00  0.00000000000E+00  0.45593999997E+02  0.45594000000E+02  0.51100000000E-03 0.  1.
         11   -1    0    0    0    0 -0.00000000000E+00 -0.00000000000E+00 -0.45593999997E+02  0.45594000000E+02  0.51100000000E-03 0. -1.
    9900012    2    1    2    0    0  0.11533823415E+02  0.22816984230E+02 -0.35071055118E+02  0.47787276976E+02  0.20000027044E+02 0.  0.
        -12    1    1    2    0    0 -0.11533823415E+02 -0.22816984230E+02  0.35071055118E+02  0.43400723024E+02  0.00000000000E+00 0.  1.
         11    1    3    3    0    0  0.92722343540E+01  0.19167120018E+01 -0.99876920166E+01  0.13762343801E+02  0.51100000000E-03 0. -1.
        -11    1    3    3    0    0  0.10513766377E+01  0.80330655128E-01  0.37127390554E+00  0.11178955329E+01  0.51100000000E-03 0.  1.
        -12    1    3    3    0    0  0.12102124237E+01  0.20819941573E+02 -0.25454637007E+02  0.32907037642E+02  0.00000000000E+00 0.  1.
</event>
<event>
 7    1  0.1714203E-010  0.4778727E+02  0.7816164E-02  0.1312668E+00
        -11   -1    0    0    0    0  0.00000000000E+00  0.00000000000E+00  0.45593999997E+02  0.45594000000E+02  0.51100000000E-03 0.  1.
         11   -1    0    0    0    0 -0.00000000000E+00 -0.00000000000E+00 -0.45593999997E+02  0.45594000000E+02  0.51100000000E-03 0. -1.
    9900012    2    1    2    0    0  0.90518861361E+01 -0.42243475190E+02 -0.41443210694E+01  0.47787271483E+02  0.20000001998E+02 0.  0.
        -12    1    1    2    0    0 -0.90518861361E+01  0.42243475190E+02  0.41443210694E+01  0.43400728517E+02  0.00000000000E+00 0.  1.
         11    1    3    3    0    0  0.20329431100E+01 -0.15785070617E+02 -0.80953277495E+00  0.15936017559E+02  0.51100000000E-03 0.  1.
        -11    1    3    3    0    0  0.40945666881E+01 -0.22025104524E+02 -0.89483408257E+01  0.24123505331E+02  0.51100000000E-03 0. -1.
        -12    1    3    3    0    0  0.29243763380E+01 -0.44333000484E+01  0.56135525312E+01  0.77277485923E+01  0.00000000000E+00 0.  1.
</event>
<event>
 7    1  0.1714203E-010  0.4778727E+02  0.7816164E-02  0.1312668E+00
        -11   -1    0    0    0    0  0.00000000000E+00  0.00000000000E+00  0.45593999997E+02  0.45594000000E+02  0.51100000000E-03 0. -1.
         11   -1    0    0    0    0 -0.00000000000E+00 -0.00000000000E+00 -0.45593999997E+02  0.45594000000E+02  0.51100000000E-03 0.  1.
    9900012    2    1    2    0    0 -0.21853315125E+02 -0.66023340736E+01  0.36911584614E+02  0.47787271021E+02  0.19999999894E+02 0.  0.
        -12    1    1    2    0    0  0.21853315125E+02  0.66023340736E+01 -0.36911584614E+02  0.43400728979E+02  0.00000000000E+00 0.  1.
         11    1    3    3    0    0 -0.99632744143E+01 -0.45617292400E+01  0.98563993807E+01  0.14738548766E+02  0.51100000000E-03 0. -1.
        -11    1    3    3    0    0 -0.46612689281E+01  0.49462426359E+01  0.39739725062E+01  0.78730681423E+01  0.51100000000E-03 0.  1.
         12    1    3    3    0    0 -0.72287717822E+01 -0.69868474695E+01  0.23081212727E+02  0.25175654113E+02  0.00000000000E+00 0. -1.
</event>
<event>
 7    1  0.1714203E-010  0.4778727E+02  0.7816164E-02  0.1312668E+00
        -11   -1    0    0    0    0  0.00000000000E+00  0.00000000000E+00  0.45593999997E+02  0.45594000000E+02  0.51100000000E-03 0.  1.
         11   -1    0    0    0    0 -0.00000000000E+00 -0.00000000000E+00 -0.45593999997E+02  0.45594000000E+02  0.51100000000E-03 0. -1.
    9900012    2    1    2    0    0  0.29935384626E+02 -0.30330856184E+02 -0.82180070199E+01  0.47787265802E+02  0.19999976096E+02 0.  0.
        -12    1    1    2    0    0 -0.29935384626E+02  0.30330856184E+02  0.82180070199E+01  0.43400734198E+02  0.00000000000E+00 0.  1.
         11    1    3    3    0    0  0.15248363152E+02 -0.14518297240E+02 -0.20697098392E+01  0.21156021192E+02  0.51100000000E-03 0. -1.
        -11    1    3    3    0    0  0.14491762009E+02 -0.14204438531E+02 -0.19840571054E-01  0.20292304798E+02  0.51100000000E-03 0.  1.
        -12    1    3    3    0    0  0.19525946450E+00 -0.16081204128E+01 -0.61284566096E+01  0.63389398117E+01  0.00000000000E+00 0.  1.
</event>
<event>
 7    1  0.1714203E-010  0.4778727E+02  0.7816164E-02  0.1312668E+00
        -11   -1    0    0    0    0  0.00000000000E+00  0.00000000000E+00  0.45593999997E+02  0.45594000000E+02  0.51100000000E-03 0.  1.
         11   -1    0    0    0    0 -0.00000000000E+00 -0.00000000000E+00 -0.45593999997E+02  0.45594000000E+02  0.51100000000E-03 0. -1.
    9900012    2    1    2    0    0 -0.30998177335E+02 -0.10229285365E+02 -0.28602416931E+02  0.47787268076E+02  0.19999986466E+02 0.  0.
        -12    1    1    2    0    0  0.30998177335E+02  0.10229285365E+02  0.28602416931E+02  0.43400731924E+02  0.00000000000E+00 0.  1.
         11    1    3    3    0    0 -0.75048482133E+01  0.28666377087E+01 -0.89887192286E+01  0.12055597542E+02  0.51100000000E-03 0. -1.
        -11    1    3    3    0    0 -0.99757907006E+01 -0.10613302797E+02 -0.43699486909E+01  0.15207072308E+02  0.51100000000E-03 0.  1.
         12    1    3    3    0    0 -0.13517538421E+02 -0.24826202776E+01 -0.15243749012E+02  0.20524598226E+02  0.00000000000E+00 0. -1.
</event>
<event>
 7    1  0.1714203E-010  0.4778727E+02  0.7816164E-02  0.1312668E+00
        -11   -1    0    0    0    0  0.00000000000E+00  0.00000000000E+00  0.45593999997E+02  0.45594000000E+02  0.51100000000E-03 0. -1.
         11   -1    0    0    0    0 -0.00000000000E+00 -0.00000000000E+00 -0.45593999997E+02  0.45594000000E+02  0.51100000000E-03 0.  1.
    9900012    2    1    2    0    0 -0.37846059176E+02 -0.17305746337E+00 -0.21243092582E+02  0.47787272742E+02  0.20000007742E+02 0.  0.
        -12    1    1    2    0    0  0.37846059176E+02  0.17305746337E+00  0.21243092582E+02  0.43400727258E+02  0.00000000000E+00 0.  1.
         11    1    3    3    0    0 -0.10800410813E+02 -0.42022698738E+00 -0.12511328247E+01  0.10880753561E+02  0.51100000000E-03 0. -1.
        -11    1    3    3    0    0 -0.10749555569E+02 -0.47852486657E+01 -0.16861950114E+01  0.11886749076E+02  0.51100000000E-03 0.  1.
        -12    1    3    3    0    0 -0.16296092794E+02  0.50324181897E+01 -0.18305764746E+02  0.25019770105E+02  0.00000000000E+00 0.  1.
</event>
<event>
 7    1  0.1714203E-010  0.4778727E+02  0.7816164E-02  0.1312668E+00
        -11   -1    0    0    0    0  0.00000000000E+00  0.00000000000E+00  0.45593999997E+02  0.45594000000E+02  0.51100000000E-03 0.  1.
         11   -1    0    0    0    0 -0.00000000000E+00 -0.00000000000E+00 -0.45593999997E+02  0.45594000000E+02  0.51100000000E-03 0. -1.
    9900012    2    1    2    0    0  0.23474604900E+02 -0.15362084474E+02 -0.33114532649E+02  0.47787274347E+02  0.20000015060E+02 0.  0.
        -12    1    1    2    0    0 -0.23474604900E+02  0.15362084474E+02  0.33114532649E+02  0.43400725653E+02  0.00000000000E+00 0.  1.
         11    1    3    3    0    0  0.33098389417E+01 -0.11097564374E+02 -0.16015801836E+02  0.19764029892E+02  0.51100000000E-03 0. -1.
        -11    1    3    3    0    0 -0.27168082446E+00 -0.37845296748E+00 -0.26607213099E+01  0.27011988577E+01  0.51100000000E-03 0.  1.
        -12    1    3    3    0    0  0.20436446782E+02 -0.38860671332E+01 -0.14438009503E+02  0.25322045598E+02  0.00000000000E+00 0.  1.
</event>
<event>
 7    1  0.1714203E-010  0.4778727E+02  0.7816164E-02  0.1312668E+00
        -11   -1    0    0    0    0  0.00000000000E+00  0.00000000000E+00  0.45593999997E+02  0.45594000000E+02  0.51100000000E-03 0. -1.
         11   -1    0    0    0    0 -0.00000000000E+00 -0.00000000000E+00 -0.45593999997E+02  0.45594000000E+02  0.51100000000E-03 0.  1.
    9900012    2    1    2    0    0  0.17900251639E+01 -0.11177936304E+02  0.41898366163E+02  0.47787268010E+02  0.19999986166E+02 0.  0.
        -12    1    1    2    0    0 -0.17900251639E+01  0.11177936304E+02 -0.41898366163E+02  0.43400731990E+02  0.00000000000E+00 0.  1.
         11    1    3    3    0    0 -0.22632848233E+01  0.14469153476E+01  0.54673443172E+01  0.60916234584E+01  0.51100000000E-03 0. -1.
        -11    1    3    3    0    0  0.20226038024E+01 -0.13051575090E+02  0.37205963542E+02  0.39480606148E+02  0.51100000000E-03 0.  1.
        -12    1    3    3    0    0  0.20307061848E+01  0.42672343805E+00 -0.77494169564E+00  0.22150384044E+01  0.00000000000E+00 0.  1.
</event>
<event>
 7    1  0.1714203E-010  0.4778727E+02  0.7816164E-02  0.1312668E+00
        -11   -1    0    0    0    0  0.00000000000E+00  0.00000000000E+00  0.45593999997E+02  0.45594000000E+02  0.51100000000E-03 0.  1.
         11   -1    0    0    0    0 -0.00000000000E+00 -0.00000000000E+00 -0.45593999997E+02  0.45594000000E+02  0.51100000000E-03 0. -1.
    9900012    2    1    2    0    0  0.31675330482E+02  0.46880000956E+00 -0.29666087745E+02  0.47787273085E+02  0.20000009305E+02 0.  0.
        -12    1    1    2    0    0 -0.31675330482E+02 -0.46880000956E+00  0.29666087745E+02  0.43400726915E+02  0.00000000000E+00 0.  1.
         11    1    3    3    0    0  0.23285974200E+02 -0.49783668369E+01 -0.13743744305E+02  0.27493840012E+02  0.51100000000E-03 0. -1.
        -11    1    3    3    0    0 -0.25312378537E+00 -0.44590677381E+00 -0.55110420538E+01  0.55348432030E+01  0.51100000000E-03 0.  1.
        -12    1    3    3    0    0  0.86424800675E+01  0.58930736203E+01 -0.10411301386E+02  0.14758589871E+02  0.00000000000E+00 0.  1.
</event>
<event>
 7    1  0.1714203E-010  0.4778727E+02  0.7816164E-02  0.1312668E+00
        -11   -1    0    0    0    0  0.00000000000E+00  0.00000000000E+00  0.45593999997E+02  0.45594000000E+02  0.51100000000E-03 0. -1.
         11   -1    0    0    0    0 -0.00000000000E+00 -0.00000000000E+00 -0.45593999997E+02  0.45594000000E+02  0.51100000000E-03 0.  1.
    9900012    2    1    2    0    0 -0.36432889836E+02 -0.23585288272E+02 -0.43929817818E-01  0.47787271728E+02  0.20000003118E+02 0.  0.
        -12    1    1    2    0    0  0.36432889836E+02  0.23585288272E+02  0.43929817818E-01  0.43400728272E+02  0.00000000000E+00 0.  1.
         11    1    3    3    0    0 -0.57030328054E+01  0.27877863244E+01 -0.69715114487E+00  0.63861064624E+01  0.51100000000E-03 0.  1.
        -11    1    3    3    0    0 -0.21066061475E+02 -0.12663950456E+02 -0.54453845239E+00  0.24585587436E+02  0.51100000000E-03 0. -1.
        -12    1    3    3    0    0 -0.96637955559E+01 -0.13709124140E+02  0.11977597794E+01  0.16815577829E+02  0.00000000000E+00 0.  1.
</event>
<event>
 7    1  0.1714203E-010  0.4778727E+02  0.7816164E-02  0.1312668E+00
        -11   -1    0    0    0    0  0.00000000000E+00  0.00000000000E+00  0.45593999997E+02  0.45594000000E+02  0.51100000000E-03 0. -1.
         11   -1    0    0    0    0 -0.00000000000E+00 -0.00000000000E+00 -0.45593999997E+02  0.45594000000E+02  0.51100000000E-03 0.  1.
    9900012    2    1    2    0    0  0.18258388631E+01  0.38077493135E+02  0.20745943376E+02  0.47787270311E+02  0.19999996654E+02 0.  0.
        -12    1    1    2    0    0 -0.18258388631E+01 -0.38077493135E+02 -0.20745943376E+02  0.43400729689E+02  0.00000000000E+00 0.  1.
         11    1    3    3    0    0  0.47894566647E-01  0.16050494809E+02  0.14796039303E+02  0.21829875328E+02  0.51100000000E-03 0. -1.
        -11    1    3    3    0    0 -0.37927836955E+01  0.63510352570E+01 -0.17867203451E+01  0.76100740371E+01  0.51100000000E-03 0.  1.
         12    1    3    3    0    0  0.55707279920E+01  0.15675963069E+02  0.77366244186E+01  0.18347320946E+02  0.00000000000E+00 0. -1.
</event>
<event>
 7    1  0.1714203E-010  0.4778727E+02  0.7816164E-02  0.1312668E+00
        -11   -1    0    0    0    0  0.00000000000E+00  0.00000000000E+00  0.45593999997E+02  0.45594000000E+02  0.51100000000E-03 0. -1.
         11   -1    0    0    0    0 -0.00000000000E+00 -0.00000000000E+00 -0.45593999997E+02  0.45594000000E+02  0.51100000000E-03 0.  1.
    9900012    2    1    2    0    0 -0.46163471107E+01 -0.17147874563E+02  0.39601305874E+02  0.47787266255E+02  0.19999978164E+02 0.  0.
        -12    1    1    2    0    0  0.46163471107E+01  0.17147874563E+02 -0.39601305874E+02  0.43400733745E+02  0.00000000000E+00 0.  1.
         11    1    3    3    0    0 -0.61233200061E+00 -0.99100445697E+01  0.13347054795E+02  0.16635137686E+02  0.51100000000E-03 0. -1.
        -11    1    3    3    0    0 -0.94064670865E+01 -0.30736154299E+01  0.14332107262E+02  0.17416602243E+02  0.51100000000E-03 0.  1.
        -12    1    3    3    0    0  0.54024519764E+01 -0.41642145635E+01  0.11922143816E+02  0.13735526326E+02  0.00000000000E+00 0.  1.
</event>
<event>
 7    1  0.1714203E-010  0.4778727E+02  0.7816164E-02  0.1312668E+00
        -11   -1    0    0    0    0  0.00000000000E+00  0.00000000000E+00  0.45593999997E+02  0.45594000000E+02  0.51100000000E-03 0. -1.
         11   -1    0    0    0    0 -0.00000000000E+00 -0.00000000000E+00 -0.45593999997E+02  0.45594000000E+02  0.51100000000E-03 0.  1.
    9900012    2    1    2    0    0 -0.11427057422E+01 -0.31900283259E+02 -0.29405596483E+02  0.47787274742E+02  0.20000016859E+02 0.  0.
        -12    1    1    2    0    0  0.11427057422E+01  0.31900283259E+02  0.29405596483E+02  0.43400725258E+02  0.00000000000E+00 0.  1.
         11    1    3    3    0    0 -0.82741876524E+00 -0.11968978707E+02 -0.10243442450E+02  0.15775588312E+02  0.51100000000E-03 0. -1.
        -11    1    3    3    0    0  0.14572675264E+01 -0.21000876181E+01  0.27174473419E+01  0.37307528684E+01  0.51100000000E-03 0.  1.
        -12    1    3    3    0    0 -0.17725545034E+01 -0.17831216933E+02 -0.21879601375E+02  0.28280933562E+02  0.00000000000E+00 0.  1.
</event>
<event>
 7    1  0.1714203E-010  0.4778727E+02  0.7816164E-02  0.1312668E+00
        -11   -1    0    0    0    0  0.00000000000E+00  0.00000000000E+00  0.45593999997E+02  0.45594000000E+02  0.51100000000E-03 0. -1.
         11   -1    0    0    0    0 -0.00000000000E+00 -0.00000000000E+00 -0.45593999997E+02  0.45594000000E+02  0.51100000000E-03 0.  1.
    9900012    2    1    2    0    0  0.15678752284E+02  0.32604775798E+02  0.23973496162E+02  0.47787271939E+02  0.20000004076E+02 0.  0.
        -12    1    1    2    0    0 -0.15678752284E+02 -0.32604775798E+02 -0.23973496162E+02  0.43400728061E+02  0.00000000000E+00 0.  1.
         11    1    3    3    0    0  0.56721388227E+01  0.14450325818E+02  0.92370683912E+01  0.18064011398E+02  0.51100000000E-03 0. -1.
        -11    1    3    3    0    0 -0.12618404845E+01  0.71572146291E+00  0.76473723617E+01  0.77837524960E+01  0.51100000000E-03 0.  1.
         12    1    3    3    0    0  0.11268453946E+02  0.17438728517E+02  0.70890554093E+01  0.21939508044E+02  0.00000000000E+00 0. -1.
</event>
<event>
 7    1  0.1714203E-010  0.4778729E+02  0.7816164E-02  0.1312668E+00
        -11   -1    0    0    0    0  0.00000000000E+00  0.00000000000E+00  0.45593999997E+02  0.45594000000E+02  0.51100000000E-03 0. -1.
         11   -1    0    0    0    0 -0.00000000000E+00 -0.00000000000E+00 -0.45593999997E+02  0.45594000000E+02  0.51100000000E-03 0.  1.
    9900012    2    1    2    0    0 -0.41077130734E+02 -0.69144787193E+01  0.12185275592E+02  0.47787290023E+02  0.20000086530E+02 0.  0.
        -12    1    1    2    0    0  0.41077130734E+02  0.69144787193E+01 -0.12185275592E+02  0.43400709977E+02  0.00000000000E+00 0.  1.
         11    1    3    3    0    0 -0.26742168046E+02 -0.13316267076E+01  0.86797968316E+01  0.28147036341E+02  0.51100000000E-03 0. -1.
        -11    1    3    3    0    0 -0.37379948979E+01 -0.52772665171E+01 -0.30768300271E+01  0.71616360579E+01  0.51100000000E-03 0.  1.
         12    1    3    3    0    0 -0.10596967790E+02 -0.30558549463E+00  0.65823087875E+01  0.12478617624E+02  0.00000000000E+00 0. -1.
</event>
<event>
 7    1  0.1714203E-010  0.4778727E+02  0.7816164E-02  0.1312668E+00
        -11   -1    0    0    0    0  0.00000000000E+00  0.00000000000E+00  0.45593999997E+02  0.45594000000E+02  0.51100000000E-03 0. -1.
         11   -1    0    0    0    0 -0.00000000000E+00 -0.00000000000E+00 -0.45593999997E+02  0.45594000000E+02  0.51100000000E-03 0.  1.
    9900012    2    1    2    0    0  0.27855575774E+02 -0.71463306699E+01  0.32505693067E+02  0.47787271602E+02  0.20000002541E+02 0.  0.
        -12    1    1    2    0    0 -0.27855575774E+02  0.71463306699E+01 -0.32505693067E+02  0.43400728398E+02  0.00000000000E+00 0.  1.
         11    1    3    3    0    0  0.68533881187E+01 -0.22422452386E+01  0.11338693048E+02  0.13437356612E+02  0.51100000000E-03 0. -1.
        -11    1    3    3    0    0  0.12498424249E+02 -0.97405445826E+00  0.15768525608E+01  0.12635104078E+02  0.51100000000E-03 0.  1.
        -12    1    3    3    0    0  0.85037634061E+01 -0.39300309730E+01  0.19590147457E+02  0.21714810911E+02  0.00000000000E+00 0.  1.
</event>
<event>
 7    1  0.1714203E-010  0.4778727E+02  0.7816164E-02  0.1312668E+00
        -11   -1    0    0    0    0  0.00000000000E+00  0.00000000000E+00  0.45593999997E+02  0.45594000000E+02  0.51100000000E-03 0.  1.
         11   -1    0    0    0    0 -0.00000000000E+00 -0.00000000000E+00 -0.45593999997E+02  0.45594000000E+02  0.51100000000E-03 0. -1.
    9900012    2    1    2    0    0  0.89492830016E+00  0.78649610476E+01 -0.42672762496E+02  0.47787272264E+02  0.20000005561E+02 0.  0.
        -12    1    1    2    0    0 -0.89492830016E+00 -0.78649610476E+01  0.42672762496E+02  0.43400727736E+02  0.00000000000E+00 0.  1.
         11    1    3    3    0    0 -0.43149681027E+01  0.65244748472E+01 -0.12921264963E+02  0.15104529462E+02  0.51100000000E-03 0. -1.
        -11    1    3    3    0    0  0.45513226771E+01 -0.40584096255E+01 -0.24017529445E+02  0.24779567142E+02  0.51100000000E-03 0.  1.
         12    1    3    3    0    0  0.65857372580E+00  0.53988958259E+01 -0.57339680878E+01  0.79031756606E+01  0.00000000000E+00 0. -1.
</event>
<event>
 7    1  0.1714203E-010  0.4778726E+02  0.7816164E-02  0.1312668E+00
        -11   -1    0    0    0    0  0.00000000000E+00  0.00000000000E+00  0.45593999997E+02  0.45594000000E+02  0.51100000000E-03 0.  1.
         11   -1    0    0    0    0 -0.00000000000E+00 -0.00000000000E+00 -0.45593999997E+02  0.45594000000E+02  0.51100000000E-03 0. -1.
    9900012    2    1    2    0    0 -0.23591566488E+02  0.33422067536E+02  0.14492339157E+02  0.47787256896E+02  0.19999935492E+02 0.  0.
        -12    1    1    2    0    0  0.23591566488E+02 -0.33422067536E+02 -0.14492339157E+02  0.43400743104E+02  0.00000000000E+00 0.  1.
         11    1    3    3    0    0 -0.17744186858E+02  0.20424358859E+02  0.10415308882E+02  0.28991192825E+02  0.51100000000E-03 0. -1.
        -11    1    3    3    0    0 -0.15443016661E+01  0.11578902463E+01 -0.35705912286E+01  0.40589037241E+01  0.51100000000E-03 0.  1.
         12    1    3    3    0    0 -0.43030779643E+01  0.11839818430E+02  0.76476215036E+01  0.14737160347E+02  0.00000000000E+00 0. -1.
</event>
<event>
 7    1  0.1753762E-010  0.4778727E+02  0.7816164E-02  0.1312668E+00
        -11   -1    0    0    0    0  0.00000000000E+00  0.00000000000E+00  0.45593999997E+02  0.45594000000E+02  0.51100000000E-03 0.  1.
         11   -1    0    0    0    0 -0.00000000000E+00 -0.00000000000E+00 -0.45593999997E+02  0.45594000000E+02  0.51100000000E-03 0. -1.
    9900012    2    1    2    0    0  0.13288268101E+02  0.35489633066E+02 -0.21154933579E+02  0.47787270294E+02  0.19999996579E+02 0.  0.
        -12    1    1    2    0    0 -0.13288268101E+02 -0.35489633066E+02  0.21154933579E+02  0.43400729706E+02  0.00000000000E+00 0.  1.
         11    1    3    3    0    0  0.47112436508E+01  0.21823032681E+02 -0.56402490121E+01  0.23027222614E+02  0.51100000000E-03 0. -1.
        -11    1    3    3    0    0 -0.17609328399E+01  0.53654618916E+01 -0.70385671897E+01  0.90238846470E+01  0.51100000000E-03 0.  1.
        -12    1    3    3    0    0  0.10337957290E+02  0.83011384936E+01 -0.84761173771E+01  0.15736163033E+02  0.00000000000E+00 0.  1.
</event>
<event>
 7    1  0.1714203E-010  0.4778728E+02  0.7816164E-02  0.1312668E+00
        -11   -1    0    0    0    0  0.00000000000E+00  0.00000000000E+00  0.45593999997E+02  0.45594000000E+02  0.51100000000E-03 0.  1.
         11   -1    0    0    0    0 -0.00000000000E+00 -0.00000000000E+00 -0.45593999997E+02  0.45594000000E+02  0.51100000000E-03 0. -1.
    9900012    2    1    2    0    0  0.43271248467E+02  0.13859750037E+01 -0.30497396958E+01  0.47787276702E+02  0.20000025793E+02 0.  0.
        -12    1    1    2    0    0 -0.43271248467E+02 -0.13859750037E+01  0.30497396958E+01  0.43400723298E+02  0.00000000000E+00 0.  1.
         11    1    3    3    0    0  0.23831790956E+01  0.21294704907E+01 -0.34971174364E+01  0.47375117728E+01  0.51100000000E-03 0. -1.
        -11    1    3    3    0    0  0.12852216593E+02  0.59947404547E+01  0.92368814675E+00  0.14211600351E+02  0.51100000000E-03 0.  1.
        -12    1    3    3    0    0  0.28035852779E+02 -0.67382359417E+01 -0.47631040611E+00  0.28838164578E+02  0.00000000000E+00 0.  1.
</event>
<event>
 7    1  0.1714203E-010  0.4778727E+02  0.7816164E-02  0.1312668E+00
        -11   -1    0    0    0    0  0.00000000000E+00  0.00000000000E+00  0.45593999997E+02  0.45594000000E+02  0.51100000000E-03 0.  1.
         11   -1    0    0    0    0 -0.00000000000E+00 -0.00000000000E+00 -0.45593999997E+02  0.45594000000E+02  0.51100000000E-03 0. -1.
    9900012    2    1    2    0    0  0.29272689401E+02  0.17995909034E+02 -0.26511892782E+02  0.47787267913E+02  0.19999985724E+02 0.  0.
        -12    1    1    2    0    0 -0.29272689401E+02 -0.17995909034E+02  0.26511892782E+02  0.43400732087E+02  0.00000000000E+00 0.  1.
         11    1    3    3    0    0 -0.86024401059E+00 -0.99876188233E+00 -0.33126873853E+00  0.13591483707E+01  0.51100000000E-03 0.  1.
        -11    1    3    3    0    0  0.26297308673E+02  0.92616935311E+01 -0.19130037789E+02  0.33812508877E+02  0.51100000000E-03 0. -1.
         12    1    3    3    0    0  0.38356247389E+01  0.97329773856E+01 -0.70505862549E+01  0.12615610666E+02  0.00000000000E+00 0. -1.
</event>
<event>
 7    1  0.1714203E-010  0.4778732E+02  0.7816164E-02  0.1312668E+00
        -11   -1    0    0    0    0  0.00000000000E+00  0.00000000000E+00  0.45593999997E+02  0.45594000000E+02  0.51100000000E-03 0. -1.
         11   -1    0    0    0    0 -0.00000000000E+00 -0.00000000000E+00 -0.45593999997E+02  0.45594000000E+02  0.51100000000E-03 0.  1.
    9900012    2    1    2    0    0 -0.31141501070E+02  0.49987450849E+01  0.29813392143E+02  0.47787321521E+02  0.20000230143E+02 0.  0.
        -12    1    1    2    0    0  0.31141501070E+02 -0.49987450849E+01 -0.29813392143E+02  0.43400678479E+02  0.00000000000E+00 0.  1.
         11    1    3    3    0    0 -0.99935847997E+01  0.99981814732E+01  0.92531632498E+01  0.16895455019E+02  0.51100000000E-03 0. -1.
        -11    1    3    3    0    0 -0.37471731561E+01 -0.37506757120E+01  0.27962373539E+01  0.59939818617E+01  0.51100000000E-03 0.  1.
        -12    1    3    3    0    0 -0.17400743115E+02 -0.12487606764E+01  0.17763991539E+02  0.24897884640E+02  0.00000000000E+00 0.  1.
</event>
<event>
 7    1  0.1714203E-010  0.4778728E+02  0.7816164E-02  0.1312668E+00
        -11   -1    0    0    0    0  0.00000000000E+00  0.00000000000E+00  0.45593999997E+02  0.45594000000E+02  0.51100000000E-03 0. -1.
         11   -1    0    0    0    0 -0.00000000000E+00 -0.00000000000E+00 -0.45593999997E+02  0.45594000000E+02  0.51100000000E-03 0.  1.
    9900012    2    1    2    0    0  0.31635408868E+01 -0.27153135651E+02  0.33709372544E+02  0.47787279223E+02  0.20000037290E+02 0.  0.
        -12    1    1    2    0    0 -0.31635408868E+01  0.27153135651E+02 -0.33709372544E+02  0.43400720777E+02  0.00000000000E+00 0.  1.
         11    1    3    3    0    0  0.57426143147E+00 -0.19282970378E+02  0.13691086537E+02  0.23656047295E+02  0.51100000000E-03 0.  1.
        -11    1    3    3    0    0  0.16412915014E+01 -0.95786172148E+01  0.19932630262E+02  0.22175515664E+02  0.51100000000E-03 0. -1.
         12    1    3    3    0    0  0.94798795396E+00  0.17084519421E+01  0.85655745205E-01  0.19557162642E+01  0.00000000000E+00 0. -1.
</event>
<event>
 7    1  0.1714203E-010  0.4778728E+02  0.7816164E-02  0.1312668E+00
        -11   -1    0    0    0    0  0.00000000000E+00  0.00000000000E+00  0.45593999997E+02  0.45594000000E+02  0.51100000000E-03 0.  1.
         11   -1    0    0    0    0 -0.00000000000E+00 -0.00000000000E+00 -0.45593999997E+02  0.45594000000E+02  0.51100000000E-03 0. -1.
    9900012    2    1    2    0    0 -0.64628476418E+01 -0.23367224303E+02 -0.35997596535E+02  0.47787279642E+02  0.20000039202E+02 0.  0.
        -12    1    1    2    0    0  0.64628476418E+01  0.23367224303E+02  0.35997596535E+02  0.43400720358E+02  0.00000000000E+00 0.  1.
         11    1    3    3    0    0 -0.22020440485E-01  0.14894028296E+00 -0.71494355403E+01  0.71510206903E+01  0.51100000000E-03 0. -1.
        -11    1    3    3    0    0  0.18095472426E+01 -0.17035896493E+02 -0.12483431865E+02  0.21197459799E+02  0.51100000000E-03 0.  1.
         12    1    3    3    0    0 -0.82503744439E+01 -0.64802680925E+01 -0.16364729130E+02  0.19438799153E+02  0.00000000000E+00 0. -1.
</event>
<event>
 7    1  0.1714203E-010  0.4778727E+02  0.7816164E-02  0.1312668E+00
        -11   -1    0    0    0    0  0.00000000000E+00  0.00000000000E+00  0.45593999997E+02  0.45594000000E+02  0.51100000000E-03 0.  1.
         11   -1    0    0    0    0 -0.00000000000E+00 -0.00000000000E+00 -0.45593999997E+02  0.45594000000E+02  0.51100000000E-03 0. -1.
    9900012    2    1    2    0    0 -0.25494789264E+02  0.13742740878E+02 -0.32322994048E+02  0.47787272464E+02  0.20000006470E+02 0.  0.
        -12    1    1    2    0    0  0.25494789264E+02 -0.13742740878E+02  0.32322994048E+02  0.43400727536E+02  0.00000000000E+00 0.  1.
         11    1    3    3    0    0 -0.57807629725E+01 -0.43715336029E+01 -0.11854739075E+02  0.13894688387E+02  0.51100000000E-03 0. -1.
        -11    1    3    3    0    0 -0.59538337026E+01  0.52806267000E+01 -0.40945465089E+01  0.89497746049E+01  0.51100000000E-03 0.  1.
         12    1    3    3    0    0 -0.13760192589E+02  0.12833647781E+02 -0.16373708465E+02  0.24942809472E+02  0.00000000000E+00 0. -1.
</event>
<event>
 7    1  0.1714203E-010  0.4778727E+02  0.7816164E-02  0.1312668E+00
        -11   -1    0    0    0    0  0.00000000000E+00  0.00000000000E+00  0.45593999997E+02  0.45594000000E+02  0.51100000000E-03 0.  1.
         11   -1    0    0    0    0 -0.00000000000E+00 -0.00000000000E+00 -0.45593999997E+02  0.45594000000E+02  0.51100000000E-03 0. -1.
    9900012    2    1    2    0    0  0.38786831285E+01  0.26197301393E+02 -0.34384302441E+02  0.47787273768E+02  0.20000012420E+02 0.  0.
        -12    1    1    2    0    0 -0.38786831285E+01 -0.26197301393E+02  0.34384302441E+02  0.43400726232E+02  0.00000000000E+00 0.  1.
         11    1    3    3    0    0 -0.53994784189E+00 -0.12314234733E+01 -0.20863486454E+01  0.24820955610E+01  0.51100000000E-03 0. -1.
        -11    1    3    3    0    0  0.81611941443E+01  0.23327015220E+02 -0.30922523810E+02  0.39584810319E+02  0.51100000000E-03 0.  1.
         12    1    3    3    0    0 -0.37425631740E+01  0.41017096464E+01 -0.13754299852E+01  0.57203678884E+01  0.00000000000E+00 0. -1.
</event>
<event>
 7    1  0.1714203E-010  0.4778727E+02  0.7816164E-02  0.1312668E+00
        -11   -1    0    0    0    0  0.00000000000E+00  0.00000000000E+00  0.45593999997E+02  0.45594000000E+02  0.51100000000E-03 0. -1.
         11   -1    0    0    0    0 -0.00000000000E+00 -0.00000000000E+00 -0.45593999997E+02  0.45594000000E+02  0.51100000000E-03 0.  1.
    9900012    2    1    2    0    0  0.28858308235E+02  0.30304097691E+02  0.11510142143E+02  0.47787266559E+02  0.19999979550E+02 0.  0.
        -12    1    1    2    0    0 -0.28858308235E+02 -0.30304097691E+02 -0.11510142143E+02  0.43400733441E+02  0.00000000000E+00 0.  1.
         11    1    3    3    0    0  0.33786064591E+01  0.19808341332E+01  0.57333557978E+01  0.69433460546E+01  0.51100000000E-03 0.  1.
        -11    1    3    3    0    0  0.14460900854E+02  0.10590964452E+02 -0.30419824072E+01  0.18180754626E+02  0.51100000000E-03 0. -1.
         12    1    3    3    0    0  0.11018800921E+02  0.17732299106E+02  0.88187687526E+01  0.22663165878E+02  0.00000000000E+00 0. -1.
</event>
<event>
 7    1  0.1714203E-010  0.4778727E+02  0.7816164E-02  0.1312668E+00
        -11   -1    0    0    0    0  0.00000000000E+00  0.00000000000E+00  0.45593999997E+02  0.45594000000E+02  0.51100000000E-03 0.  1.
         11   -1    0    0    0    0 -0.00000000000E+00 -0.00000000000E+00 -0.45593999997E+02  0.45594000000E+02  0.51100000000E-03 0. -1.
    9900012    2    1    2    0    0 -0.30512216583E+02  0.24205973550E+02 -0.19149379576E+02  0.47787271268E+02  0.20000001018E+02 0.  0.
        -12    1    1    2    0    0  0.30512216583E+02 -0.24205973550E+02  0.19149379576E+02  0.43400728732E+02  0.00000000000E+00 0.  1.
         11    1    3    3    0    0 -0.21243894545E+02  0.84688482669E+01 -0.38350352933E+01  0.23189047897E+02  0.51100000000E-03 0. -1.
        -11    1    3    3    0    0 -0.17588760050E+01  0.10641495752E+00 -0.23964960971E+01  0.29745861475E+01  0.51100000000E-03 0.  1.
         12    1    3    3    0    0 -0.75094460334E+01  0.15630710326E+02 -0.12917848186E+02  0.21623637224E+02  0.00000000000E+00 0. -1.
</event>
<event>
 7    1  0.1714203E-010  0.4778726E+02  0.7816164E-02  0.1312668E+00
        -11   -1    0    0    0    0  0.00000000000E+00  0.00000000000E+00  0.45593999997E+02  0.45594000000E+02  0.51100000000E-03 0.  1.
         11   -1    0    0    0    0 -0.00000000000E+00 -0.00000000000E+00 -0.45593999997E+02  0.45594000000E+02  0.51100000000E-03 0. -1.
    9900012    2    1    2    0    0 -0.10678161417E+02  0.70154163342E+01 -0.41477526034E+02  0.47787258491E+02  0.19999942764E+02 0.  0.
        -12    1    1    2    0    0  0.10678161417E+02 -0.70154163342E+01  0.41477526034E+02  0.43400741509E+02  0.00000000000E+00 0.  1.
         11    1    3    3    0    0 -0.56341622359E+01  0.12863019955E+01 -0.21773421588E+02  0.22527322186E+02  0.51100000000E-03 0. -1.
        -11    1    3    3    0    0  0.45761343516E+01  0.18335596764E+01 -0.95110401435E+01  0.10712741552E+02  0.51100000000E-03 0.  1.
         12    1    3    3    0    0 -0.96201335328E+01  0.38955546623E+01 -0.10193064303E+02  0.14547194753E+02  0.00000000000E+00 0. -1.
</event>
<event>
 7    1  0.1714203E-010  0.4778726E+02  0.7816164E-02  0.1312668E+00
        -11   -1    0    0    0    0  0.00000000000E+00  0.00000000000E+00  0.45593999997E+02  0.45594000000E+02  0.51100000000E-03 0. -1.
         11   -1    0    0    0    0 -0.00000000000E+00 -0.00000000000E+00 -0.45593999997E+02  0.45594000000E+02  0.51100000000E-03 0.  1.
    9900012    2    1    2    0    0 -0.36395882793E+02 -0.18594322071E+02  0.14601884469E+02  0.47787261209E+02  0.19999955155E+02 0.  0.
        -12    1    1    2    0    0  0.36395882793E+02  0.18594322071E+02 -0.14601884469E+02  0.43400738791E+02  0.00000000000E+00 0.  1.
         11    1    3    3    0    0 -0.17420967839E+02 -0.96036577007E+00  0.34088299126E+01  0.17777304196E+02  0.51100000000E-03 0. -1.
        -11    1    3    3    0    0  0.11448467703E+01 -0.21600513532E+01  0.68558588183E+00  0.25390006377E+01  0.51100000000E-03 0.  1.
         12    1    3    3    0    0 -0.20119761725E+02 -0.15473904948E+02  0.10507468675E+02  0.27470956375E+02  0.00000000000E+00 0. -1.
</event>
<event>
 7    1  0.1714203E-010  0.4778728E+02  0.7816164E-02  0.1312668E+00
        -11   -1    0    0    0    0  0.00000000000E+00  0.00000000000E+00  0.45593999997E+02  0.45594000000E+02  0.51100000000E-03 0.  1.
         11   -1    0    0    0    0 -0.00000000000E+00 -0.00000000000E+00 -0.45593999997E+02  0.45594000000E+02  0.51100000000E-03 0. -1.
    9900012    2    1    2    0    0 -0.12026800721E+02 -0.20204968336E+02 -0.36479280282E+02  0.47787279143E+02  0.20000036924E+02 0.  0.
        -12    1    1    2    0    0  0.12026800721E+02  0.20204968336E+02  0.36479280282E+02  0.43400720857E+02  0.00000000000E+00 0.  1.
         11    1    3    3    0    0 -0.39402653549E+01 -0.29808785217E+01 -0.14935940473E+02  0.15731930775E+02  0.51100000000E-03 0. -1.
        -11    1    3    3    0    0  0.64012600521E+00 -0.68578245794E+00  0.18694067465E+01  0.20915880873E+01  0.51100000000E-03 0.  1.
         12    1    3    3    0    0 -0.87266613708E+01 -0.16538307356E+02 -0.23412746555E+02  0.29963760281E+02  0.00000000000E+00 0. -1.
</event>
<event>
 7    1  0.1714203E-010  0.4778726E+02  0.7816164E-02  0.1312668E+00
        -11   -1    0    0    0    0  0.00000000000E+00  0.00000000000E+00  0.45593999997E+02  0.45594000000E+02  0.51100000000E-03 0.  1.
         11   -1    0    0    0    0 -0.00000000000E+00 -0.00000000000E+00 -0.45593999997E+02  0.45594000000E+02  0.51100000000E-03 0. -1.
    9900012    2    1    2    0    0  0.25492465370E+02  0.19551146214E+02 -0.29180656490E+02  0.47787264729E+02  0.19999971203E+02 0.  0.
        -12    1    1    2    0    0 -0.25492465370E+02 -0.19551146214E+02  0.29180656490E+02  0.43400735271E+02  0.00000000000E+00 0.  1.
         11    1    3    3    0    0  0.13796732385E+02  0.17924597619E+02 -0.23388909282E+02  0.32537395439E+02  0.51100000000E-03 0. -1.
        -11    1    3    3    0    0  0.10853384551E+02  0.24393772726E+01 -0.73261993116E+01  0.13319899186E+02  0.51100000000E-03 0.  1.
        -12    1    3    3    0    0  0.84234843424E+00 -0.81282867755E+00  0.15344521037E+01  0.19299701040E+01  0.00000000000E+00 0.  1.
</event>
<event>
 7    1  0.2099045E-010  0.4778727E+02  0.7816164E-02  0.1312668E+00
        -11   -1    0    0    0    0  0.00000000000E+00  0.00000000000E+00  0.45593999997E+02  0.45594000000E+02  0.51100000000E-03 0. -1.
         11   -1    0    0    0    0 -0.00000000000E+00 -0.00000000000E+00 -0.45593999997E+02  0.45594000000E+02  0.51100000000E-03 0.  1.
    9900012    2    1    2    0    0  0.64480228479E+01  0.16362525901E+02  0.39677624765E+02  0.47787272362E+02  0.20000006009E+02 0.  0.
        -12    1    1    2    0    0 -0.64480228479E+01 -0.16362525901E+02 -0.39677624765E+02  0.43400727638E+02  0.00000000000E+00 0.  1.
         11    1    3    3    0    0  0.62274521774E+01  0.57872131066E+01  0.22987104131E+02  0.24508772975E+02  0.51100000000E-03 0. -1.
        -11    1    3    3    0    0  0.82501930230E+00  0.15353190956E+00 -0.18329424450E+01  0.20159134814E+01  0.51100000000E-03 0.  1.
         12    1    3    3    0    0 -0.60444863179E+00  0.10421780885E+02  0.18523463079E+02  0.21262585906E+02  0.00000000000E+00 0. -1.
</event>
<event>
 7    1  0.1714203E-010  0.4778727E+02  0.7816164E-02  0.1312668E+00
        -11   -1    0    0    0    0  0.00000000000E+00  0.00000000000E+00  0.45593999997E+02  0.45594000000E+02  0.51100000000E-03 0. -1.
         11   -1    0    0    0    0 -0.00000000000E+00 -0.00000000000E+00 -0.45593999997E+02  0.45594000000E+02  0.51100000000E-03 0.  1.
    9900012    2    1    2    0    0  0.41597208662E+02  0.62423326988E+01  0.10692470076E+02  0.47787269565E+02  0.19999993255E+02 0.  0.
        -12    1    1    2    0    0 -0.41597208662E+02 -0.62423326988E+01 -0.10692470076E+02  0.43400730435E+02  0.00000000000E+00 0.  1.
         11    1    3    3    0    0  0.20298268810E+02  0.49823943504E+01  0.11939567496E+02  0.24070671831E+02  0.51100000000E-03 0. -1.
        -11    1    3    3    0    0  0.84657371076E+01 -0.18084921704E+01  0.39751529394E+01  0.95258170179E+01  0.51100000000E-03 0.  1.
        -12    1    3    3    0    0  0.12833202744E+02  0.30684305188E+01 -0.52222503590E+01  0.14190780716E+02  0.00000000000E+00 0.  1.
</event>
<event>
 7    1  0.1714203E-010  0.4778727E+02  0.7816164E-02  0.1312668E+00
        -11   -1    0    0    0    0  0.00000000000E+00  0.00000000000E+00  0.45593999997E+02  0.45594000000E+02  0.51100000000E-03 0.  1.
         11   -1    0    0    0    0 -0.00000000000E+00 -0.00000000000E+00 -0.45593999997E+02  0.45594000000E+02  0.51100000000E-03 0. -1.
    9900012    2    1    2    0    0  0.35623078832E+02  0.11198418986E+02 -0.22118199765E+02  0.47787273116E+02  0.20000009443E+02 0.  0.
        -12    1    1    2    0    0 -0.35623078832E+02 -0.11198418986E+02  0.22118199765E+02  0.43400726884E+02  0.00000000000E+00 0.  1.
         11    1    3    3    0    0  0.13967307586E+02  0.25182332279E+01 -0.49028869934E+01  0.15015508014E+02  0.51100000000E-03 0. -1.
        -11    1    3    3    0    0  0.13902623843E+02  0.12255501070E+02 -0.15273720584E+02  0.24015969623E+02  0.51100000000E-03 0.  1.
        -12    1    3    3    0    0  0.77531474027E+01 -0.35753153126E+01 -0.19415921879E+01  0.87557954782E+01  0.00000000000E+00 0.  1.
</event>
<event>
 7    1  0.1714203E-010  0.4778727E+02  0.7816164E-02  0.1312668E+00
        -11   -1    0    0    0    0  0.00000000000E+00  0.00000000000E+00  0.45593999997E+02  0.45594000000E+02  0.51100000000E-03 0.  1.
         11   -1    0    0    0    0 -0.00000000000E+00 -0.00000000000E+00 -0.45593999997E+02  0.45594000000E+02  0.51100000000E-03 0. -1.
    9900012    2    1    2    0    0 -0.40585282212E+02  0.10553835571E+02 -0.11183679133E+02  0.47787271246E+02  0.20000000917E+02 0.  0.
        -12    1    1    2    0    0  0.40585282212E+02 -0.10553835571E+02  0.11183679133E+02  0.43400728754E+02  0.00000000000E+00 0.  1.
         11    1    3    3    0    0 -0.13418552754E+01 -0.89433493200E+00  0.19506373713E+01  0.25308885724E+01  0.51100000000E-03 0. -1.
        -11    1    3    3    0    0 -0.33064488335E+02  0.97110240449E+01 -0.48871137173E+01  0.34805865276E+02  0.51100000000E-03 0.  1.
         12    1    3    3    0    0 -0.61789386016E+01  0.17371464578E+01 -0.82472027873E+01  0.10450517397E+02  0.00000000000E+00 0. -1.
</event>
<event>
 7    1  0.1714203E-010  0.4778727E+02  0.7816164E-02  0.1312668E+00
        -11   -1    0    0    0    0  0.00000000000E+00  0.00000000000E+00  0.45593999997E+02  0.45594000000E+02  0.51100000000E-03 0.  1.
         11   -1    0    0    0    0 -0.00000000000E+00 -0.00000000000E+00 -0.45593999997E+02  0.45594000000E+02  0.51100000000E-03 0. -1.
    9900012    2    1    2    0    0  0.80958908777E+01  0.31968420311E+02 -0.28215239085E+02  0.47787273475E+02  0.20000011083E+02 0.  0.
        -12    1    1    2    0    0 -0.80958908777E+01 -0.31968420311E+02  0.28215239085E+02  0.43400726525E+02  0.00000000000E+00 0.  1.
         11    1    3    3    0    0  0.10886225618E+02  0.19777759209E+02 -0.19086512586E+02  0.29562892797E+02  0.51100000000E-03 0. -1.
        -11    1    3    3    0    0 -0.23121656193E+01  0.46769740607E+01 -0.93334801325E+01  0.10692710034E+02  0.51100000000E-03 0.  1.
        -12    1    3    3    0    0 -0.47816912100E+00  0.75136870406E+01  0.20475363400E+00  0.75316706449E+01  0.00000000000E+00 0.  1.
</event>
<event>
 7    1  0.1714203E-010  0.4778727E+02  0.7816164E-02  0.1312668E+00
        -11   -1    0    0    0    0  0.00000000000E+00  0.00000000000E+00  0.45593999997E+02  0.45594000000E+02  0.51100000000E-03 0.  1.
         11   -1    0    0    0    0 -0.00000000000E+00 -0.00000000000E+00 -0.45593999997E+02  0.45594000000E+02  0.51100000000E-03 0. -1.
    9900012    2    1    2    0    0  0.10619443509E+02  0.12074565474E+02 -0.40311978462E+02  0.47787270520E+02  0.19999997611E+02 0.  0.
        -12    1    1    2    0    0 -0.10619443509E+02 -0.12074565474E+02  0.40311978462E+02  0.43400729480E+02  0.00000000000E+00 0.  1.
         11    1    3    3    0    0  0.78701889954E+01  0.71817737261E+01 -0.23276169667E+02  0.25598785582E+02  0.51100000000E-03 0. -1.
        -11    1    3    3    0    0  0.78890677752E+01  0.15855529147E+01 -0.86823711583E+01  0.11837860347E+02  0.51100000000E-03 0.  1.
         12    1    3    3    0    0 -0.51398132617E+01  0.33072388328E+01 -0.83534376372E+01  0.10350624591E+02  0.00000000000E+00 0. -1.
</event>
<event>
 7    1  0.1714203E-010  0.4778727E+02  0.7816164E-02  0.1312668E+00
        -11   -1    0    0    0    0  0.00000000000E+00  0.00000000000E+00  0.45593999997E+02  0.45594000000E+02  0.51100000000E-03 0. -1.
         11   -1    0    0    0    0 -0.00000000000E+00 -0.00000000000E+00 -0.45593999997E+02  0.45594000000E+02  0.51100000000E-03 0.  1.
    9900012    2    1    2    0    0  0.42342913951E+02  0.92639720094E+01  0.22090842124E+01  0.47787267376E+02  0.19999983274E+02 0.  0.
        -12    1    1    2    0    0 -0.42342913951E+02 -0.92639720094E+01 -0.22090842124E+01  0.43400732624E+02  0.00000000000E+00 0.  1.
         11    1    3    3    0    0  0.51971541444E+01 -0.13147851988E+01 -0.42568343985E+01  0.68454153035E+01  0.51100000000E-03 0. -1.
        -11    1    3    3    0    0  0.26327050225E+02  0.12726563321E+02  0.62900840601E+01  0.29910602556E+02  0.51100000000E-03 0.  1.
        -12    1    3    3    0    0  0.10818709581E+02 -0.21478061132E+01  0.17583455083E+00  0.11031249517E+02  0.00000000000E+00 0.  1.
</event>
<event>
 7    1  0.1714203E-010  0.4778727E+02  0.7816164E-02  0.1312668E+00
        -11   -1    0    0    0    0  0.00000000000E+00  0.00000000000E+00  0.45593999997E+02  0.45594000000E+02  0.51100000000E-03 0.  1.
         11   -1    0    0    0    0 -0.00000000000E+00 -0.00000000000E+00 -0.45593999997E+02  0.45594000000E+02  0.51100000000E-03 0. -1.
    9900012    2    1    2    0    0 -0.29306858573E+01  0.25129521084E+01 -0.43228686791E+02  0.47787271785E+02  0.20000003378E+02 0.  0.
        -12    1    1    2    0    0  0.29306858573E+01 -0.25129521084E+01  0.43228686791E+02  0.43400728215E+02  0.00000000000E+00 0.  1.
         11    1    3    3    0    0 -0.25165210550E+01  0.77342976954E+01 -0.12582136462E+02  0.14982069192E+02  0.51100000000E-03 0. -1.
        -11    1    3    3    0    0 -0.27560242622E+01  0.24465144593E+01 -0.98144646047E+01  0.10483549898E+02  0.51100000000E-03 0.  1.
        -12    1    3    3    0    0  0.23418594598E+01 -0.76678600463E+01 -0.20832085725E+02  0.22321652695E+02  0.00000000000E+00 0.  1.
</event>
<event>
 7    1  0.1714203E-010  0.4778727E+02  0.7816164E-02  0.1312668E+00
        -11   -1    0    0    0    0  0.00000000000E+00  0.00000000000E+00  0.45593999997E+02  0.45594000000E+02  0.51100000000E-03 0.  1.
         11   -1    0    0    0    0 -0.00000000000E+00 -0.00000000000E+00 -0.45593999997E+02  0.45594000000E+02  0.51100000000E-03 0. -1.
    9900012    2    1    2    0    0 -0.42749691972E+02 -0.11422073102E+01  0.74015108448E+01  0.47787272310E+02  0.20000005772E+02 0.  0.
        -12    1    1    2    0    0  0.42749691972E+02  0.11422073102E+01 -0.74015108448E+01  0.43400727690E+02  0.00000000000E+00 0.  1.
         11    1    3    3    0    0 -0.95053535982E+01  0.72883112319E+01  0.91549517319E+00  0.12012883056E+02  0.51100000000E-03 0. -1.
        -11    1    3    3    0    0 -0.11848514118E+02 -0.52848761679E+01  0.55991614129E+01  0.14130386113E+02  0.51100000000E-03 0.  1.
        -12    1    3    3    0    0 -0.21395824255E+02 -0.31456423742E+01  0.88685425867E+00  0.21644003141E+02  0.00000000000E+00 0.  1.
</event>
<event>
 7    1  0.1714203E-010  0.4778727E+02  0.7816164E-02  0.1312668E+00
        -11   -1    0    0    0    0  0.00000000000E+00  0.00000000000E+00  0.45593999997E+02  0.45594000000E+02  0.51100000000E-03 0. -1.
         11   -1    0    0    0    0 -0.00000000000E+00 -0.00000000000E+00 -0.45593999997E+02  0.45594000000E+02  0.51100000000E-03 0.  1.
    9900012    2    1    2    0    0  0.36006275962E+02 -0.62770247118E+01  0.23404496598E+02  0.47787269489E+02  0.19999992909E+02 0.  0.
        -12    1    1    2    0    0 -0.36006275962E+02  0.62770247118E+01 -0.23404496598E+02  0.43400730511E+02  0.00000000000E+00 0.  1.
         11    1    3    3    0    0  0.20146070751E+02 -0.34294373405E+01  0.94977167511E+01  0.22535124382E+02  0.51100000000E-03 0. -1.
        -11    1    3    3    0    0  0.93428327741E+01  0.39974664513E+01  0.11792601201E+02  0.15567071196E+02  0.51100000000E-03 0.  1.
        -12    1    3    3    0    0  0.65173724366E+01 -0.68450538225E+01  0.21141786451E+01  0.96850739106E+01  0.00000000000E+00 0.  1.
</event>
<event>
 7    1  0.1714203E-010  0.4778728E+02  0.7816164E-02  0.1312668E+00
        -11   -1    0    0    0    0  0.00000000000E+00  0.00000000000E+00  0.45593999997E+02  0.45594000000E+02  0.51100000000E-03 0.  1.
         11   -1    0    0    0    0 -0.00000000000E+00 -0.00000000000E+00 -0.45593999997E+02  0.45594000000E+02  0.51100000000E-03 0. -1.
    9900012    2    1    2    0    0  0.86616739146E+01 -0.35047753071E+02 -0.24088444748E+02  0.47787276956E+02  0.20000026954E+02 0.  0.
        -12    1    1    2    0    0 -0.86616739146E+01  0.35047753071E+02  0.24088444748E+02  0.43400723044E+02  0.00000000000E+00 0.  1.
         11    1    3    3    0    0 -0.48024209345E+01 -0.65205700891E+01 -0.87355649888E+01  0.11911808303E+02  0.51100000000E-03 0. -1.
        -11    1    3    3    0    0  0.74558465046E+01 -0.91703511178E+01 -0.32042205522E+01  0.12245489632E+02  0.51100000000E-03 0.  1.
        -12    1    3    3    0    0  0.60082483445E+01 -0.19356831864E+02 -0.12148659207E+02  0.23629979021E+02  0.00000000000E+00 0.  1.
</event>
<event>
 7    1  0.1714203E-010  0.4778731E+02  0.7816164E-02  0.1312668E+00
        -11   -1    0    0    0    0  0.00000000000E+00  0.00000000000E+00  0.45593999997E+02  0.45594000000E+02  0.51100000000E-03 0.  1.
         11   -1    0    0    0    0 -0.00000000000E+00 -0.00000000000E+00 -0.45593999997E+02  0.45594000000E+02  0.51100000000E-03 0. -1.
    9900012    2    1    2    0    0  0.42689954696E+02 -0.12617832420E+01  0.77198348307E+01  0.47787306702E+02  0.20000162579E+02 0.  0.
        -12    1    1    2    0    0 -0.42689954696E+02  0.12617832420E+01 -0.77198348307E+01  0.43400693298E+02  0.00000000000E+00 0.  1.
         11    1    3    3    0    0  0.19856784399E+02 -0.26850818100E+01  0.98322407996E+01  0.22319823261E+02  0.51100000000E-03 0. -1.
        -11    1    3    3    0    0 -0.90729757065E+00 -0.10197733628E+01 -0.76248788080E+00  0.15634943628E+01  0.51100000000E-03 0.  1.
         12    1    3    3    0    0  0.23740467867E+02  0.24430719308E+01 -0.13499180882E+01  0.23903989078E+02  0.00000000000E+00 0. -1.
</event>
<event>
 7    1  0.1714203E-010  0.4778727E+02  0.7816164E-02  0.1312668E+00
        -11   -1    0    0    0    0  0.00000000000E+00  0.00000000000E+00  0.45593999997E+02  0.45594000000E+02  0.51100000000E-03 0.  1.
         11   -1    0    0    0    0 -0.00000000000E+00 -0.00000000000E+00 -0.45593999997E+02  0.45594000000E+02  0.51100000000E-03 0. -1.
    9900012    2    1    2    0    0  0.30211880256E+02 -0.22622292533E+02 -0.21426566406E+02  0.47787267564E+02  0.19999984130E+02 0.  0.
        -12    1    1    2    0    0 -0.30211880256E+02  0.22622292533E+02  0.21426566406E+02  0.43400732436E+02  0.00000000000E+00 0.  1.
         11    1    3    3    0    0  0.19207852957E+02 -0.17259663404E+02 -0.12612327653E+02  0.28738622186E+02  0.51100000000E-03 0. -1.
        -11    1    3    3    0    0 -0.24550967541E+01 -0.10963206000E+01 -0.21144627888E+01  0.34205806636E+01  0.51100000000E-03 0.  1.
         12    1    3    3    0    0  0.13459124053E+02 -0.42663085285E+01 -0.66997759645E+01  0.15628064714E+02  0.00000000000E+00 0. -1.
</event>
<event>
 7    1  0.1714203E-010  0.4778727E+02  0.7816164E-02  0.1312668E+00
        -11   -1    0    0    0    0  0.00000000000E+00  0.00000000000E+00  0.45593999997E+02  0.45594000000E+02  0.51100000000E-03 0.  1.
         11   -1    0    0    0    0 -0.00000000000E+00 -0.00000000000E+00 -0.45593999997E+02  0.45594000000E+02  0.51100000000E-03 0. -1.
    9900012    2    1    2    0    0  0.23241972440E+02 -0.76208753211E+01 -0.35851865373E+02  0.47787271040E+02  0.19999999978E+02 0.  0.
        -12    1    1    2    0    0 -0.23241972440E+02  0.76208753211E+01  0.35851865373E+02  0.43400728960E+02  0.00000000000E+00 0.  1.
         11    1    3    3    0    0  0.10966874761E+02 -0.64669837700E+01 -0.16308513424E+02  0.20689655180E+02  0.51100000000E-03 0. -1.
        -11    1    3    3    0    0  0.93943458107E+01  0.39635912700E+01 -0.48838156125E+01  0.11305549264E+02  0.51100000000E-03 0.  1.
         12    1    3    3    0    0  0.28807518684E+01 -0.51174828210E+01 -0.14659536337E+02  0.15792066595E+02  0.00000000000E+00 0. -1.
</event>
<event>
 7    1  0.1714203E-010  0.4778727E+02  0.7816164E-02  0.1312668E+00
        -11   -1    0    0    0    0  0.00000000000E+00  0.00000000000E+00  0.45593999997E+02  0.45594000000E+02  0.51100000000E-03 0. -1.
         11   -1    0    0    0    0 -0.00000000000E+00 -0.00000000000E+00 -0.45593999997E+02  0.45594000000E+02  0.51100000000E-03 0.  1.
    9900012    2    1    2    0    0 -0.34694713601E+02 -0.19872358521E+02  0.16881634667E+02  0.47787269890E+02  0.19999994737E+02 0.  0.
        -12    1    1    2    0    0  0.34694713601E+02  0.19872358521E+02 -0.16881634667E+02  0.43400730110E+02  0.00000000000E+00 0.  1.
         11    1    3    3    0    0 -0.66782677380E+01 -0.61785994499E+01  0.10267881756E+02  0.13718737083E+02  0.51100000000E-03 0. -1.
        -11    1    3    3    0    0 -0.14595488376E+02 -0.92036279254E+01  0.93931651608E+01  0.19646032676E+02  0.51100000000E-03 0.  1.
        -12    1    3    3    0    0 -0.13420957487E+02 -0.44901311460E+01 -0.27794122492E+01  0.14422500131E+02  0.00000000000E+00 0.  1.
</event>
<event>
 7    1  0.1714203E-010  0.4778727E+02  0.7816164E-02  0.1312668E+00
        -11   -1    0    0    0    0  0.00000000000E+00  0.00000000000E+00  0.45593999997E+02  0.45594000000E+02  0.51100000000E-03 0.  1.
         11   -1    0    0    0    0 -0.00000000000E+00 -0.00000000000E+00 -0.45593999997E+02  0.45594000000E+02  0.51100000000E-03 0. -1.
    9900012    2    1    2    0    0  0.23854947239E+02 -0.28997820324E+02 -0.21764448876E+02  0.47787270442E+02  0.19999997251E+02 0.  0.
        -12    1    1    2    0    0 -0.23854947239E+02  0.28997820324E+02  0.21764448876E+02  0.43400729558E+02  0.00000000000E+00 0.  1.
         11    1    3    3    0    0  0.13067906123E+01 -0.18880851535E+01 -0.51394676987E+01  0.56290936871E+01  0.51100000000E-03 0. -1.
        -11    1    3    3    0    0  0.14909863475E+02 -0.10762196288E+02 -0.12131848806E+01  0.18428258615E+02  0.51100000000E-03 0.  1.
        -12    1    3    3    0    0  0.76382931524E+01 -0.16347538883E+02 -0.15411796297E+02  0.23729918139E+02  0.00000000000E+00 0.  1.
</event>
<event>
 7    1  0.1714203E-010  0.4778727E+02  0.7816164E-02  0.1312668E+00
        -11   -1    0    0    0    0  0.00000000000E+00  0.00000000000E+00  0.45593999997E+02  0.45594000000E+02  0.51100000000E-03 0. -1.
         11   -1    0    0    0    0 -0.00000000000E+00 -0.00000000000E+00 -0.45593999997E+02  0.45594000000E+02  0.51100000000E-03 0.  1.
    9900012    2    1    2    0    0  0.29796297213E+02  0.17496597355E+02  0.26261628177E+02  0.47787270039E+02  0.19999995418E+02 0.  0.
        -12    1    1    2    0    0 -0.29796297213E+02 -0.17496597355E+02 -0.26261628177E+02  0.43400729961E+02  0.00000000000E+00 0.  1.
         11    1    3    3    0    0  0.26608781723E+01  0.71048931962E+01  0.39509467263E+01  0.85539324450E+01  0.51100000000E-03 0. -1.
        -11    1    3    3    0    0  0.20575177958E+02  0.83622123372E+01  0.23421127219E+02  0.32277139645E+02  0.51100000000E-03 0.  1.
        -12    1    3    3    0    0  0.65602410825E+01  0.20294918211E+01 -0.11104457682E+01  0.69561979498E+01  0.00000000000E+00 0.  1.
</event>
<event>
 7    1  0.1714203E-010  0.4778727E+02  0.7816164E-02  0.1312668E+00
        -11   -1    0    0    0    0  0.00000000000E+00  0.00000000000E+00  0.45593999997E+02  0.45594000000E+02  0.51100000000E-03 0.  1.
         11   -1    0    0    0    0 -0.00000000000E+00 -0.00000000000E+00 -0.45593999997E+02  0.45594000000E+02  0.51100000000E-03 0. -1.
    9900012    2    1    2    0    0 -0.20124622530E+02  0.33766368604E+02 -0.18397148872E+02  0.47787272272E+02  0.20000005598E+02 0.  0.
        -12    1    1    2    0    0  0.20124622530E+02 -0.33766368604E+02  0.18397148872E+02  0.43400727728E+02  0.00000000000E+00 0.  1.
         11    1    3    3    0    0 -0.10222659043E+02  0.60049555705E+01 -0.91563283342E+01  0.14980006613E+02  0.51100000000E-03 0. -1.
        -11    1    3    3    0    0 -0.57967545831E+00  0.72041057163E+01 -0.71037831781E+01  0.10134046502E+02  0.51100000000E-03 0.  1.
        -12    1    3    3    0    0 -0.93222880283E+01  0.20557307318E+02 -0.21370373594E+01  0.22673219156E+02  0.00000000000E+00 0.  1.
</event>
<event>
 7    1  0.1714203E-010  0.4778727E+02  0.7816164E-02  0.1312668E+00
        -11   -1    0    0    0    0  0.00000000000E+00  0.00000000000E+00  0.45593999997E+02  0.45594000000E+02  0.51100000000E-03 0.  1.
         11   -1    0    0    0    0 -0.00000000000E+00 -0.00000000000E+00 -0.45593999997E+02  0.45594000000E+02  0.51100000000E-03 0. -1.
    9900012    2    1    2    0    0 -0.29978861397E+02  0.23402261136E+02 -0.20909932029E+02  0.47787271730E+02  0.20000003125E+02 0.  0.
        -12    1    1    2    0    0  0.29978861397E+02 -0.23402261136E+02  0.20909932029E+02  0.43400728270E+02  0.00000000000E+00 0.  1.
         11    1    3    3    0    0 -0.16803290909E+02  0.86358409862E+01 -0.14190630506E+02  0.23628422066E+02  0.51100000000E-03 0. -1.
        -11    1    3    3    0    0 -0.38501297402E+01  0.11864517882E+02 -0.71598306940E+01  0.14382401031E+02  0.51100000000E-03 0.  1.
         12    1    3    3    0    0 -0.93254407480E+01  0.29019022678E+01  0.44052917156E+00  0.97764486327E+01  0.00000000000E+00 0. -1.
</event>
<event>
 7    1  0.1714203E-010  0.4778727E+02  0.7816164E-02  0.1312668E+00
        -11   -1    0    0    0    0  0.00000000000E+00  0.00000000000E+00  0.45593999997E+02  0.45594000000E+02  0.51100000000E-03 0. -1.
         11   -1    0    0    0    0 -0.00000000000E+00 -0.00000000000E+00 -0.45593999997E+02  0.45594000000E+02  0.51100000000E-03 0.  1.
    9900012    2    1    2    0    0 -0.41522978058E+02  0.12069567427E+02 -0.37136539050E+01  0.47787269707E+02  0.19999993901E+02 0.  0.
        -12    1    1    2    0    0  0.41522978058E+02 -0.12069567427E+02  0.37136539050E+01  0.43400730293E+02  0.00000000000E+00 0.  1.
         11    1    3    3    0    0 -0.13125911833E+02 -0.29735016149E+01 -0.23695348322E+01  0.13665502877E+02  0.51100000000E-03 0.  1.
        -11    1    3    3    0    0 -0.77534765834E+01  0.51025328725E+01  0.47306946050E+01  0.10417855468E+02  0.51100000000E-03 0. -1.
         12    1    3    3    0    0 -0.20643589641E+02  0.99405361696E+01 -0.60748136778E+01  0.23703911361E+02  0.00000000000E+00 0. -1.
</event>
<event>
 7    1  0.1714203E-010  0.4778728E+02  0.7816164E-02  0.1312668E+00
        -11   -1    0    0    0    0  0.00000000000E+00  0.00000000000E+00  0.45593999997E+02  0.45594000000E+02  0.51100000000E-03 0. -1.
         11   -1    0    0    0    0 -0.00000000000E+00 -0.00000000000E+00 -0.45593999997E+02  0.45594000000E+02  0.51100000000E-03 0.  1.
    9900012    2    1    2    0    0  0.38349431476E+02  0.53924741099E+01 -0.19592476766E+02  0.47787276303E+02  0.20000023977E+02 0.  0.
        -12    1    1    2    0    0 -0.38349431476E+02 -0.53924741099E+01  0.19592476766E+02  0.43400723697E+02  0.00000000000E+00 0.  1.
         11    1    3    3    0    0  0.97268264057E+01 -0.18929961778E+01 -0.65705573197E+01  0.11889777551E+02  0.51100000000E-03 0. -1.
        -11    1    3    3    0    0  0.24820034964E+02  0.10572073966E+02 -0.66562823207E+01  0.27786849014E+02  0.51100000000E-03 0.  1.
        -12    1    3    3    0    0  0.38025701067E+01 -0.32866036786E+01 -0.63656371257E+01  0.81106497380E+01  0.00000000000E+00 0.  1.
</event>
<event>
 7    1  0.1714203E-010  0.4778727E+02  0.7816164E-02  0.1312668E+00
        -11   -1    0    0    0    0  0.00000000000E+00  0.00000000000E+00  0.45593999997E+02  0.45594000000E+02  0.51100000000E-03 0. -1.
         11   -1    0    0    0    0 -0.00000000000E+00 -0.00000000000E+00 -0.45593999997E+02  0.45594000000E+02  0.51100000000E-03 0.  1.
    9900012    2    1    2    0    0 -0.70770412360E+01  0.29512417273E+02  0.31025087966E+02  0.47787269946E+02  0.19999994992E+02 0.  0.
        -12    1    1    2    0    0  0.70770412360E+01 -0.29512417273E+02 -0.31025087966E+02  0.43400730054E+02  0.00000000000E+00 0.  1.
         11    1    3    3    0    0  0.16751304537E+01  0.16106389085E+02  0.80888170695E+01  0.18101126850E+02  0.51100000000E-03 0. -1.
        -11    1    3    3    0    0 -0.97745538162E+00 -0.12358851294E+01  0.50883961216E+01  0.53267819955E+01  0.51100000000E-03 0.  1.
        -12    1    3    3    0    0 -0.77747163080E+01  0.14641913317E+02  0.17847874775E+02  0.24359361100E+02  0.00000000000E+00 0.  1.
</event>
<event>
 7    1  0.1714203E-010  0.4778727E+02  0.7816164E-02  0.1312668E+00
        -11   -1    0    0    0    0  0.00000000000E+00  0.00000000000E+00  0.45593999997E+02  0.45594000000E+02  0.51100000000E-03 0.  1.
         11   -1    0    0    0    0 -0.00000000000E+00 -0.00000000000E+00 -0.45593999997E+02  0.45594000000E+02  0.51100000000E-03 0. -1.
    9900012    2    1    2    0    0 -0.16459354165E+02 -0.40157529548E+02  0.29261799258E+00  0.47787272538E+02  0.20000006811E+02 0.  0.
        -12    1    1    2    0    0  0.16459354165E+02  0.40157529548E+02 -0.29261799258E+00  0.43400727462E+02  0.00000000000E+00 0.  1.
         11    1    3    3    0    0 -0.98772795590E+01 -0.31088625827E+02  0.53292319652E+01  0.33052443494E+02  0.51100000000E-03 0. -1.
        -11    1    3    3    0    0 -0.64875402844E+01 -0.32463599601E+01 -0.35525197746E+00  0.72631423062E+01  0.51100000000E-03 0.  1.
        -12    1    3    3    0    0 -0.94534321374E-01 -0.58225437609E+01 -0.46813619952E+01  0.74716867383E+01  0.00000000000E+00 0.  1.
</event>
<event>
 7    1  0.1714203E-010  0.4778727E+02  0.7816164E-02  0.1312668E+00
        -11   -1    0    0    0    0  0.00000000000E+00  0.00000000000E+00  0.45593999997E+02  0.45594000000E+02  0.51100000000E-03 0.  1.
         11   -1    0    0    0    0 -0.00000000000E+00 -0.00000000000E+00 -0.45593999997E+02  0.45594000000E+02  0.51100000000E-03 0. -1.
    9900012    2    1    2    0    0 -0.26542403494E+02 -0.29683913726E+02  0.17262363602E+02  0.47787272881E+02  0.20000008373E+02 0.  0.
        -12    1    1    2    0    0  0.26542403494E+02  0.29683913726E+02 -0.17262363602E+02  0.43400727119E+02  0.00000000000E+00 0.  1.
         11    1    3    3    0    0 -0.10349007838E+02 -0.24287313755E+01  0.20470071009E+01  0.10825476325E+02  0.51100000000E-03 0. -1.
        -11    1    3    3    0    0 -0.16618702217E+02 -0.18962980685E+02  0.98180235264E+01  0.27058630528E+02  0.51100000000E-03 0.  1.
        -12    1    3    3    0    0  0.42530656073E+00 -0.82922016659E+01  0.53973329750E+01  0.99031660282E+01  0.00000000000E+00 0.  1.
</event>
<event>
 7    1  0.1714203E-010  0.4778727E+02  0.7816164E-02  0.1312668E+00
        -11   -1    0    0    0    0  0.00000000000E+00  0.00000000000E+00  0.45593999997E+02  0.45594000000E+02  0.51100000000E-03 0.  1.
         11   -1    0    0    0    0 -0.00000000000E+00 -0.00000000000E+00 -0.45593999997E+02  0.45594000000E+02  0.51100000000E-03 0. -1.
    9900012    2    1    2    0    0 -0.78059552059E+01 -0.42502983930E+02  0.40232805379E+01  0.47787269984E+02  0.19999995164E+02 0.  0.
        -12    1    1    2    0    0  0.78059552059E+01  0.42502983930E+02 -0.40232805379E+01  0.43400730016E+02  0.00000000000E+00 0.  1.
         11    1    3    3    0    0  0.29468874934E+00 -0.14001813084E+02 -0.12064412071E+00  0.14005433459E+02  0.51100000000E-03 0. -1.
        -11    1    3    3    0    0 -0.12246176891E+02 -0.18351041815E+02  0.54918975384E+01  0.22735226477E+02  0.51100000000E-03 0.  1.
        -12    1    3    3    0    0  0.41455329354E+01 -0.10150129031E+02 -0.13479728798E+01  0.11046610048E+02  0.00000000000E+00 0.  1.
</event>
<event>
 7    1  0.2166573E-010  0.4778727E+02  0.7816164E-02  0.1312668E+00
        -11   -1    0    0    0    0  0.00000000000E+00  0.00000000000E+00  0.45593999997E+02  0.45594000000E+02  0.51100000000E-03 0. -1.
         11   -1    0    0    0    0 -0.00000000000E+00 -0.00000000000E+00 -0.45593999997E+02  0.45594000000E+02  0.51100000000E-03 0.  1.
    9900012    2    1    2    0    0  0.12115221385E+02 -0.48287500238E+01  0.41394780907E+02  0.47787270717E+02  0.19999998506E+02 0.  0.
        -12    1    1    2    0    0 -0.12115221385E+02  0.48287500238E+01 -0.41394780907E+02  0.43400729283E+02  0.00000000000E+00 0.  1.
         11    1    3    3    0    0  0.53660501355E+01 -0.80207169884E+01  0.18491074120E+02  0.20857761564E+02  0.51100000000E-03 0. -1.
        -11    1    3    3    0    0  0.33515073253E+01  0.11028589364E+01 -0.15177843657E+00  0.35315628467E+01  0.51100000000E-03 0.  1.
        -12    1    3    3    0    0  0.33976639246E+01  0.20891080282E+01  0.23055485223E+02  0.23397946306E+02  0.00000000000E+00 0.  1.
</event>
<event>
 7    1  0.1714203E-010  0.4778727E+02  0.7816164E-02  0.1312668E+00
        -11   -1    0    0    0    0  0.00000000000E+00  0.00000000000E+00  0.45593999997E+02  0.45594000000E+02  0.51100000000E-03 0.  1.
         11   -1    0    0    0    0 -0.00000000000E+00 -0.00000000000E+00 -0.45593999997E+02  0.45594000000E+02  0.51100000000E-03 0. -1.
    9900012    2    1    2    0    0 -0.18396545523E+00  0.41144616091E+02 -0.13809775777E+02  0.47787272085E+02  0.20000004743E+02 0.  0.
        -12    1    1    2    0    0  0.18396545523E+00 -0.41144616091E+02  0.13809775777E+02  0.43400727915E+02  0.00000000000E+00 0.  1.
         11    1    3    3    0    0 -0.12781073292E+00  0.26172413629E+02 -0.57469898808E+01  0.26796258390E+02  0.51100000000E-03 0. -1.
        -11    1    3    3    0    0 -0.58202403572E+01  0.62988018315E+01 -0.15697809447E+01  0.87186188587E+01  0.51100000000E-03 0.  1.
        -12    1    3    3    0    0  0.57640856349E+01  0.86734006302E+01 -0.64930049519E+01  0.12272394836E+02  0.00000000000E+00 0.  1.
</event>
<event>
 7    1  0.1714203E-010  0.4778731E+02  0.7816164E-02  0.1312668E+00
        -11   -1    0    0    0    0  0.00000000000E+00  0.00000000000E+00  0.45593999997E+02  0.45594000000E+02  0.51100000000E-03 0.  1.
         11   -1    0    0    0    0 -0.00000000000E+00 -0.00000000000E+00 -0.45593999997E+02  0.45594000000E+02  0.51100000000E-03 0. -1.
    9900012    2    1    2    0    0 -0.87415310545E+01  0.30949268319E+02 -0.29143583241E+02  0.47787308545E+02  0.20000170978E+02 0.  0.
        -12    1    1    2    0    0  0.87415310545E+01 -0.30949268319E+02  0.29143583241E+02  0.43400691455E+02  0.00000000000E+00 0.  1.
         11    1    3    3    0    0 -0.87478247159E+01  0.12210622957E+02 -0.19267009200E+02  0.24430337575E+02  0.51100000000E-03 0. -1.
        -11    1    3    3    0    0  0.12777220881E+01 -0.56461036495E+00  0.39820472701E+00  0.14525583858E+01  0.51100000000E-03 0.  1.
         12    1    3    3    0    0 -0.12714284267E+01  0.19303255727E+02 -0.10274778768E+02  0.21904412584E+02  0.00000000000E+00 0. -1.
</event>
<event>
 7    1  0.1714203E-010  0.4778726E+02  0.7816164E-02  0.1312668E+00
        -11   -1    0    0    0    0  0.00000000000E+00  0.00000000000E+00  0.45593999997E+02  0.45594000000E+02  0.51100000000E-03 0.  1.
         11   -1    0    0    0    0 -0.00000000000E+00 -0.00000000000E+00 -0.45593999997E+02  0.45594000000E+02  0.51100000000E-03 0. -1.
    9900012    2    1    2    0    0  0.29134383455E+01  0.30494161980E+02 -0.30744788475E+02  0.47787262031E+02  0.19999958904E+02 0.  0.
        -12    1    1    2    0    0 -0.29134383455E+01 -0.30494161980E+02  0.30744788475E+02  0.43400737969E+02  0.00000000000E+00 0.  1.
         11    1    3    3    0    0 -0.85566327601E+00  0.21608344937E+02 -0.25156096653E+02  0.33173512471E+02  0.51100000000E-03 0. -1.
        -11    1    3    3    0    0 -0.34974651731E+00  0.12558813497E+01 -0.57957775531E+01  0.59405890530E+01  0.51100000000E-03 0.  1.
        -12    1    3    3    0    0  0.41188481388E+01  0.76299356940E+01  0.20708573118E+00  0.86731605073E+01  0.00000000000E+00 0.  1.
</event>
<event>
 7    1  0.1714203E-010  0.4778727E+02  0.7816164E-02  0.1312668E+00
        -11   -1    0    0    0    0  0.00000000000E+00  0.00000000000E+00  0.45593999997E+02  0.45594000000E+02  0.51100000000E-03 0. -1.
         11   -1    0    0    0    0 -0.00000000000E+00 -0.00000000000E+00 -0.45593999997E+02  0.45594000000E+02  0.51100000000E-03 0.  1.
    9900012    2    1    2    0    0  0.14642979736E+02  0.31160265001E+02  0.26424312844E+02  0.47787270977E+02  0.19999999693E+02 0.  0.
        -12    1    1    2    0    0 -0.14642979736E+02 -0.31160265001E+02 -0.26424312844E+02  0.43400729023E+02  0.00000000000E+00 0.  1.
         11    1    3    3    0    0  0.24798813880E+01  0.53180654845E+01  0.12502274550E+02  0.13810811033E+02  0.51100000000E-03 0. -1.
        -11    1    3    3    0    0  0.46344837292E+01  0.47300795106E+01 -0.14735720939E+01  0.67840626906E+01  0.51100000000E-03 0.  1.
         12    1    3    3    0    0  0.75286146189E+01  0.21112120005E+02  0.15395610387E+02  0.27192397254E+02  0.00000000000E+00 0. -1.
</event>
<event>
 7    1  0.1714203E-010  0.4778727E+02  0.7816164E-02  0.1312668E+00
        -11   -1    0    0    0    0  0.00000000000E+00  0.00000000000E+00  0.45593999997E+02  0.45594000000E+02  0.51100000000E-03 0. -1.
         11   -1    0    0    0    0 -0.00000000000E+00 -0.00000000000E+00 -0.45593999997E+02  0.45594000000E+02  0.51100000000E-03 0.  1.
    9900012    2    1    2    0    0  0.37689324078E+02 -0.50892865176E+01  0.20910217948E+02  0.47787271880E+02  0.20000003808E+02 0.  0.
        -12    1    1    2    0    0 -0.37689324078E+02  0.50892865176E+01 -0.20910217948E+02  0.43400728120E+02  0.00000000000E+00 0.  1.
         11    1    3    3    0    0  0.19180790680E+02 -0.85912538922E+00  0.12816992161E+02  0.23084975977E+02  0.51100000000E-03 0. -1.
        -11    1    3    3    0    0  0.21093498271E+00  0.51110867937E+00  0.56109215810E+01  0.56380995822E+01  0.51100000000E-03 0.  1.
        -12    1    3    3    0    0  0.18297598416E+02 -0.47412698077E+01  0.24823042057E+01  0.19064196321E+02  0.00000000000E+00 0.  1.
</event>
<event>
 7    1  0.1714203E-010  0.4778727E+02  0.7816164E-02  0.1312668E+00
        -11   -1    0    0    0    0  0.00000000000E+00  0.00000000000E+00  0.45593999997E+02  0.45594000000E+02  0.51100000000E-03 0.  1.
         11   -1    0    0    0    0 -0.00000000000E+00 -0.00000000000E+00 -0.45593999997E+02  0.45594000000E+02  0.51100000000E-03 0. -1.
    9900012    2    1    2    0    0 -0.10892203574E+01 -0.53675838294E+01 -0.43053756397E+02  0.47787270778E+02  0.19999998783E+02 0.  0.
        -12    1    1    2    0    0  0.10892203574E+01  0.53675838294E+01  0.43053756397E+02  0.43400729222E+02  0.00000000000E+00 0.  1.
         11    1    3    3    0    0  0.17113065405E+01 -0.29933096746E+01 -0.24224464444E+02  0.24468615628E+02  0.51100000000E-03 0. -1.
        -11    1    3    3    0    0  0.46769802999E+01  0.21701231579E+00 -0.11944014502E+02  0.12828901814E+02  0.51100000000E-03 0.  1.
         12    1    3    3    0    0 -0.74775071978E+01 -0.25912864706E+01 -0.68852774513E+01  0.10489753336E+02  0.00000000000E+00 0. -1.
</event>
<event>
 7    1  0.1714203E-010  0.4778727E+02  0.7816164E-02  0.1312668E+00
        -11   -1    0    0    0    0  0.00000000000E+00  0.00000000000E+00  0.45593999997E+02  0.45594000000E+02  0.51100000000E-03 0. -1.
         11   -1    0    0    0    0 -0.00000000000E+00 -0.00000000000E+00 -0.45593999997E+02  0.45594000000E+02  0.51100000000E-03 0.  1.
    9900012    2    1    2    0    0 -0.19785823625E+02 -0.23290199545E+02  0.30817380703E+02  0.47787272302E+02  0.20000005732E+02 0.  0.
        -12    1    1    2    0    0  0.19785823625E+02  0.23290199545E+02 -0.30817380703E+02  0.43400727698E+02  0.00000000000E+00 0.  1.
         11    1    3    3    0    0 -0.13565799702E+02 -0.10288194123E+02  0.26462718780E+02  0.31466702169E+02  0.51100000000E-03 0. -1.
        -11    1    3    3    0    0 -0.26661763808E+00 -0.76953973450E+01  0.28131048048E+01  0.81977914200E+01  0.51100000000E-03 0.  1.
        -12    1    3    3    0    0 -0.59534062845E+01 -0.53066080771E+01  0.15415571182E+01  0.81227787131E+01  0.00000000000E+00 0.  1.
</event>
<event>
 7    1  0.1714203E-010  0.4778727E+02  0.7816164E-02  0.1312668E+00
        -11   -1    0    0    0    0  0.00000000000E+00  0.00000000000E+00  0.45593999997E+02  0.45594000000E+02  0.51100000000E-03 0. -1.
         11   -1    0    0    0    0 -0.00000000000E+00 -0.00000000000E+00 -0.45593999997E+02  0.45594000000E+02  0.51100000000E-03 0.  1.
    9900012    2    1    2    0    0 -0.32062628558E+02 -0.14567244449E+01  0.29214536426E+02  0.47787270343E+02  0.19999996803E+02 0.  0.
        -12    1    1    2    0    0  0.32062628558E+02  0.14567244449E+01 -0.29214536426E+02  0.43400729657E+02  0.00000000000E+00 0.  1.
         11    1    3    3    0    0 -0.20015913960E+02  0.46215889051E+01  0.97010099471E+01  0.22717955232E+02  0.51100000000E-03 0. -1.
        -11    1    3    3    0    0 -0.12287482199E+02 -0.31798106661E+01  0.17064198850E+02  0.21266882643E+02  0.51100000000E-03 0.  1.
        -12    1    3    3    0    0  0.24076760168E+00 -0.28985026838E+01  0.24493276288E+01  0.38024324687E+01  0.00000000000E+00 0.  1.
</event>
<event>
 7    1  0.1714203E-010  0.4778727E+02  0.7816164E-02  0.1312668E+00
        -11   -1    0    0    0    0  0.00000000000E+00  0.00000000000E+00  0.45593999997E+02  0.45594000000E+02  0.51100000000E-03 0.  1.
         11   -1    0    0    0    0 -0.00000000000E+00 -0.00000000000E+00 -0.45593999997E+02  0.45594000000E+02  0.51100000000E-03 0. -1.
    9900012    2    1    2    0    0 -0.19827851331E+02  0.89665651832E+01 -0.37551037582E+02  0.47787269556E+02  0.19999993215E+02 0.  0.
        -12    1    1    2    0    0  0.19827851331E+02 -0.89665651832E+01  0.37551037582E+02  0.43400730444E+02  0.00000000000E+00 0.  1.
         11    1    3    3    0    0 -0.79397185037E+01  0.47790198892E+01 -0.20286608580E+02  0.22303018831E+02  0.51100000000E-03 0. -1.
        -11    1    3    3    0    0 -0.62210223570E+01  0.77286009712E+01 -0.41279879517E+01  0.10745821371E+02  0.51100000000E-03 0.  1.
        -12    1    3    3    0    0 -0.56671104708E+01 -0.35410556772E+01 -0.13136441050E+02  0.14738429355E+02  0.00000000000E+00 0.  1.
</event>
<event>
 7    1  0.1714203E-010  0.4778727E+02  0.7816164E-02  0.1312668E+00
        -11   -1    0    0    0    0  0.00000000000E+00  0.00000000000E+00  0.45593999997E+02  0.45594000000E+02  0.51100000000E-03 0.  1.
         11   -1    0    0    0    0 -0.00000000000E+00 -0.00000000000E+00 -0.45593999997E+02  0.45594000000E+02  0.51100000000E-03 0. -1.
    9900012    2    1    2    0    0  0.19917373853E+02  0.38166519500E+02  0.54989158383E+01  0.47787273424E+02  0.20000010850E+02 0.  0.
        -12    1    1    2    0    0 -0.19917373853E+02 -0.38166519500E+02 -0.54989158383E+01  0.43400726576E+02  0.00000000000E+00 0.  1.
         11    1    3    3    0    0  0.21206459513E+02  0.35233791631E+02  0.14740915718E+01  0.41149810984E+02  0.51100000000E-03 0. -1.
        -11    1    3    3    0    0 -0.16366581299E+01  0.30619193371E+01  0.10323743142E+01  0.36221260120E+01  0.51100000000E-03 0.  1.
        -12    1    3    3    0    0  0.34757246943E+00 -0.12919146853E+00  0.29924499523E+01  0.30153364281E+01  0.00000000000E+00 0.  1.
</event>
<event>
 7    1  0.1714203E-010  0.4778727E+02  0.7816164E-02  0.1312668E+00
        -11   -1    0    0    0    0  0.00000000000E+00  0.00000000000E+00  0.45593999997E+02  0.45594000000E+02  0.51100000000E-03 0.  1.
         11   -1    0    0    0    0 -0.00000000000E+00 -0.00000000000E+00 -0.45593999997E+02  0.45594000000E+02  0.51100000000E-03 0. -1.
    9900012    2    1    2    0    0  0.40775854859E+02 -0.10303896850E+02 -0.10713664772E+02  0.47787271404E+02  0.20000001640E+02 0.  0.
        -12    1    1    2    0    0 -0.40775854859E+02  0.10303896850E+02  0.10713664772E+02  0.43400728596E+02  0.00000000000E+00 0.  1.
         11    1    3    3    0    0  0.97606897565E-02  0.19047790679E+00 -0.17343306672E+01  0.17447865854E+01  0.51100000000E-03 0. -1.
        -11    1    3    3    0    0  0.41538571531E+02 -0.10428515229E+02 -0.63433570431E+01  0.43294861514E+02  0.51100000000E-03 0.  1.
        -12    1    3    3    0    0 -0.77247736143E+00 -0.65859528029E-01 -0.26359770620E+01  0.27476233044E+01  0.00000000000E+00 0.  1.
</event>
<event>
 7    1  0.1714203E-010  0.4778728E+02  0.7816164E-02  0.1312668E+00
        -11   -1    0    0    0    0  0.00000000000E+00  0.00000000000E+00  0.45593999997E+02  0.45594000000E+02  0.51100000000E-03 0. -1.
         11   -1    0    0    0    0 -0.00000000000E+00 -0.00000000000E+00 -0.45593999997E+02  0.45594000000E+02  0.51100000000E-03 0.  1.
    9900012    2    1    2    0    0 -0.30099477992E+00 -0.41711599687E+02  0.11986420629E+02  0.47787280815E+02  0.20000044547E+02 0.  0.
        -12    1    1    2    0    0  0.30099477992E+00  0.41711599687E+02 -0.11986420629E+02  0.43400719185E+02  0.00000000000E+00 0.  1.
         11    1    3    3    0    0  0.94567765578E+00 -0.14677885249E+02 -0.24670486439E+01  0.14913783923E+02  0.51100000000E-03 0. -1.
        -11    1    3    3    0    0 -0.46654282202E+01 -0.38316259099E+01  0.36232580242E+01  0.70409925836E+01  0.51100000000E-03 0.  1.
        -12    1    3    3    0    0  0.34187557845E+01 -0.23202088528E+02  0.10830211249E+02  0.25832504309E+02  0.00000000000E+00 0.  1.
</event>
<event>
 7    1  0.1714203E-010  0.4778727E+02  0.7816164E-02  0.1312668E+00
        -11   -1    0    0    0    0  0.00000000000E+00  0.00000000000E+00  0.45593999997E+02  0.45594000000E+02  0.51100000000E-03 0.  1.
         11   -1    0    0    0    0 -0.00000000000E+00 -0.00000000000E+00 -0.45593999997E+02  0.45594000000E+02  0.51100000000E-03 0. -1.
    9900012    2    1    2    0    0 -0.11545610891E+02  0.39889927618E+02 -0.12614115526E+02  0.47787269975E+02  0.19999995124E+02 0.  0.
        -12    1    1    2    0    0  0.11545610891E+02 -0.39889927618E+02  0.12614115526E+02  0.43400730025E+02  0.00000000000E+00 0.  1.
         11    1    3    3    0    0 -0.48253998862E+01  0.61767901575E+01  0.39152021912E+01  0.87616225193E+01  0.51100000000E-03 0. -1.
        -11    1    3    3    0    0  0.17365734080E+01  0.87304212749E+01 -0.30798560931E+01  0.94192067953E+01  0.51100000000E-03 0.  1.
         12    1    3    3    0    0 -0.84567844124E+01  0.24982716186E+02 -0.13449461624E+02  0.29606440660E+02  0.00000000000E+00 0. -1.
</event>
<event>
 7    1  0.1714203E-010  0.4778727E+02  0.7816164E-02  0.1312668E+00
        -11   -1    0    0    0    0  0.00000000000E+00  0.00000000000E+00  0.45593999997E+02  0.45594000000E+02  0.51100000000E-03 0.  1.
         11   -1    0    0    0    0 -0.00000000000E+00 -0.00000000000E+00 -0.45593999997E+02  0.45594000000E+02  0.51100000000E-03 0. -1.
    9900012    2    1    2    0    0 -0.19689656121E+01 -0.12331916971E+02 -0.41565253382E+02  0.47787270853E+02  0.19999999127E+02 0.  0.
        -12    1    1    2    0    0  0.19689656121E+01  0.12331916971E+02  0.41565253382E+02  0.43400729147E+02  0.00000000000E+00 0.  1.
         11    1    3    3    0    0 -0.27573766987E+00 -0.11010558021E+02 -0.13031200724E+02  0.17062256936E+02  0.51100000000E-03 0. -1.
        -11    1    3    3    0    0 -0.62312314329E+01 -0.24640932275E+01 -0.16043398511E+02  0.17386507316E+02  0.51100000000E-03 0.  1.
        -12    1    3    3    0    0  0.45380034906E+01  0.11427342776E+01 -0.12490654147E+02  0.13338506600E+02  0.00000000000E+00 0.  1.
</event>
<event>
 7    1  0.1714203E-010  0.4778727E+02  0.7816164E-02  0.1312668E+00
        -11   -1    0    0    0    0  0.00000000000E+00  0.00000000000E+00  0.45593999997E+02  0.45594000000E+02  0.51100000000E-03 0. -1.
         11   -1    0    0    0    0 -0.00000000000E+00 -0.00000000000E+00 -0.45593999997E+02  0.45594000000E+02  0.51100000000E-03 0.  1.
    9900012    2    1    2    0    0  0.21870164699E+02  0.20415647364E+02  0.31440744910E+02  0.47787271875E+02  0.20000003786E+02 0.  0.
        -12    1    1    2    0    0 -0.21870164699E+02 -0.20415647364E+02 -0.31440744910E+02  0.43400728125E+02  0.00000000000E+00 0.  1.
         11    1    3    3    0    0  0.11302069320E+02  0.17462292985E+02  0.19865875193E+02  0.28763196008E+02  0.51100000000E-03 0. -1.
        -11    1    3    3    0    0 -0.19381615331E+01 -0.66658055879E+00  0.19908903071E+01  0.28573491642E+01  0.51100000000E-03 0.  1.
        -12    1    3    3    0    0  0.12506256913E+02  0.36199349384E+01  0.95839794104E+01  0.16166726702E+02  0.00000000000E+00 0.  1.
</event>
<event>
 7    1  0.1714203E-010  0.4778727E+02  0.7816164E-02  0.1312668E+00
        -11   -1    0    0    0    0  0.00000000000E+00  0.00000000000E+00  0.45593999997E+02  0.45594000000E+02  0.51100000000E-03 0.  1.
         11   -1    0    0    0    0 -0.00000000000E+00 -0.00000000000E+00 -0.45593999997E+02  0.45594000000E+02  0.51100000000E-03 0. -1.
    9900012    2    1    2    0    0  0.30008471520E+02 -0.13015821307E+02 -0.28525480396E+02  0.47787274210E+02  0.20000014435E+02 0.  0.
        -12    1    1    2    0    0 -0.30008471520E+02  0.13015821307E+02  0.28525480396E+02  0.43400725790E+02  0.00000000000E+00 0.  1.
         11    1    3    3    0    0  0.32561272747E+01 -0.27235949969E+01  0.76326024054E+00  0.43131080431E+01  0.51100000000E-03 0. -1.
        -11    1    3    3    0    0  0.19954321042E+02 -0.12119154490E+02 -0.15591199105E+02  0.28073730133E+02  0.51100000000E-03 0.  1.
         12    1    3    3    0    0  0.67980232038E+01  0.18269281795E+01 -0.13697541532E+02  0.15400436035E+02  0.00000000000E+00 0. -1.
</event>
<event>
 7    1  0.1714203E-010  0.4778727E+02  0.7816164E-02  0.1312668E+00
        -11   -1    0    0    0    0  0.00000000000E+00  0.00000000000E+00  0.45593999997E+02  0.45594000000E+02  0.51100000000E-03 0.  1.
         11   -1    0    0    0    0 -0.00000000000E+00 -0.00000000000E+00 -0.45593999997E+02  0.45594000000E+02  0.51100000000E-03 0. -1.
    9900012    2    1    2    0    0  0.56125135964E+01  0.26657480058E+02 -0.33786120921E+02  0.47787268223E+02  0.19999987134E+02 0.  0.
        -12    1    1    2    0    0 -0.56125135964E+01 -0.26657480058E+02  0.33786120921E+02  0.43400731777E+02  0.00000000000E+00 0.  1.
         11    1    3    3    0    0  0.44442057376E+01  0.18453697656E+02 -0.19941402879E+02  0.27530882130E+02  0.51100000000E-03 0. -1.
        -11    1    3    3    0    0  0.37690668083E+01 -0.62646526639E+00 -0.91657206035E+01  0.99301942467E+01  0.51100000000E-03 0.  1.
         12    1    3    3    0    0 -0.26007589495E+01  0.88302476692E+01 -0.46789974389E+01  0.10326191846E+02  0.00000000000E+00 0. -1.
</event>
<event>
 7    1  0.3331140E-010  0.4778727E+02  0.7816164E-02  0.1312668E+00
        -11   -1    0    0    0    0  0.00000000000E+00  0.00000000000E+00  0.45593999997E+02  0.45594000000E+02  0.51100000000E-03 0. -1.
         11   -1    0    0    0    0 -0.00000000000E+00 -0.00000000000E+00 -0.45593999997E+02  0.45594000000E+02  0.51100000000E-03 0.  1.
    9900012    2    1    2    0    0 -0.11536987494E+01  0.67787722953E-01  0.43385339897E+02  0.47787270352E+02  0.19999996845E+02 0.  0.
        -12    1    1    2    0    0  0.11536987494E+01 -0.67787722953E-01 -0.43385339897E+02  0.43400729648E+02  0.00000000000E+00 0.  1.
         11    1    3    3    0    0 -0.45619212970E+01 -0.40464354247E+01  0.16270274578E+02  0.17375459725E+02  0.51100000000E-03 0. -1.
        -11    1    3    3    0    0  0.54466772909E+01  0.18403102820E-01  0.37736181150E+01  0.66262226136E+01  0.51100000000E-03 0.  1.
         12    1    3    3    0    0 -0.20384547433E+01  0.40958200448E+01  0.23341447204E+02  0.23785588014E+02  0.00000000000E+00 0. -1.
</event>
<event>
 7    1  0.1714203E-010  0.4778727E+02  0.7816164E-02  0.1312668E+00
        -11   -1    0    0    0    0  0.00000000000E+00  0.00000000000E+00  0.45593999997E+02  0.45594000000E+02  0.51100000000E-03 0. -1.
         11   -1    0    0    0    0 -0.00000000000E+00 -0.00000000000E+00 -0.45593999997E+02  0.45594000000E+02  0.51100000000E-03 0.  1.
    9900012    2    1    2    0    0 -0.54582071260E+01  0.24495717793E+01  0.42986401563E+02  0.47787272515E+02  0.20000006703E+02 0.  0.
        -12    1    1    2    0    0  0.54582071260E+01 -0.24495717793E+01 -0.42986401563E+02  0.43400727485E+02  0.00000000000E+00 0.  1.
         11    1    3    3    0    0  0.21670220064E+01  0.36975880702E+01  0.24292959557E+02  0.24668117606E+02  0.51100000000E-03 0. -1.
        -11    1    3    3    0    0  0.15527234284E+00 -0.48492517886E+01  0.50298310548E+01  0.69884585648E+01  0.51100000000E-03 0.  1.
        -12    1    3    3    0    0 -0.77805014753E+01  0.36012354977E+01  0.13663610951E+02  0.16130696344E+02  0.00000000000E+00 0.  1.
</event>
<event>
 7    1  0.2715761E-010  0.4778727E+02  0.7816164E-02  0.1312668E+00
        -11   -1    0    0    0    0  0.00000000000E+00  0.00000000000E+00  0.45593999997E+02  0.45594000000E+02  0.51100000000E-03 0. -1.
         11   -1    0    0    0    0 -0.00000000000E+00 -0.00000000000E+00 -0.45593999997E+02  0.45594000000E+02  0.51100000000E-03 0.  1.
    9900012    2    1    2    0    0  0.23833733794E+01 -0.37202672789E+02  0.22223957039E+02  0.47787267313E+02  0.19999982985E+02 0.  0.
        -12    1    1    2    0    0 -0.23833733794E+01  0.37202672789E+02 -0.22223957039E+02  0.43400732687E+02  0.00000000000E+00 0.  1.
         11    1    3    3    0    0 -0.12342711078E+00 -0.74951391957E+01  0.11770684860E+02  0.13954976465E+02  0.51100000000E-03 0. -1.
        -11    1    3    3    0    0  0.13633453498E+01 -0.53405476882E+01 -0.26788393315E+01  0.61283228193E+01  0.51100000000E-03 0.  1.
         12    1    3    3    0    0  0.11434551404E+01 -0.24366985905E+02  0.13132111511E+02  0.27703968028E+02  0.00000000000E+00 0. -1.
</event>
<event>
 7    1  0.1714203E-010  0.4778728E+02  0.7816164E-02  0.1312668E+00
        -11   -1    0    0    0    0  0.00000000000E+00  0.00000000000E+00  0.45593999997E+02  0.45594000000E+02  0.51100000000E-03 0.  1.
         11   -1    0    0    0    0 -0.00000000000E+00 -0.00000000000E+00 -0.45593999997E+02  0.45594000000E+02  0.51100000000E-03 0. -1.
    9900012    2    1    2    0    0  0.12782760136E+02 -0.18152622037E+02 -0.37292163426E+02  0.47787284608E+02  0.20000061843E+02 0.  0.
        -12    1    1    2    0    0 -0.12782760136E+02  0.18152622037E+02  0.37292163426E+02  0.43400715392E+02  0.00000000000E+00 0.  1.
         11    1    3    3    0    0  0.85884163924E+01 -0.40161898026E+01 -0.13617978407E+02  0.16593372557E+02  0.51100000000E-03 0. -1.
        -11    1    3    3    0    0  0.94607826190E+00 -0.15887316718E+02 -0.15456317103E+02  0.22185572682E+02  0.51100000000E-03 0.  1.
         12    1    3    3    0    0  0.32482654818E+01  0.17508844835E+01 -0.82178679154E+01  0.90083393691E+01  0.00000000000E+00 0. -1.
</event>
<event>
 7    1  0.1714203E-010  0.4778727E+02  0.7816164E-02  0.1312668E+00
        -11   -1    0    0    0    0  0.00000000000E+00  0.00000000000E+00  0.45593999997E+02  0.45594000000E+02  0.51100000000E-03 0.  1.
         11   -1    0    0    0    0 -0.00000000000E+00 -0.00000000000E+00 -0.45593999997E+02  0.45594000000E+02  0.51100000000E-03 0. -1.
    9900012    2    1    2    0    0  0.23141511413E+02  0.36492399314E+02 -0.40495350724E+01  0.47787268526E+02  0.19999988517E+02 0.  0.
        -12    1    1    2    0    0 -0.23141511413E+02 -0.36492399314E+02  0.40495350724E+01  0.43400731474E+02  0.00000000000E+00 0.  1.
         11    1    3    3    0    0  0.64188189566E+01  0.59999551031E+01 -0.61155512880E+01  0.10705170053E+02  0.51100000000E-03 0. -1.
        -11    1    3    3    0    0  0.10213844561E+02  0.86472235963E+01  0.45912422455E+01  0.14148378079E+02  0.51100000000E-03 0.  1.
         12    1    3    3    0    0  0.65088478949E+01  0.21845220615E+02 -0.25252260299E+01  0.22933720394E+02  0.00000000000E+00 0. -1.
</event>
<event>
 7    1  0.1714203E-010  0.4778727E+02  0.7816164E-02  0.1312668E+00
        -11   -1    0    0    0    0  0.00000000000E+00  0.00000000000E+00  0.45593999997E+02  0.45594000000E+02  0.51100000000E-03 0.  1.
         11   -1    0    0    0    0 -0.00000000000E+00 -0.00000000000E+00 -0.45593999997E+02  0.45594000000E+02  0.51100000000E-03 0. -1.
    9900012    2    1    2    0    0 -0.18268546083E+02 -0.16950347346E+02 -0.35532653502E+02  0.47787268255E+02  0.19999987281E+02 0.  0.
        -12    1    1    2    0    0  0.18268546083E+02  0.16950347346E+02  0.35532653502E+02  0.43400731745E+02  0.00000000000E+00 0.  1.
         11    1    3    3    0    0 -0.99716694827E+01 -0.10054426787E+02 -0.17322501172E+02  0.22373974555E+02  0.51100000000E-03 0. -1.
        -11    1    3    3    0    0  0.29916874619E+01 -0.50718498413E+01 -0.37621861220E+01  0.69876962842E+01  0.51100000000E-03 0.  1.
        -12    1    3    3    0    0 -0.11288564062E+02 -0.18240707185E+01 -0.14447966207E+02  0.18425597415E+02  0.00000000000E+00 0.  1.
</event>
<event>
 7    1  0.1714203E-010  0.4778722E+02  0.7816164E-02  0.1312668E+00
        -11   -1    0    0    0    0  0.00000000000E+00  0.00000000000E+00  0.45593999997E+02  0.45594000000E+02  0.51100000000E-03 0.  1.
         11   -1    0    0    0    0 -0.00000000000E+00 -0.00000000000E+00 -0.45593999997E+02  0.45594000000E+02  0.51100000000E-03 0. -1.
    9900012    2    1    2    0    0 -0.23751710022E+02 -0.36316184320E+02 -0.78681739589E+00  0.47787215973E+02  0.19999748904E+02 0.  0.
        -12    1    1    2    0    0  0.23751710022E+02  0.36316184320E+02  0.78681739589E+00  0.43400784027E+02  0.00000000000E+00 0.  1.
         11    1    3    3    0    0 -0.92908813638E+01 -0.59029215337E+01 -0.65466916827E+01  0.12807190613E+02  0.51100000000E-03 0. -1.
        -11    1    3    3    0    0 -0.23692945980E+01 -0.12974031270E+02  0.96371372735E+00  0.13223758494E+02  0.51100000000E-03 0.  1.
        -12    1    3    3    0    0 -0.12091534060E+02 -0.17439231516E+02  0.47961605595E+01  0.21756266866E+02  0.00000000000E+00 0.  1.
</event>
<event>
 7    1  0.1714203E-010  0.4778727E+02  0.7816164E-02  0.1312668E+00
        -11   -1    0    0    0    0  0.00000000000E+00  0.00000000000E+00  0.45593999997E+02  0.45594000000E+02  0.51100000000E-03 0.  1.
         11   -1    0    0    0    0 -0.00000000000E+00 -0.00000000000E+00 -0.45593999997E+02  0.45594000000E+02  0.51100000000E-03 0. -1.
    9900012    2    1    2    0    0  0.17768599603E+02  0.31692440820E+02 -0.23737933251E+02  0.47787269453E+02  0.19999992743E+02 0.  0.
        -12    1    1    2    0    0 -0.17768599603E+02 -0.31692440820E+02  0.23737933251E+02  0.43400730547E+02  0.00000000000E+00 0.  1.
         11    1    3    3    0    0  0.85801645994E+01  0.22566186724E+02 -0.15769246869E+02  0.28836108525E+02  0.51100000000E-03 0. -1.
        -11    1    3    3    0    0  0.10557726351E+01  0.11022356844E+01 -0.73530936983E+01  0.75098313269E+01  0.51100000000E-03 0.  1.
        -12    1    3    3    0    0  0.81326623684E+01  0.80240184122E+01 -0.61559268365E+00  0.11441329601E+02  0.00000000000E+00 0.  1.
</event>
<event>
 7    1 -0.1714203E-010  0.4778727E+02  0.7816164E-02  0.1312668E+00
        -11   -1    0    0    0    0  0.00000000000E+00  0.00000000000E+00  0.45593999997E+02  0.45594000000E+02  0.51100000000E-03 0.  1.
         11   -1    0    0    0    0 -0.00000000000E+00 -0.00000000000E+00 -0.45593999997E+02  0.45594000000E+02  0.51100000000E-03 0. -1.
    9900012    2    1    2    0    0 -0.34626091617E+01  0.20984916978E+02 -0.37832090097E+02  0.47787269086E+02  0.19999991071E+02 0.  0.
        -12    1    1    2    0    0  0.34626091617E+01 -0.20984916978E+02  0.37832090097E+02  0.43400730914E+02  0.00000000000E+00 0.  1.
         11    1    3    3    0    0 -0.14263273404E+01  0.74487384419E+01 -0.19450901891E+02  0.20877157342E+02  0.51100000000E-03 0. -1.
        -11    1    3    3    0    0 -0.70997570951E+01  0.30185737011E+01 -0.52023730628E+01  0.93049999325E+01  0.51100000000E-03 0.  1.
        -12    1    3    3    0    0  0.50634752738E+01  0.10517604835E+02 -0.13178815143E+02  0.17605111811E+02  0.00000000000E+00 0.  1.
</event>
<event>
 7    1  0.1714203E-010  0.4778727E+02  0.7816164E-02  0.1312668E+00
        -11   -1    0    0    0    0  0.00000000000E+00  0.00000000000E+00  0.45593999997E+02  0.45594000000E+02  0.51100000000E-03 0.  1.
         11   -1    0    0    0    0 -0.00000000000E+00 -0.00000000000E+00 -0.45593999997E+02  0.45594000000E+02  0.51100000000E-03 0. -1.
    9900012    2    1    2    0    0 -0.28816566015E+02 -0.81713782102E+01 -0.31407922859E+02  0.47787268243E+02  0.19999987227E+02 0.  0.
        -12    1    1    2    0    0  0.28816566015E+02  0.81713782102E+01  0.31407922859E+02  0.43400731757E+02  0.00000000000E+00 0.  1.
         11    1    3    3    0    0 -0.18137394664E+02 -0.66182732793E+01 -0.11132468399E+02  0.22286733258E+02  0.51100000000E-03 0. -1.
        -11    1    3    3    0    0 -0.94516622210E+01  0.36407387432E+01 -0.13288413176E+02  0.16708405739E+02  0.51100000000E-03 0.  1.
         12    1    3    3    0    0 -0.12275091297E+01 -0.51938436742E+01 -0.69870412843E+01  0.87921292463E+01  0.00000000000E+00 0. -1.
</event>
<event>
 7    1  0.1714203E-010  0.4778727E+02  0.7816164E-02  0.1312668E+00
        -11   -1    0    0    0    0  0.00000000000E+00  0.00000000000E+00  0.45593999997E+02  0.45594000000E+02  0.51100000000E-03 0.  1.
         11   -1    0    0    0    0 -0.00000000000E+00 -0.00000000000E+00 -0.45593999997E+02  0.45594000000E+02  0.51100000000E-03 0. -1.
    9900012    2    1    2    0    0 -0.34939216034E+02  0.50716659370E+01 -0.25241882560E+02  0.47787271346E+02  0.20000001377E+02 0.  0.
        -12    1    1    2    0    0  0.34939216034E+02 -0.50716659370E+01  0.25241882560E+02  0.43400728654E+02  0.00000000000E+00 0.  1.
         11    1    3    3    0    0 -0.68152247007E+01  0.75478875826E+01 -0.70104447773E+01  0.12351689395E+02  0.51100000000E-03 0. -1.
        -11    1    3    3    0    0 -0.18291639495E+02 -0.77404769275E+00 -0.52186764283E+01  0.19037274206E+02  0.51100000000E-03 0.  1.
        -12    1    3    3    0    0 -0.98323518381E+01 -0.17021739528E+01 -0.13012761355E+02  0.16398307745E+02  0.00000000000E+00 0.  1.
</event>
<event>
 7    1  0.1714203E-010  0.4778727E+02  0.7816164E-02  0.1312668E+00
        -11   -1    0    0    0    0  0.00000000000E+00  0.00000000000E+00  0.45593999997E+02  0.45594000000E+02  0.51100000000E-03 0.  1.
         11   -1    0    0    0    0 -0.00000000000E+00 -0.00000000000E+00 -0.45593999997E+02  0.45594000000E+02  0.51100000000E-03 0. -1.
    9900012    2    1    2    0    0  0.26676272637E+02 -0.34229121509E+01 -0.34062928594E+02  0.47787274732E+02  0.20000016812E+02 0.  0.
        -12    1    1    2    0    0 -0.26676272637E+02  0.34229121509E+01  0.34062928594E+02  0.43400725268E+02  0.00000000000E+00 0.  1.
         11    1    3    3    0    0  0.12938102879E+02 -0.57027299412E+01 -0.99286252023E+01  0.17276956722E+02  0.51100000000E-03 0. -1.
        -11    1    3    3    0    0  0.52144838475E+01 -0.29745015356E+01 -0.17494462143E+02  0.18495802419E+02  0.51100000000E-03 0.  1.
        -12    1    3    3    0    0  0.85236859109E+01  0.52543193259E+01 -0.66398412481E+01  0.12014515591E+02  0.00000000000E+00 0.  1.
</event>
<event>
 7    1  0.1714203E-010  0.4778727E+02  0.7816164E-02  0.1312668E+00
        -11   -1    0    0    0    0  0.00000000000E+00  0.00000000000E+00  0.45593999997E+02  0.45594000000E+02  0.51100000000E-03 0. -1.
         11   -1    0    0    0    0 -0.00000000000E+00 -0.00000000000E+00 -0.45593999997E+02  0.45594000000E+02  0.51100000000E-03 0.  1.
    9900012    2    1    2    0    0  0.36249010289E+02 -0.23435558469E+02  0.45174160739E+01  0.47787271945E+02  0.20000004106E+02 0.  0.
        -12    1    1    2    0    0 -0.36249010289E+02  0.23435558469E+02 -0.45174160739E+01  0.43400728055E+02  0.00000000000E+00 0.  1.
         11    1    3    3    0    0  0.24904309724E+02 -0.18534873954E+02  0.10355469644E+02  0.32726166094E+02  0.51100000000E-03 0. -1.
        -11    1    3    3    0    0  0.33238938868E+01 -0.37816394720E+01 -0.46915875501E+01  0.68818646941E+01  0.51100000000E-03 0.  1.
         12    1    3    3    0    0  0.80208066779E+01 -0.11190450430E+01 -0.11464660205E+01  0.81792411573E+01  0.00000000000E+00 0. -1.
</event>
<event>
 7    1  0.1714203E-010  0.4778726E+02  0.7816164E-02  0.1312668E+00
        -11   -1    0    0    0    0  0.00000000000E+00  0.00000000000E+00  0.45593999997E+02  0.45594000000E+02  0.51100000000E-03 0.  1.
         11   -1    0    0    0    0 -0.00000000000E+00 -0.00000000000E+00 -0.45593999997E+02  0.45594000000E+02  0.51100000000E-03 0. -1.
    9900012    2    1    2    0    0 -0.82303071104E+01  0.11781556191E+02 -0.40952181956E+02  0.47787260048E+02  0.19999949863E+02 0.  0.
        -12    1    1    2    0    0  0.82303071104E+01 -0.11781556191E+02  0.40952181956E+02  0.43400739952E+02  0.00000000000E+00 0.  1.
         11    1    3    3    0    0  0.18082308127E+00  0.65101747224E+01 -0.80816793895E+01  0.10379239564E+02  0.51100000000E-03 0. -1.
        -11    1    3    3    0    0 -0.11605995244E+02  0.32481918200E+01 -0.30849826064E+02  0.33120411292E+02  0.51100000000E-03 0.  1.
         12    1    3    3    0    0  0.31948650526E+01  0.20231896488E+01 -0.20206765024E+01  0.42876091924E+01  0.00000000000E+00 0. -1.
</event>
<event>
 7    1  0.1714203E-010  0.4778727E+02  0.7816164E-02  0.1312668E+00
        -11   -1    0    0    0    0  0.00000000000E+00  0.00000000000E+00  0.45593999997E+02  0.45594000000E+02  0.51100000000E-03 0. -1.
         11   -1    0    0    0    0 -0.00000000000E+00 -0.00000000000E+00 -0.45593999997E+02  0.45594000000E+02  0.51100000000E-03 0.  1.
    9900012    2    1    2    0    0  0.32916075851E+02  0.20082738775E+02  0.19920822416E+02  0.47787267151E+02  0.19999982246E+02 0.  0.
        -12    1    1    2    0    0 -0.32916075851E+02 -0.20082738775E+02 -0.19920822416E+02  0.43400732849E+02  0.00000000000E+00 0.  1.
         11    1    3    3    0    0  0.16670213414E+02  0.59151137242E+01  0.18645197932E+01  0.17786540416E+02  0.51100000000E-03 0. -1.
        -11    1    3    3    0    0  0.16782825611E+02  0.96590178077E+01  0.13808868905E+02  0.23783286594E+02  0.51100000000E-03 0.  1.
        -12    1    3    3    0    0 -0.53696317406E+00  0.45086072432E+01  0.42474337176E+01  0.62174401412E+01  0.00000000000E+00 0.  1.
</event>
<event>
 7    1  0.1714203E-010  0.4778727E+02  0.7816164E-02  0.1312668E+00
        -11   -1    0    0    0    0  0.00000000000E+00  0.00000000000E+00  0.45593999997E+02  0.45594000000E+02  0.51100000000E-03 0. -1.
         11   -1    0    0    0    0 -0.00000000000E+00 -0.00000000000E+00 -0.45593999997E+02  0.45594000000E+02  0.51100000000E-03 0.  1.
    9900012    2    1    2    0    0 -0.37230011721E+02  0.19914909946E+02  0.10047182463E+02  0.47787270901E+02  0.19999999346E+02 0.  0.
        -12    1    1    2    0    0  0.37230011721E+02 -0.19914909946E+02 -0.10047182463E+02  0.43400729099E+02  0.00000000000E+00 0.  1.
         11    1    3    3    0    0 -0.17011049717E+02  0.11017674952E+02  0.29571227945E+01  0.20481932265E+02  0.51100000000E-03 0. -1.
        -11    1    3    3    0    0  0.19600500541E+00  0.19938348856E+00 -0.29399695453E+01  0.29532343162E+01  0.51100000000E-03 0.  1.
        -12    1    3    3    0    0 -0.20414967009E+02  0.86978515055E+01  0.10030029213E+02  0.24352104320E+02  0.00000000000E+00 0.  1.
</event>
<event>
 7    1  0.1714203E-010  0.4778727E+02  0.7816164E-02  0.1312668E+00
        -11   -1    0    0    0    0  0.00000000000E+00  0.00000000000E+00  0.45593999997E+02  0.45594000000E+02  0.51100000000E-03 0.  1.
         11   -1    0    0    0    0 -0.00000000000E+00 -0.00000000000E+00 -0.45593999997E+02  0.45594000000E+02  0.51100000000E-03 0. -1.
    9900012    2    1    2    0    0 -0.40762705347E+00  0.37802722296E+02 -0.21316925088E+02  0.47787271112E+02  0.20000000307E+02 0.  0.
        -12    1    1    2    0    0  0.40762705347E+00 -0.37802722296E+02  0.21316925088E+02  0.43400728888E+02  0.00000000000E+00 0.  1.
         11    1    3    3    0    0  0.17020294586E+01  0.21118047614E+02 -0.12865624680E+02  0.24786954996E+02  0.51100000000E-03 0. -1.
        -11    1    3    3    0    0  0.48073412430E+01  0.11821892632E+02 -0.65038463435E+01  0.14323675951E+02  0.51100000000E-03 0.  1.
        -12    1    3    3    0    0 -0.69169977550E+01  0.48627820505E+01 -0.19474540641E+01  0.86766401646E+01  0.00000000000E+00 0.  1.
</event>
<event>
 7    1  0.1714203E-010  0.4778727E+02  0.7816164E-02  0.1312668E+00
        -11   -1    0    0    0    0  0.00000000000E+00  0.00000000000E+00  0.45593999997E+02  0.45594000000E+02  0.51100000000E-03 0.  1.
         11   -1    0    0    0    0 -0.00000000000E+00 -0.00000000000E+00 -0.45593999997E+02  0.45594000000E+02  0.51100000000E-03 0. -1.
    9900012    2    1    2    0    0  0.39456570953E+01  0.38749364928E+02 -0.19145288604E+02  0.47787267656E+02  0.19999984552E+02 0.  0.
        -12    1    1    2    0    0 -0.39456570953E+01 -0.38749364928E+02  0.19145288604E+02  0.43400732344E+02  0.00000000000E+00 0.  1.
         11    1    3    3    0    0  0.24378794881E+01  0.12728927266E+02 -0.24105162390E+01  0.13182542795E+02  0.51100000000E-03 0. -1.
        -11    1    3    3    0    0  0.92341834879E-01 -0.18410108721E+01 -0.29719380706E+01  0.34971794638E+01  0.51100000000E-03 0.  1.
        -12    1    3    3    0    0  0.14154357722E+01  0.27861448534E+02 -0.13762834295E+02  0.31107545398E+02  0.00000000000E+00 0.  1.
</event>
<event>
 7    1  0.1714203E-010  0.4778727E+02  0.7816164E-02  0.1312668E+00
        -11   -1    0    0    0    0  0.00000000000E+00  0.00000000000E+00  0.45593999997E+02  0.45594000000E+02  0.51100000000E-03 0.  1.
         11   -1    0    0    0    0 -0.00000000000E+00 -0.00000000000E+00 -0.45593999997E+02  0.45594000000E+02  0.51100000000E-03 0. -1.
    9900012    2    1    2    0    0 -0.17851078231E+02 -0.31038013893E+02 -0.24527617256E+02  0.47787270644E+02  0.19999998173E+02 0.  0.
        -12    1    1    2    0    0  0.17851078231E+02  0.31038013893E+02  0.24527617256E+02  0.43400729356E+02  0.00000000000E+00 0.  1.
         11    1    3    3    0    0 -0.11484061247E+02 -0.11777835425E+02 -0.17348369437E+02  0.23907467294E+02  0.51100000000E-03 0. -1.
        -11    1    3    3    0    0 -0.87883462625E+00  0.50815146985E+00  0.13265708996E+01  0.16704367182E+01  0.51100000000E-03 0.  1.
         12    1    3    3    0    0 -0.54881823572E+01 -0.19768329938E+02 -0.85058187189E+01  0.22209366632E+02  0.00000000000E+00 0. -1.
</event>
<event>
 7    1  0.1714203E-010  0.4778726E+02  0.7816164E-02  0.1312668E+00
        -11   -1    0    0    0    0  0.00000000000E+00  0.00000000000E+00  0.45593999997E+02  0.45594000000E+02  0.51100000000E-03 0. -1.
         11   -1    0    0    0    0 -0.00000000000E+00 -0.00000000000E+00 -0.45593999997E+02  0.45594000000E+02  0.51100000000E-03 0.  1.
    9900012    2    1    2    0    0  0.79223137346E+01  0.14722900004E+02  0.40051182370E+02  0.47787262118E+02  0.19999959301E+02 0.  0.
        -12    1    1    2    0    0 -0.79223137346E+01 -0.14722900004E+02 -0.40051182370E+02  0.43400737882E+02  0.00000000000E+00 0.  1.
         11    1    3    3    0    0  0.34486209124E+01  0.99672736394E+01  0.29237373405E+02  0.31081562604E+02  0.51100000000E-03 0. -1.
        -11    1    3    3    0    0 -0.36610957614E+01  0.11736098704E+01  0.32058823065E+01  0.50058629552E+01  0.51100000000E-03 0.  1.
         12    1    3    3    0    0  0.81347885836E+01  0.35820164942E+01  0.76079266587E+01  0.11699836559E+02  0.00000000000E+00 0. -1.
</event>
<event>
 7    1  0.1714203E-010  0.4778726E+02  0.7816164E-02  0.1312668E+00
        -11   -1    0    0    0    0  0.00000000000E+00  0.00000000000E+00  0.45593999997E+02  0.45594000000E+02  0.51100000000E-03 0. -1.
         11   -1    0    0    0    0 -0.00000000000E+00 -0.00000000000E+00 -0.45593999997E+02  0.45594000000E+02  0.51100000000E-03 0.  1.
    9900012    2    1    2    0    0 -0.36444048987E+02 -0.86213514072E+01  0.21934621293E+02  0.47787262472E+02  0.19999960916E+02 0.  0.
        -12    1    1    2    0    0  0.36444048987E+02  0.86213514072E+01 -0.21934621293E+02  0.43400737528E+02  0.00000000000E+00 0.  1.
         11    1    3    3    0    0 -0.27167626908E+02 -0.75748262346E+00  0.14701077328E+02  0.30899440231E+02  0.51100000000E-03 0. -1.
        -11    1    3    3    0    0 -0.88370876881E+01 -0.57041791986E+01  0.13492672461E+01  0.10604352951E+02  0.51100000000E-03 0.  1.
        -12    1    3    3    0    0 -0.43933439104E+00 -0.21596895851E+01  0.58842767196E+01  0.62834692904E+01  0.00000000000E+00 0.  1.
</event>
<event>
 7    1  0.1714203E-010  0.4778728E+02  0.7816164E-02  0.1312668E+00
        -11   -1    0    0    0    0  0.00000000000E+00  0.00000000000E+00  0.45593999997E+02  0.45594000000E+02  0.51100000000E-03 0. -1.
         11   -1    0    0    0    0 -0.00000000000E+00 -0.00000000000E+00 -0.45593999997E+02  0.45594000000E+02  0.51100000000E-03 0.  1.
    9900012    2    1    2    0    0 -0.30924215890E+02 -0.17191811583E+02  0.25134781148E+02  0.47787277227E+02  0.20000028187E+02 0.  0.
        -12    1    1    2    0    0  0.30924215890E+02  0.17191811583E+02 -0.25134781148E+02  0.43400722773E+02  0.00000000000E+00 0.  1.
         11    1    3    3    0    0 -0.14771465830E+02 -0.44297721930E+01  0.63426855297E+01  0.16674793685E+02  0.51100000000E-03 0. -1.
        -11    1    3    3    0    0 -0.70939848205E+01 -0.12420079529E+02  0.61818564410E+01  0.15581987853E+02  0.51100000000E-03 0.  1.
         12    1    3    3    0    0 -0.90587652393E+01 -0.34195986027E+00  0.12610239178E+02  0.15530495688E+02  0.00000000000E+00 0. -1.
</event>
<event>
 7    1  0.1714203E-010  0.4778727E+02  0.7816164E-02  0.1312668E+00
        -11   -1    0    0    0    0  0.00000000000E+00  0.00000000000E+00  0.45593999997E+02  0.45594000000E+02  0.51100000000E-03 0. -1.
         11   -1    0    0    0    0 -0.00000000000E+00 -0.00000000000E+00 -0.45593999997E+02  0.45594000000E+02  0.51100000000E-03 0.  1.
    9900012    2    1    2    0    0  0.12770063273E+02 -0.10737063805E+02  0.40065751704E+02  0.47787268269E+02  0.19999987347E+02 0.  0.
        -12    1    1    2    0    0 -0.12770063273E+02  0.10737063805E+02 -0.40065751704E+02  0.43400731731E+02  0.00000000000E+00 0.  1.
         11    1    3    3    0    0  0.87566743653E+01 -0.54089406075E+01  0.63330947397E+01  0.12084869618E+02  0.51100000000E-03 0. -1.
        -11    1    3    3    0    0  0.17254740171E+01 -0.77664461264E+01  0.19063728672E+02  0.20657219008E+02  0.51100000000E-03 0.  1.
        -12    1    3    3    0    0  0.22879148906E+01  0.24383229290E+01  0.14668928292E+02  0.15045179643E+02  0.00000000000E+00 0.  1.
</event>
<event>
 7    1  0.1714203E-010  0.4778727E+02  0.7816164E-02  0.1312668E+00
        -11   -1    0    0    0    0  0.00000000000E+00  0.00000000000E+00  0.45593999997E+02  0.45594000000E+02  0.51100000000E-03 0.  1.
         11   -1    0    0    0    0 -0.00000000000E+00 -0.00000000000E+00 -0.45593999997E+02  0.45594000000E+02  0.51100000000E-03 0. -1.
    9900012    2    1    2    0    0 -0.32464574833E+02  0.28770502334E+02 -0.13902309906E+01  0.47787272289E+02  0.20000005676E+02 0.  0.
        -12    1    1    2    0    0  0.32464574833E+02 -0.28770502334E+02  0.13902309906E+01  0.43400727711E+02  0.00000000000E+00 0.  1.
         11    1    3    3    0    0 -0.92722822024E+01  0.98342236756E+01  0.34434951152E+00  0.13520567643E+02  0.51100000000E-03 0. -1.
        -11    1    3    3    0    0  0.93976093483E+00 -0.20380036492E+01 -0.26582667321E+00  0.22599277798E+01  0.51100000000E-03 0.  1.
        -12    1    3    3    0    0 -0.24132053565E+02  0.20974282307E+02 -0.14687538289E+01  0.32006776867E+02  0.00000000000E+00 0.  1.
</event>
<event>
 7    1  0.1714203E-010  0.4778727E+02  0.7816164E-02  0.1312668E+00
        -11   -1    0    0    0    0  0.00000000000E+00  0.00000000000E+00  0.45593999997E+02  0.45594000000E+02  0.51100000000E-03 0.  1.
         11   -1    0    0    0    0 -0.00000000000E+00 -0.00000000000E+00 -0.45593999997E+02  0.45594000000E+02  0.51100000000E-03 0. -1.
    9900012    2    1    2    0    0  0.27435688910E+01 -0.30734519726E+02 -0.30520247462E+02  0.47787269843E+02  0.19999994521E+02 0.  0.
        -12    1    1    2    0    0 -0.27435688910E+01  0.30734519726E+02  0.30520247462E+02  0.43400730157E+02  0.00000000000E+00 0.  1.
         11    1    3    3    0    0 -0.49935900187E+01 -0.10097140401E+02 -0.20058245888E+02  0.23004812842E+02  0.51100000000E-03 0. -1.
        -11    1    3    3    0    0  0.32733763979E+01 -0.41558600765E+01 -0.15029290395E+01  0.54995419787E+01  0.51100000000E-03 0.  1.
         12    1    3    3    0    0  0.44637825118E+01 -0.16481519248E+02 -0.89590725348E+01  0.19282915021E+02  0.00000000000E+00 0. -1.
</event>
<event>
 7    1  0.1714203E-010  0.4778727E+02  0.7816164E-02  0.1312668E+00
        -11   -1    0    0    0    0  0.00000000000E+00  0.00000000000E+00  0.45593999997E+02  0.45594000000E+02  0.51100000000E-03 0.  1.
         11   -1    0    0    0    0 -0.00000000000E+00 -0.00000000000E+00 -0.45593999997E+02  0.45594000000E+02  0.51100000000E-03 0. -1.
    9900012    2    1    2    0    0  0.12115692762E+02  0.10767111825E+02 -0.40260432087E+02  0.47787273047E+02  0.20000009133E+02 0.  0.
        -12    1    1    2    0    0 -0.12115692762E+02 -0.10767111825E+02  0.40260432087E+02  0.43400726953E+02  0.00000000000E+00 0.  1.
         11    1    3    3    0    0 -0.13864560904E+00  0.97463544133E+01 -0.82744958994E+01  0.12785848803E+02  0.51100000000E-03 0. -1.
        -11    1    3    3    0    0  0.13426313497E+01 -0.17829088778E+00 -0.13000443980E+02  0.13070806804E+02  0.51100000000E-03 0.  1.
        -12    1    3    3    0    0  0.10911707021E+02  0.11990482994E+01 -0.18985492208E+02  0.21930617441E+02  0.00000000000E+00 0.  1.
</event>
<event>
 7    1  0.1714203E-010  0.4778728E+02  0.7816164E-02  0.1312668E+00
        -11   -1    0    0    0    0  0.00000000000E+00  0.00000000000E+00  0.45593999997E+02  0.45594000000E+02  0.51100000000E-03 0.  1.
         11   -1    0    0    0    0 -0.00000000000E+00 -0.00000000000E+00 -0.45593999997E+02  0.45594000000E+02  0.51100000000E-03 0. -1.
    9900012    2    1    2    0    0 -0.26432210229E+01  0.16363259525E+02 -0.40110844483E+02  0.47787277370E+02  0.20000028839E+02 0.  0.
        -12    1    1    2    0    0  0.26432210229E+01 -0.16363259525E+02  0.40110844483E+02  0.43400722630E+02  0.00000000000E+00 0.  1.
         11    1    3    3    0    0 -0.61377690977E+00  0.15020253988E+02 -0.13344062354E+02  0.20100963965E+02  0.51100000000E-03 0.  1.
        -11    1    3    3    0    0 -0.20511043916E+01  0.39557139167E+01 -0.17478727641E+02  0.18037755460E+02  0.51100000000E-03 0. -1.
        -12    1    3    3    0    0  0.21660278455E-01 -0.26127083792E+01 -0.92880544881E+01  0.96485579449E+01  0.00000000000E+00 0.  1.
</event>
<event>
 7    1  0.1714203E-010  0.4778728E+02  0.7816164E-02  0.1312668E+00
        -11   -1    0    0    0    0  0.00000000000E+00  0.00000000000E+00  0.45593999997E+02  0.45594000000E+02  0.51100000000E-03 0.  1.
         11   -1    0    0    0    0 -0.00000000000E+00 -0.00000000000E+00 -0.45593999997E+02  0.45594000000E+02  0.51100000000E-03 0. -1.
    9900012    2    1    2    0    0  0.16121515578E+02 -0.12908456688E+02 -0.38171864360E+02  0.47787277111E+02  0.20000027658E+02 0.  0.
        -12    1    1    2    0    0 -0.16121515578E+02  0.12908456688E+02  0.38171864360E+02  0.43400722889E+02  0.00000000000E+00 0.  1.
         11    1    3    3    0    0  0.15299659585E+02 -0.12041318671E+01 -0.25043252666E+02  0.29371653364E+02  0.51100000000E-03 0. -1.
        -11    1    3    3    0    0  0.78860874730E-01 -0.51788319351E+01 -0.21195077974E+01  0.55963231513E+01  0.51100000000E-03 0.  1.
         12    1    3    3    0    0  0.74299511829E+00 -0.65254928860E+01 -0.11009103897E+02  0.12819300596E+02  0.00000000000E+00 0. -1.
</event>
<event>
 7    1  0.1714203E-010  0.4778728E+02  0.7816164E-02  0.1312668E+00
        -11   -1    0    0    0    0  0.00000000000E+00  0.00000000000E+00  0.45593999997E+02  0.45594000000E+02  0.51100000000E-03 0. -1.
         11   -1    0    0    0    0 -0.00000000000E+00 -0.00000000000E+00 -0.45593999997E+02  0.45594000000E+02  0.51100000000E-03 0.  1.
    9900012    2    1    2    0    0 -0.20923682297E+02  0.23928754601E+02 -0.29550586277E+02  0.47787275041E+02  0.20000018223E+02 0.  0.
        -12    1    1    2    0    0  0.20923682297E+02 -0.23928754601E+02  0.29550586277E+02  0.43400724959E+02  0.00000000000E+00 0.  1.
         11    1    3    3    0    0 -0.11147233801E+02  0.37952510723E+01 -0.16271003042E+02  0.20085076360E+02  0.51100000000E-03 0. -1.
        -11    1    3    3    0    0 -0.34083145393E+01  0.10914157581E+02 -0.11747133953E+02  0.16393004608E+02  0.51100000000E-03 0.  1.
         12    1    3    3    0    0 -0.63681339566E+01  0.92193459478E+01 -0.15324492818E+01  0.11309194074E+02  0.00000000000E+00 0. -1.
</event>
<event>
 7    1 -0.1714203E-010  0.4778728E+02  0.7816164E-02  0.1312668E+00
        -11   -1    0    0    0    0  0.00000000000E+00  0.00000000000E+00  0.45593999997E+02  0.45594000000E+02  0.51100000000E-03 0.  1.
         11   -1    0    0    0    0 -0.00000000000E+00 -0.00000000000E+00 -0.45593999997E+02  0.45594000000E+02  0.51100000000E-03 0. -1.
    9900012    2    1    2    0    0 -0.57950903662E+01  0.23395486580E+02 -0.36092810974E+02  0.47787275712E+02  0.20000021282E+02 0.  0.
        -12    1    1    2    0    0  0.57950903662E+01 -0.23395486580E+02  0.36092810974E+02  0.43400724288E+02  0.00000000000E+00 0.  1.
         11    1    3    3    0    0 -0.19633605915E+01  0.35627570677E+01 -0.20138360797E+02  0.20545111307E+02  0.51100000000E-03 0. -1.
        -11    1    3    3    0    0  0.22059005733E+01  0.36654520039E+01 -0.96958135838E+00  0.43865275565E+01  0.51100000000E-03 0.  1.
         12    1    3    3    0    0 -0.60376303480E+01  0.16167277509E+02 -0.14984868819E+02  0.22855636849E+02  0.00000000000E+00 0. -1.
</event>
<event>
 7    1  0.1714203E-010  0.4778727E+02  0.7816164E-02  0.1312668E+00
        -11   -1    0    0    0    0  0.00000000000E+00  0.00000000000E+00  0.45593999997E+02  0.45594000000E+02  0.51100000000E-03 0.  1.
         11   -1    0    0    0    0 -0.00000000000E+00 -0.00000000000E+00 -0.45593999997E+02  0.45594000000E+02  0.51100000000E-03 0. -1.
    9900012    2    1    2    0    0 -0.12402942363E+02 -0.41520033189E+02  0.24242679817E+01  0.47787271774E+02  0.20000003327E+02 0.  0.
        -12    1    1    2    0    0  0.12402942363E+02  0.41520033189E+02 -0.24242679817E+01  0.43400728226E+02  0.00000000000E+00 0.  1.
         11    1    3    3    0    0  0.47556015250E+00  0.64445145312E+00 -0.29628606991E+01  0.30692049325E+01  0.51100000000E-03 0.  1.
        -11    1    3    3    0    0 -0.47759244673E+01 -0.23673041436E+02  0.40282015279E+01  0.24483642563E+02  0.51100000000E-03 0. -1.
        -12    1    3    3    0    0 -0.81025780485E+01 -0.18491443206E+02  0.13589271530E+01  0.20234424279E+02  0.00000000000E+00 0.  1.
</event>
<event>
 7    1  0.1714203E-010  0.4778727E+02  0.7816164E-02  0.1312668E+00
        -11   -1    0    0    0    0  0.00000000000E+00  0.00000000000E+00  0.45593999997E+02  0.45594000000E+02  0.51100000000E-03 0.  1.
         11   -1    0    0    0    0 -0.00000000000E+00 -0.00000000000E+00 -0.45593999997E+02  0.45594000000E+02  0.51100000000E-03 0. -1.
    9900012    2    1    2    0    0 -0.28850419009E+02 -0.11666448540E+02 -0.30251784410E+02  0.47787272373E+02  0.20000006059E+02 0.  0.
        -12    1    1    2    0    0  0.28850419009E+02  0.11666448540E+02  0.30251784410E+02  0.43400727627E+02  0.00000000000E+00 0.  1.
         11    1    3    3    0    0 -0.12224911058E+02  0.65599335373E+00 -0.88503016686E+01  0.15106509112E+02  0.51100000000E-03 0.  1.
        -11    1    3    3    0    0 -0.13859474075E+02 -0.27075943014E+01 -0.89953787597E+01  0.16743145697E+02  0.51100000000E-03 0. -1.
         12    1    3    3    0    0 -0.27660338758E+01 -0.96148475927E+01 -0.12406103981E+02  0.15937617564E+02  0.00000000000E+00 0. -1.
</event>
<event>
 7    1  0.1714203E-010  0.4778727E+02  0.7816164E-02  0.1312668E+00
        -11   -1    0    0    0    0  0.00000000000E+00  0.00000000000E+00  0.45593999997E+02  0.45594000000E+02  0.51100000000E-03 0. -1.
         11   -1    0    0    0    0 -0.00000000000E+00 -0.00000000000E+00 -0.45593999997E+02  0.45594000000E+02  0.51100000000E-03 0.  1.
    9900012    2    1    2    0    0 -0.39077534339E+02 -0.17099605986E+02 -0.80108387963E+01  0.47787265524E+02  0.19999974828E+02 0.  0.
        -12    1    1    2    0    0  0.39077534339E+02  0.17099605986E+02  0.80108387963E+01  0.43400734476E+02  0.00000000000E+00 0.  1.
         11    1    3    3    0    0 -0.50985122063E+01 -0.62951291280E+01  0.11986577474E+01  0.81890327947E+01  0.51100000000E-03 0.  1.
        -11    1    3    3    0    0 -0.45461390474E+01  0.28292119190E+01 -0.41375065455E+01  0.67668885757E+01  0.51100000000E-03 0. -1.
         12    1    3    3    0    0 -0.29432883085E+02 -0.13633688777E+02 -0.50719899982E+01  0.32831344153E+02  0.00000000000E+00 0. -1.
</event>
<event>
 7    1  0.1714203E-010  0.4778728E+02  0.7816164E-02  0.1312668E+00
        -11   -1    0    0    0    0  0.00000000000E+00  0.00000000000E+00  0.45593999997E+02  0.45594000000E+02  0.51100000000E-03 0.  1.
         11   -1    0    0    0    0 -0.00000000000E+00 -0.00000000000E+00 -0.45593999997E+02  0.45594000000E+02  0.51100000000E-03 0. -1.
    9900012    2    1    2    0    0  0.39045904878E+02  0.39783194619E+01 -0.18526006424E+02  0.47787278491E+02  0.20000033953E+02 0.  0.
        -12    1    1    2    0    0 -0.39045904878E+02 -0.39783194619E+01  0.18526006424E+02  0.43400721509E+02  0.00000000000E+00 0.  1.
         11    1    3    3    0    0  0.16534391015E+02 -0.13701982697E+00 -0.53489822531E+01  0.17378621121E+02  0.51100000000E-03 0.  1.
        -11    1    3    3    0    0  0.23575136679E+02  0.28322558779E+01 -0.14883231480E+02  0.28023549424E+02  0.51100000000E-03 0. -1.
        -12    1    3    3    0    0 -0.10636228163E+01  0.12830834110E+01  0.17062073086E+01  0.23851079461E+01  0.00000000000E+00 0.  1.
</event>
<event>
 7    1  0.1714203E-010  0.4778727E+02  0.7816164E-02  0.1312668E+00
        -11   -1    0    0    0    0  0.00000000000E+00  0.00000000000E+00  0.45593999997E+02  0.45594000000E+02  0.51100000000E-03 0.  1.
         11   -1    0    0    0    0 -0.00000000000E+00 -0.00000000000E+00 -0.45593999997E+02  0.45594000000E+02  0.51100000000E-03 0. -1.
    9900012    2    1    2    0    0 -0.20815856800E+01 -0.38421687171E+02 -0.20076455378E+02  0.47787272995E+02  0.20000008892E+02 0.  0.
        -12    1    1    2    0    0  0.20815856800E+01  0.38421687171E+02  0.20076455378E+02  0.43400727005E+02  0.00000000000E+00 0.  1.
         11    1    3    3    0    0 -0.15458471848E+01 -0.84054701853E+01 -0.13953085272E+02  0.16362461961E+02  0.51100000000E-03 0. -1.
        -11    1    3    3    0    0  0.11463357630E+00 -0.21254712106E+02 -0.74847269403E+01  0.22534353001E+02  0.51100000000E-03 0.  1.
        -12    1    3    3    0    0 -0.65037207147E+00 -0.87615048805E+01  0.13613568340E+01  0.88904580327E+01  0.00000000000E+00 0.  1.
</event>
<event>
 7    1  0.1714203E-010  0.4778727E+02  0.7816164E-02  0.1312668E+00
        -11   -1    0    0    0    0  0.00000000000E+00  0.00000000000E+00  0.45593999997E+02  0.45594000000E+02  0.51100000000E-03 0.  1.
         11   -1    0    0    0    0 -0.00000000000E+00 -0.00000000000E+00 -0.45593999997E+02  0.45594000000E+02  0.51100000000E-03 0. -1.
    9900012    2    1    2    0    0  0.24097200846E+02  0.14381364425E+02 -0.33107771197E+02  0.47787271377E+02  0.20000001518E+02 0.  0.
        -12    1    1    2    0    0 -0.24097200846E+02 -0.14381364425E+02  0.33107771197E+02  0.43400728623E+02  0.00000000000E+00 0.  1.
         11    1    3    3    0    0  0.28191650045E+01 -0.33897371184E+01 -0.19900269046E+01  0.48371702882E+01  0.51100000000E-03 0. -1.
        -11    1    3    3    0    0  0.69438728922E+01  0.11342507334E+02 -0.10047615943E+02  0.16668066167E+02  0.51100000000E-03 0.  1.
        -12    1    3    3    0    0  0.14334162949E+02  0.64285942102E+01 -0.21070128349E+02  0.26282034922E+02  0.00000000000E+00 0.  1.
</event>
<event>
 7    1  0.1714203E-010  0.4778727E+02  0.7816164E-02  0.1312668E+00
        -11   -1    0    0    0    0  0.00000000000E+00  0.00000000000E+00  0.45593999997E+02  0.45594000000E+02  0.51100000000E-03 0. -1.
         11   -1    0    0    0    0 -0.00000000000E+00 -0.00000000000E+00 -0.45593999997E+02  0.45594000000E+02  0.51100000000E-03 0.  1.
    9900012    2    1    2    0    0  0.59671065574E+01  0.41338777886E+02  0.11795009853E+02  0.47787272181E+02  0.20000005181E+02 0.  0.
        -12    1    1    2    0    0 -0.59671065574E+01 -0.41338777886E+02 -0.11795009853E+02  0.43400727819E+02  0.00000000000E+00 0.  1.
         11    1    3    3    0    0 -0.43015750978E+00  0.10079175028E+02  0.54332333689E+01  0.11458395605E+02  0.51100000000E-03 0. -1.
        -11    1    3    3    0    0  0.53492813223E+01  0.16663597470E+02 -0.45405001397E+01  0.18080554004E+02  0.51100000000E-03 0.  1.
        -12    1    3    3    0    0  0.10479827448E+01  0.14596005389E+02  0.10902276624E+02  0.18248322573E+02  0.00000000000E+00 0.  1.
</event>
<event>
 7    1  0.1714203E-010  0.4778727E+02  0.7816164E-02  0.1312668E+00
        -11   -1    0    0    0    0  0.00000000000E+00  0.00000000000E+00  0.45593999997E+02  0.45594000000E+02  0.51100000000E-03 0. -1.
         11   -1    0    0    0    0 -0.00000000000E+00 -0.00000000000E+00 -0.45593999997E+02  0.45594000000E+02  0.51100000000E-03 0.  1.
    9900012    2    1    2    0    0 -0.41208738304E+02  0.52910853510E+00 -0.13608205446E+02  0.47787270468E+02  0.19999997372E+02 0.  0.
        -12    1    1    2    0    0  0.41208738304E+02 -0.52910853510E+00  0.13608205446E+02  0.43400729532E+02  0.00000000000E+00 0.  1.
         11    1    3    3    0    0 -0.25511408424E+02 -0.14134788338E+00 -0.63709466128E+01  0.26295263832E+02  0.51100000000E-03 0. -1.
        -11    1    3    3    0    0 -0.63495407598E+01 -0.58918343478E+01 -0.44379385147E+01  0.97327117683E+01  0.51100000000E-03 0.  1.
        -12    1    3    3    0    0 -0.93477891200E+01  0.65622907663E+01 -0.27993203182E+01  0.11759294867E+02  0.00000000000E+00 0.  1.
</event>
<event>
 7    1  0.1714203E-010  0.4778727E+02  0.7816164E-02  0.1312668E+00
        -11   -1    0    0    0    0  0.00000000000E+00  0.00000000000E+00  0.45593999997E+02  0.45594000000E+02  0.51100000000E-03 0. -1.
         11   -1    0    0    0    0 -0.00000000000E+00 -0.00000000000E+00 -0.45593999997E+02  0.45594000000E+02  0.51100000000E-03 0.  1.
    9900012    2    1    2    0    0  0.24497476058E+01  0.37647571197E+02  0.21454198614E+02  0.47787268225E+02  0.19999987147E+02 0.  0.
        -12    1    1    2    0    0 -0.24497476058E+01 -0.37647571197E+02 -0.21454198614E+02  0.43400731775E+02  0.00000000000E+00 0.  1.
         11    1    3    3    0    0  0.43867083136E+01  0.86445600780E+01  0.36927117094E+01  0.10373415484E+02  0.51100000000E-03 0. -1.
        -11    1    3    3    0    0  0.36336135713E+01  0.22427858078E+02  0.17691604276E+02  0.28795916858E+02  0.51100000000E-03 0.  1.
        -12    1    3    3    0    0 -0.55705742791E+01  0.65751530411E+01  0.69882628936E-01  0.86179358837E+01  0.00000000000E+00 0.  1.
</event>
<event>
 7    1  0.1714203E-010  0.4778727E+02  0.7816164E-02  0.1312668E+00
        -11   -1    0    0    0    0  0.00000000000E+00  0.00000000000E+00  0.45593999997E+02  0.45594000000E+02  0.51100000000E-03 0.  1.
         11   -1    0    0    0    0 -0.00000000000E+00 -0.00000000000E+00 -0.45593999997E+02  0.45594000000E+02  0.51100000000E-03 0. -1.
    9900012    2    1    2    0    0  0.35361168710E+01  0.43164978907E+02  0.28113419369E+01  0.47787272240E+02  0.20000005451E+02 0.  0.
        -12    1    1    2    0    0 -0.35361168710E+01 -0.43164978907E+02 -0.28113419369E+01  0.43400727760E+02  0.00000000000E+00 0.  1.
         11    1    3    3    0    0 -0.28990162343E+01  0.19010053408E+02  0.32623560414E+01  0.19504599276E+02  0.51100000000E-03 0.  1.
        -11    1    3    3    0    0  0.82922954058E+01  0.22842578656E+02  0.26412533760E+01  0.24444258680E+02  0.51100000000E-03 0. -1.
         12    1    3    3    0    0 -0.18571623006E+01  0.13123468434E+01 -0.30922674805E+01  0.38384142844E+01  0.00000000000E+00 0. -1.
</event>
<event>
 7    1  0.1714203E-010  0.4778728E+02  0.7816164E-02  0.1312668E+00
        -11   -1    0    0    0    0  0.00000000000E+00  0.00000000000E+00  0.45593999997E+02  0.45594000000E+02  0.51100000000E-03 0.  1.
         11   -1    0    0    0    0 -0.00000000000E+00 -0.00000000000E+00 -0.45593999997E+02  0.45594000000E+02  0.51100000000E-03 0. -1.
    9900012    2    1    2    0    0  0.25035343627E+02  0.10087493340E+02  0.33986715430E+02  0.47787276756E+02  0.20000026040E+02 0.  0.
        -12    1    1    2    0    0 -0.25035343627E+02 -0.10087493340E+02 -0.33986715430E+02  0.43400723244E+02  0.00000000000E+00 0.  1.
         11    1    3    3    0    0 -0.21069291951E+01  0.48497960784E+01  0.47659169532E+01  0.71185417960E+01  0.51100000000E-03 0. -1.
        -11    1    3    3    0    0  0.11726881830E+02  0.22198404621E+01  0.16977536072E+02  0.20752931852E+02  0.51100000000E-03 0.  1.
        -12    1    3    3    0    0  0.15415390992E+02  0.30178567992E+01  0.12243262406E+02  0.19915803107E+02  0.00000000000E+00 0.  1.
</event>
<event>
 7    1  0.1714203E-010  0.4778727E+02  0.7816164E-02  0.1312668E+00
        -11   -1    0    0    0    0  0.00000000000E+00  0.00000000000E+00  0.45593999997E+02  0.45594000000E+02  0.51100000000E-03 0. -1.
         11   -1    0    0    0    0 -0.00000000000E+00 -0.00000000000E+00 -0.45593999997E+02  0.45594000000E+02  0.51100000000E-03 0.  1.
    9900012    2    1    2    0    0 -0.11651420332E+02  0.30320643298E+01  0.41697410364E+02  0.47787273728E+02  0.20000012234E+02 0.  0.
        -12    1    1    2    0    0  0.11651420332E+02 -0.30320643298E+01 -0.41697410364E+02  0.43400726272E+02  0.00000000000E+00 0.  1.
         11    1    3    3    0    0 -0.20953052091E+01  0.50974349332E+01  0.33809317676E+02  0.34255570478E+02  0.51100000000E-03 0. -1.
        -11    1    3    3    0    0 -0.60882478748E+01 -0.12320516961E+01  0.77905257328E+01  0.99637846736E+01  0.51100000000E-03 0.  1.
         12    1    3    3    0    0 -0.34678672485E+01 -0.83331890732E+00  0.97566955923E-01  0.35679185761E+01  0.00000000000E+00 0. -1.
</event>
<event>
 7    1  0.1714203E-010  0.4778727E+02  0.7816164E-02  0.1312668E+00
        -11   -1    0    0    0    0  0.00000000000E+00  0.00000000000E+00  0.45593999997E+02  0.45594000000E+02  0.51100000000E-03 0. -1.
         11   -1    0    0    0    0 -0.00000000000E+00 -0.00000000000E+00 -0.45593999997E+02  0.45594000000E+02  0.51100000000E-03 0.  1.
    9900012    2    1    2    0    0  0.10831299380E+02  0.30919367228E+02  0.28465756633E+02  0.47787267094E+02  0.19999981991E+02 0.  0.
        -12    1    1    2    0    0 -0.10831299380E+02 -0.30919367228E+02 -0.28465756633E+02  0.43400732906E+02  0.00000000000E+00 0.  1.
         11    1    3    3    0    0  0.90785789697E+01  0.16893099213E+02  0.13612907757E+02  0.23518262159E+02  0.51100000000E-03 0. -1.
        -11    1    3    3    0    0 -0.14392070833E+01  0.11340661273E+02  0.16251438893E+02  0.19869352820E+02  0.51100000000E-03 0.  1.
        -12    1    3    3    0    0  0.31919274935E+01  0.26856067418E+01 -0.13985900170E+01  0.43996521148E+01  0.00000000000E+00 0.  1.
</event>
<event>
 7    1  0.1714203E-010  0.4778723E+02  0.7816164E-02  0.1312668E+00
        -11   -1    0    0    0    0  0.00000000000E+00  0.00000000000E+00  0.45593999997E+02  0.45594000000E+02  0.51100000000E-03 0.  1.
         11   -1    0    0    0    0 -0.00000000000E+00 -0.00000000000E+00 -0.45593999997E+02  0.45594000000E+02  0.51100000000E-03 0. -1.
    9900012    2    1    2    0    0 -0.36910462431E+02  0.22821305076E+02 -0.65773696610E+00  0.47787230190E+02  0.19999813725E+02 0.  0.
        -12    1    1    2    0    0  0.36910462431E+02 -0.22821305076E+02  0.65773696610E+00  0.43400769810E+02  0.00000000000E+00 0.  1.
         11    1    3    3    0    0 -0.20664601067E+02  0.13275114537E+02 -0.18708862741E+01  0.24632389632E+02  0.51100000000E-03 0. -1.
        -11    1    3    3    0    0 -0.41180528377E+01  0.10070377245E+02  0.16692402447E+01  0.11007144057E+02  0.51100000000E-03 0.  1.
        -12    1    3    3    0    0 -0.12127808526E+02 -0.52418670631E+00 -0.45609093663E+00  0.12147696501E+02  0.00000000000E+00 0.  1.
</event>
<event>
 7    1  0.1714203E-010  0.4778727E+02  0.7816164E-02  0.1312668E+00
        -11   -1    0    0    0    0  0.00000000000E+00  0.00000000000E+00  0.45593999997E+02  0.45594000000E+02  0.51100000000E-03 0. -1.
         11   -1    0    0    0    0 -0.00000000000E+00 -0.00000000000E+00 -0.45593999997E+02  0.45594000000E+02  0.51100000000E-03 0.  1.
    9900012    2    1    2    0    0  0.42725766168E+02  0.38467148716E+01  0.65829322441E+01  0.47787270665E+02  0.19999998268E+02 0.  0.
        -12    1    1    2    0    0 -0.42725766168E+02 -0.38467148716E+01 -0.65829322441E+01  0.43400729335E+02  0.00000000000E+00 0.  1.
         11    1    3    3    0    0  0.37778658104E+02  0.10649476252E+01  0.20805450395E+01  0.37850888887E+02  0.51100000000E-03 0. -1.
        -11    1    3    3    0    0 -0.70890562226E+00  0.42165594729E+00 -0.12719330684E+01  0.15159666588E+01  0.51100000000E-03 0.  1.
         12    1    3    3    0    0  0.56560136856E+01  0.23601112991E+01  0.57743202731E+01  0.84204151187E+01  0.00000000000E+00 0. -1.
</event>
<event>
 7    1  0.1714203E-010  0.4778727E+02  0.7816164E-02  0.1312668E+00
        -11   -1    0    0    0    0  0.00000000000E+00  0.00000000000E+00  0.45593999997E+02  0.45594000000E+02  0.51100000000E-03 0.  1.
         11   -1    0    0    0    0 -0.00000000000E+00 -0.00000000000E+00 -0.45593999997E+02  0.45594000000E+02  0.51100000000E-03 0. -1.
    9900012    2    1    2    0    0 -0.25470248160E+02  0.42586419827E-01 -0.35140976181E+02  0.47787267726E+02  0.19999984872E+02 0.  0.
        -12    1    1    2    0    0  0.25470248160E+02 -0.42586419827E-01  0.35140976181E+02  0.43400732274E+02  0.00000000000E+00 0.  1.
         11    1    3    3    0    0 -0.37962211701E+01  0.60573639555E+01 -0.77494007918E+01  0.10543062466E+02  0.51100000000E-03 0. -1.
        -11    1    3    3    0    0 -0.10264682008E+02 -0.40957937582E+01 -0.51915648574E+01  0.12210305859E+02  0.51100000000E-03 0.  1.
         12    1    3    3    0    0 -0.11409344982E+02 -0.19189837775E+01 -0.22200010532E+02  0.25033899402E+02  0.00000000000E+00 0. -1.
</event>
<event>
 7    1  0.1714203E-010  0.4778727E+02  0.7816164E-02  0.1312668E+00
        -11   -1    0    0    0    0  0.00000000000E+00  0.00000000000E+00  0.45593999997E+02  0.45594000000E+02  0.51100000000E-03 0.  1.
         11   -1    0    0    0    0 -0.00000000000E+00 -0.00000000000E+00 -0.45593999997E+02  0.45594000000E+02  0.51100000000E-03 0. -1.
    9900012    2    1    2    0    0  0.46895363941E+01  0.43091819928E+02 -0.21739994682E+01  0.47787274545E+02  0.20000015960E+02 0.  0.
        -12    1    1    2    0    0 -0.46895363941E+01 -0.43091819928E+02  0.21739994682E+01  0.43400725455E+02  0.00000000000E+00 0.  1.
         11    1    3    3    0    0 -0.61378828649E+01  0.11386550196E+02 -0.32965628988E+01  0.13348949720E+02  0.51100000000E-03 0. -1.
        -11    1    3    3    0    0  0.76676567159E+01  0.23516621639E+02 -0.26662036240E+01  0.24878366000E+02  0.51100000000E-03 0.  1.
        -12    1    3    3    0    0  0.31597625431E+01  0.81886480939E+01  0.37887670545E+01  0.95599588246E+01  0.00000000000E+00 0.  1.
</event>
<event>
 7    1  0.1714203E-010  0.4778727E+02  0.7816164E-02  0.1312668E+00
        -11   -1    0    0    0    0  0.00000000000E+00  0.00000000000E+00  0.45593999997E+02  0.45594000000E+02  0.51100000000E-03 0. -1.
         11   -1    0    0    0    0 -0.00000000000E+00 -0.00000000000E+00 -0.45593999997E+02  0.45594000000E+02  0.51100000000E-03 0.  1.
    9900012    2    1    2    0    0  0.17090792706E+02 -0.29405364288E+02  0.26960205723E+02  0.47787270319E+02  0.19999996694E+02 0.  0.
        -12    1    1    2    0    0 -0.17090792706E+02  0.29405364288E+02 -0.26960205723E+02  0.43400729681E+02  0.00000000000E+00 0.  1.
         11    1    3    3    0    0  0.94076725348E+00 -0.12903230194E+02  0.70533520639E+01  0.14735269528E+02  0.51100000000E-03 0. -1.
        -11    1    3    3    0    0  0.96037097482E+01 -0.12523807070E+02  0.19891125877E+02  0.25391610295E+02  0.51100000000E-03 0.  1.
        -12    1    3    3    0    0  0.65463157039E+01 -0.39783270238E+01  0.15727782123E-01  0.76603904970E+01  0.00000000000E+00 0.  1.
</event>
<event>
 7    1  0.1714203E-010  0.4778727E+02  0.7816164E-02  0.1312668E+00
        -11   -1    0    0    0    0  0.00000000000E+00  0.00000000000E+00  0.45593999997E+02  0.45594000000E+02  0.51100000000E-03 0.  1.
         11   -1    0    0    0    0 -0.00000000000E+00 -0.00000000000E+00 -0.45593999997E+02  0.45594000000E+02  0.51100000000E-03 0. -1.
    9900012    2    1    2    0    0  0.20508372162E+01 -0.97893558202E+01 -0.42232521169E+02  0.47787271147E+02  0.20000000468E+02 0.  0.
        -12    1    1    2    0    0 -0.20508372162E+01  0.97893558202E+01  0.42232521169E+02  0.43400728853E+02  0.00000000000E+00 0.  1.
         11    1    3    3    0    0  0.48793018664E+01 -0.22844256806E+01 -0.70899287254E+01  0.89046772533E+01  0.51100000000E-03 0. -1.
        -11    1    3    3    0    0 -0.50479210392E+01 -0.11549830954E+00 -0.31016930631E+01  0.59258203479E+01  0.51100000000E-03 0.  1.
         12    1    3    3    0    0  0.22194563890E+01 -0.73894318301E+01 -0.32040899381E+02  0.32956773546E+02  0.00000000000E+00 0. -1.
</event>
<event>
 7    1  0.1714203E-010  0.4778727E+02  0.7816164E-02  0.1312668E+00
        -11   -1    0    0    0    0  0.00000000000E+00  0.00000000000E+00  0.45593999997E+02  0.45594000000E+02  0.51100000000E-03 0.  1.
         11   -1    0    0    0    0 -0.00000000000E+00 -0.00000000000E+00 -0.45593999997E+02  0.45594000000E+02  0.51100000000E-03 0. -1.
    9900012    2    1    2    0    0  0.35579206169E+02  0.21342603361E+01 -0.24762635616E+02  0.47787273031E+02  0.20000009059E+02 0.  0.
        -12    1    1    2    0    0 -0.35579206169E+02 -0.21342603361E+01  0.24762635616E+02  0.43400726969E+02  0.00000000000E+00 0.  1.
         11    1    3    3    0    0  0.90023596519E+01  0.28611943788E+00 -0.52580544160E+01  0.10429356650E+02  0.51100000000E-03 0. -1.
        -11    1    3    3    0    0  0.19447791266E+02  0.18876881030E+01 -0.35174802402E+01  0.19853277286E+02  0.51100000000E-03 0.  1.
         12    1    3    3    0    0  0.71290552508E+01 -0.39547204756E-01 -0.15987100960E+02  0.17504639095E+02  0.00000000000E+00 0. -1.
</event>
<event>
 7    1  0.1714203E-010  0.4778727E+02  0.7816164E-02  0.1312668E+00
        -11   -1    0    0    0    0  0.00000000000E+00  0.00000000000E+00  0.45593999997E+02  0.45594000000E+02  0.51100000000E-03 0.  1.
         11   -1    0    0    0    0 -0.00000000000E+00 -0.00000000000E+00 -0.45593999997E+02  0.45594000000E+02  0.51100000000E-03 0. -1.
    9900012    2    1    2    0    0 -0.40612447456E+02 -0.15023983460E+02 -0.29210054736E+01  0.47787271431E+02  0.20000001763E+02 0.  0.
        -12    1    1    2    0    0  0.40612447456E+02  0.15023983460E+02  0.29210054736E+01  0.43400728569E+02  0.00000000000E+00 0.  1.
         11    1    3    3    0    0 -0.10503729073E+02 -0.60217778806E+01 -0.56176438525E-01  0.12107571570E+02  0.51100000000E-03 0.  1.
        -11    1    3    3    0    0 -0.22832975944E+02 -0.55042408858E+01  0.54282171903E+01  0.24106161044E+02  0.51100000000E-03 0. -1.
         12    1    3    3    0    0 -0.72757424394E+01 -0.34979646937E+01 -0.82930462253E+01  0.11573538817E+02  0.00000000000E+00 0. -1.
</event>
<event>
 7    1  0.1714203E-010  0.4778725E+02  0.7816164E-02  0.1312668E+00
        -11   -1    0    0    0    0  0.00000000000E+00  0.00000000000E+00  0.45593999997E+02  0.45594000000E+02  0.51100000000E-03 0. -1.
         11   -1    0    0    0    0 -0.00000000000E+00 -0.00000000000E+00 -0.45593999997E+02  0.45594000000E+02  0.51100000000E-03 0.  1.
    9900012    2    1    2    0    0  0.22820301226E+02 -0.54034182118E+01  0.36519341303E+02  0.47787246947E+02  0.19999890128E+02 0.  0.
        -12    1    1    2    0    0 -0.22820301226E+02  0.54034182118E+01 -0.36519341303E+02  0.43400753053E+02  0.00000000000E+00 0.  1.
         11    1    3    3    0    0  0.78685184867E+00 -0.43631010630E+01  0.33479167239E+01  0.55555677810E+01  0.51100000000E-03 0. -1.
        -11    1    3    3    0    0  0.97460502198E+01  0.32574638146E+01  0.24561692667E+02  0.26624674877E+02  0.51100000000E-03 0.  1.
         12    1    3    3    0    0  0.12287399157E+02 -0.42977809634E+01  0.86097319120E+01  0.15607004288E+02  0.00000000000E+00 0. -1.
</event>
<event>
 7    1  0.2188096E-010  0.4778726E+02  0.7816164E-02  0.1312668E+00
        -11   -1    0    0    0    0  0.00000000000E+00  0.00000000000E+00  0.45593999997E+02  0.45594000000E+02  0.51100000000E-03 0.  1.
         11   -1    0    0    0    0 -0.00000000000E+00 -0.00000000000E+00 -0.45593999997E+02  0.45594000000E+02  0.51100000000E-03 0. -1.
    9900012    2    1    2    0    0  0.34749170869E+02 -0.23564841273E+02  0.10991719058E+02  0.47787256825E+02  0.19999935166E+02 0.  0.
        -12    1    1    2    0    0 -0.34749170869E+02  0.23564841273E+02 -0.10991719058E+02  0.43400743175E+02  0.00000000000E+00 0.  1.
         11    1    3    3    0    0  0.23817969809E+02 -0.18402002124E+02  0.10069933686E+02  0.31738508672E+02  0.51100000000E-03 0. -1.
        -11    1    3    3    0    0  0.11527328841E+02 -0.75172101819E+00  0.10171703893E+01  0.11596509413E+02  0.51100000000E-03 0.  1.
        -12    1    3    3    0    0 -0.59612778076E+00 -0.44111181308E+01 -0.95385018037E-01  0.44522387398E+01  0.00000000000E+00 0.  1.
</event>
<event>
 7    1  0.1714203E-010  0.4778727E+02  0.7816164E-02  0.1312668E+00
        -11   -1    0    0    0    0  0.00000000000E+00  0.00000000000E+00  0.45593999997E+02  0.45594000000E+02  0.51100000000E-03 0. -1.
         11   -1    0    0    0    0 -0.00000000000E+00 -0.00000000000E+00 -0.45593999997E+02  0.45594000000E+02  0.51100000000E-03 0.  1.
    9900012    2    1    2    0    0  0.26699626090E+02  0.34214737283E+02  0.32411346102E+00  0.47787270395E+02  0.19999997039E+02 0.  0.
        -12    1    1    2    0    0 -0.26699626090E+02 -0.34214737283E+02 -0.32411346102E+00  0.43400729605E+02  0.00000000000E+00 0.  1.
         11    1    3    3    0    0  0.11332701396E+01  0.45815555698E+00 -0.25877166352E+01  0.28619024038E+01  0.51100000000E-03 0. -1.
        -11    1    3    3    0    0  0.41222445174E+01  0.16789848781E+02 -0.92401828465E+00  0.17313166435E+02  0.51100000000E-03 0.  1.
         12    1    3    3    0    0  0.21444111434E+02  0.16966732945E+02  0.38358483809E+01  0.27612201557E+02  0.00000000000E+00 0. -1.
</event>
<event>
 7    1  0.1714203E-010  0.4778727E+02  0.7816164E-02  0.1312668E+00
        -11   -1    0    0    0    0  0.00000000000E+00  0.00000000000E+00  0.45593999997E+02  0.45594000000E+02  0.51100000000E-03 0.  1.
         11   -1    0    0    0    0 -0.00000000000E+00 -0.00000000000E+00 -0.45593999997E+02  0.45594000000E+02  0.51100000000E-03 0. -1.
    9900012    2    1    2    0    0 -0.21724820709E+02  0.17154812152E+02 -0.33427048371E+02  0.47787274458E+02  0.20000015563E+02 0.  0.
        -12    1    1    2    0    0  0.21724820709E+02 -0.17154812152E+02  0.33427048371E+02  0.43400725542E+02  0.00000000000E+00 0.  1.
         11    1    3    3    0    0 -0.67219889538E+01  0.12204768752E+02 -0.10448430174E+02  0.17415832141E+02  0.51100000000E-03 0. -1.
        -11    1    3    3    0    0 -0.10363855225E+02  0.32722209240E+00 -0.55671224828E+01  0.11769002609E+02  0.51100000000E-03 0.  1.
         12    1    3    3    0    0 -0.46389765305E+01  0.46228213073E+01 -0.17411495714E+02  0.18602439708E+02  0.00000000000E+00 0. -1.
</event>
<event>
 7    1  0.1714203E-010  0.4778727E+02  0.7816164E-02  0.1312668E+00
        -11   -1    0    0    0    0  0.00000000000E+00  0.00000000000E+00  0.45593999997E+02  0.45594000000E+02  0.51100000000E-03 0. -1.
         11   -1    0    0    0    0 -0.00000000000E+00 -0.00000000000E+00 -0.45593999997E+02  0.45594000000E+02  0.51100000000E-03 0.  1.
    9900012    2    1    2    0    0 -0.18646582125E+02  0.99528018748E+01  0.37906074353E+02  0.47787265410E+02  0.19999974309E+02 0.  0.
        -12    1    1    2    0    0  0.18646582125E+02 -0.99528018748E+01 -0.37906074353E+02  0.43400734590E+02  0.00000000000E+00 0.  1.
         11    1    3    3    0    0 -0.82873589414E+00 -0.20431829214E+01  0.13170495036E+02  0.13353776222E+02  0.51100000000E-03 0. -1.
        -11    1    3    3    0    0 -0.64193919691E+01  0.39790720720E+01  0.20776295132E+01  0.78331444811E+01  0.51100000000E-03 0.  1.
         12    1    3    3    0    0 -0.11398454262E+02  0.80169127242E+01  0.22657949804E+02  0.26600344707E+02  0.00000000000E+00 0. -1.
</event>
<event>
 7    1  0.1714203E-010  0.4778728E+02  0.7816164E-02  0.1312668E+00
        -11   -1    0    0    0    0  0.00000000000E+00  0.00000000000E+00  0.45593999997E+02  0.45594000000E+02  0.51100000000E-03 0. -1.
         11   -1    0    0    0    0 -0.00000000000E+00 -0.00000000000E+00 -0.45593999997E+02  0.45594000000E+02  0.51100000000E-03 0.  1.
    9900012    2    1    2    0    0  0.35749035877E+02 -0.14410784956E+02  0.19948881019E+02  0.47787284072E+02  0.20000059397E+02 0.  0.
        -12    1    1    2    0    0 -0.35749035877E+02  0.14410784956E+02 -0.19948881019E+02  0.43400715928E+02  0.00000000000E+00 0.  1.
         11    1    3    3    0    0  0.73940391924E+01 -0.10483834890E+02  0.68184291509E+01  0.14528371758E+02  0.51100000000E-03 0. -1.
        -11    1    3    3    0    0  0.68610875719E+01  0.15873064364E+01 -0.75485593134E+00  0.70826458425E+01  0.51100000000E-03 0.  1.
        -12    1    3    3    0    0  0.21493909113E+02 -0.55142565024E+01  0.13885307799E+02  0.26176266472E+02  0.00000000000E+00 0.  1.
</event>
<event>
 7    1  0.1714203E-010  0.4778728E+02  0.7816164E-02  0.1312668E+00
        -11   -1    0    0    0    0  0.00000000000E+00  0.00000000000E+00  0.45593999997E+02  0.45594000000E+02  0.51100000000E-03 0. -1.
         11   -1    0    0    0    0 -0.00000000000E+00 -0.00000000000E+00 -0.45593999997E+02  0.45594000000E+02  0.51100000000E-03 0.  1.
    9900012    2    1    2    0    0 -0.96463629809E+01  0.12603320580E+02  0.40394639663E+02  0.47787275099E+02  0.20000018487E+02 0.  0.
        -12    1    1    2    0    0  0.96463629809E+01 -0.12603320580E+02 -0.40394639663E+02  0.43400724901E+02  0.00000000000E+00 0.  1.
         11    1    3    3    0    0 -0.37321546394E+01  0.10999365200E+02  0.15312914365E+02  0.19219790833E+02  0.51100000000E-03 0. -1.
        -11    1    3    3    0    0 -0.94163591831E+01  0.25131381579E+01  0.20739951697E+02  0.22915699429E+02  0.51100000000E-03 0.  1.
         12    1    3    3    0    0  0.35021508416E+01 -0.90918277794E+00  0.43417736011E+01  0.56517848370E+01  0.00000000000E+00 0. -1.
</event>
<event>
 7    1  0.1714203E-010  0.4778728E+02  0.7816164E-02  0.1312668E+00
        -11   -1    0    0    0    0  0.00000000000E+00  0.00000000000E+00  0.45593999997E+02  0.45594000000E+02  0.51100000000E-03 0.  1.
         11   -1    0    0    0    0 -0.00000000000E+00 -0.00000000000E+00 -0.45593999997E+02  0.45594000000E+02  0.51100000000E-03 0. -1.
    9900012    2    1    2    0    0 -0.13536651442E+02 -0.15728321804E+02 -0.38118261345E+02  0.47787275502E+02  0.20000020322E+02 0.  0.
        -12    1    1    2    0    0  0.13536651442E+02  0.15728321804E+02  0.38118261345E+02  0.43400724498E+02  0.00000000000E+00 0.  1.
         11    1    3    3    0    0 -0.13665879160E+02 -0.15087888877E+01 -0.21307820900E+02  0.25358547452E+02  0.51100000000E-03 0. -1.
        -11    1    3    3    0    0 -0.38322688522E+00 -0.19255236059E-01 -0.14665722848E+01  0.15159380387E+01  0.51100000000E-03 0.  1.
        -12    1    3    3    0    0  0.51245460331E+00 -0.14200277680E+02 -0.15343868160E+02  0.20912790010E+02  0.00000000000E+00 0.  1.
</event>
<event>
 7    1  0.1714203E-010  0.4778727E+02  0.7816164E-02  0.1312668E+00
        -11   -1    0    0    0    0  0.00000000000E+00  0.00000000000E+00  0.45593999997E+02  0.45594000000E+02  0.51100000000E-03 0.  1.
         11   -1    0    0    0    0 -0.00000000000E+00 -0.00000000000E+00 -0.45593999997E+02  0.45594000000E+02  0.51100000000E-03 0. -1.
    9900012    2    1    2    0    0  0.26989768929E+02 -0.17134356316E+02 -0.29352846801E+02  0.47787269494E+02  0.19999992929E+02 0.  0.
        -12    1    1    2    0    0 -0.26989768929E+02  0.17134356316E+02  0.29352846801E+02  0.43400730506E+02  0.00000000000E+00 0.  1.
         11    1    3    3    0    0  0.14525486418E+01  0.61965725002E+00 -0.55132810013E+00  0.16726731896E+01  0.51100000000E-03 0. -1.
        -11    1    3    3    0    0  0.39928429024E+01  0.30984179175E+01 -0.85531666565E+01  0.99347696576E+01  0.51100000000E-03 0.  1.
         12    1    3    3    0    0  0.21544377384E+02 -0.20852431483E+02 -0.20248352044E+02  0.36179826646E+02  0.00000000000E+00 0. -1.
</event>
<event>
 7    1  0.1714203E-010  0.4778726E+02  0.7816164E-02  0.1312668E+00
        -11   -1    0    0    0    0  0.00000000000E+00  0.00000000000E+00  0.45593999997E+02  0.45594000000E+02  0.51100000000E-03 0.  1.
         11   -1    0    0    0    0 -0.00000000000E+00 -0.00000000000E+00 -0.45593999997E+02  0.45594000000E+02  0.51100000000E-03 0. -1.
    9900012    2    1    2    0    0  0.11297773514E+02 -0.17869458452E+02 -0.37903385502E+02  0.47787264243E+02  0.19999968991E+02 0.  0.
        -12    1    1    2    0    0 -0.11297773514E+02  0.17869458452E+02  0.37903385502E+02  0.43400735757E+02  0.00000000000E+00 0.  1.
         11    1    3    3    0    0  0.13617292055E+01  0.20869359843E+01 -0.23973380648E+01  0.34578661469E+01  0.51100000000E-03 0.  1.
        -11    1    3    3    0    0  0.60899976352E+01 -0.13957638016E+02 -0.10939798121E+02  0.18750544348E+02  0.51100000000E-03 0. -1.
         12    1    3    3    0    0  0.38460466732E+01 -0.59987564201E+01 -0.24566249316E+02  0.25578853748E+02  0.00000000000E+00 0. -1.
</event>
<event>
 7    1  0.1714203E-010  0.4778727E+02  0.7816164E-02  0.1312668E+00
        -11   -1    0    0    0    0  0.00000000000E+00  0.00000000000E+00  0.45593999997E+02  0.45594000000E+02  0.51100000000E-03 0.  1.
         11   -1    0    0    0    0 -0.00000000000E+00 -0.00000000000E+00 -0.45593999997E+02  0.45594000000E+02  0.51100000000E-03 0. -1.
    9900012    2    1    2    0    0 -0.20654004921E+01 -0.74424725581E+00 -0.43345165483E+02  0.47787272426E+02  0.20000006301E+02 0.  0.
        -12    1    1    2    0    0  0.20654004921E+01  0.74424725581E+00  0.43345165483E+02  0.43400727574E+02  0.00000000000E+00 0.  1.
         11    1    3    3    0    0  0.21292557088E+01  0.20305926865E+01 -0.52542312791E+01  0.60219584129E+01  0.51100000000E-03 0. -1.
        -11    1    3    3    0    0 -0.71129482313E+01 -0.35523359664E+01 -0.37915497582E+02  0.38740135267E+02  0.51100000000E-03 0.  1.
        -12    1    3    3    0    0  0.29182920304E+01  0.77749602409E+00 -0.17543662222E+00  0.30251787469E+01  0.00000000000E+00 0.  1.
</event>
<event>
 7    1  0.1714203E-010  0.4778727E+02  0.7816164E-02  0.1312668E+00
        -11   -1    0    0    0    0  0.00000000000E+00  0.00000000000E+00  0.45593999997E+02  0.45594000000E+02  0.51100000000E-03 0.  1.
         11   -1    0    0    0    0 -0.00000000000E+00 -0.00000000000E+00 -0.45593999997E+02  0.45594000000E+02  0.51100000000E-03 0. -1.
    9900012    2    1    2    0    0 -0.73873793601E+01  0.42083600493E+02 -0.76171168775E+01  0.47787271045E+02  0.20000000004E+02 0.  0.
        -12    1    1    2    0    0  0.73873793601E+01 -0.42083600493E+02  0.76171168775E+01  0.43400728955E+02  0.00000000000E+00 0.  1.
         11    1    3    3    0    0 -0.17479793060E+01  0.39400406311E+02 -0.30477098089E+01  0.39556743856E+02  0.51100000000E-03 0. -1.
        -11    1    3    3    0    0 -0.32519813490E+01  0.29100931035E+01 -0.23190861941E+01  0.49418807758E+01  0.51100000000E-03 0.  1.
         12    1    3    3    0    0 -0.23874187051E+01 -0.22689892188E+00 -0.22503208745E+01  0.32886464134E+01  0.00000000000E+00 0. -1.
</event>
<event>
 7    1  0.1714203E-010  0.4778727E+02  0.7816164E-02  0.1312668E+00
        -11   -1    0    0    0    0  0.00000000000E+00  0.00000000000E+00  0.45593999997E+02  0.45594000000E+02  0.51100000000E-03 0.  1.
         11   -1    0    0    0    0 -0.00000000000E+00 -0.00000000000E+00 -0.45593999997E+02  0.45594000000E+02  0.51100000000E-03 0. -1.
    9900012    2    1    2    0    0 -0.35379152176E+01 -0.40186541376E+02 -0.16004638050E+02  0.47787269695E+02  0.19999993848E+02 0.  0.
        -12    1    1    2    0    0  0.35379152176E+01  0.40186541376E+02  0.16004638050E+02  0.43400730305E+02  0.00000000000E+00 0.  1.
         11    1    3    3    0    0  0.27391949969E+01 -0.25974088036E+02 -0.17416564885E+02  0.31392565540E+02  0.51100000000E-03 0. -1.
        -11    1    3    3    0    0 -0.10701595359E+01 -0.85305138004E+01  0.25279224131E+00  0.86010936112E+01  0.51100000000E-03 0.  1.
         12    1    3    3    0    0 -0.52069506787E+01 -0.56819395395E+01  0.11591345930E+01  0.77936105436E+01  0.00000000000E+00 0. -1.
</event>
<event>
 7    1  0.1714203E-010  0.4778726E+02  0.7816164E-02  0.1312668E+00
        -11   -1    0    0    0    0  0.00000000000E+00  0.00000000000E+00  0.45593999997E+02  0.45594000000E+02  0.51100000000E-03 0.  1.
         11   -1    0    0    0    0 -0.00000000000E+00 -0.00000000000E+00 -0.45593999997E+02  0.45594000000E+02  0.51100000000E-03 0. -1.
    9900012    2    1    2    0    0 -0.82403903977E+01  0.15942165361E+02 -0.39516669002E+02  0.47787264991E+02  0.19999972402E+02 0.  0.
        -12    1    1    2    0    0  0.82403903977E+01 -0.15942165361E+02  0.39516669002E+02  0.43400735009E+02  0.00000000000E+00 0.  1.
         11    1    3    3    0    0  0.36457674790E+01 -0.13642729700E+01 -0.44978980448E+01  0.59484408318E+01  0.51100000000E-03 0.  1.
        -11    1    3    3    0    0 -0.29021757307E+01  0.87647881797E+01 -0.22016812646E+02  0.23874341356E+02  0.51100000000E-03 0. -1.
        -12    1    3    3    0    0 -0.89839821460E+01  0.85416501513E+01 -0.13001958311E+02  0.17964482804E+02  0.00000000000E+00 0.  1.
</event>
<event>
 7    1  0.1714203E-010  0.4778727E+02  0.7816164E-02  0.1312668E+00
        -11   -1    0    0    0    0  0.00000000000E+00  0.00000000000E+00  0.45593999997E+02  0.45594000000E+02  0.51100000000E-03 0.  1.
         11   -1    0    0    0    0 -0.00000000000E+00 -0.00000000000E+00 -0.45593999997E+02  0.45594000000E+02  0.51100000000E-03 0. -1.
    9900012    2    1    2    0    0  0.14994193013E+02  0.39928401630E+02 -0.80324416955E+01  0.47787271891E+02  0.20000003858E+02 0.  0.
        -12    1    1    2    0    0 -0.14994193013E+02 -0.39928401630E+02  0.80324416955E+01  0.43400728109E+02  0.00000000000E+00 0.  1.
         11    1    3    3    0    0  0.13446937880E+01  0.14838972499E+01  0.25935521551E+01  0.32766851350E+01  0.51100000000E-03 0.  1.
        -11    1    3    3    0    0  0.14119770019E+02  0.33684070783E+02 -0.45932594366E+01  0.36811446079E+02  0.51100000000E-03 0. -1.
        -12    1    3    3    0    0 -0.47027079413E+00  0.47604335967E+01 -0.60327344139E+01  0.76991406766E+01  0.00000000000E+00 0.  1.
</event>
<event>
 7    1  0.1714203E-010  0.4778727E+02  0.7816164E-02  0.1312668E+00
        -11   -1    0    0    0    0  0.00000000000E+00  0.00000000000E+00  0.45593999997E+02  0.45594000000E+02  0.51100000000E-03 0.  1.
         11   -1    0    0    0    0 -0.00000000000E+00 -0.00000000000E+00 -0.45593999997E+02  0.45594000000E+02  0.51100000000E-03 0. -1.
    9900012    2    1    2    0    0 -0.38291035736E+02  0.41144456996E+01 -0.20012272890E+02  0.47787272502E+02  0.20000006643E+02 0.  0.
        -12    1    1    2    0    0  0.38291035736E+02 -0.41144456996E+01  0.20012272890E+02  0.43400727498E+02  0.00000000000E+00 0.  1.
         11    1    3    3    0    0 -0.16390345992E+02 -0.25749314451E+01 -0.16716959591E+02  0.23552716445E+02  0.51100000000E-03 0. -1.
        -11    1    3    3    0    0 -0.71715681150E+01 -0.10062295363E+01  0.23392245387E+00  0.72455922521E+01  0.51100000000E-03 0.  1.
         12    1    3    3    0    0 -0.14729121629E+02  0.76956066810E+01 -0.35292357521E+01  0.16988963804E+02  0.00000000000E+00 0. -1.
</event>
<event>
 7    1  0.1714203E-010  0.4778727E+02  0.7816164E-02  0.1312668E+00
        -11   -1    0    0    0    0  0.00000000000E+00  0.00000000000E+00  0.45593999997E+02  0.45594000000E+02  0.51100000000E-03 0.  1.
         11   -1    0    0    0    0 -0.00000000000E+00 -0.00000000000E+00 -0.45593999997E+02  0.45594000000E+02  0.51100000000E-03 0. -1.
    9900012    2    1    2    0    0 -0.30196000370E+02  0.29774524249E+02  0.92359498747E+01  0.47787268409E+02  0.19999987983E+02 0.  0.
        -12    1    1    2    0    0  0.30196000370E+02 -0.29774524249E+02 -0.92359498747E+01  0.43400731591E+02  0.00000000000E+00 0.  1.
         11    1    3    3    0    0 -0.10745038018E+02  0.11356809183E+02  0.81002469952E+01  0.17608150342E+02  0.51100000000E-03 0. -1.
        -11    1    3    3    0    0  0.14227004291E+01  0.48214837548E+00 -0.19768827261E+01  0.24828630934E+01  0.51100000000E-03 0.  1.
         12    1    3    3    0    0 -0.20873662781E+02  0.17935566691E+02  0.31125856056E+01  0.27696254973E+02  0.00000000000E+00 0. -1.
</event>
<event>
 7    1  0.1714203E-010  0.4778728E+02  0.7816164E-02  0.1312668E+00
        -11   -1    0    0    0    0  0.00000000000E+00  0.00000000000E+00  0.45593999997E+02  0.45594000000E+02  0.51100000000E-03 0. -1.
         11   -1    0    0    0    0 -0.00000000000E+00 -0.00000000000E+00 -0.45593999997E+02  0.45594000000E+02  0.51100000000E-03 0.  1.
    9900012    2    1    2    0    0 -0.27521095374E+02  0.33458093847E+02  0.26015495671E+01  0.47787276566E+02  0.20000025174E+02 0.  0.
        -12    1    1    2    0    0  0.27521095374E+02 -0.33458093847E+02 -0.26015495671E+01  0.43400723434E+02  0.00000000000E+00 0.  1.
         11    1    3    3    0    0 -0.18706403093E+02  0.19451121685E+02 -0.56139255238E+01  0.27564321351E+02  0.51100000000E-03 0. -1.
        -11    1    3    3    0    0  0.97464618406E+00 -0.39300004835E+00  0.66784106175E+00  0.12451490541E+01  0.51100000000E-03 0.  1.
         12    1    3    3    0    0 -0.97893384644E+01  0.14399972210E+02  0.75476340292E+01  0.18977806161E+02  0.00000000000E+00 0. -1.
</event>
<event>
 7    1  0.1714203E-010  0.4778727E+02  0.7816164E-02  0.1312668E+00
        -11   -1    0    0    0    0  0.00000000000E+00  0.00000000000E+00  0.45593999997E+02  0.45594000000E+02  0.51100000000E-03 0.  1.
         11   -1    0    0    0    0 -0.00000000000E+00 -0.00000000000E+00 -0.45593999997E+02  0.45594000000E+02  0.51100000000E-03 0. -1.
    9900012    2    1    2    0    0 -0.17209831570E+02  0.30263157885E+02 -0.25914987586E+02  0.47787267179E+02  0.19999982376E+02 0.  0.
        -12    1    1    2    0    0  0.17209831570E+02 -0.30263157885E+02  0.25914987586E+02  0.43400732821E+02  0.00000000000E+00 0.  1.
         11    1    3    3    0    0 -0.41593812866E+01  0.13006764830E+02 -0.73045571082E+01  0.15486540570E+02  0.51100000000E-03 0. -1.
        -11    1    3    3    0    0 -0.25773149038E+01  0.97278894705E+01 -0.51209909039E+00  0.10076538662E+02  0.51100000000E-03 0.  1.
         12    1    3    3    0    0 -0.10473135379E+02  0.75285035845E+01 -0.18098331387E+02  0.22224187947E+02  0.00000000000E+00 0. -1.
</event>
<event>
 7    1  0.1714203E-010  0.4778727E+02  0.7816164E-02  0.1312668E+00
        -11   -1    0    0    0    0  0.00000000000E+00  0.00000000000E+00  0.45593999997E+02  0.45594000000E+02  0.51100000000E-03 0. -1.
         11   -1    0    0    0    0 -0.00000000000E+00 -0.00000000000E+00 -0.45593999997E+02  0.45594000000E+02  0.51100000000E-03 0.  1.
    9900012    2    1    2    0    0  0.21987548943E+02  0.29020620299E+02  0.23621481811E+02  0.47787272886E+02  0.20000008397E+02 0.  0.
        -12    1    1    2    0    0 -0.21987548943E+02 -0.29020620299E+02 -0.23621481811E+02  0.43400727114E+02  0.00000000000E+00 0.  1.
         11    1    3    3    0    0  0.95361318380E+01  0.79248848826E+01  0.25975878051E+01  0.12668428217E+02  0.51100000000E-03 0. -1.
        -11    1    3    3    0    0 -0.30059215392E+01  0.32847881989E+01  0.23303524531E+01  0.50255288904E+01  0.51100000000E-03 0.  1.
        -12    1    3    3    0    0  0.15457338644E+02  0.17810947218E+02  0.18693541553E+02  0.30093315778E+02  0.00000000000E+00 0.  1.
</event>
<event>
 7    1  0.1714203E-010  0.4778727E+02  0.7816164E-02  0.1312668E+00
        -11   -1    0    0    0    0  0.00000000000E+00  0.00000000000E+00  0.45593999997E+02  0.45594000000E+02  0.51100000000E-03 0.  1.
         11   -1    0    0    0    0 -0.00000000000E+00 -0.00000000000E+00 -0.45593999997E+02  0.45594000000E+02  0.51100000000E-03 0. -1.
    9900012    2    1    2    0    0  0.16665219887E+02  0.28098239690E+02 -0.28572412543E+02  0.47787269751E+02  0.19999994104E+02 0.  0.
        -12    1    1    2    0    0 -0.16665219887E+02 -0.28098239690E+02  0.28572412543E+02  0.43400730249E+02  0.00000000000E+00 0.  1.
         11    1    3    3    0    0  0.75579287899E+00  0.13806575823E+02 -0.80975275440E+01  0.16023817005E+02  0.51100000000E-03 0.  1.
        -11    1    3    3    0    0  0.99532682253E+01  0.13805194396E+02 -0.19192215912E+02  0.25651356545E+02  0.51100000000E-03 0. -1.
         12    1    3    3    0    0  0.59561587826E+01  0.48646947089E+00 -0.12826690871E+01  0.61120962015E+01  0.00000000000E+00 0. -1.
</event>
<event>
 7    1  0.1714203E-010  0.4778727E+02  0.7816164E-02  0.1312668E+00
        -11   -1    0    0    0    0  0.00000000000E+00  0.00000000000E+00  0.45593999997E+02  0.45594000000E+02  0.51100000000E-03 0. -1.
         11   -1    0    0    0    0 -0.00000000000E+00 -0.00000000000E+00 -0.45593999997E+02  0.45594000000E+02  0.51100000000E-03 0.  1.
    9900012    2    1    2    0    0 -0.23869161356E+02  0.48568694430E+01  0.35920703129E+02  0.47787274685E+02  0.20000016597E+02 0.  0.
        -12    1    1    2    0    0  0.23869161356E+02 -0.48568694430E+01 -0.35920703129E+02  0.43400725315E+02  0.00000000000E+00 0.  1.
         11    1    3    3    0    0  0.10345417530E+01  0.33377917583E+01  0.94717652321E+01  0.10095814347E+02  0.51100000000E-03 0. -1.
        -11    1    3    3    0    0 -0.12552526346E+02  0.53172070330E+01  0.10766557666E+02  0.17371164974E+02  0.51100000000E-03 0.  1.
         12    1    3    3    0    0 -0.12351176763E+02 -0.37981293483E+01  0.15682380231E+02  0.20320295364E+02  0.00000000000E+00 0. -1.
</event>
<event>
 7    1  0.1714203E-010  0.4778727E+02  0.7816164E-02  0.1312668E+00
        -11   -1    0    0    0    0  0.00000000000E+00  0.00000000000E+00  0.45593999997E+02  0.45594000000E+02  0.51100000000E-03 0.  1.
         11   -1    0    0    0    0 -0.00000000000E+00 -0.00000000000E+00 -0.45593999997E+02  0.45594000000E+02  0.51100000000E-03 0. -1.
    9900012    2    1    2    0    0 -0.30759207381E+02  0.10034586052E+02 -0.28927522674E+02  0.47787270467E+02  0.19999997368E+02 0.  0.
        -12    1    1    2    0    0  0.30759207381E+02 -0.10034586052E+02  0.28927522674E+02  0.43400729533E+02  0.00000000000E+00 0.  1.
         11    1    3    3    0    0 -0.11301082850E+02  0.20842581549E+01 -0.17171033184E+02  0.20661630781E+02  0.51100000000E-03 0. -1.
        -11    1    3    3    0    0 -0.11934722357E+02  0.61905585159E+01 -0.13661687099E+02  0.19167741316E+02  0.51100000000E-03 0.  1.
        -12    1    3    3    0    0 -0.75234021738E+01  0.17597693813E+01  0.19051976102E+01  0.79578983706E+01  0.00000000000E+00 0.  1.
</event>
<event>
 7    1  0.1714203E-010  0.4778727E+02  0.7816164E-02  0.1312668E+00
        -11   -1    0    0    0    0  0.00000000000E+00  0.00000000000E+00  0.45593999997E+02  0.45594000000E+02  0.51100000000E-03 0. -1.
         11   -1    0    0    0    0 -0.00000000000E+00 -0.00000000000E+00 -0.45593999997E+02  0.45594000000E+02  0.51100000000E-03 0.  1.
    9900012    2    1    2    0    0  0.41165032028E+02  0.82563239884E+01 -0.10995300982E+02  0.47787269691E+02  0.19999993829E+02 0.  0.
        -12    1    1    2    0    0 -0.41165032028E+02 -0.82563239884E+01  0.10995300982E+02  0.43400730309E+02  0.00000000000E+00 0.  1.
         11    1    3    3    0    0  0.34685167265E+02  0.68257455853E+01 -0.14917391669E+02  0.38369000579E+02  0.51100000000E-03 0. -1.
        -11    1    3    3    0    0  0.56002236753E+01 -0.12426535152E+01  0.28645196159E+01  0.64118769376E+01  0.51100000000E-03 0.  1.
        -12    1    3    3    0    0  0.87964108812E+00  0.26732319183E+01  0.10575710716E+01  0.30063921741E+01  0.00000000000E+00 0.  1.
</event>
<event>
 7    1  0.1714203E-010  0.4778727E+02  0.7816164E-02  0.1312668E+00
        -11   -1    0    0    0    0  0.00000000000E+00  0.00000000000E+00  0.45593999997E+02  0.45594000000E+02  0.51100000000E-03 0.  1.
         11   -1    0    0    0    0 -0.00000000000E+00 -0.00000000000E+00 -0.45593999997E+02  0.45594000000E+02  0.51100000000E-03 0. -1.
    9900012    2    1    2    0    0 -0.14377550452E+02 -0.83341730373E+01 -0.40093025922E+02  0.47787272762E+02  0.20000007829E+02 0.  0.
        -12    1    1    2    0    0  0.14377550452E+02  0.83341730373E+01  0.40093025922E+02  0.43400727238E+02  0.00000000000E+00 0.  1.
         11    1    3    3    0    0  0.24296940015E+01 -0.22033611244E+01 -0.11755724767E+02  0.12204723604E+02  0.51100000000E-03 0. -1.
        -11    1    3    3    0    0 -0.11755774514E+01 -0.24241790807E+01  0.33639462869E+00  0.27151037120E+01  0.51100000000E-03 0.  1.
         12    1    3    3    0    0 -0.15631667002E+02 -0.37066328323E+01 -0.28673695784E+02  0.32867445446E+02  0.00000000000E+00 0. -1.
</event>
<event>
 7    1  0.1714203E-010  0.4778728E+02  0.7816164E-02  0.1312668E+00
        -11   -1    0    0    0    0  0.00000000000E+00  0.00000000000E+00  0.45593999997E+02  0.45594000000E+02  0.51100000000E-03 0.  1.
         11   -1    0    0    0    0 -0.00000000000E+00 -0.00000000000E+00 -0.45593999997E+02  0.45594000000E+02  0.51100000000E-03 0. -1.
    9900012    2    1    2    0    0  0.21636516326E+01  0.31839248681E+02 -0.29414344509E+02  0.47787276413E+02  0.20000024480E+02 0.  0.
        -12    1    1    2    0    0 -0.21636516326E+01 -0.31839248681E+02  0.29414344509E+02  0.43400723587E+02  0.00000000000E+00 0.  1.
         11    1    3    3    0    0  0.35299588275E+01  0.11793983236E+02 -0.48053158673E+01  0.13215510234E+02  0.51100000000E-03 0. -1.
        -11    1    3    3    0    0 -0.37371470241E+01  0.21240565857E+02 -0.21103784119E+02  0.30174452940E+02  0.51100000000E-03 0.  1.
        -12    1    3    3    0    0  0.23708398292E+01 -0.11953004118E+01 -0.35052445221E+01  0.43973132400E+01  0.00000000000E+00 0.  1.
</event>
<event>
 7    1  0.1714203E-010  0.4778727E+02  0.7816164E-02  0.1312668E+00
        -11   -1    0    0    0    0  0.00000000000E+00  0.00000000000E+00  0.45593999997E+02  0.45594000000E+02  0.51100000000E-03 0.  1.
         11   -1    0    0    0    0 -0.00000000000E+00 -0.00000000000E+00 -0.45593999997E+02  0.45594000000E+02  0.51100000000E-03 0. -1.
    9900012    2    1    2    0    0 -0.15147749734E+02 -0.31230243904E+02 -0.26054572402E+02  0.47787271903E+02  0.20000003914E+02 0.  0.
        -12    1    1    2    0    0  0.15147749734E+02  0.31230243904E+02  0.26054572402E+02  0.43400728097E+02  0.00000000000E+00 0.  1.
         11    1    3    3    0    0 -0.43083163210E+01 -0.25140972355E+01 -0.10278115232E+02  0.11424619355E+02  0.51100000000E-03 0. -1.
        -11    1    3    3    0    0 -0.46261492397E+01 -0.80585241230E+01  0.55125724984E+00  0.93083270594E+01  0.51100000000E-03 0.  1.
         12    1    3    3    0    0 -0.62132841730E+01 -0.20657622546E+02 -0.16327714420E+02  0.27054325489E+02  0.00000000000E+00 0. -1.
</event>
<event>
 7    1  0.1714203E-010  0.4778727E+02  0.7816164E-02  0.1312668E+00
        -11   -1    0    0    0    0  0.00000000000E+00  0.00000000000E+00  0.45593999997E+02  0.45594000000E+02  0.51100000000E-03 0.  1.
         11   -1    0    0    0    0 -0.00000000000E+00 -0.00000000000E+00 -0.45593999997E+02  0.45594000000E+02  0.51100000000E-03 0. -1.
    9900012    2    1    2    0    0  0.29194997805E+02  0.13849884414E+02 -0.28973368441E+02  0.47787271044E+02  0.19999999998E+02 0.  0.
        -12    1    1    2    0    0 -0.29194997805E+02 -0.13849884414E+02  0.28973368441E+02  0.43400728956E+02  0.00000000000E+00 0.  1.
         11    1    3    3    0    0  0.40028571009E+01 -0.43202089063E+01 -0.31832993791E+01  0.66948088219E+01  0.51100000000E-03 0. -1.
        -11    1    3    3    0    0  0.47994851610E+01  0.20232315047E+01 -0.81205512373E+01  0.96473766481E+01  0.51100000000E-03 0.  1.
        -12    1    3    3    0    0  0.20392655543E+02  0.16146861816E+02 -0.17669517824E+02  0.31445085574E+02  0.00000000000E+00 0.  1.
</event>
<event>
 7    1  0.1714203E-010  0.4778727E+02  0.7816164E-02  0.1312668E+00
        -11   -1    0    0    0    0  0.00000000000E+00  0.00000000000E+00  0.45593999997E+02  0.45594000000E+02  0.51100000000E-03 0.  1.
         11   -1    0    0    0    0 -0.00000000000E+00 -0.00000000000E+00 -0.45593999997E+02  0.45594000000E+02  0.51100000000E-03 0. -1.
    9900012    2    1    2    0    0 -0.72704874446E+01 -0.22798898779E+02 -0.36207370215E+02  0.47787269234E+02  0.19999991743E+02 0.  0.
        -12    1    1    2    0    0  0.72704874446E+01  0.22798898779E+02  0.36207370215E+02  0.43400730766E+02  0.00000000000E+00 0.  1.
         11    1    3    3    0    0 -0.17664393915E+01 -0.92537543132E+01 -0.15579738464E+02  0.18206606709E+02  0.51100000000E-03 0. -1.
        -11    1    3    3    0    0 -0.59981159023E+01 -0.95939868145E+01 -0.22496764597E+02  0.25181866391E+02  0.51100000000E-03 0.  1.
        -12    1    3    3    0    0  0.49406784929E+00 -0.39511576509E+01  0.18691328457E+01  0.43987961327E+01  0.00000000000E+00 0.  1.
</event>
<event>
 7    1  0.1714203E-010  0.4778726E+02  0.7816164E-02  0.1312668E+00
        -11   -1    0    0    0    0  0.00000000000E+00  0.00000000000E+00  0.45593999997E+02  0.45594000000E+02  0.51100000000E-03 0.  1.
         11   -1    0    0    0    0 -0.00000000000E+00 -0.00000000000E+00 -0.45593999997E+02  0.45594000000E+02  0.51100000000E-03 0. -1.
    9900012    2    1    2    0    0 -0.11751057236E+02  0.20626389934E+02 -0.36333026406E+02  0.47787261347E+02  0.19999955784E+02 0.  0.
        -12    1    1    2    0    0  0.11751057236E+02 -0.20626389934E+02  0.36333026406E+02  0.43400738653E+02  0.00000000000E+00 0.  1.
         11    1    3    3    0    0 -0.87035294905E+01  0.11150830916E+01 -0.88526247448E+01  0.12464501636E+02  0.51100000000E-03 0. -1.
        -11    1    3    3    0    0  0.25981212101E+01  0.27318451912E+01 -0.88638948167E+01  0.96323332352E+01  0.51100000000E-03 0.  1.
        -12    1    3    3    0    0 -0.56456489557E+01  0.16779461651E+02 -0.18616506844E+02  0.25690426476E+02  0.00000000000E+00 0.  1.
</event>
<event>
 7    1  0.1714203E-010  0.4778727E+02  0.7816164E-02  0.1312668E+00
        -11   -1    0    0    0    0  0.00000000000E+00  0.00000000000E+00  0.45593999997E+02  0.45594000000E+02  0.51100000000E-03 0.  1.
         11   -1    0    0    0    0 -0.00000000000E+00 -0.00000000000E+00 -0.45593999997E+02  0.45594000000E+02  0.51100000000E-03 0. -1.
    9900012    2    1    2    0    0 -0.16055598786E+02  0.30254639738E+02 -0.26655167986E+02  0.47787268918E+02  0.19999990306E+02 0.  0.
        -12    1    1    2    0    0  0.16055598786E+02 -0.30254639738E+02  0.26655167986E+02  0.43400731082E+02  0.00000000000E+00 0.  1.
         11    1    3    3    0    0 -0.82421237527E+01  0.18028850447E+02 -0.12509296460E+02  0.23440446894E+02  0.51100000000E-03 0. -1.
        -11    1    3    3    0    0 -0.11358628967E+02  0.85430175469E+01 -0.12633461877E+02  0.19015939632E+02  0.51100000000E-03 0.  1.
        -12    1    3    3    0    0  0.35451539339E+01  0.36827717445E+01 -0.15124096483E+01  0.53308823924E+01  0.00000000000E+00 0.  1.
</event>
<event>
 7    1  0.1714203E-010  0.4778727E+02  0.7816164E-02  0.1312668E+00
        -11   -1    0    0    0    0  0.00000000000E+00  0.00000000000E+00  0.45593999997E+02  0.45594000000E+02  0.51100000000E-03 0.  1.
         11   -1    0    0    0    0 -0.00000000000E+00 -0.00000000000E+00 -0.45593999997E+02  0.45594000000E+02  0.51100000000E-03 0. -1.
    9900012    2    1    2    0    0  0.10606580270E+02  0.42075699124E+02  0.87136601336E+00  0.47787270967E+02  0.19999999649E+02 0.  0.
        -12    1    1    2    0    0 -0.10606580270E+02 -0.42075699124E+02 -0.87136601336E+00  0.43400729033E+02  0.00000000000E+00 0.  1.
         11    1    3    3    0    0  0.12958641711E+02  0.27806763229E+02  0.43283933804E+00  0.30681098846E+02  0.51100000000E-03 0. -1.
        -11    1    3    3    0    0  0.39186953864E+00  0.54857572133E+01  0.44435862822E+01  0.70705412273E+01  0.51100000000E-03 0.  1.
        -12    1    3    3    0    0 -0.27439309796E+01  0.87831786824E+01 -0.40050596068E+01  0.10035630894E+02  0.00000000000E+00 0.  1.
</event>
<event>
 7    1  0.1714203E-010  0.4778727E+02  0.7816164E-02  0.1312668E+00
        -11   -1    0    0    0    0  0.00000000000E+00  0.00000000000E+00  0.45593999997E+02  0.45594000000E+02  0.51100000000E-03 0. -1.
         11   -1    0    0    0    0 -0.00000000000E+00 -0.00000000000E+00 -0.45593999997E+02  0.45594000000E+02  0.51100000000E-03 0.  1.
    9900012    2    1    2    0    0  0.35177015423E+01 -0.39840267273E+02 -0.16852364248E+02  0.47787270729E+02  0.19999998561E+02 0.  0.
        -12    1    1    2    0    0 -0.35177015423E+01  0.39840267273E+02  0.16852364248E+02  0.43400729271E+02  0.00000000000E+00 0.  1.
         11    1    3    3    0    0  0.98292844164E+00 -0.24407633980E+02 -0.80775516014E+01  0.25728303188E+02  0.51100000000E-03 0. -1.
        -11    1    3    3    0    0 -0.50588727933E+01 -0.65556951474E+01 -0.54502140163E+01  0.99133327337E+01  0.51100000000E-03 0.  1.
         12    1    3    3    0    0  0.75936458940E+01 -0.88769381461E+01 -0.33245986303E+01  0.12145634807E+02  0.00000000000E+00 0. -1.
</event>
<event>
 7    1  0.1715403E-010  0.4778727E+02  0.7816164E-02  0.1312668E+00
        -11   -1    0    0    0    0  0.00000000000E+00  0.00000000000E+00  0.45593999997E+02  0.45594000000E+02  0.51100000000E-03 0. -1.
         11   -1    0    0    0    0 -0.00000000000E+00 -0.00000000000E+00 -0.45593999997E+02  0.45594000000E+02  0.51100000000E-03 0.  1.
    9900012    2    1    2    0    0  0.15904722541E+02  0.30764394084E+02  0.26157502386E+02  0.47787273352E+02  0.20000010523E+02 0.  0.
        -12    1    1    2    0    0 -0.15904722541E+02 -0.30764394084E+02 -0.26157502386E+02  0.43400726648E+02  0.00000000000E+00 0.  1.
         11    1    3    3    0    0  0.45929460186E+01  0.53708552815E+01  0.89461588426E+01  0.11400657783E+02  0.51100000000E-03 0. -1.
        -11    1    3    3    0    0  0.20983893440E+01  0.42195347418E+01 -0.30937426692E+01  0.56372826114E+01  0.51100000000E-03 0.  1.
        -12    1    3    3    0    0  0.92133871782E+01  0.21174004061E+02  0.20305086213E+02  0.30749332958E+02  0.00000000000E+00 0.  1.
</event>
<event>
 7    1  0.1714203E-010  0.4778727E+02  0.7816164E-02  0.1312668E+00
        -11   -1    0    0    0    0  0.00000000000E+00  0.00000000000E+00  0.45593999997E+02  0.45594000000E+02  0.51100000000E-03 0.  1.
         11   -1    0    0    0    0 -0.00000000000E+00 -0.00000000000E+00 -0.45593999997E+02  0.45594000000E+02  0.51100000000E-03 0. -1.
    9900012    2    1    2    0    0  0.16094955670E+02 -0.27816757352E+02 -0.29168539710E+02  0.47787270785E+02  0.19999998815E+02 0.  0.
        -12    1    1    2    0    0 -0.16094955670E+02  0.27816757352E+02  0.29168539710E+02  0.43400729215E+02  0.00000000000E+00 0.  1.
         11    1    3    3    0    0  0.82157232765E+00 -0.96268747276E+01 -0.12044864991E+01  0.97366568235E+01  0.51100000000E-03 0. -1.
        -11    1    3    3    0    0  0.35156200802E+01  0.34979457550E+00 -0.62075597692E+01  0.71425303179E+01  0.51100000000E-03 0.  1.
         12    1    3    3    0    0  0.11757763262E+02 -0.18539677200E+02 -0.21756493442E+02  0.30908083643E+02  0.00000000000E+00 0. -1.
</event>
<event>
 7    1  0.1714203E-010  0.4778727E+02  0.7816164E-02  0.1312668E+00
        -11   -1    0    0    0    0  0.00000000000E+00  0.00000000000E+00  0.45593999997E+02  0.45594000000E+02  0.51100000000E-03 0.  1.
         11   -1    0    0    0    0 -0.00000000000E+00 -0.00000000000E+00 -0.45593999997E+02  0.45594000000E+02  0.51100000000E-03 0. -1.
    9900012    2    1    2    0    0  0.89947875344E+01  0.26742250592E+02 -0.32978312684E+02  0.47787271008E+02  0.19999999834E+02 0.  0.
        -12    1    1    2    0    0 -0.89947875344E+01 -0.26742250592E+02  0.32978312684E+02  0.43400728992E+02  0.00000000000E+00 0.  1.
         11    1    3    3    0    0 -0.72146574821E+00  0.13166003471E+02 -0.15128801775E+02  0.20068502775E+02  0.51100000000E-03 0. -1.
        -11    1    3    3    0    0  0.11722011294E+02  0.13792776501E+02 -0.18202676791E+02  0.25670677338E+02  0.51100000000E-03 0.  1.
        -12    1    3    3    0    0 -0.20057580119E+01 -0.21652937960E+00  0.35316588111E+00  0.20480908950E+01  0.00000000000E+00 0.  1.
</event>
<event>
 7    1  0.1714203E-010  0.4778728E+02  0.7816164E-02  0.1312668E+00
        -11   -1    0    0    0    0  0.00000000000E+00  0.00000000000E+00  0.45593999997E+02  0.45594000000E+02  0.51100000000E-03 0.  1.
         11   -1    0    0    0    0 -0.00000000000E+00 -0.00000000000E+00 -0.45593999997E+02  0.45594000000E+02  0.51100000000E-03 0. -1.
    9900012    2    1    2    0    0 -0.24597830038E+02  0.29250866595E+02 -0.20565885994E+02  0.47787284501E+02  0.20000061354E+02 0.  0.
        -12    1    1    2    0    0  0.24597830038E+02 -0.29250866595E+02  0.20565885994E+02  0.43400715499E+02  0.00000000000E+00 0.  1.
         11    1    3    3    0    0 -0.11986919796E+02  0.10290216821E+02 -0.97944899065E+01  0.18587814320E+02  0.51100000000E-03 0. -1.
        -11    1    3    3    0    0 -0.32018031562E+01 -0.19809235156E+01  0.16667409901E+00  0.37687374467E+01  0.51100000000E-03 0.  1.
        -12    1    3    3    0    0 -0.94091070855E+01  0.20941573289E+02 -0.10938070186E+02  0.25430732734E+02  0.00000000000E+00 0.  1.
</event>
<event>
 7    1  0.1714203E-010  0.4778727E+02  0.7816164E-02  0.1312668E+00
        -11   -1    0    0    0    0  0.00000000000E+00  0.00000000000E+00  0.45593999997E+02  0.45594000000E+02  0.51100000000E-03 0.  1.
         11   -1    0    0    0    0 -0.00000000000E+00 -0.00000000000E+00 -0.45593999997E+02  0.45594000000E+02  0.51100000000E-03 0. -1.
    9900012    2    1    2    0    0  0.45371130742E+00 -0.39012983650E+02 -0.19010644646E+02  0.47787270085E+02  0.19999995627E+02 0.  0.
        -12    1    1    2    0    0 -0.45371130742E+00  0.39012983650E+02  0.19010644646E+02  0.43400729915E+02  0.00000000000E+00 0.  1.
         11    1    3    3    0    0 -0.67286090448E+01 -0.16295250881E+02 -0.73423329316E+01  0.19097623782E+02  0.51100000000E-03 0. -1.
        -11    1    3    3    0    0  0.52776483765E+01 -0.22380424723E+02 -0.76558621732E+01  0.24235288508E+02  0.51100000000E-03 0.  1.
        -12    1    3    3    0    0  0.19046719758E+01 -0.33730804605E+00 -0.40124495414E+01  0.44543577961E+01  0.00000000000E+00 0.  1.
</event>
<event>
 7    1  0.1714203E-010  0.4778727E+02  0.7816164E-02  0.1312668E+00
        -11   -1    0    0    0    0  0.00000000000E+00  0.00000000000E+00  0.45593999997E+02  0.45594000000E+02  0.51100000000E-03 0. -1.
         11   -1    0    0    0    0 -0.00000000000E+00 -0.00000000000E+00 -0.45593999997E+02  0.45594000000E+02  0.51100000000E-03 0.  1.
    9900012    2    1    2    0    0  0.12896985140E+01 -0.89044464808E+00  0.43372422688E+02  0.47787271161E+02  0.20000000533E+02 0.  0.
        -12    1    1    2    0    0 -0.12896985140E+01  0.89044464808E+00 -0.43372422688E+02  0.43400728839E+02  0.00000000000E+00 0.  1.
         11    1    3    3    0    0 -0.40432025896E+01 -0.41282951405E+00  0.18344905423E+02  0.18789717151E+02  0.51100000000E-03 0. -1.
        -11    1    3    3    0    0  0.70675293806E+01 -0.40875663555E+01  0.77329580560E+01  0.11245301722E+02  0.51100000000E-03 0.  1.
         12    1    3    3    0    0 -0.17346282771E+01  0.36099512215E+01  0.17294559209E+02  0.17752252288E+02  0.00000000000E+00 0. -1.
</event>
<event>
 7    1  0.1714203E-010  0.4778727E+02  0.7816164E-02  0.1312668E+00
        -11   -1    0    0    0    0  0.00000000000E+00  0.00000000000E+00  0.45593999997E+02  0.45594000000E+02  0.51100000000E-03 0. -1.
         11   -1    0    0    0    0 -0.00000000000E+00 -0.00000000000E+00 -0.45593999997E+02  0.45594000000E+02  0.51100000000E-03 0.  1.
    9900012    2    1    2    0    0 -0.36309241649E+02 -0.23426152168E+02 -0.40592557504E+01  0.47787271990E+02  0.20000004312E+02 0.  0.
        -12    1    1    2    0    0  0.36309241649E+02  0.23426152168E+02  0.40592557504E+01  0.43400728010E+02  0.00000000000E+00 0.  1.
         11    1    3    3    0    0 -0.26591363801E+02 -0.13933965130E+02  0.51394594847E+01  0.30457676489E+02  0.51100000000E-03 0.  1.
        -11    1    3    3    0    0 -0.47464209334E+01 -0.15231258364E+01 -0.49352392233E+01  0.70146283182E+01  0.51100000000E-03 0. -1.
        -12    1    3    3    0    0 -0.49714569147E+01 -0.79690612015E+01 -0.42634760119E+01  0.10314967183E+02  0.00000000000E+00 0.  1.
</event>
<event>
 7    1  0.1714203E-010  0.4778727E+02  0.7816164E-02  0.1312668E+00
        -11   -1    0    0    0    0  0.00000000000E+00  0.00000000000E+00  0.45593999997E+02  0.45594000000E+02  0.51100000000E-03 0.  1.
         11   -1    0    0    0    0 -0.00000000000E+00 -0.00000000000E+00 -0.45593999997E+02  0.45594000000E+02  0.51100000000E-03 0. -1.
    9900012    2    1    2    0    0  0.15072412932E+02 -0.66680557321E+01 -0.40149504651E+02  0.47787270484E+02  0.19999997445E+02 0.  0.
        -12    1    1    2    0    0 -0.15072412932E+02  0.66680557321E+01  0.40149504651E+02  0.43400729516E+02  0.00000000000E+00 0.  1.
         11    1    3    3    0    0  0.10765114542E+02  0.19429729020E+00 -0.23045247835E+02  0.25436369446E+02  0.51100000000E-03 0. -1.
        -11    1    3    3    0    0 -0.33308263457E+00  0.19101202895E+01  0.62147148093E+00  0.20361067321E+01  0.51100000000E-03 0.  1.
         12    1    3    3    0    0  0.46403810242E+01 -0.87724733118E+01 -0.17725728297E+02  0.20314794306E+02  0.00000000000E+00 0. -1.
</event>
<event>
 7    1  0.1714203E-010  0.4778728E+02  0.7816164E-02  0.1312668E+00
        -11   -1    0    0    0    0  0.00000000000E+00  0.00000000000E+00  0.45593999997E+02  0.45594000000E+02  0.51100000000E-03 0.  1.
         11   -1    0    0    0    0 -0.00000000000E+00 -0.00000000000E+00 -0.45593999997E+02  0.45594000000E+02  0.51100000000E-03 0. -1.
    9900012    2    1    2    0    0 -0.39392430506E+02  0.45798225450E+01 -0.17631916696E+02  0.47787276019E+02  0.20000022679E+02 0.  0.
        -12    1    1    2    0    0  0.39392430506E+02 -0.45798225450E+01  0.17631916696E+02  0.43400723981E+02  0.00000000000E+00 0.  1.
         11    1    3    3    0    0 -0.22347119290E+02  0.92797574257E+01 -0.10665457710E+02  0.26443517672E+02  0.51100000000E-03 0. -1.
        -11    1    3    3    0    0  0.81758571096E+00  0.32866954108E+00  0.83444857767E+00  0.12135793142E+01  0.51100000000E-03 0.  1.
         12    1    3    3    0    0 -0.17862896927E+02 -0.50286044218E+01 -0.78009075637E+01  0.20130179032E+02  0.00000000000E+00 0. -1.
</event>
<event>
 7    1  0.1714203E-010  0.4778727E+02  0.7816164E-02  0.1312668E+00
        -11   -1    0    0    0    0  0.00000000000E+00  0.00000000000E+00  0.45593999997E+02  0.45594000000E+02  0.51100000000E-03 0. -1.
         11   -1    0    0    0    0 -0.00000000000E+00 -0.00000000000E+00 -0.45593999997E+02  0.45594000000E+02  0.51100000000E-03 0.  1.
    9900012    2    1    2    0    0 -0.72776882947E+01 -0.40541111859E+02  0.13677607701E+02  0.47787269014E+02  0.19999990743E+02 0.  0.
        -12    1    1    2    0    0  0.72776882947E+01  0.40541111859E+02 -0.13677607701E+02  0.43400730986E+02  0.00000000000E+00 0.  1.
         11    1    3    3    0    0 -0.68928060685E+01 -0.32265070224E+02  0.74352521467E+01  0.33820533804E+02  0.51100000000E-03 0. -1.
        -11    1    3    3    0    0 -0.45110307197E+01 -0.19118804795E+01  0.27230437016E+01  0.56053235753E+01  0.51100000000E-03 0.  1.
         12    1    3    3    0    0  0.41261484935E+01 -0.63641611557E+01  0.35193118532E+01  0.83614116347E+01  0.00000000000E+00 0. -1.
</event>
<event>
 7    1  0.1714203E-010  0.4778727E+02  0.7816164E-02  0.1312668E+00
        -11   -1    0    0    0    0  0.00000000000E+00  0.00000000000E+00  0.45593999997E+02  0.45594000000E+02  0.51100000000E-03 0.  1.
         11   -1    0    0    0    0 -0.00000000000E+00 -0.00000000000E+00 -0.45593999997E+02  0.45594000000E+02  0.51100000000E-03 0. -1.
    9900012    2    1    2    0    0  0.20197445382E+02 -0.85618156909E+01 -0.37448391013E+02  0.47787268700E+02  0.19999989310E+02 0.  0.
        -12    1    1    2    0    0 -0.20197445382E+02  0.85618156909E+01  0.37448391013E+02  0.43400731300E+02  0.00000000000E+00 0.  1.
         11    1    3    3    0    0  0.45776301260E+01 -0.29827784129E+01 -0.11846181947E+02  0.13045447160E+02  0.51100000000E-03 0. -1.
        -11    1    3    3    0    0  0.18110985850E+02 -0.93710380805E+00 -0.20997289478E+02  0.27744767754E+02  0.51100000000E-03 0.  1.
        -12    1    3    3    0    0 -0.24911705939E+01 -0.46419334699E+01 -0.46049195880E+01  0.69970537856E+01  0.00000000000E+00 0.  1.
</event>
<event>
 7    1  0.1714203E-010  0.4778727E+02  0.7816164E-02  0.1312668E+00
        -11   -1    0    0    0    0  0.00000000000E+00  0.00000000000E+00  0.45593999997E+02  0.45594000000E+02  0.51100000000E-03 0. -1.
         11   -1    0    0    0    0 -0.00000000000E+00 -0.00000000000E+00 -0.45593999997E+02  0.45594000000E+02  0.51100000000E-03 0.  1.
    9900012    2    1    2    0    0 -0.89245448222E+01  0.17964118028E+02  0.38487220613E+02  0.47787272042E+02  0.20000004548E+02 0.  0.
        -12    1    1    2    0    0  0.89245448222E+01 -0.17964118028E+02 -0.38487220613E+02  0.43400727958E+02  0.00000000000E+00 0.  1.
         11    1    3    3    0    0 -0.13726380504E+02  0.12417396200E+02  0.30633826667E+02  0.35791571447E+02  0.51100000000E-03 0. -1.
        -11    1    3    3    0    0  0.25323351349E+01  0.61733419301E+01  0.62869131500E+01  0.91677777589E+01  0.51100000000E-03 0.  1.
        -12    1    3    3    0    0  0.22695005465E+01 -0.62662010231E+00  0.15664807961E+01  0.28279228362E+01  0.00000000000E+00 0.  1.
</event>
<event>
 7    1  0.1714203E-010  0.4778728E+02  0.7816164E-02  0.1312668E+00
        -11   -1    0    0    0    0  0.00000000000E+00  0.00000000000E+00  0.45593999997E+02  0.45594000000E+02  0.51100000000E-03 0.  1.
         11   -1    0    0    0    0 -0.00000000000E+00 -0.00000000000E+00 -0.45593999997E+02  0.45594000000E+02  0.51100000000E-03 0. -1.
    9900012    2    1    2    0    0 -0.37958043192E+02  0.18411067896E+02 -0.10190311466E+02  0.47787275215E+02  0.20000019017E+02 0.  0.
        -12    1    1    2    0    0  0.37958043192E+02 -0.18411067896E+02  0.10190311466E+02  0.43400724785E+02  0.00000000000E+00 0.  1.
         11    1    3    3    0    0 -0.11592602696E+02  0.91443137049E+01 -0.68568434240E+01  0.16279533544E+02  0.51100000000E-03 0. -1.
        -11    1    3    3    0    0 -0.72009978906E+01  0.95073785062E+01  0.60237520609E+00  0.11941837079E+02  0.51100000000E-03 0.  1.
         12    1    3    3    0    0 -0.19164442605E+02 -0.24062431531E+00 -0.39358432482E+01  0.19565904592E+02  0.00000000000E+00 0. -1.
</event>
<event>
 7    1  0.1714203E-010  0.4778727E+02  0.7816164E-02  0.1312668E+00
        -11   -1    0    0    0    0  0.00000000000E+00  0.00000000000E+00  0.45593999997E+02  0.45594000000E+02  0.51100000000E-03 0.  1.
         11   -1    0    0    0    0 -0.00000000000E+00 -0.00000000000E+00 -0.45593999997E+02  0.45594000000E+02  0.51100000000E-03 0. -1.
    9900012    2    1    2    0    0 -0.33812615246E+02 -0.57346407523E+01 -0.26597823469E+02  0.47787271117E+02  0.20000000329E+02 0.  0.
        -12    1    1    2    0    0  0.33812615246E+02  0.57346407523E+01  0.26597823469E+02  0.43400728883E+02  0.00000000000E+00 0.  1.
         11    1    3    3    0    0 -0.14036003642E+02 -0.47453858404E+01 -0.18232380637E+02  0.23493569098E+02  0.51100000000E-03 0. -1.
        -11    1    3    3    0    0 -0.12293083460E+02  0.41897555488E+01 -0.78559685232E+01  0.15178609759E+02  0.51100000000E-03 0.  1.
        -12    1    3    3    0    0 -0.74835281429E+01 -0.51790104606E+01 -0.50947430882E+00  0.91150922589E+01  0.00000000000E+00 0.  1.
</event>
<event>
 7    1  0.1714203E-010  0.4778727E+02  0.7816164E-02  0.1312668E+00
        -11   -1    0    0    0    0  0.00000000000E+00  0.00000000000E+00  0.45593999997E+02  0.45594000000E+02  0.51100000000E-03 0.  1.
         11   -1    0    0    0    0 -0.00000000000E+00 -0.00000000000E+00 -0.45593999997E+02  0.45594000000E+02  0.51100000000E-03 0. -1.
    9900012    2    1    2    0    0  0.28313922449E+02  0.32465276611E+02 -0.52868711048E+01  0.47787269638E+02  0.19999993588E+02 0.  0.
        -12    1    1    2    0    0 -0.28313922449E+02 -0.32465276611E+02  0.52868711048E+01  0.43400730362E+02  0.00000000000E+00 0.  1.
         11    1    3    3    0    0  0.10748825590E+02  0.14379943583E+02  0.60370403642E+00  0.17963420828E+02  0.51100000000E-03 0. -1.
        -11    1    3    3    0    0 -0.26915391304E+01  0.21323714882E+01 -0.35588006226E+00  0.34522517194E+01  0.51100000000E-03 0.  1.
        -12    1    3    3    0    0  0.20256635990E+02  0.15952961539E+02 -0.55346950790E+01  0.26371597091E+02  0.00000000000E+00 0.  1.
</event>
<event>
 7    1  0.1714203E-010  0.4778728E+02  0.7816164E-02  0.1312668E+00
        -11   -1    0    0    0    0  0.00000000000E+00  0.00000000000E+00  0.45593999997E+02  0.45594000000E+02  0.51100000000E-03 0.  1.
         11   -1    0    0    0    0 -0.00000000000E+00 -0.00000000000E+00 -0.45593999997E+02  0.45594000000E+02  0.51100000000E-03 0. -1.
    9900012    2    1    2    0    0 -0.32679500431E+02 -0.13674252731E+02 -0.25073651307E+02  0.47787275051E+02  0.20000018270E+02 0.  0.
        -12    1    1    2    0    0  0.32679500431E+02  0.13674252731E+02  0.25073651307E+02  0.43400724949E+02  0.00000000000E+00 0.  1.
         11    1    3    3    0    0 -0.76596294889E+01 -0.54743069087E+01 -0.14513725363E+01  0.95259877461E+01  0.51100000000E-03 0. -1.
        -11    1    3    3    0    0 -0.30746851572E+01  0.34296625665E+01 -0.69868673843E+01  0.83685476782E+01  0.51100000000E-03 0.  1.
         12    1    3    3    0    0 -0.21945185785E+02 -0.11629608389E+02 -0.16635411387E+02  0.29892739627E+02  0.00000000000E+00 0. -1.
</event>
<event>
 7    1  0.1714203E-010  0.4778727E+02  0.7816164E-02  0.1312668E+00
        -11   -1    0    0    0    0  0.00000000000E+00  0.00000000000E+00  0.45593999997E+02  0.45594000000E+02  0.51100000000E-03 0.  1.
         11   -1    0    0    0    0 -0.00000000000E+00 -0.00000000000E+00 -0.45593999997E+02  0.45594000000E+02  0.51100000000E-03 0. -1.
    9900012    2    1    2    0    0  0.12820485947E+01 -0.28658668982E+02 -0.32567778950E+02  0.47787272101E+02  0.20000004818E+02 0.  0.
        -12    1    1    2    0    0 -0.12820485947E+01  0.28658668982E+02  0.32567778950E+02  0.43400727899E+02  0.00000000000E+00 0.  1.
         11    1    3    3    0    0  0.14594443552E+01 -0.19538097884E+02 -0.15618123826E+02  0.25055798508E+02  0.51100000000E-03 0. -1.
        -11    1    3    3    0    0 -0.49462882762E+00 -0.16676719910E+01  0.18298098263E+01  0.25246765750E+01  0.51100000000E-03 0.  1.
        -12    1    3    3    0    0  0.31723306717E+00 -0.74528991068E+01 -0.18779464950E+02  0.20206797018E+02  0.00000000000E+00 0.  1.
</event>
<event>
 7    1  0.1965176E-010  0.4778726E+02  0.7816164E-02  0.1312668E+00
        -11   -1    0    0    0    0  0.00000000000E+00  0.00000000000E+00  0.45593999997E+02  0.45594000000E+02  0.51100000000E-03 0.  1.
         11   -1    0    0    0    0 -0.00000000000E+00 -0.00000000000E+00 -0.45593999997E+02  0.45594000000E+02  0.51100000000E-03 0. -1.
    9900012    2    1    2    0    0  0.17623927584E+02 -0.34658955479E+02 -0.19281557975E+02  0.47787256961E+02  0.19999935786E+02 0.  0.
        -12    1    1    2    0    0 -0.17623927584E+02  0.34658955479E+02  0.19281557975E+02  0.43400743039E+02  0.00000000000E+00 0.  1.
         11    1    3    3    0    0  0.13231455830E+02 -0.14731496150E+02 -0.87918672503E+01  0.21665302495E+02  0.51100000000E-03 0. -1.
        -11    1    3    3    0    0  0.33968326653E+01 -0.19391974263E+02 -0.12846615463E+02  0.23507927749E+02  0.51100000000E-03 0.  1.
        -12    1    3    3    0    0  0.99563908871E+00 -0.53548506722E+00  0.23569247379E+01  0.26140267161E+01  0.00000000000E+00 0.  1.
</event>
<event>
 7    1  0.1714203E-010  0.4778727E+02  0.7816164E-02  0.1312668E+00
        -11   -1    0    0    0    0  0.00000000000E+00  0.00000000000E+00  0.45593999997E+02  0.45594000000E+02  0.51100000000E-03 0.  1.
         11   -1    0    0    0    0 -0.00000000000E+00 -0.00000000000E+00 -0.45593999997E+02  0.45594000000E+02  0.51100000000E-03 0. -1.
    9900012    2    1    2    0    0 -0.23959916279E+02 -0.27104270457E+02 -0.23977157371E+02  0.47787272579E+02  0.20000006995E+02 0.  0.
        -12    1    1    2    0    0  0.23959916279E+02  0.27104270457E+02  0.23977157371E+02  0.43400727421E+02  0.00000000000E+00 0.  1.
         11    1    3    3    0    0 -0.10709168291E+02 -0.16559861001E+02 -0.17911388361E+02  0.26640816714E+02  0.51100000000E-03 0. -1.
        -11    1    3    3    0    0 -0.13506607706E+02 -0.12337980410E+02 -0.47289076028E+01  0.18894887660E+02  0.51100000000E-03 0.  1.
        -12    1    3    3    0    0  0.25585971802E+00  0.17935709537E+01 -0.13368614063E+01  0.22515682048E+01  0.00000000000E+00 0.  1.
</event>
<event>
 7    1  0.1714203E-010  0.4778729E+02  0.7816164E-02  0.1312668E+00
        -11   -1    0    0    0    0  0.00000000000E+00  0.00000000000E+00  0.45593999997E+02  0.45594000000E+02  0.51100000000E-03 0. -1.
         11   -1    0    0    0    0 -0.00000000000E+00 -0.00000000000E+00 -0.45593999997E+02  0.45594000000E+02  0.51100000000E-03 0.  1.
    9900012    2    1    2    0    0  0.29758645298E+02  0.30964078753E+02 -0.62666472356E+01  0.47787285599E+02  0.20000066358E+02 0.  0.
        -12    1    1    2    0    0 -0.29758645298E+02 -0.30964078753E+02  0.62666472356E+01  0.43400714401E+02  0.00000000000E+00 0.  1.
         11    1    3    3    0    0  0.20147966824E+01  0.75489042011E+01  0.25692001209E+01  0.82247279488E+01  0.51100000000E-03 0. -1.
        -11    1    3    3    0    0  0.68262781024E+01  0.33081721251E+01 -0.72684620715E+01  0.10505837267E+02  0.51100000000E-03 0.  1.
         12    1    3    3    0    0  0.20917570513E+02  0.20107002426E+02 -0.15673852850E+01  0.29056720382E+02  0.00000000000E+00 0. -1.
</event>
<event>
 7    1  0.1714203E-010  0.4778727E+02  0.7816164E-02  0.1312668E+00
        -11   -1    0    0    0    0  0.00000000000E+00  0.00000000000E+00  0.45593999997E+02  0.45594000000E+02  0.51100000000E-03 0.  1.
         11   -1    0    0    0    0 -0.00000000000E+00 -0.00000000000E+00 -0.45593999997E+02  0.45594000000E+02  0.51100000000E-03 0. -1.
    9900012    2    1    2    0    0  0.90549581603E+01  0.41469267078E+02 -0.90515624633E+01  0.47787272330E+02  0.20000005863E+02 0.  0.
        -12    1    1    2    0    0 -0.90549581603E+01 -0.41469267078E+02  0.90515624633E+01  0.43400727670E+02  0.00000000000E+00 0.  1.
         11    1    3    3    0    0  0.66475735451E+01  0.13989751944E+02 -0.67562616839E+01  0.16898238538E+02  0.51100000000E-03 0. -1.
        -11    1    3    3    0    0  0.31687300727E+01  0.13943324858E+02  0.54179399460E+01  0.15290887217E+02  0.51100000000E-03 0.  1.
         12    1    3    3    0    0 -0.76134545752E+00  0.13536190276E+02 -0.77132407254E+01  0.15598146575E+02  0.00000000000E+00 0. -1.
</event>
<event>
 7    1  0.1714203E-010  0.4778728E+02  0.7816164E-02  0.1312668E+00
        -11   -1    0    0    0    0  0.00000000000E+00  0.00000000000E+00  0.45593999997E+02  0.45594000000E+02  0.51100000000E-03 0. -1.
         11   -1    0    0    0    0 -0.00000000000E+00 -0.00000000000E+00 -0.45593999997E+02  0.45594000000E+02  0.51100000000E-03 0.  1.
    9900012    2    1    2    0    0  0.32858501183E+01 -0.15851151643E+02  0.40268682669E+02  0.47787278539E+02  0.20000034171E+02 0.  0.
        -12    1    1    2    0    0 -0.32858501183E+01  0.15851151643E+02 -0.40268682669E+02  0.43400721461E+02  0.00000000000E+00 0.  1.
         11    1    3    3    0    0 -0.11930938916E+01 -0.46253353517E+01  0.34329378586E+01  0.58823688045E+01  0.51100000000E-03 0. -1.
        -11    1    3    3    0    0 -0.34887541231E+01 -0.10485962421E+02  0.14868639885E+02  0.18525746018E+02  0.51100000000E-03 0.  1.
         12    1    3    3    0    0  0.79676981330E+01 -0.73985387038E+00  0.21967104926E+02  0.23379163717E+02  0.00000000000E+00 0. -1.
</event>
<event>
 7    1  0.1714203E-010  0.4778728E+02  0.7816164E-02  0.1312668E+00
        -11   -1    0    0    0    0  0.00000000000E+00  0.00000000000E+00  0.45593999997E+02  0.45594000000E+02  0.51100000000E-03 0.  1.
         11   -1    0    0    0    0 -0.00000000000E+00 -0.00000000000E+00 -0.45593999997E+02  0.45594000000E+02  0.51100000000E-03 0. -1.
    9900012    2    1    2    0    0 -0.95195656338E+01 -0.14247786104E+02 -0.39874814445E+02  0.47787281507E+02  0.20000047701E+02 0.  0.
        -12    1    1    2    0    0  0.95195656338E+01  0.14247786104E+02  0.39874814445E+02  0.43400718493E+02  0.00000000000E+00 0.  1.
         11    1    3    3    0    0 -0.22368272860E+01 -0.58182154274E+01 -0.24271718604E+02  0.25059356562E+02  0.51100000000E-03 0. -1.
        -11    1    3    3    0    0 -0.10017924934E+02 -0.45933495594E+01 -0.13852666111E+02  0.17701808913E+02  0.51100000000E-03 0.  1.
        -12    1    3    3    0    0  0.27351865862E+01 -0.38362211168E+01 -0.17504297305E+01  0.50261160313E+01  0.00000000000E+00 0.  1.
</event>
<event>
 7    1  0.1714203E-010  0.4778727E+02  0.7816164E-02  0.1312668E+00
        -11   -1    0    0    0    0  0.00000000000E+00  0.00000000000E+00  0.45593999997E+02  0.45594000000E+02  0.51100000000E-03 0. -1.
         11   -1    0    0    0    0 -0.00000000000E+00 -0.00000000000E+00 -0.45593999997E+02  0.45594000000E+02  0.51100000000E-03 0.  1.
    9900012    2    1    2    0    0  0.13002933060E+02 -0.29150791874E+02  0.29407121096E+02  0.47787266064E+02  0.19999977292E+02 0.  0.
        -12    1    1    2    0    0 -0.13002933060E+02  0.29150791874E+02 -0.29407121096E+02  0.43400733936E+02  0.00000000000E+00 0.  1.
         11    1    3    3    0    0  0.24139137354E+01 -0.14672889268E+02  0.99243158484E+01  0.17877715299E+02  0.51100000000E-03 0. -1.
        -11    1    3    3    0    0 -0.31887204926E+01 -0.26893034296E+01  0.16762456678E+01  0.44955634926E+01  0.51100000000E-03 0.  1.
         12    1    3    3    0    0  0.13777739817E+02 -0.11788599176E+02  0.17806559579E+02  0.25413987272E+02  0.00000000000E+00 0. -1.
</event>
<event>
 7    1  0.1714203E-010  0.4778727E+02  0.7816164E-02  0.1312668E+00
        -11   -1    0    0    0    0  0.00000000000E+00  0.00000000000E+00  0.45593999997E+02  0.45594000000E+02  0.51100000000E-03 0.  1.
         11   -1    0    0    0    0 -0.00000000000E+00 -0.00000000000E+00 -0.45593999997E+02  0.45594000000E+02  0.51100000000E-03 0. -1.
    9900012    2    1    2    0    0  0.30733789036E+02  0.23207770048E+02 -0.20011420558E+02  0.47787270376E+02  0.19999996954E+02 0.  0.
        -12    1    1    2    0    0 -0.30733789036E+02 -0.23207770048E+02  0.20011420558E+02  0.43400729624E+02  0.00000000000E+00 0.  1.
         11    1    3    3    0    0  0.19672784657E+02  0.15072520783E+02 -0.14273650623E+02  0.28599588132E+02  0.51100000000E-03 0. -1.
        -11    1    3    3    0    0  0.10581213283E+01  0.82081929251E+01 -0.20482312333E+01  0.85258022079E+01  0.51100000000E-03 0.  1.
         12    1    3    3    0    0  0.10002883050E+02 -0.72943659778E-01 -0.36895387016E+01  0.10661880037E+02  0.00000000000E+00 0. -1.
</event>
<event>
 7    1  0.1714203E-010  0.4778729E+02  0.7816164E-02  0.1312668E+00
        -11   -1    0    0    0    0  0.00000000000E+00  0.00000000000E+00  0.45593999997E+02  0.45594000000E+02  0.51100000000E-03 0.  1.
         11   -1    0    0    0    0 -0.00000000000E+00 -0.00000000000E+00 -0.45593999997E+02  0.45594000000E+02  0.51100000000E-03 0. -1.
    9900012    2    1    2    0    0 -0.35205929006E+02 -0.16946599494E+02 -0.18893844643E+02  0.47787285294E+02  0.20000064970E+02 0.  0.
        -12    1    1    2    0    0  0.35205929006E+02  0.16946599494E+02  0.18893844643E+02  0.43400714706E+02  0.00000000000E+00 0.  1.
         11    1    3    3    0    0 -0.15189585343E+02 -0.73723170616E+01 -0.49632898544E+01  0.17598545627E+02  0.51100000000E-03 0. -1.
        -11    1    3    3    0    0  0.22468408045E+01 -0.11660837578E+01  0.15232000425E+00  0.25359902555E+01  0.51100000000E-03 0.  1.
        -12    1    3    3    0    0 -0.22263184467E+02 -0.84081986746E+01 -0.14082874793E+02  0.27652749411E+02  0.00000000000E+00 0.  1.
</event>
<event>
 7    1  0.1714203E-010  0.4778727E+02  0.7816164E-02  0.1312668E+00
        -11   -1    0    0    0    0  0.00000000000E+00  0.00000000000E+00  0.45593999997E+02  0.45594000000E+02  0.51100000000E-03 0.  1.
         11   -1    0    0    0    0 -0.00000000000E+00 -0.00000000000E+00 -0.45593999997E+02  0.45594000000E+02  0.51100000000E-03 0. -1.
    9900012    2    1    2    0    0  0.25366764603E+01  0.28345060359E+02 -0.32768065949E+02  0.47787270511E+02  0.19999997566E+02 0.  0.
        -12    1    1    2    0    0 -0.25366764603E+01 -0.28345060359E+02  0.32768065949E+02  0.43400729489E+02  0.00000000000E+00 0.  1.
         11    1    3    3    0    0 -0.24080775358E+00  0.26547980318E+02 -0.26695517769E+02  0.37649753207E+02  0.51100000000E-03 0. -1.
        -11    1    3    3    0    0 -0.24567719899E+01  0.56047330335E+00 -0.90085186631E+00  0.26760779660E+01  0.51100000000E-03 0.  1.
         12    1    3    3    0    0  0.52342562038E+01  0.12366067375E+01 -0.51716963134E+01  0.74614393375E+01  0.00000000000E+00 0. -1.
</event>
<event>
 7    1  0.1714203E-010  0.4778727E+02  0.7816164E-02  0.1312668E+00
        -11   -1    0    0    0    0  0.00000000000E+00  0.00000000000E+00  0.45593999997E+02  0.45594000000E+02  0.51100000000E-03 0.  1.
         11   -1    0    0    0    0 -0.00000000000E+00 -0.00000000000E+00 -0.45593999997E+02  0.45594000000E+02  0.51100000000E-03 0. -1.
    9900012    2    1    2    0    0  0.75091127718E+01  0.53709558865E+01 -0.42407417592E+02  0.47787274101E+02  0.20000013937E+02 0.  0.
        -12    1    1    2    0    0 -0.75091127718E+01 -0.53709558865E+01  0.42407417592E+02  0.43400725899E+02  0.00000000000E+00 0.  1.
         11    1    3    3    0    0  0.17366769223E+01  0.19709235295E+01 -0.18149358699E+02  0.18338478882E+02  0.51100000000E-03 0. -1.
        -11    1    3    3    0    0  0.16072069885E+01 -0.39649918930E+01 -0.59630888576E+00  0.43197059580E+01  0.51100000000E-03 0.  1.
         12    1    3    3    0    0  0.41652288610E+01  0.73650242500E+01 -0.23661750007E+02  0.25129089261E+02  0.00000000000E+00 0. -1.
</event>
<event>
 7    1  0.1714203E-010  0.4778727E+02  0.7816164E-02  0.1312668E+00
        -11   -1    0    0    0    0  0.00000000000E+00  0.00000000000E+00  0.45593999997E+02  0.45594000000E+02  0.51100000000E-03 0. -1.
         11   -1    0    0    0    0 -0.00000000000E+00 -0.00000000000E+00 -0.45593999997E+02  0.45594000000E+02  0.51100000000E-03 0.  1.
    9900012    2    1    2    0    0  0.32744285877E+02  0.26597460093E+02  0.10198534633E+02  0.47787271324E+02  0.20000001274E+02 0.  0.
        -12    1    1    2    0    0 -0.32744285877E+02 -0.26597460093E+02 -0.10198534633E+02  0.43400728676E+02  0.00000000000E+00 0.  1.
         11    1    3    3    0    0  0.37480388620E+01  0.14646993384E+01  0.78864865435E+01  0.88538019926E+01  0.51100000000E-03 0. -1.
        -11    1    3    3    0    0  0.14732978762E+02  0.95871030839E+01  0.29641355462E+01  0.17825804569E+02  0.51100000000E-03 0.  1.
        -12    1    3    3    0    0  0.14263268252E+02  0.15545657670E+02 -0.65208745624E+00  0.21107664762E+02  0.00000000000E+00 0.  1.
</event>
<event>
 7    1  0.2086638E-010  0.4778727E+02  0.7816164E-02  0.1312668E+00
        -11   -1    0    0    0    0  0.00000000000E+00  0.00000000000E+00  0.45593999997E+02  0.45594000000E+02  0.51100000000E-03 0.  1.
         11   -1    0    0    0    0 -0.00000000000E+00 -0.00000000000E+00 -0.45593999997E+02  0.45594000000E+02  0.51100000000E-03 0. -1.
    9900012    2    1    2    0    0 -0.35833160675E+02  0.45812601826E+01 -0.24054517374E+02  0.47787272415E+02  0.20000006248E+02 0.  0.
        -12    1    1    2    0    0  0.35833160675E+02 -0.45812601826E+01  0.24054517374E+02  0.43400727585E+02  0.00000000000E+00 0.  1.
         11    1    3    3    0    0 -0.19637547072E+02  0.32269006984E+01 -0.17151996208E+02  0.26272364136E+02  0.51100000000E-03 0. -1.
        -11    1    3    3    0    0  0.12803033818E+01  0.76362697231E+00 -0.33570914049E+01  0.36731955930E+01  0.51100000000E-03 0.  1.
        -12    1    3    3    0    0 -0.17475916985E+02  0.59073251193E+00 -0.35454297606E+01  0.17841712686E+02  0.00000000000E+00 0.  1.
</event>
<event>
 7    1  0.1714203E-010  0.4778727E+02  0.7816164E-02  0.1312668E+00
        -11   -1    0    0    0    0  0.00000000000E+00  0.00000000000E+00  0.45593999997E+02  0.45594000000E+02  0.51100000000E-03 0.  1.
         11   -1    0    0    0    0 -0.00000000000E+00 -0.00000000000E+00 -0.45593999997E+02  0.45594000000E+02  0.51100000000E-03 0. -1.
    9900012    2    1    2    0    0 -0.25225474035E+02 -0.12094449902E+02 -0.33181670035E+02  0.47787268612E+02  0.19999988908E+02 0.  0.
        -12    1    1    2    0    0  0.25225474035E+02  0.12094449902E+02  0.33181670035E+02  0.43400731388E+02  0.00000000000E+00 0.  1.
         11    1    3    3    0    0 -0.45596120719E+01  0.26424769513E+01 -0.47304663207E+01  0.70816706050E+01  0.51100000000E-03 0. -1.
        -11    1    3    3    0    0 -0.54607492865E+01  0.24799141012E+01 -0.76159697362E+01  0.96939544049E+01  0.51100000000E-03 0.  1.
         12    1    3    3    0    0 -0.15205112677E+02 -0.17216840954E+02 -0.20835233978E+02  0.31011643602E+02  0.00000000000E+00 0. -1.
</event>
<event>
 7    1  0.1714203E-010  0.4778727E+02  0.7816164E-02  0.1312668E+00
        -11   -1    0    0    0    0  0.00000000000E+00  0.00000000000E+00  0.45593999997E+02  0.45594000000E+02  0.51100000000E-03 0.  1.
         11   -1    0    0    0    0 -0.00000000000E+00 -0.00000000000E+00 -0.45593999997E+02  0.45594000000E+02  0.51100000000E-03 0. -1.
    9900012    2    1    2    0    0 -0.29457004597E+02  0.72666967415E+01 -0.31033904675E+02  0.47787271426E+02  0.20000001740E+02 0.  0.
        -12    1    1    2    0    0  0.29457004597E+02 -0.72666967415E+01  0.31033904675E+02  0.43400728574E+02  0.00000000000E+00 0.  1.
         11    1    3    3    0    0 -0.13416358757E+02 -0.46272394106E+01 -0.10063689735E+02  0.17397927411E+02  0.51100000000E-03 0. -1.
        -11    1    3    3    0    0 -0.66814222940E+01  0.52474240463E+01 -0.15495141227E+02  0.17671340212E+02  0.51100000000E-03 0.  1.
        -12    1    3    3    0    0 -0.93592235465E+01  0.66465121058E+01 -0.54750737125E+01  0.12718003803E+02  0.00000000000E+00 0.  1.
</event>
<event>
 7    1  0.1714203E-010  0.4778727E+02  0.7816164E-02  0.1312668E+00
        -11   -1    0    0    0    0  0.00000000000E+00  0.00000000000E+00  0.45593999997E+02  0.45594000000E+02  0.51100000000E-03 0.  1.
         11   -1    0    0    0    0 -0.00000000000E+00 -0.00000000000E+00 -0.45593999997E+02  0.45594000000E+02  0.51100000000E-03 0. -1.
    9900012    2    1    2    0    0 -0.19145016054E+02  0.96229337103E+01 -0.37742425836E+02  0.47787271885E+02  0.20000003831E+02 0.  0.
        -12    1    1    2    0    0  0.19145016054E+02 -0.96229337103E+01  0.37742425836E+02  0.43400728115E+02  0.00000000000E+00 0.  1.
         11    1    3    3    0    0 -0.69757496891E+01  0.66216044605E+01 -0.98547462332E+01  0.13770357764E+02  0.51100000000E-03 0. -1.
        -11    1    3    3    0    0 -0.10676698023E+02  0.18686242136E+01 -0.29573010481E+02  0.31496771045E+02  0.51100000000E-03 0.  1.
        -12    1    3    3    0    0 -0.14925683420E+01  0.11327050362E+01  0.16853308776E+01  0.25201430756E+01  0.00000000000E+00 0.  1.
</event>
<event>
 7    1  0.1714203E-010  0.4778728E+02  0.7816164E-02  0.1312668E+00
        -11   -1    0    0    0    0  0.00000000000E+00  0.00000000000E+00  0.45593999997E+02  0.45594000000E+02  0.51100000000E-03 0.  1.
         11   -1    0    0    0    0 -0.00000000000E+00 -0.00000000000E+00 -0.45593999997E+02  0.45594000000E+02  0.51100000000E-03 0. -1.
    9900012    2    1    2    0    0  0.10222107708E+02 -0.12462115493E+01 -0.42161336212E+02  0.47787276499E+02  0.20000024869E+02 0.  0.
        -12    1    1    2    0    0 -0.10222107708E+02  0.12462115493E+01  0.42161336212E+02  0.43400723501E+02  0.00000000000E+00 0.  1.
         11    1    3    3    0    0 -0.38195632650E+01 -0.32292996914E+01 -0.10754875216E+02  0.11861061555E+02  0.51100000000E-03 0. -1.
        -11    1    3    3    0    0  0.14433224779E+02 -0.95980387494E-01 -0.22198254602E+02  0.26478098447E+02  0.51100000000E-03 0.  1.
         12    1    3    3    0    0 -0.39155380638E+00  0.20790685296E+01 -0.92082063941E+01  0.94481164965E+01  0.00000000000E+00 0. -1.
</event>
<event>
 7    1  0.1714203E-010  0.4778727E+02  0.7816164E-02  0.1312668E+00
        -11   -1    0    0    0    0  0.00000000000E+00  0.00000000000E+00  0.45593999997E+02  0.45594000000E+02  0.51100000000E-03 0.  1.
         11   -1    0    0    0    0 -0.00000000000E+00 -0.00000000000E+00 -0.45593999997E+02  0.45594000000E+02  0.51100000000E-03 0. -1.
    9900012    2    1    2    0    0 -0.14737128984E+02  0.21364825851E+02 -0.34784835146E+02  0.47787268318E+02  0.19999987571E+02 0.  0.
        -12    1    1    2    0    0  0.14737128984E+02 -0.21364825851E+02  0.34784835146E+02  0.43400731682E+02  0.00000000000E+00 0.  1.
         11    1    3    3    0    0  0.53252663250E+00  0.22833404375E+01 -0.13570252596E+02  0.13771310175E+02  0.51100000000E-03 0. -1.
        -11    1    3    3    0    0 -0.71444754980E+01  0.16269642759E+02 -0.16297541396E+02  0.24111297382E+02  0.51100000000E-03 0.  1.
        -12    1    3    3    0    0 -0.81251801189E+01  0.28118426552E+01 -0.49170411543E+01  0.99046607613E+01  0.00000000000E+00 0.  1.
</event>
<event>
 7    1  0.2248257E-010  0.4778727E+02  0.7816164E-02  0.1312668E+00
        -11   -1    0    0    0    0  0.00000000000E+00  0.00000000000E+00  0.45593999997E+02  0.45594000000E+02  0.51100000000E-03 0. -1.
         11   -1    0    0    0    0 -0.00000000000E+00 -0.00000000000E+00 -0.45593999997E+02  0.45594000000E+02  0.51100000000E-03 0.  1.
    9900012    2    1    2    0    0 -0.57018063005E+01 -0.10971872605E+02  0.41602051428E+02  0.47787271129E+02  0.20000000384E+02 0.  0.
        -12    1    1    2    0    0  0.57018063005E+01  0.10971872605E+02 -0.41602051428E+02  0.43400728871E+02  0.00000000000E+00 0.  1.
         11    1    3    3    0    0  0.23658203850E+00 -0.62058359506E+01  0.25759620877E+02  0.26497668556E+02  0.51100000000E-03 0. -1.
        -11    1    3    3    0    0 -0.23209655668E+01 -0.74277193666E+01  0.42703838664E+01  0.88766026597E+01  0.51100000000E-03 0.  1.
         12    1    3    3    0    0 -0.36174227723E+01  0.26616827124E+01  0.11572046684E+02  0.12412999913E+02  0.00000000000E+00 0. -1.
</event>
<event>
 7    1  0.1714203E-010  0.4778727E+02  0.7816164E-02  0.1312668E+00
        -11   -1    0    0    0    0  0.00000000000E+00  0.00000000000E+00  0.45593999997E+02  0.45594000000E+02  0.51100000000E-03 0.  1.
         11   -1    0    0    0    0 -0.00000000000E+00 -0.00000000000E+00 -0.45593999997E+02  0.45594000000E+02  0.51100000000E-03 0. -1.
    9900012    2    1    2    0    0 -0.25092954700E+02 -0.33396645705E+02 -0.11774164849E+02  0.47787270999E+02  0.19999999794E+02 0.  0.
        -12    1    1    2    0    0  0.25092954700E+02  0.33396645705E+02  0.11774164849E+02  0.43400729001E+02  0.00000000000E+00 0.  1.
         11    1    3    3    0    0 -0.18634315935E+02 -0.27426783637E+02 -0.13912431004E+02  0.35958614097E+02  0.51100000000E-03 0. -1.
        -11    1    3    3    0    0 -0.56553030041E+01 -0.36841007500E+00 -0.28141005382E+00  0.56742726346E+01  0.51100000000E-03 0.  1.
        -12    1    3    3    0    0 -0.80333576111E+00 -0.56014519922E+01  0.24196762086E+01  0.61543842682E+01  0.00000000000E+00 0.  1.
</event>
<event>
 7    1  0.1714203E-010  0.4778727E+02  0.7816164E-02  0.1312668E+00
        -11   -1    0    0    0    0  0.00000000000E+00  0.00000000000E+00  0.45593999997E+02  0.45594000000E+02  0.51100000000E-03 0.  1.
         11   -1    0    0    0    0 -0.00000000000E+00 -0.00000000000E+00 -0.45593999997E+02  0.45594000000E+02  0.51100000000E-03 0. -1.
    9900012    2    1    2    0    0 -0.27260117637E+02 -0.18404390147E+02 -0.28315861340E+02  0.47787267360E+02  0.19999983202E+02 0.  0.
        -12    1    1    2    0    0  0.27260117637E+02  0.18404390147E+02  0.28315861340E+02  0.43400732640E+02  0.00000000000E+00 0.  1.
         11    1    3    3    0    0 -0.88835797593E+01  0.56253138299E-01 -0.26102593893E+01  0.92592984668E+01  0.51100000000E-03 0. -1.
        -11    1    3    3    0    0  0.11142804399E+01 -0.41218740351E+01 -0.57602043995E+01  0.71701758308E+01  0.51100000000E-03 0.  1.
        -12    1    3    3    0    0 -0.19490818317E+02 -0.14338769251E+02 -0.19945397551E+02  0.31357793063E+02  0.00000000000E+00 0.  1.
</event>
<event>
 7    1  0.1714203E-010  0.4778727E+02  0.7816164E-02  0.1312668E+00
        -11   -1    0    0    0    0  0.00000000000E+00  0.00000000000E+00  0.45593999997E+02  0.45594000000E+02  0.51100000000E-03 0.  1.
         11   -1    0    0    0    0 -0.00000000000E+00 -0.00000000000E+00 -0.45593999997E+02  0.45594000000E+02  0.51100000000E-03 0. -1.
    9900012    2    1    2    0    0  0.22121601253E+02 -0.35351592309E+02  0.12021766757E+02  0.47787271933E+02  0.20000004051E+02 0.  0.
        -12    1    1    2    0    0 -0.22121601253E+02  0.35351592309E+02 -0.12021766757E+02  0.43400728067E+02  0.00000000000E+00 0.  1.
         11    1    3    3    0    0  0.10124706129E+02 -0.90133825840E+01  0.34652470137E+01  0.13991378664E+02  0.51100000000E-03 0. -1.
        -11    1    3    3    0    0  0.81829369487E+01 -0.26348718111E+02  0.10493454029E+02  0.29518265209E+02  0.51100000000E-03 0.  1.
        -12    1    3    3    0    0  0.38139581754E+01  0.10508386007E-01 -0.19369342858E+01  0.42776280597E+01  0.00000000000E+00 0.  1.
</event>
<event>
 7    1  0.1714203E-010  0.4778727E+02  0.7816164E-02  0.1312668E+00
        -11   -1    0    0    0    0  0.00000000000E+00  0.00000000000E+00  0.45593999997E+02  0.45594000000E+02  0.51100000000E-03 0. -1.
         11   -1    0    0    0    0 -0.00000000000E+00 -0.00000000000E+00 -0.45593999997E+02  0.45594000000E+02  0.51100000000E-03 0.  1.
    9900012    2    1    2    0    0  0.14365814321E+02 -0.40950583543E+02 -0.54409844312E+00  0.47787274698E+02  0.20000016657E+02 0.  0.
        -12    1    1    2    0    0 -0.14365814321E+02  0.40950583543E+02  0.54409844312E+00  0.43400725302E+02  0.00000000000E+00 0.  1.
         11    1    3    3    0    0  0.60089458509E+01 -0.19378660351E+02  0.11958541862E+01  0.20324122976E+02  0.51100000000E-03 0. -1.
        -11    1    3    3    0    0  0.18522449272E+01  0.73828047424E-01  0.37683936492E+01  0.41996491291E+01  0.51100000000E-03 0.  1.
        -12    1    3    3    0    0  0.65046235428E+01 -0.21645751240E+02 -0.55083462785E+01  0.23263502593E+02  0.00000000000E+00 0.  1.
</event>
<event>
 7    1  0.1714203E-010  0.4778728E+02  0.7816164E-02  0.1312668E+00
        -11   -1    0    0    0    0  0.00000000000E+00  0.00000000000E+00  0.45593999997E+02  0.45594000000E+02  0.51100000000E-03 0. -1.
         11   -1    0    0    0    0 -0.00000000000E+00 -0.00000000000E+00 -0.45593999997E+02  0.45594000000E+02  0.51100000000E-03 0.  1.
    9900012    2    1    2    0    0 -0.18616755388E+02  0.35582095363E+02  0.16460673684E+02  0.47787275700E+02  0.20000021228E+02 0.  0.
        -12    1    1    2    0    0  0.18616755388E+02 -0.35582095363E+02 -0.16460673684E+02  0.43400724300E+02  0.00000000000E+00 0.  1.
         11    1    3    3    0    0 -0.11266315314E+01  0.92548123879E+01 -0.36731403674E+01  0.10020619310E+02  0.51100000000E-03 0.  1.
        -11    1    3    3    0    0 -0.51182058091E+01  0.97322925050E+01  0.93117717620E+01  0.14409116618E+02  0.51100000000E-03 0. -1.
        -12    1    3    3    0    0 -0.12371918048E+02  0.16594990470E+02  0.10822042289E+02  0.23357539772E+02  0.00000000000E+00 0.  1.
</event>
<event>
 7    1  0.1714203E-010  0.4778727E+02  0.7816164E-02  0.1312668E+00
        -11   -1    0    0    0    0  0.00000000000E+00  0.00000000000E+00  0.45593999997E+02  0.45594000000E+02  0.51100000000E-03 0.  1.
         11   -1    0    0    0    0 -0.00000000000E+00 -0.00000000000E+00 -0.45593999997E+02  0.45594000000E+02  0.51100000000E-03 0. -1.
    9900012    2    1    2    0    0  0.17432209030E+02  0.27064392894E+02 -0.29107729779E+02  0.47787271812E+02  0.20000003499E+02 0.  0.
        -12    1    1    2    0    0 -0.17432209030E+02 -0.27064392894E+02  0.29107729779E+02  0.43400728188E+02  0.00000000000E+00 0.  1.
         11    1    3    3    0    0  0.11922456923E+01  0.99397206866E+01 -0.51962713914E+01  0.11279216894E+02  0.51100000000E-03 0. -1.
        -11    1    3    3    0    0 -0.13435254041E+01  0.23976955675E+01 -0.83513722610E+01  0.87920090678E+01  0.51100000000E-03 0.  1.
         12    1    3    3    0    0  0.17583488742E+02  0.14726976640E+02 -0.15560086127E+02  0.27716045850E+02  0.00000000000E+00 0. -1.
</event>
<event>
 7    1  0.1714203E-010  0.4778728E+02  0.7816164E-02  0.1312668E+00
        -11   -1    0    0    0    0  0.00000000000E+00  0.00000000000E+00  0.45593999997E+02  0.45594000000E+02  0.51100000000E-03 0.  1.
         11   -1    0    0    0    0 -0.00000000000E+00 -0.00000000000E+00 -0.45593999997E+02  0.45594000000E+02  0.51100000000E-03 0. -1.
    9900012    2    1    2    0    0 -0.15697392692E+02  0.39725329020E+02 -0.76884563067E+01  0.47787282685E+02  0.20000053075E+02 0.  0.
        -12    1    1    2    0    0  0.15697392692E+02 -0.39725329020E+02  0.76884563067E+01  0.43400717315E+02  0.00000000000E+00 0.  1.
         11    1    3    3    0    0 -0.21922045698E+01  0.21858795109E+02 -0.10271598296E+02  0.24251152886E+02  0.51100000000E-03 0. -1.
        -11    1    3    3    0    0 -0.79119107303E+01  0.12786979901E+02 -0.12033148182E+01  0.15084865037E+02  0.51100000000E-03 0.  1.
         12    1    3    3    0    0 -0.55932773916E+01  0.50795540101E+01  0.37864568072E+01  0.84512647618E+01  0.00000000000E+00 0. -1.
</event>
<event>
 7    1  0.1714203E-010  0.4778727E+02  0.7816164E-02  0.1312668E+00
        -11   -1    0    0    0    0  0.00000000000E+00  0.00000000000E+00  0.45593999997E+02  0.45594000000E+02  0.51100000000E-03 0.  1.
         11   -1    0    0    0    0 -0.00000000000E+00 -0.00000000000E+00 -0.45593999997E+02  0.45594000000E+02  0.51100000000E-03 0. -1.
    9900012    2    1    2    0    0  0.92559906832E+01  0.11952700025E+02 -0.40682707690E+02  0.47787272974E+02  0.20000008797E+02 0.  0.
        -12    1    1    2    0    0 -0.92559906832E+01 -0.11952700025E+02  0.40682707690E+02  0.43400727026E+02  0.00000000000E+00 0.  1.
         11    1    3    3    0    0 -0.23425187467E+01  0.19641239958E+01 -0.64479434082E+01  0.71359058014E+01  0.51100000000E-03 0. -1.
        -11    1    3    3    0    0  0.32027060313E+01  0.34032639528E+01  0.12292351243E+00  0.46748948551E+01  0.51100000000E-03 0.  1.
         12    1    3    3    0    0  0.83958033986E+01  0.65853120761E+01 -0.34357687794E+02  0.35976472317E+02  0.00000000000E+00 0. -1.
</event>
<event>
 7    1  0.1714203E-010  0.4778727E+02  0.7816164E-02  0.1312668E+00
        -11   -1    0    0    0    0  0.00000000000E+00  0.00000000000E+00  0.45593999997E+02  0.45594000000E+02  0.51100000000E-03 0.  1.
         11   -1    0    0    0    0 -0.00000000000E+00 -0.00000000000E+00 -0.45593999997E+02  0.45594000000E+02  0.51100000000E-03 0. -1.
    9900012    2    1    2    0    0 -0.28367717208E+02  0.11916266827E+01 -0.32824930003E+02  0.47787269782E+02  0.19999994244E+02 0.  0.
        -12    1    1    2    0    0  0.28367717208E+02 -0.11916266827E+01  0.32824930003E+02  0.43400730218E+02  0.00000000000E+00 0.  1.
         11    1    3    3    0    0 -0.21305203125E+02  0.92269266023E+00 -0.30255723663E+02  0.37015832512E+02  0.51100000000E-03 0. -1.
        -11    1    3    3    0    0  0.13476354007E+01 -0.11594694046E+01 -0.11664421284E+01  0.21262826655E+01  0.51100000000E-03 0.  1.
        -12    1    3    3    0    0 -0.84101494843E+01  0.14284034271E+01 -0.14027642112E+01  0.86451546043E+01  0.00000000000E+00 0.  1.
</event>
<event>
 7    1  0.1714203E-010  0.4778728E+02  0.7816164E-02  0.1312668E+00
        -11   -1    0    0    0    0  0.00000000000E+00  0.00000000000E+00  0.45593999997E+02  0.45594000000E+02  0.51100000000E-03 0. -1.
         11   -1    0    0    0    0 -0.00000000000E+00 -0.00000000000E+00 -0.45593999997E+02  0.45594000000E+02  0.51100000000E-03 0.  1.
    9900012    2    1    2    0    0  0.36685339092E+01  0.35400520628E+02  0.24838833860E+02  0.47787278010E+02  0.20000031758E+02 0.  0.
        -12    1    1    2    0    0 -0.36685339092E+01 -0.35400520628E+02 -0.24838833860E+02  0.43400721990E+02  0.00000000000E+00 0.  1.
         11    1    3    3    0    0  0.64174462116E+01  0.81756032651E+01  0.14009714150E+02  0.17444087693E+02  0.51100000000E-03 0. -1.
        -11    1    3    3    0    0 -0.41619552362E+01  0.75652114660E+01  0.32614751623E+01  0.92299250490E+01  0.51100000000E-03 0.  1.
         12    1    3    3    0    0  0.14130429338E+01  0.19659705897E+02  0.75676445477E+01  0.21113265268E+02  0.00000000000E+00 0. -1.
</event>
<event>
 7    1  0.1714203E-010  0.4778727E+02  0.7816164E-02  0.1312668E+00
        -11   -1    0    0    0    0  0.00000000000E+00  0.00000000000E+00  0.45593999997E+02  0.45594000000E+02  0.51100000000E-03 0.  1.
         11   -1    0    0    0    0 -0.00000000000E+00 -0.00000000000E+00 -0.45593999997E+02  0.45594000000E+02  0.51100000000E-03 0. -1.
    9900012    2    1    2    0    0 -0.37048630939E+02 -0.64248281642E+01 -0.21673569165E+02  0.47787273373E+02  0.20000010618E+02 0.  0.
        -12    1    1    2    0    0  0.37048630939E+02  0.64248281642E+01  0.21673569165E+02  0.43400726627E+02  0.00000000000E+00 0.  1.
         11    1    3    3    0    0 -0.12448263156E+02  0.14303433655E+01 -0.14271499062E+02  0.18991598760E+02  0.51100000000E-03 0. -1.
        -11    1    3    3    0    0 -0.21615981639E+02 -0.28341420001E+01 -0.71710818764E+01  0.22950107596E+02  0.51100000000E-03 0.  1.
        -12    1    3    3    0    0 -0.29843861436E+01 -0.50210295296E+01 -0.23098822663E+00  0.58455670172E+01  0.00000000000E+00 0.  1.
</event>
<event>
 7    1  0.1714203E-010  0.4778727E+02  0.7816164E-02  0.1312668E+00
        -11   -1    0    0    0    0  0.00000000000E+00  0.00000000000E+00  0.45593999997E+02  0.45594000000E+02  0.51100000000E-03 0.  1.
         11   -1    0    0    0    0 -0.00000000000E+00 -0.00000000000E+00 -0.45593999997E+02  0.45594000000E+02  0.51100000000E-03 0. -1.
    9900012    2    1    2    0    0  0.36693448457E+02 -0.12294772009E+02 -0.19648226707E+02  0.47787269694E+02  0.19999993842E+02 0.  0.
        -12    1    1    2    0    0 -0.36693448457E+02  0.12294772009E+02  0.19648226707E+02  0.43400730306E+02  0.00000000000E+00 0.  1.
         11    1    3    3    0    0  0.38277916054E+01  0.44313488382E+01 -0.94829645922E+00  0.59319564678E+01  0.51100000000E-03 0. -1.
        -11    1    3    3    0    0  0.72152904098E+01 -0.68590505904E+01 -0.45989977463E+01  0.10966210432E+02  0.51100000000E-03 0.  1.
         12    1    3    3    0    0  0.25650366441E+02 -0.98670702570E+01 -0.14100932501E+02  0.30889102794E+02  0.00000000000E+00 0. -1.
</event>
<event>
 7    1  0.1714203E-010  0.4778727E+02  0.7816164E-02  0.1312668E+00
        -11   -1    0    0    0    0  0.00000000000E+00  0.00000000000E+00  0.45593999997E+02  0.45594000000E+02  0.51100000000E-03 0.  1.
         11   -1    0    0    0    0 -0.00000000000E+00 -0.00000000000E+00 -0.45593999997E+02  0.45594000000E+02  0.51100000000E-03 0. -1.
    9900012    2    1    2    0    0 -0.20867068121E+02  0.24923742092E+02 -0.28757536055E+02  0.47787270377E+02  0.19999996958E+02 0.  0.
        -12    1    1    2    0    0  0.20867068121E+02 -0.24923742092E+02  0.28757536055E+02  0.43400729623E+02  0.00000000000E+00 0.  1.
         11    1    3    3    0    0 -0.10182549109E+02  0.96170705227E+01 -0.94705956553E+01  0.16907528918E+02  0.51100000000E-03 0. -1.
        -11    1    3    3    0    0 -0.14610857860E+02  0.12587741724E+02 -0.14603682661E+02  0.24190823810E+02  0.51100000000E-03 0.  1.
        -12    1    3    3    0    0  0.39263388483E+01  0.27189298458E+01 -0.46832577391E+01  0.66889176485E+01  0.00000000000E+00 0.  1.
</event>
<event>
 7    1  0.1714203E-010  0.4778727E+02  0.7816164E-02  0.1312668E+00
        -11   -1    0    0    0    0  0.00000000000E+00  0.00000000000E+00  0.45593999997E+02  0.45594000000E+02  0.51100000000E-03 0.  1.
         11   -1    0    0    0    0 -0.00000000000E+00 -0.00000000000E+00 -0.45593999997E+02  0.45594000000E+02  0.51100000000E-03 0. -1.
    9900012    2    1    2    0    0 -0.22326451819E+02 -0.14654331494E+00 -0.37217350547E+02  0.47787272961E+02  0.20000008737E+02 0.  0.
        -12    1    1    2    0    0  0.22326451819E+02  0.14654331494E+00  0.37217350547E+02  0.43400727039E+02  0.00000000000E+00 0.  1.
         11    1    3    3    0    0 -0.15899849554E+02 -0.70198683754E+01 -0.16162440356E+02  0.23734115665E+02  0.51100000000E-03 0. -1.
        -11    1    3    3    0    0 -0.64310286122E+01  0.23643818515E+01 -0.15116797666E+02  0.16597168508E+02  0.51100000000E-03 0.  1.
         12    1    3    3    0    0  0.44263466296E-02  0.45089432089E+01 -0.59381125249E+01  0.74559887883E+01  0.00000000000E+00 0. -1.
</event>
<event>
 7    1  0.1714203E-010  0.4778726E+02  0.7816164E-02  0.1312668E+00
        -11   -1    0    0    0    0  0.00000000000E+00  0.00000000000E+00  0.45593999997E+02  0.45594000000E+02  0.51100000000E-03 0.  1.
         11   -1    0    0    0    0 -0.00000000000E+00 -0.00000000000E+00 -0.45593999997E+02  0.45594000000E+02  0.51100000000E-03 0. -1.
    9900012    2    1    2    0    0  0.41945626382E+02 -0.10664745314E+02  0.32328847055E+01  0.47787263731E+02  0.19999966655E+02 0.  0.
        -12    1    1    2    0    0 -0.41945626382E+02  0.10664745314E+02 -0.32328847055E+01  0.43400736269E+02  0.00000000000E+00 0.  1.
         11    1    3    3    0    0  0.11368355708E+02  0.11745484319E+01  0.17844489348E+01  0.11567339097E+02  0.51100000000E-03 0. -1.
        -11    1    3    3    0    0  0.81423905606E+01 -0.83572831984E+01  0.59143525007E+01  0.13081371192E+02  0.51100000000E-03 0.  1.
        -12    1    3    3    0    0  0.22434880113E+02 -0.34820105474E+01 -0.44659167300E+01  0.23138553442E+02  0.00000000000E+00 0.  1.
</event>
<event>
 7    1  0.1714203E-010  0.4778727E+02  0.7816164E-02  0.1312668E+00
        -11   -1    0    0    0    0  0.00000000000E+00  0.00000000000E+00  0.45593999997E+02  0.45594000000E+02  0.51100000000E-03 0.  1.
         11   -1    0    0    0    0 -0.00000000000E+00 -0.00000000000E+00 -0.45593999997E+02  0.45594000000E+02  0.51100000000E-03 0. -1.
    9900012    2    1    2    0    0  0.41247970657E+02 -0.11181425835E+02 -0.75633217048E+01  0.47787271869E+02  0.20000003761E+02 0.  0.
        -12    1    1    2    0    0 -0.41247970657E+02  0.11181425835E+02  0.75633217048E+01  0.43400728131E+02  0.00000000000E+00 0.  1.
         11    1    3    3    0    0  0.21457805434E+02 -0.12383342855E+01 -0.67476714193E+01  0.22527804059E+02  0.51100000000E-03 0. -1.
        -11    1    3    3    0    0  0.39211318007E+01  0.21133650624E+01 -0.27523113568E+01  0.52361058575E+01  0.51100000000E-03 0.  1.
        -12    1    3    3    0    0  0.15869033422E+02 -0.12056456612E+02  0.19366610713E+01  0.20023361953E+02  0.00000000000E+00 0.  1.
</event>
<event>
 7    1  0.1714203E-010  0.4778727E+02  0.7816164E-02  0.1312668E+00
        -11   -1    0    0    0    0  0.00000000000E+00  0.00000000000E+00  0.45593999997E+02  0.45594000000E+02  0.51100000000E-03 0.  1.
         11   -1    0    0    0    0 -0.00000000000E+00 -0.00000000000E+00 -0.45593999997E+02  0.45594000000E+02  0.51100000000E-03 0. -1.
    9900012    2    1    2    0    0 -0.83479125116E+01  0.24458724594E+02 -0.34866983766E+02  0.47787269488E+02  0.19999992902E+02 0.  0.
        -12    1    1    2    0    0  0.83479125116E+01 -0.24458724594E+02  0.34866983766E+02  0.43400730512E+02  0.00000000000E+00 0.  1.
         11    1    3    3    0    0 -0.55529299613E+01  0.16371503917E+02 -0.19326202005E+02  0.25929968296E+02  0.51100000000E-03 0. -1.
        -11    1    3    3    0    0 -0.68739358989E+01  0.16672630401E+01 -0.42767232398E+01  0.82656592428E+01  0.51100000000E-03 0.  1.
         12    1    3    3    0    0  0.40789533486E+01  0.64199576375E+01 -0.11264058521E+02  0.13591641949E+02  0.00000000000E+00 0. -1.
</event>
<event>
 7    1  0.1714203E-010  0.4778727E+02  0.7816164E-02  0.1312668E+00
        -11   -1    0    0    0    0  0.00000000000E+00  0.00000000000E+00  0.45593999997E+02  0.45594000000E+02  0.51100000000E-03 0.  1.
         11   -1    0    0    0    0 -0.00000000000E+00 -0.00000000000E+00 -0.45593999997E+02  0.45594000000E+02  0.51100000000E-03 0. -1.
    9900012    2    1    2    0    0  0.22807194149E+02  0.22843861754E+02 -0.29010567918E+02  0.47787272175E+02  0.20000005155E+02 0.  0.
        -12    1    1    2    0    0 -0.22807194149E+02 -0.22843861754E+02  0.29010567918E+02  0.43400727825E+02  0.00000000000E+00 0.  1.
         11    1    3    3    0    0  0.37719465896E+01  0.89290632035E+00 -0.40546609383E+01  0.56093794984E+01  0.51100000000E-03 0. -1.
        -11    1    3    3    0    0  0.52167298996E+01 -0.21832947921E+01 -0.16438510870E+01  0.58892523848E+01  0.51100000000E-03 0.  1.
         12    1    3    3    0    0  0.13818517660E+02  0.24134250226E+02 -0.23312055893E+02  0.36288640292E+02  0.00000000000E+00 0. -1.
</event>
<event>
 7    1  0.1714203E-010  0.4778726E+02  0.7816164E-02  0.1312668E+00
        -11   -1    0    0    0    0  0.00000000000E+00  0.00000000000E+00  0.45593999997E+02  0.45594000000E+02  0.51100000000E-03 0.  1.
         11   -1    0    0    0    0 -0.00000000000E+00 -0.00000000000E+00 -0.45593999997E+02  0.45594000000E+02  0.51100000000E-03 0. -1.
    9900012    2    1    2    0    0  0.37770883320E+02  0.17105330024E+02 -0.12821560384E+02  0.47787258616E+02  0.19999943332E+02 0.  0.
        -12    1    1    2    0    0 -0.37770883320E+02 -0.17105330024E+02  0.12821560384E+02  0.43400741384E+02  0.00000000000E+00 0.  1.
         11    1    3    3    0    0  0.51851352630E+01  0.42736831451E+01 -0.58261063485E+01  0.88934532532E+01  0.51100000000E-03 0. -1.
        -11    1    3    3    0    0  0.92812680773E+01 -0.32836623805E+01 -0.29166235317E+01  0.10267963227E+02  0.51100000000E-03 0.  1.
        -12    1    3    3    0    0  0.23304479980E+02  0.16115309259E+02 -0.40788305034E+01  0.28625842135E+02  0.00000000000E+00 0.  1.
</event>
<event>
 7    1  0.1714203E-010  0.4778727E+02  0.7816164E-02  0.1312668E+00
        -11   -1    0    0    0    0  0.00000000000E+00  0.00000000000E+00  0.45593999997E+02  0.45594000000E+02  0.51100000000E-03 0.  1.
         11   -1    0    0    0    0 -0.00000000000E+00 -0.00000000000E+00 -0.45593999997E+02  0.45594000000E+02  0.51100000000E-03 0. -1.
    9900012    2    1    2    0    0 -0.25626039313E+02  0.34850911293E+02  0.35133256188E+01  0.47787269986E+02  0.19999995174E+02 0.  0.
        -12    1    1    2    0    0  0.25626039313E+02 -0.34850911293E+02 -0.35133256188E+01  0.43400730014E+02  0.00000000000E+00 0.  1.
         11    1    3    3    0    0  0.15687960456E+01 -0.77221773266E+00 -0.37194909324E+00  0.17876766062E+01  0.51100000000E-03 0.  1.
        -11    1    3    3    0    0 -0.16614758720E+02  0.13890635061E+02  0.22588816315E+01  0.21773894833E+02  0.51100000000E-03 0. -1.
        -12    1    3    3    0    0 -0.10580076639E+02  0.21732493965E+02  0.16263930806E+01  0.24225698547E+02  0.00000000000E+00 0.  1.
</event>
<event>
 7    1  0.1714203E-010  0.4778727E+02  0.7816164E-02  0.1312668E+00
        -11   -1    0    0    0    0  0.00000000000E+00  0.00000000000E+00  0.45593999997E+02  0.45594000000E+02  0.51100000000E-03 0.  1.
         11   -1    0    0    0    0 -0.00000000000E+00 -0.00000000000E+00 -0.45593999997E+02  0.45594000000E+02  0.51100000000E-03 0. -1.
    9900012    2    1    2    0    0  0.10728576636E+02 -0.28855471652E+02 -0.30592198054E+02  0.47787272095E+02  0.20000004791E+02 0.  0.
        -12    1    1    2    0    0 -0.10728576636E+02  0.28855471652E+02  0.30592198054E+02  0.43400727905E+02  0.00000000000E+00 0.  1.
         11    1    3    3    0    0  0.27166889705E+01 -0.18418950917E+02 -0.18513825483E+02  0.26256425615E+02  0.51100000000E-03 0. -1.
        -11    1    3    3    0    0  0.55611910530E+01 -0.17754956737E+01 -0.11016106825E+02  0.12467310883E+02  0.51100000000E-03 0.  1.
         12    1    3    3    0    0  0.24506966126E+01 -0.86610250614E+01 -0.10622657468E+01  0.90635355970E+01  0.00000000000E+00 0. -1.
</event>
<event>
 7    1  0.1714203E-010  0.4778727E+02  0.7816164E-02  0.1312668E+00
        -11   -1    0    0    0    0  0.00000000000E+00  0.00000000000E+00  0.45593999997E+02  0.45594000000E+02  0.51100000000E-03 0. -1.
         11   -1    0    0    0    0 -0.00000000000E+00 -0.00000000000E+00 -0.45593999997E+02  0.45594000000E+02  0.51100000000E-03 0.  1.
    9900012    2    1    2    0    0  0.16522544280E+02  0.38644209531E+02 -0.10828389511E+02  0.47787269371E+02  0.19999992370E+02 0.  0.
        -12    1    1    2    0    0 -0.16522544280E+02 -0.38644209531E+02  0.10828389511E+02  0.43400730629E+02  0.00000000000E+00 0.  1.
         11    1    3    3    0    0  0.69207510573E+00  0.19901375044E+02 -0.96256990818E+01  0.22117815888E+02  0.51100000000E-03 0. -1.
        -11    1    3    3    0    0 -0.96159181941E-01 -0.51710235357E+00 -0.40646354994E+00  0.66472122795E+00  0.51100000000E-03 0.  1.
         12    1    3    3    0    0  0.15926628356E+02  0.19259936840E+02 -0.79622687892E+00  0.25004732254E+02  0.00000000000E+00 0. -1.
</event>
<event>
 7    1  0.1714203E-010  0.4778728E+02  0.7816164E-02  0.1312668E+00
        -11   -1    0    0    0    0  0.00000000000E+00  0.00000000000E+00  0.45593999997E+02  0.45594000000E+02  0.51100000000E-03 0. -1.
         11   -1    0    0    0    0 -0.00000000000E+00 -0.00000000000E+00 -0.45593999997E+02  0.45594000000E+02  0.51100000000E-03 0.  1.
    9900012    2    1    2    0    0 -0.27504678360E+02  0.72074548713E+01  0.32789754741E+02  0.47787277041E+02  0.20000027340E+02 0.  0.
        -12    1    1    2    0    0  0.27504678360E+02 -0.72074548713E+01 -0.32789754741E+02  0.43400722959E+02  0.00000000000E+00 0.  1.
         11    1    3    3    0    0 -0.33864243289E+01  0.48895753210E+01  0.53562452786E+01  0.80040727321E+01  0.51100000000E-03 0.  1.
        -11    1    3    3    0    0 -0.19858342550E+02 -0.46492790297E+00  0.11271046065E+02  0.22838704133E+02  0.51100000000E-03 0. -1.
         12    1    3    3    0    0 -0.42599114807E+01  0.27828074532E+01  0.16162463398E+02  0.16944500176E+02  0.00000000000E+00 0. -1.
</event>
<event>
 7    1  0.1714203E-010  0.4778727E+02  0.7816164E-02  0.1312668E+00
        -11   -1    0    0    0    0  0.00000000000E+00  0.00000000000E+00  0.45593999997E+02  0.45594000000E+02  0.51100000000E-03 0.  1.
         11   -1    0    0    0    0 -0.00000000000E+00 -0.00000000000E+00 -0.45593999997E+02  0.45594000000E+02  0.51100000000E-03 0. -1.
    9900012    2    1    2    0    0  0.26617205536E+02 -0.30863044187E+02  0.14920456330E+02  0.47787272540E+02  0.20000006817E+02 0.  0.
        -12    1    1    2    0    0 -0.26617205536E+02  0.30863044187E+02 -0.14920456330E+02  0.43400727460E+02  0.00000000000E+00 0.  1.
         11    1    3    3    0    0  0.17612863337E+02 -0.13654791838E+02 -0.75223723745E+00  0.22298703016E+02  0.51100000000E-03 0. -1.
        -11    1    3    3    0    0  0.69751159287E+01 -0.79928807108E+01  0.73427483424E+01  0.12901718403E+02  0.51100000000E-03 0.  1.
         12    1    3    3    0    0  0.20292262697E+01 -0.92153716375E+01  0.83299452248E+01  0.12586851120E+02  0.00000000000E+00 0. -1.
</event>
<event>
 7    1  0.1714203E-010  0.4778728E+02  0.7816164E-02  0.1312668E+00
        -11   -1    0    0    0    0  0.00000000000E+00  0.00000000000E+00  0.45593999997E+02  0.45594000000E+02  0.51100000000E-03 0.  1.
         11   -1    0    0    0    0 -0.00000000000E+00 -0.00000000000E+00 -0.45593999997E+02  0.45594000000E+02  0.51100000000E-03 0. -1.
    9900012    2    1    2    0    0 -0.86961632831E+01  0.16099415070E+02 -0.39354904302E+02  0.47787275190E+02  0.20000018900E+02 0.  0.
        -12    1    1    2    0    0  0.86961632831E+01 -0.16099415070E+02  0.39354904302E+02  0.43400724810E+02  0.00000000000E+00 0.  1.
         11    1    3    3    0    0  0.19719245550E+01  0.26248183408E+01 -0.68607474892E+01  0.76057882001E+01  0.51100000000E-03 0.  1.
        -11    1    3    3    0    0 -0.13391550737E+02  0.60657057261E+01 -0.26368722969E+02  0.30189997820E+02  0.51100000000E-03 0. -1.
        -12    1    3    3    0    0  0.27234628988E+01  0.74088910028E+01 -0.61254338434E+01  0.99914891694E+01  0.00000000000E+00 0.  1.
</event>
<event>
 7    1  0.1714203E-010  0.4778726E+02  0.7816164E-02  0.1312668E+00
        -11   -1    0    0    0    0  0.00000000000E+00  0.00000000000E+00  0.45593999997E+02  0.45594000000E+02  0.51100000000E-03 0. -1.
         11   -1    0    0    0    0 -0.00000000000E+00 -0.00000000000E+00 -0.45593999997E+02  0.45594000000E+02  0.51100000000E-03 0.  1.
    9900012    2    1    2    0    0 -0.20217156355E+02 -0.66516731527E+01  0.37823878374E+02  0.47787263347E+02  0.19999964902E+02 0.  0.
        -12    1    1    2    0    0  0.20217156355E+02  0.66516731527E+01 -0.37823878374E+02  0.43400736653E+02  0.00000000000E+00 0.  1.
         11    1    3    3    0    0 -0.28942586030E+01 -0.65092588475E+01  0.93626902724E+01  0.11764656944E+02  0.51100000000E-03 0. -1.
        -11    1    3    3    0    0 -0.76644654496E+01  0.42080047467E+01  0.45205204554E+01  0.98430909792E+01  0.51100000000E-03 0.  1.
         12    1    3    3    0    0 -0.96584323021E+01 -0.43504190519E+01  0.23940667646E+02  0.26179515424E+02  0.00000000000E+00 0. -1.
</event>
<event>
 7    1  0.1714203E-010  0.4778729E+02  0.7816164E-02  0.1312668E+00
        -11   -1    0    0    0    0  0.00000000000E+00  0.00000000000E+00  0.45593999997E+02  0.45594000000E+02  0.51100000000E-03 0.  1.
         11   -1    0    0    0    0 -0.00000000000E+00 -0.00000000000E+00 -0.45593999997E+02  0.45594000000E+02  0.51100000000E-03 0. -1.
    9900012    2    1    2    0    0  0.54433946689E+01 -0.31085981946E+02 -0.29793504414E+02  0.47787288896E+02  0.20000081391E+02 0.  0.
        -12    1    1    2    0    0 -0.54433946689E+01  0.31085981946E+02  0.29793504414E+02  0.43400711104E+02  0.00000000000E+00 0.  1.
         11    1    3    3    0    0 -0.85812723552E+00 -0.97226961102E+01 -0.16525706052E+01  0.98994036118E+01  0.51100000000E-03 0. -1.
        -11    1    3    3    0    0 -0.62057606146E-01 -0.18310782268E+02 -0.20251825604E+02  0.27302473129E+02  0.51100000000E-03 0.  1.
        -12    1    3    3    0    0  0.63635795105E+01 -0.30525035679E+01 -0.78891082045E+01  0.10585412155E+02  0.00000000000E+00 0.  1.
</event>
<event>
 7    1  0.1714203E-010  0.4778727E+02  0.7816164E-02  0.1312668E+00
        -11   -1    0    0    0    0  0.00000000000E+00  0.00000000000E+00  0.45593999997E+02  0.45594000000E+02  0.51100000000E-03 0. -1.
         11   -1    0    0    0    0 -0.00000000000E+00 -0.00000000000E+00 -0.45593999997E+02  0.45594000000E+02  0.51100000000E-03 0.  1.
    9900012    2    1    2    0    0  0.14240281225E+02 -0.40955964240E+02 -0.18564462430E+01  0.47787274097E+02  0.20000013919E+02 0.  0.
        -12    1    1    2    0    0 -0.14240281225E+02  0.40955964240E+02  0.18564462430E+01  0.43400725903E+02  0.00000000000E+00 0.  1.
         11    1    3    3    0    0  0.13179259154E+02 -0.27674863557E+02 -0.15508639085E+01  0.30691955361E+02  0.51100000000E-03 0. -1.
        -11    1    3    3    0    0  0.14709738614E+01 -0.21696837699E+01 -0.45030434404E+01  0.52104406963E+01  0.51100000000E-03 0.  1.
        -12    1    3    3    0    0 -0.40995179038E+00 -0.11111416913E+02  0.41974611059E+01  0.11884878040E+02  0.00000000000E+00 0.  1.
</event>
<event>
 7    1  0.1714203E-010  0.4778727E+02  0.7816164E-02  0.1312668E+00
        -11   -1    0    0    0    0  0.00000000000E+00  0.00000000000E+00  0.45593999997E+02  0.45594000000E+02  0.51100000000E-03 0.  1.
         11   -1    0    0    0    0 -0.00000000000E+00 -0.00000000000E+00 -0.45593999997E+02  0.45594000000E+02  0.51100000000E-03 0. -1.
    9900012    2    1    2    0    0  0.98417983640E+01 -0.22270976864E+02 -0.35927232141E+02  0.47787269421E+02  0.19999992596E+02 0.  0.
        -12    1    1    2    0    0 -0.98417983640E+01  0.22270976864E+02  0.35927232141E+02  0.43400730579E+02  0.00000000000E+00 0.  1.
         11    1    3    3    0    0  0.85926465389E+01 -0.11522194270E+02 -0.72004757182E+01  0.16076112284E+02  0.51100000000E-03 0. -1.
        -11    1    3    3    0    0  0.80508720507E+00  0.45291592543E+00 -0.87923662556E+01  0.88407580488E+01  0.51100000000E-03 0.  1.
        -12    1    3    3    0    0  0.44406461999E+00 -0.11201698520E+02 -0.19934390167E+02  0.22870399088E+02  0.00000000000E+00 0.  1.
</event>
<event>
 7    1  0.1714203E-010  0.4778728E+02  0.7816164E-02  0.1312668E+00
        -11   -1    0    0    0    0  0.00000000000E+00  0.00000000000E+00  0.45593999997E+02  0.45594000000E+02  0.51100000000E-03 0. -1.
         11   -1    0    0    0    0 -0.00000000000E+00 -0.00000000000E+00 -0.45593999997E+02  0.45594000000E+02  0.51100000000E-03 0.  1.
    9900012    2    1    2    0    0  0.28788289415E+02 -0.30581000953E+02 -0.10938906365E+02  0.47787275361E+02  0.20000019683E+02 0.  0.
        -12    1    1    2    0    0 -0.28788289415E+02  0.30581000953E+02  0.10938906365E+02  0.43400724639E+02  0.00000000000E+00 0.  1.
         11    1    3    3    0    0  0.12170777919E+02 -0.59191868461E+01 -0.20579010446E+01  0.13689396080E+02  0.51100000000E-03 0. -1.
        -11    1    3    3    0    0  0.14044486503E+02 -0.17181388375E+02  0.18011241327E-01  0.22191170143E+02  0.51100000000E-03 0.  1.
         12    1    3    3    0    0  0.25730249923E+01 -0.74804257313E+01 -0.88990165617E+01  0.11906709138E+02  0.00000000000E+00 0. -1.
</event>
<event>
 7    1  0.1714203E-010  0.4778727E+02  0.7816164E-02  0.1312668E+00
        -11   -1    0    0    0    0  0.00000000000E+00  0.00000000000E+00  0.45593999997E+02  0.45594000000E+02  0.51100000000E-03 0.  1.
         11   -1    0    0    0    0 -0.00000000000E+00 -0.00000000000E+00 -0.45593999997E+02  0.45594000000E+02  0.51100000000E-03 0. -1.
    9900012    2    1    2    0    0  0.16508471484E+02 -0.21713037656E+02 -0.33758519960E+02  0.47787270687E+02  0.19999998372E+02 0.  0.
        -12    1    1    2    0    0 -0.16508471484E+02  0.21713037656E+02  0.33758519960E+02  0.43400729313E+02  0.00000000000E+00 0.  1.
         11    1    3    3    0    0  0.26266917873E+01 -0.31523748318E+01 -0.13770829256E+02  0.14369158482E+02  0.51100000000E-03 0. -1.
        -11    1    3    3    0    0  0.16073590149E+02 -0.14829285708E+02 -0.13772407900E+02  0.25844675167E+02  0.51100000000E-03 0.  1.
        -12    1    3    3    0    0 -0.21918104515E+01 -0.37313771162E+01 -0.62152828038E+01  0.75734370381E+01  0.00000000000E+00 0.  1.
</event>
<event>
 7    1  0.1714203E-010  0.4778727E+02  0.7816164E-02  0.1312668E+00
        -11   -1    0    0    0    0  0.00000000000E+00  0.00000000000E+00  0.45593999997E+02  0.45594000000E+02  0.51100000000E-03 0.  1.
         11   -1    0    0    0    0 -0.00000000000E+00 -0.00000000000E+00 -0.45593999997E+02  0.45594000000E+02  0.51100000000E-03 0. -1.
    9900012    2    1    2    0    0 -0.33075476196E+02 -0.96846263619E+01 -0.26378862203E+02  0.47787268618E+02  0.19999988936E+02 0.  0.
        -12    1    1    2    0    0  0.33075476196E+02  0.96846263619E+01  0.26378862203E+02  0.43400731382E+02  0.00000000000E+00 0.  1.
         11    1    3    3    0    0 -0.14640399977E+02 -0.69971711061E+01 -0.10049847725E+02  0.19086674790E+02  0.51100000000E-03 0. -1.
        -11    1    3    3    0    0 -0.14833923098E+02 -0.61287020661E+01 -0.58232883107E+01  0.17073867473E+02  0.51100000000E-03 0.  1.
        -12    1    3    3    0    0 -0.36011531211E+01  0.34412468104E+01 -0.10505726168E+02  0.11626726355E+02  0.00000000000E+00 0.  1.
</event>
<event>
 7    1  0.1714203E-010  0.4778728E+02  0.7816164E-02  0.1312668E+00
        -11   -1    0    0    0    0  0.00000000000E+00  0.00000000000E+00  0.45593999997E+02  0.45594000000E+02  0.51100000000E-03 0.  1.
         11   -1    0    0    0    0 -0.00000000000E+00 -0.00000000000E+00 -0.45593999997E+02  0.45594000000E+02  0.51100000000E-03 0. -1.
    9900012    2    1    2    0    0 -0.28501773630E+02  0.15748685271E+02 -0.28692344283E+02  0.47787276408E+02  0.20000024456E+02 0.  0.
        -12    1    1    2    0    0  0.28501773630E+02 -0.15748685271E+02  0.28692344283E+02  0.43400723592E+02  0.00000000000E+00 0.  1.
         11    1    3    3    0    0  0.55779057195E+00  0.16073886023E+01 -0.43673591063E+00  0.17565781957E+01  0.51100000000E-03 0. -1.
        -11    1    3    3    0    0  0.15666526929E+01 -0.12909785509E+01 -0.13018647835E+01  0.24116132473E+01  0.51100000000E-03 0.  1.
         12    1    3    3    0    0 -0.30626216895E+02  0.15432275220E+02 -0.26953743589E+02  0.43619084965E+02  0.00000000000E+00 0. -1.
</event>
<event>
 7    1  0.1714203E-010  0.4778727E+02  0.7816164E-02  0.1312668E+00
        -11   -1    0    0    0    0  0.00000000000E+00  0.00000000000E+00  0.45593999997E+02  0.45594000000E+02  0.51100000000E-03 0.  1.
         11   -1    0    0    0    0 -0.00000000000E+00 -0.00000000000E+00 -0.45593999997E+02  0.45594000000E+02  0.51100000000E-03 0. -1.
    9900012    2    1    2    0    0  0.20606244473E+02  0.34909324604E+02 -0.15503064773E+02  0.47787271055E+02  0.20000000050E+02 0.  0.
        -12    1    1    2    0    0 -0.20606244473E+02 -0.34909324604E+02  0.15503064773E+02  0.43400728945E+02  0.00000000000E+00 0.  1.
         11    1    3    3    0    0  0.25648042281E+01 -0.19460383691E+00 -0.26378166980E+01  0.36843138540E+01  0.51100000000E-03 0. -1.
        -11    1    3    3    0    0  0.18124134376E+01  0.19606525052E+02 -0.48933041931E+01  0.20289038747E+02  0.51100000000E-03 0.  1.
        -12    1    3    3    0    0  0.16229026807E+02  0.15497403388E+02 -0.79719438823E+01  0.23813918454E+02  0.00000000000E+00 0.  1.
</event>
<event>
 7    1  0.1714203E-010  0.4778727E+02  0.7816164E-02  0.1312668E+00
        -11   -1    0    0    0    0  0.00000000000E+00  0.00000000000E+00  0.45593999997E+02  0.45594000000E+02  0.51100000000E-03 0.  1.
         11   -1    0    0    0    0 -0.00000000000E+00 -0.00000000000E+00 -0.45593999997E+02  0.45594000000E+02  0.51100000000E-03 0. -1.
    9900012    2    1    2    0    0 -0.51851732049E+01  0.36382611096E+02 -0.23087729878E+02  0.47787266340E+02  0.19999978549E+02 0.  0.
        -12    1    1    2    0    0  0.51851732049E+01 -0.36382611096E+02  0.23087729878E+02  0.43400733660E+02  0.00000000000E+00 0.  1.
         11    1    3    3    0    0  0.22538322309E+01  0.22318702988E+02 -0.19758553854E+02  0.29893221864E+02  0.51100000000E-03 0. -1.
        -11    1    3    3    0    0  0.18673240723E+00  0.61405802260E+01  0.69806738674E+00  0.61829517903E+01  0.51100000000E-03 0.  1.
         12    1    3    3    0    0 -0.76257378430E+01  0.79233278821E+01 -0.40272434114E+01  0.11711092685E+02  0.00000000000E+00 0. -1.
</event>
<event>
 7    1  0.1714203E-010  0.4778727E+02  0.7816164E-02  0.1312668E+00
        -11   -1    0    0    0    0  0.00000000000E+00  0.00000000000E+00  0.45593999997E+02  0.45594000000E+02  0.51100000000E-03 0.  1.
         11   -1    0    0    0    0 -0.00000000000E+00 -0.00000000000E+00 -0.45593999997E+02  0.45594000000E+02  0.51100000000E-03 0. -1.
    9900012    2    1    2    0    0  0.26343899895E+02  0.51942518368E+01 -0.34097536848E+02  0.47787270365E+02  0.19999996901E+02 0.  0.
        -12    1    1    2    0    0 -0.26343899895E+02 -0.51942518368E+01  0.34097536848E+02  0.43400729635E+02  0.00000000000E+00 0.  1.
         11    1    3    3    0    0  0.13104992755E+01 -0.12240667369E+01 -0.10202477008E+02  0.10358874702E+02  0.51100000000E-03 0. -1.
        -11    1    3    3    0    0  0.25359247481E+00  0.38733050684E+01 -0.36631742619E+01  0.53371946967E+01  0.51100000000E-03 0.  1.
         12    1    3    3    0    0  0.24779808144E+02  0.25450135053E+01 -0.20231885578E+02  0.32091200966E+02  0.00000000000E+00 0. -1.
</event>
<event>
 7    1  0.1714203E-010  0.4778727E+02  0.7816164E-02  0.1312668E+00
        -11   -1    0    0    0    0  0.00000000000E+00  0.00000000000E+00  0.45593999997E+02  0.45594000000E+02  0.51100000000E-03 0.  1.
         11   -1    0    0    0    0 -0.00000000000E+00 -0.00000000000E+00 -0.45593999997E+02  0.45594000000E+02  0.51100000000E-03 0. -1.
    9900012    2    1    2    0    0  0.20189278721E+02  0.28767130668E+02 -0.25465042816E+02  0.47787272037E+02  0.20000004524E+02 0.  0.
        -12    1    1    2    0    0 -0.20189278721E+02 -0.28767130668E+02  0.25465042816E+02  0.43400727963E+02  0.00000000000E+00 0.  1.
         11    1    3    3    0    0  0.64333854129E+01  0.15026314314E+02 -0.17475521309E+02  0.23928485431E+02  0.51100000000E-03 0. -1.
        -11    1    3    3    0    0  0.22398923022E+01 -0.19796567667E+01 -0.12304577010E+01  0.32326745667E+01  0.51100000000E-03 0.  1.
         12    1    3    3    0    0  0.11516001006E+02  0.15720473121E+02 -0.67590638056E+01  0.20626112039E+02  0.00000000000E+00 0. -1.
</event>
<event>
 7    1  0.1714203E-010  0.4778727E+02  0.7816164E-02  0.1312668E+00
        -11   -1    0    0    0    0  0.00000000000E+00  0.00000000000E+00  0.45593999997E+02  0.45594000000E+02  0.51100000000E-03 0.  1.
         11   -1    0    0    0    0 -0.00000000000E+00 -0.00000000000E+00 -0.45593999997E+02  0.45594000000E+02  0.51100000000E-03 0. -1.
    9900012    2    1    2    0    0 -0.23081941236E+02 -0.25306069619E+02 -0.26654264229E+02  0.47787274518E+02  0.20000015836E+02 0.  0.
        -12    1    1    2    0    0  0.23081941236E+02  0.25306069619E+02  0.26654264229E+02  0.43400725482E+02  0.00000000000E+00 0.  1.
         11    1    3    3    0    0 -0.10662887261E+02 -0.16695089684E+02 -0.13605862780E+02  0.24032117813E+02  0.51100000000E-03 0. -1.
        -11    1    3    3    0    0 -0.25300786908E+01 -0.69423010478E+01 -0.11409805211E+02  0.13593399032E+02  0.51100000000E-03 0.  1.
        -12    1    3    3    0    0 -0.98889752834E+01 -0.16686788873E+01 -0.16385962386E+01  0.10161757674E+02  0.00000000000E+00 0.  1.
</event>
<event>
 7    1  0.1714203E-010  0.4778731E+02  0.7816164E-02  0.1312668E+00
        -11   -1    0    0    0    0  0.00000000000E+00  0.00000000000E+00  0.45593999997E+02  0.45594000000E+02  0.51100000000E-03 0. -1.
         11   -1    0    0    0    0 -0.00000000000E+00 -0.00000000000E+00 -0.45593999997E+02  0.45594000000E+02  0.51100000000E-03 0.  1.
    9900012    2    1    2    0    0 -0.42359417633E+02 -0.93776054503E+01  0.11663392546E+01  0.47787307684E+02  0.20000167055E+02 0.  0.
        -12    1    1    2    0    0  0.42359417633E+02  0.93776054503E+01 -0.11663392546E+01  0.43400692316E+02  0.00000000000E+00 0.  1.
         11    1    3    3    0    0 -0.30295078442E+02 -0.95760520585E+01 -0.41140706077E+01  0.32037760971E+02  0.51100000000E-03 0. -1.
        -11    1    3    3    0    0 -0.13367506999E+02 -0.32716833977E+00  0.51834156824E+01  0.14341027888E+02  0.51100000000E-03 0.  1.
        -12    1    3    3    0    0  0.13031678077E+01  0.52561494788E+00  0.96994179953E-01  0.14085188247E+01  0.00000000000E+00 0.  1.
</event>
<event>
 7    1  0.1714203E-010  0.4778726E+02  0.7816164E-02  0.1312668E+00
        -11   -1    0    0    0    0  0.00000000000E+00  0.00000000000E+00  0.45593999997E+02  0.45594000000E+02  0.51100000000E-03 0.  1.
         11   -1    0    0    0    0 -0.00000000000E+00 -0.00000000000E+00 -0.45593999997E+02  0.45594000000E+02  0.51100000000E-03 0. -1.
    9900012    2    1    2    0    0  0.25765078827E+02 -0.34706597141E+02 -0.39035008771E+01  0.47787257021E+02  0.19999936059E+02 0.  0.
        -12    1    1    2    0    0 -0.25765078827E+02  0.34706597141E+02  0.39035008771E+01  0.43400742979E+02  0.00000000000E+00 0.  1.
         11    1    3    3    0    0  0.18668317460E+02 -0.18927875685E+02  0.16479534284E+01  0.26636184139E+02  0.51100000000E-03 0. -1.
        -11    1    3    3    0    0 -0.65711877441E+00 -0.62595693850E+00  0.22506299312E+01  0.24267184676E+01  0.51100000000E-03 0.  1.
         12    1    3    3    0    0  0.77538801413E+01 -0.15152764518E+02 -0.78020842367E+01  0.18724354414E+02  0.00000000000E+00 0. -1.
</event>
<event>
 7    1  0.1714203E-010  0.4778726E+02  0.7816164E-02  0.1312668E+00
        -11   -1    0    0    0    0  0.00000000000E+00  0.00000000000E+00  0.45593999997E+02  0.45594000000E+02  0.51100000000E-03 0.  1.
         11   -1    0    0    0    0 -0.00000000000E+00 -0.00000000000E+00 -0.45593999997E+02  0.45594000000E+02  0.51100000000E-03 0. -1.
    9900012    2    1    2    0    0  0.34247488793E+02  0.14607877880E+02 -0.22301199998E+02  0.47787261456E+02  0.19999956283E+02 0.  0.
        -12    1    1    2    0    0 -0.34247488793E+02 -0.14607877880E+02  0.22301199998E+02  0.43400738544E+02  0.00000000000E+00 0.  1.
         11    1    3    3    0    0  0.27604117143E+01 -0.49612018340E+00 -0.53390224857E+01  0.60308514683E+01  0.51100000000E-03 0. -1.
        -11    1    3    3    0    0  0.41162922309E+01 -0.20155064047E+01  0.11686296534E+01  0.47298861853E+01  0.51100000000E-03 0.  1.
        -12    1    3    3    0    0  0.27370784848E+02  0.17119504468E+02 -0.18130807165E+02  0.37026523803E+02  0.00000000000E+00 0.  1.
</event>
<event>
 7    1  0.1714203E-010  0.4778727E+02  0.7816164E-02  0.1312668E+00
        -11   -1    0    0    0    0  0.00000000000E+00  0.00000000000E+00  0.45593999997E+02  0.45594000000E+02  0.51100000000E-03 0. -1.
         11   -1    0    0    0    0 -0.00000000000E+00 -0.00000000000E+00 -0.45593999997E+02  0.45594000000E+02  0.51100000000E-03 0.  1.
    9900012    2    1    2    0    0  0.11853465358E+02 -0.19392013115E+02  0.36973893895E+02  0.47787266787E+02  0.19999980589E+02 0.  0.
        -12    1    1    2    0    0 -0.11853465358E+02  0.19392013115E+02 -0.36973893895E+02  0.43400733213E+02  0.00000000000E+00 0.  1.
         11    1    3    3    0    0  0.54857301229E+01 -0.80563453564E+01  0.29894081552E+02  0.31442869583E+02  0.51100000000E-03 0. -1.
        -11    1    3    3    0    0  0.55500776828E+00 -0.68986848749E+01  0.55547962531E+01  0.88744379146E+01  0.51100000000E-03 0.  1.
         12    1    3    3    0    0  0.58127274670E+01 -0.44369828833E+01  0.15250160899E+01  0.74699592895E+01  0.00000000000E+00 0. -1.
</event>
<event>
 7    1  0.1714203E-010  0.4778726E+02  0.7816164E-02  0.1312668E+00
        -11   -1    0    0    0    0  0.00000000000E+00  0.00000000000E+00  0.45593999997E+02  0.45594000000E+02  0.51100000000E-03 0.  1.
         11   -1    0    0    0    0 -0.00000000000E+00 -0.00000000000E+00 -0.45593999997E+02  0.45594000000E+02  0.51100000000E-03 0. -1.
    9900012    2    1    2    0    0 -0.15948347850E+01  0.21351970965E+02 -0.37751477278E+02  0.47787260390E+02  0.19999951421E+02 0.  0.
        -12    1    1    2    0    0  0.15948347850E+01 -0.21351970965E+02  0.37751477278E+02  0.43400739610E+02  0.00000000000E+00 0.  1.
         11    1    3    3    0    0  0.31922281637E+01  0.19260383901E+02 -0.20077498202E+02  0.28004618244E+02  0.51100000000E-03 0. -1.
        -11    1    3    3    0    0 -0.21443416378E+01  0.41731032972E+01 -0.14164155484E+02  0.14921001743E+02  0.51100000000E-03 0.  1.
        -12    1    3    3    0    0 -0.26427213109E+01 -0.20815162338E+01 -0.35098235922E+01  0.48616404029E+01  0.00000000000E+00 0.  1.
</event>
<event>
 7    1  0.1714203E-010  0.4778729E+02  0.7816164E-02  0.1312668E+00
        -11   -1    0    0    0    0  0.00000000000E+00  0.00000000000E+00  0.45593999997E+02  0.45594000000E+02  0.51100000000E-03 0.  1.
         11   -1    0    0    0    0 -0.00000000000E+00 -0.00000000000E+00 -0.45593999997E+02  0.45594000000E+02  0.51100000000E-03 0. -1.
    9900012    2    1    2    0    0  0.19451408183E+02 -0.36817846866E+01 -0.38622651630E+02  0.47787285286E+02  0.20000064931E+02 0.  0.
        -12    1    1    2    0    0 -0.19451408183E+02  0.36817846866E+01  0.38622651630E+02  0.43400714714E+02  0.00000000000E+00 0.  1.
         11    1    3    3    0    0  0.85291180931E+01 -0.24420514079E+01 -0.71901198299E+01  0.11419601305E+02  0.51100000000E-03 0. -1.
        -11    1    3    3    0    0  0.59684803368E+00  0.57028988620E+01 -0.80894249138E+01  0.99155473224E+01  0.51100000000E-03 0.  1.
         12    1    3    3    0    0  0.10325442056E+02 -0.69426321406E+01 -0.23343106886E+02  0.26452136659E+02  0.00000000000E+00 0. -1.
</event>
<event>
 7    1  0.1714203E-010  0.4778727E+02  0.7816164E-02  0.1312668E+00
        -11   -1    0    0    0    0  0.00000000000E+00  0.00000000000E+00  0.45593999997E+02  0.45594000000E+02  0.51100000000E-03 0.  1.
         11   -1    0    0    0    0 -0.00000000000E+00 -0.00000000000E+00 -0.45593999997E+02  0.45594000000E+02  0.51100000000E-03 0. -1.
    9900012    2    1    2    0    0 -0.28175175336E+02 -0.33002497719E+02  0.78630773100E+00  0.47787266818E+02  0.19999980729E+02 0.  0.
        -12    1    1    2    0    0  0.28175175336E+02  0.33002497719E+02 -0.78630773100E+00  0.43400733182E+02  0.00000000000E+00 0.  1.
         11    1    3    3    0    0 -0.12664873772E+02 -0.62872983533E+01  0.64436834454E+01  0.15538668053E+02  0.51100000000E-03 0. -1.
        -11    1    3    3    0    0 -0.24724346018E+01 -0.52561959926E+01 -0.40633048753E+01  0.70887922768E+01  0.51100000000E-03 0.  1.
         12    1    3    3    0    0 -0.13037866962E+02 -0.21459003373E+02 -0.15940708391E+01  0.25159806488E+02  0.00000000000E+00 0. -1.
</event>
<event>
 7    1  0.1714203E-010  0.4778727E+02  0.7816164E-02  0.1312668E+00
        -11   -1    0    0    0    0  0.00000000000E+00  0.00000000000E+00  0.45593999997E+02  0.45594000000E+02  0.51100000000E-03 0.  1.
         11   -1    0    0    0    0 -0.00000000000E+00 -0.00000000000E+00 -0.45593999997E+02  0.45594000000E+02  0.51100000000E-03 0. -1.
    9900012    2    1    2    0    0  0.13710034094E+02 -0.51051000080E+01 -0.40860693197E+02  0.47787270404E+02  0.19999997080E+02 0.  0.
        -12    1    1    2    0    0 -0.13710034094E+02  0.51051000080E+01  0.40860693197E+02  0.43400729596E+02  0.00000000000E+00 0.  1.
         11    1    3    3    0    0  0.67916715242E+01  0.22537847036E+01 -0.11577622629E+02  0.13610572861E+02  0.51100000000E-03 0. -1.
        -11    1    3    3    0    0 -0.34515575633E+01 -0.11518525973E+01 -0.15149976635E+02  0.15580815329E+02  0.51100000000E-03 0.  1.
        -12    1    3    3    0    0  0.10369920133E+02 -0.62070321144E+01 -0.14133093932E+02  0.18595882214E+02  0.00000000000E+00 0.  1.
</event>
<event>
 7    1  0.1714203E-010  0.4778727E+02  0.7816164E-02  0.1312668E+00
        -11   -1    0    0    0    0  0.00000000000E+00  0.00000000000E+00  0.45593999997E+02  0.45594000000E+02  0.51100000000E-03 0.  1.
         11   -1    0    0    0    0 -0.00000000000E+00 -0.00000000000E+00 -0.45593999997E+02  0.45594000000E+02  0.51100000000E-03 0. -1.
    9900012    2    1    2    0    0  0.26497857074E+02  0.11790293214E+02  0.32287392778E+02  0.47787272172E+02  0.20000005139E+02 0.  0.
        -12    1    1    2    0    0 -0.26497857074E+02 -0.11790293214E+02 -0.32287392778E+02  0.43400727828E+02  0.00000000000E+00 0.  1.
         11    1    3    3    0    0  0.21077309663E+02  0.13403997897E+02  0.16260182173E+02  0.29804591371E+02  0.51100000000E-03 0. -1.
        -11    1    3    3    0    0  0.34046614192E+01  0.15369608496E+01  0.11601611626E+02  0.12188164776E+02  0.51100000000E-03 0.  1.
         12    1    3    3    0    0  0.20158859922E+01 -0.31506655322E+01  0.44255989798E+01  0.57945160246E+01  0.00000000000E+00 0. -1.
</event>
<event>
 7    1  0.1714203E-010  0.4778727E+02  0.7816164E-02  0.1312668E+00
        -11   -1    0    0    0    0  0.00000000000E+00  0.00000000000E+00  0.45593999997E+02  0.45594000000E+02  0.51100000000E-03 0.  1.
         11   -1    0    0    0    0 -0.00000000000E+00 -0.00000000000E+00 -0.45593999997E+02  0.45594000000E+02  0.51100000000E-03 0. -1.
    9900012    2    1    2    0    0 -0.17712301991E+02  0.35353788603E+02  0.17888743458E+02  0.47787272438E+02  0.20000006355E+02 0.  0.
        -12    1    1    2    0    0  0.17712301991E+02 -0.35353788603E+02 -0.17888743458E+02  0.43400727562E+02  0.00000000000E+00 0.  1.
         11    1    3    3    0    0 -0.32432100989E+01  0.15614782508E+02  0.10065696771E+02  0.18858899657E+02  0.51100000000E-03 0. -1.
        -11    1    3    3    0    0 -0.43058211499E+01 -0.25801558152E+00  0.45321140276E+01  0.62567344226E+01  0.51100000000E-03 0.  1.
        -12    1    3    3    0    0 -0.10163270742E+02  0.19997021676E+02  0.32909326596E+01  0.22671638359E+02  0.00000000000E+00 0.  1.
</event>
<event>
 7    1  0.1714203E-010  0.4778727E+02  0.7816164E-02  0.1312668E+00
        -11   -1    0    0    0    0  0.00000000000E+00  0.00000000000E+00  0.45593999997E+02  0.45594000000E+02  0.51100000000E-03 0.  1.
         11   -1    0    0    0    0 -0.00000000000E+00 -0.00000000000E+00 -0.45593999997E+02  0.45594000000E+02  0.51100000000E-03 0. -1.
    9900012    2    1    2    0    0 -0.62556277584E+01 -0.41556927685E+02 -0.10840292088E+02  0.47787273626E+02  0.20000011769E+02 0.  0.
        -12    1    1    2    0    0  0.62556277584E+01  0.41556927685E+02  0.10840292088E+02  0.43400726374E+02  0.00000000000E+00 0.  1.
         11    1    3    3    0    0 -0.99065991932E+01 -0.40014176856E+02 -0.98313736301E+01  0.42378425700E+02  0.51100000000E-03 0. -1.
        -11    1    3    3    0    0  0.60541549202E+00  0.11129594825E+01 -0.13065091886E+00  0.12736862453E+01  0.51100000000E-03 0.  1.
         12    1    3    3    0    0  0.30455559427E+01 -0.26557103112E+01 -0.87826753900E+00  0.41351616809E+01  0.00000000000E+00 0. -1.
</event>
<event>
 7    1  0.1714203E-010  0.4778727E+02  0.7816164E-02  0.1312668E+00
        -11   -1    0    0    0    0  0.00000000000E+00  0.00000000000E+00  0.45593999997E+02  0.45594000000E+02  0.51100000000E-03 0.  1.
         11   -1    0    0    0    0 -0.00000000000E+00 -0.00000000000E+00 -0.45593999997E+02  0.45594000000E+02  0.51100000000E-03 0. -1.
    9900012    2    1    2    0    0  0.46486365174E+01 -0.30746999591E+01 -0.43041373914E+02  0.47787268789E+02  0.19999989715E+02 0.  0.
        -12    1    1    2    0    0 -0.46486365174E+01  0.30746999591E+01  0.43041373914E+02  0.43400731211E+02  0.00000000000E+00 0.  1.
         11    1    3    3    0    0  0.15374649272E+01  0.25019438840E+01 -0.73291342577E+01  0.78955513316E+01  0.51100000000E-03 0. -1.
        -11    1    3    3    0    0 -0.11576267497E+01 -0.83426230044E+01 -0.33136505820E+02  0.34190166372E+02  0.51100000000E-03 0.  1.
        -12    1    3    3    0    0  0.42687983399E+01  0.27659791613E+01 -0.25757338355E+01  0.57015510854E+01  0.00000000000E+00 0.  1.
</event>
<event>
 7    1  0.1751630E-010  0.4778727E+02  0.7816164E-02  0.1312668E+00
        -11   -1    0    0    0    0  0.00000000000E+00  0.00000000000E+00  0.45593999997E+02  0.45594000000E+02  0.51100000000E-03 0.  1.
         11   -1    0    0    0    0 -0.00000000000E+00 -0.00000000000E+00 -0.45593999997E+02  0.45594000000E+02  0.51100000000E-03 0. -1.
    9900012    2    1    2    0    0  0.28447993896E+02 -0.25409100191E+02 -0.20705375389E+02  0.47787270752E+02  0.19999998667E+02 0.  0.
        -12    1    1    2    0    0 -0.28447993896E+02  0.25409100191E+02  0.20705375389E+02  0.43400729248E+02  0.00000000000E+00 0.  1.
         11    1    3    3    0    0  0.17067947599E+02 -0.19177821139E+02 -0.20088770334E+02  0.32598502307E+02  0.51100000000E-03 0. -1.
        -11    1    3    3    0    0 -0.37972253344E-01 -0.24927543859E+01  0.16127377861E+01  0.29692069224E+01  0.51100000000E-03 0.  1.
        -12    1    3    3    0    0  0.11418018550E+02 -0.37385246670E+01 -0.22293428408E+01  0.12219561522E+02  0.00000000000E+00 0.  1.
</event>
<event>
 7    1  0.1714203E-010  0.4778727E+02  0.7816164E-02  0.1312668E+00
        -11   -1    0    0    0    0  0.00000000000E+00  0.00000000000E+00  0.45593999997E+02  0.45594000000E+02  0.51100000000E-03 0. -1.
         11   -1    0    0    0    0 -0.00000000000E+00 -0.00000000000E+00 -0.45593999997E+02  0.45594000000E+02  0.51100000000E-03 0.  1.
    9900012    2    1    2    0    0 -0.33796619820E+02  0.19258448624E+02  0.19249005249E+02  0.47787267775E+02  0.19999985091E+02 0.  0.
        -12    1    1    2    0    0  0.33796619820E+02 -0.19258448624E+02 -0.19249005249E+02  0.43400732225E+02  0.00000000000E+00 0.  1.
         11    1    3    3    0    0 -0.14441999204E+02  0.65929891323E+01  0.30253183088E+01  0.16161416950E+02  0.51100000000E-03 0.  1.
        -11    1    3    3    0    0 -0.10479041850E+02  0.51132677273E+01  0.11867996037E-01  0.11660015697E+02  0.51100000000E-03 0. -1.
        -12    1    3    3    0    0 -0.88755787662E+01  0.75521917644E+01  0.16211818944E+02  0.19965835128E+02  0.00000000000E+00 0.  1.
</event>
<event>
 7    1  0.1714203E-010  0.4778727E+02  0.7816164E-02  0.1312668E+00
        -11   -1    0    0    0    0  0.00000000000E+00  0.00000000000E+00  0.45593999997E+02  0.45594000000E+02  0.51100000000E-03 0.  1.
         11   -1    0    0    0    0 -0.00000000000E+00 -0.00000000000E+00 -0.45593999997E+02  0.45594000000E+02  0.51100000000E-03 0. -1.
    9900012    2    1    2    0    0 -0.13175773428E+02 -0.26221428250E+02 -0.31975909000E+02  0.47787273494E+02  0.20000011169E+02 0.  0.
        -12    1    1    2    0    0  0.13175773428E+02  0.26221428250E+02  0.31975909000E+02  0.43400726506E+02  0.00000000000E+00 0.  1.
         11    1    3    3    0    0 -0.39072986326E+01 -0.12571079697E+02 -0.13201503911E+02  0.18643463550E+02  0.51100000000E-03 0. -1.
        -11    1    3    3    0    0 -0.87302647634E+01 -0.10209613306E+02 -0.21059041307E+02  0.24978729906E+02  0.51100000000E-03 0.  1.
         12    1    3    3    0    0 -0.53821003163E+00 -0.34407352460E+01  0.22846362181E+01  0.41650800377E+01  0.00000000000E+00 0. -1.
</event>
<event>
 7    1  0.1714203E-010  0.4778727E+02  0.7816164E-02  0.1312668E+00
        -11   -1    0    0    0    0  0.00000000000E+00  0.00000000000E+00  0.45593999997E+02  0.45594000000E+02  0.51100000000E-03 0.  1.
         11   -1    0    0    0    0 -0.00000000000E+00 -0.00000000000E+00 -0.45593999997E+02  0.45594000000E+02  0.51100000000E-03 0. -1.
    9900012    2    1    2    0    0 -0.19296104877E+02  0.38866345261E+02 -0.83105217011E+00  0.47787272989E+02  0.20000008866E+02 0.  0.
        -12    1    1    2    0    0  0.19296104877E+02 -0.38866345261E+02  0.83105217011E+00  0.43400727011E+02  0.00000000000E+00 0.  1.
         11    1    3    3    0    0 -0.72224173799E+01  0.18429174578E+02 -0.42830911888E+01  0.20251979133E+02  0.51100000000E-03 0. -1.
        -11    1    3    3    0    0  0.91980172558E+00 -0.65974075384E+00 -0.18766033918E+01  0.21915596337E+01  0.51100000000E-03 0.  1.
         12    1    3    3    0    0 -0.12993489223E+02  0.21096911437E+02  0.53286424104E+01  0.25343734222E+02  0.00000000000E+00 0. -1.
</event>
<event>
 7    1  0.1714203E-010  0.4778727E+02  0.7816164E-02  0.1312668E+00
        -11   -1    0    0    0    0  0.00000000000E+00  0.00000000000E+00  0.45593999997E+02  0.45594000000E+02  0.51100000000E-03 0.  1.
         11   -1    0    0    0    0 -0.00000000000E+00 -0.00000000000E+00 -0.45593999997E+02  0.45594000000E+02  0.51100000000E-03 0. -1.
    9900012    2    1    2    0    0  0.27672000194E+02 -0.30845074175E+02 -0.12902132814E+02  0.47787271587E+02  0.20000002474E+02 0.  0.
        -12    1    1    2    0    0 -0.27672000194E+02  0.30845074175E+02  0.12902132814E+02  0.43400728413E+02  0.00000000000E+00 0.  1.
         11    1    3    3    0    0 -0.55019386727E-01 -0.45645021561E+01 -0.34408238763E+01  0.57163778982E+01  0.51100000000E-03 0. -1.
        -11    1    3    3    0    0  0.10262707722E+02 -0.83425544805E+01  0.37719761344E+01  0.13753151976E+02  0.51100000000E-03 0.  1.
        -12    1    3    3    0    0  0.17464311859E+02 -0.17938017539E+02 -0.13233285072E+02  0.28317741713E+02  0.00000000000E+00 0.  1.
</event>
<event>
 7    1  0.1714203E-010  0.4778727E+02  0.7816164E-02  0.1312668E+00
        -11   -1    0    0    0    0  0.00000000000E+00  0.00000000000E+00  0.45593999997E+02  0.45594000000E+02  0.51100000000E-03 0. -1.
         11   -1    0    0    0    0 -0.00000000000E+00 -0.00000000000E+00 -0.45593999997E+02  0.45594000000E+02  0.51100000000E-03 0.  1.
    9900012    2    1    2    0    0 -0.19904570260E+02  0.38464939418E+02 -0.28071024081E+01  0.47787270679E+02  0.19999998332E+02 0.  0.
        -12    1    1    2    0    0  0.19904570260E+02 -0.38464939418E+02  0.28071024081E+01  0.43400729321E+02  0.00000000000E+00 0.  1.
         11    1    3    3    0    0 -0.11640600778E+02  0.17218966004E+02 -0.46902446092E+01  0.21307153058E+02  0.51100000000E-03 0. -1.
        -11    1    3    3    0    0 -0.31640112288E+01  0.99396501613E+01  0.75168303134E+01  0.12857307284E+02  0.51100000000E-03 0.  1.
         12    1    3    3    0    0 -0.50999582541E+01  0.11306323253E+02 -0.56336881124E+01  0.13622810336E+02  0.00000000000E+00 0. -1.
</event>
<event>
 7    1  0.1714203E-010  0.4778726E+02  0.7816164E-02  0.1312668E+00
        -11   -1    0    0    0    0  0.00000000000E+00  0.00000000000E+00  0.45593999997E+02  0.45594000000E+02  0.51100000000E-03 0.  1.
         11   -1    0    0    0    0 -0.00000000000E+00 -0.00000000000E+00 -0.45593999997E+02  0.45594000000E+02  0.51100000000E-03 0. -1.
    9900012    2    1    2    0    0  0.42910720256E+02  0.12733646224E+01 -0.63775317191E+01  0.47787259440E+02  0.19999947089E+02 0.  0.
        -12    1    1    2    0    0 -0.42910720256E+02 -0.12733646224E+01  0.63775317191E+01  0.43400740560E+02  0.00000000000E+00 0.  1.
         11    1    3    3    0    0  0.12403693013E+02 -0.30000456096E+01  0.19699904587E+01  0.12912503114E+02  0.51100000000E-03 0. -1.
        -11    1    3    3    0    0  0.22248110109E+02 -0.15938913357E+01 -0.10281858641E+02  0.24560853210E+02  0.51100000000E-03 0.  1.
        -12    1    3    3    0    0  0.82589171343E+01  0.58673015677E+01  0.19343364635E+01  0.10313903115E+02  0.00000000000E+00 0.  1.
</event>
<event>
 7    1  0.1714203E-010  0.4778727E+02  0.7816164E-02  0.1312668E+00
        -11   -1    0    0    0    0  0.00000000000E+00  0.00000000000E+00  0.45593999997E+02  0.45594000000E+02  0.51100000000E-03 0. -1.
         11   -1    0    0    0    0 -0.00000000000E+00 -0.00000000000E+00 -0.45593999997E+02  0.45594000000E+02  0.51100000000E-03 0.  1.
    9900012    2    1    2    0    0 -0.18414269318E+02  0.30863110542E+02 -0.24331176521E+02  0.47787273534E+02  0.20000011352E+02 0.  0.
        -12    1    1    2    0    0  0.18414269318E+02 -0.30863110542E+02  0.24331176521E+02  0.43400726466E+02  0.00000000000E+00 0.  1.
         11    1    3    3    0    0 -0.55054473070E+00 -0.10041926380E+01 -0.43201477255E+01  0.44693600198E+01  0.51100000000E-03 0.  1.
        -11    1    3    3    0    0 -0.62852027272E+01  0.20491999499E+02 -0.15562033174E+02  0.26487783855E+02  0.51100000000E-03 0. -1.
        -12    1    3    3    0    0 -0.11578521860E+02  0.11375303681E+02 -0.44489956208E+01  0.16830129659E+02  0.00000000000E+00 0.  1.
</event>
<event>
 7    1  0.1714203E-010  0.4778727E+02  0.7816164E-02  0.1312668E+00
        -11   -1    0    0    0    0  0.00000000000E+00  0.00000000000E+00  0.45593999997E+02  0.45594000000E+02  0.51100000000E-03 0.  1.
         11   -1    0    0    0    0 -0.00000000000E+00 -0.00000000000E+00 -0.45593999997E+02  0.45594000000E+02  0.51100000000E-03 0. -1.
    9900012    2    1    2    0    0 -0.33174903218E+02  0.94843774002E-01 -0.27982851127E+02  0.47787272401E+02  0.20000006187E+02 0.  0.
        -12    1    1    2    0    0  0.33174903218E+02 -0.94843774002E-01  0.27982851127E+02  0.43400727599E+02  0.00000000000E+00 0.  1.
         11    1    3    3    0    0 -0.14754365759E+02 -0.65251069863E+00 -0.11589082483E+02  0.18772956938E+02  0.51100000000E-03 0. -1.
        -11    1    3    3    0    0 -0.14344603645E+02 -0.76060642409E+00 -0.26595221372E+01  0.14608875184E+02  0.51100000000E-03 0.  1.
         12    1    3    3    0    0 -0.40759338143E+01  0.15079608967E+01 -0.13734246507E+02  0.14405440280E+02  0.00000000000E+00 0. -1.
</event>
<event>
 7    1  0.1714203E-010  0.4778727E+02  0.7816164E-02  0.1312668E+00
        -11   -1    0    0    0    0  0.00000000000E+00  0.00000000000E+00  0.45593999997E+02  0.45594000000E+02  0.51100000000E-03 0.  1.
         11   -1    0    0    0    0 -0.00000000000E+00 -0.00000000000E+00 -0.45593999997E+02  0.45594000000E+02  0.51100000000E-03 0. -1.
    9900012    2    1    2    0    0  0.17411789051E+02 -0.16042978642E+01 -0.39722527858E+02  0.47787269718E+02  0.19999993953E+02 0.  0.
        -12    1    1    2    0    0 -0.17411789051E+02  0.16042978642E+01  0.39722527858E+02  0.43400730282E+02  0.00000000000E+00 0.  1.
         11    1    3    3    0    0  0.10261697571E+02 -0.69230491408E+01 -0.15564792392E+02  0.19887026146E+02  0.51100000000E-03 0. -1.
        -11    1    3    3    0    0  0.94586548585E+01  0.30934590289E+01 -0.21656569801E+02  0.23833645468E+02  0.51100000000E-03 0.  1.
        -12    1    3    3    0    0 -0.23085633788E+01  0.22252922478E+01 -0.25011656647E+01  0.40665981046E+01  0.00000000000E+00 0.  1.
</event>
<event>
 7    1  0.1714203E-010  0.4778728E+02  0.7816164E-02  0.1312668E+00
        -11   -1    0    0    0    0  0.00000000000E+00  0.00000000000E+00  0.45593999997E+02  0.45594000000E+02  0.51100000000E-03 0. -1.
         11   -1    0    0    0    0 -0.00000000000E+00 -0.00000000000E+00 -0.45593999997E+02  0.45594000000E+02  0.51100000000E-03 0.  1.
    9900012    2    1    2    0    0  0.12550979836E+02 -0.39193297214E+02 -0.13783357084E+02  0.47787279109E+02  0.20000036768E+02 0.  0.
        -12    1    1    2    0    0 -0.12550979836E+02  0.39193297214E+02  0.13783357084E+02  0.43400720891E+02  0.00000000000E+00 0.  1.
         11    1    3    3    0    0  0.97614752614E+00 -0.66033337659E+01  0.10674698734E+01  0.67599092456E+01  0.51100000000E-03 0. -1.
        -11    1    3    3    0    0  0.50591915748E+01 -0.20581448602E+02 -0.17035006284E+02  0.27191595858E+02  0.51100000000E-03 0.  1.
        -12    1    3    3    0    0  0.65156407352E+01 -0.12008514846E+02  0.21841793257E+01  0.13835774005E+02  0.00000000000E+00 0.  1.
</event>
<event>
 7    1  0.1714203E-010  0.4778721E+02  0.7816164E-02  0.1312668E+00
        -11   -1    0    0    0    0  0.00000000000E+00  0.00000000000E+00  0.45593999997E+02  0.45594000000E+02  0.51100000000E-03 0. -1.
         11   -1    0    0    0    0 -0.00000000000E+00 -0.00000000000E+00 -0.45593999997E+02  0.45594000000E+02  0.51100000000E-03 0.  1.
    9900012    2    1    2    0    0 -0.10961771610E+02  0.37748093571E+02 -0.18399725165E+02  0.47787206329E+02  0.19999704936E+02 0.  0.
        -12    1    1    2    0    0  0.10961771610E+02 -0.37748093571E+02  0.18399725165E+02  0.43400793671E+02  0.00000000000E+00 0.  1.
         11    1    3    3    0    0 -0.85958005574E+01  0.68000926087E+01 -0.77826834535E+01  0.13442440579E+02  0.51100000000E-03 0. -1.
        -11    1    3    3    0    0 -0.34753507575E+01  0.41588074916E+01  0.22270366477E+00  0.54243285136E+01  0.51100000000E-03 0.  1.
        -12    1    3    3    0    0  0.11093797052E+01  0.26789193471E+02 -0.10839745376E+02  0.28920437237E+02  0.00000000000E+00 0.  1.
</event>
<event>
 7    1  0.1714203E-010  0.4778727E+02  0.7816164E-02  0.1312668E+00
        -11   -1    0    0    0    0  0.00000000000E+00  0.00000000000E+00  0.45593999997E+02  0.45594000000E+02  0.51100000000E-03 0. -1.
         11   -1    0    0    0    0 -0.00000000000E+00 -0.00000000000E+00 -0.45593999997E+02  0.45594000000E+02  0.51100000000E-03 0.  1.
    9900012    2    1    2    0    0 -0.30938395747E+02  0.11612375039E+02  0.28135233996E+02  0.47787274460E+02  0.20000015571E+02 0.  0.
        -12    1    1    2    0    0  0.30938395747E+02 -0.11612375039E+02 -0.28135233996E+02  0.43400725540E+02  0.00000000000E+00 0.  1.
         11    1    3    3    0    0 -0.15566644489E+02  0.10237123101E+02  0.20693827344E+02  0.27845171941E+02  0.51100000000E-03 0. -1.
        -11    1    3    3    0    0  0.15122232291E+01 -0.23313902979E+00  0.42812182327E+00  0.15888553926E+01  0.51100000000E-03 0.  1.
        -12    1    3    3    0    0 -0.16883974486E+02  0.16083909687E+01  0.70132848287E+01  0.18353247126E+02  0.00000000000E+00 0.  1.
</event>
<event>
 7    1  0.1714203E-010  0.4778728E+02  0.7816164E-02  0.1312668E+00
        -11   -1    0    0    0    0  0.00000000000E+00  0.00000000000E+00  0.45593999997E+02  0.45594000000E+02  0.51100000000E-03 0.  1.
         11   -1    0    0    0    0 -0.00000000000E+00 -0.00000000000E+00 -0.45593999997E+02  0.45594000000E+02  0.51100000000E-03 0. -1.
    9900012    2    1    2    0    0  0.32157055668E+02 -0.15905267143E+02 -0.24424761975E+02  0.47787277084E+02  0.20000027535E+02 0.  0.
        -12    1    1    2    0    0 -0.32157055668E+02  0.15905267143E+02  0.24424761975E+02  0.43400722916E+02  0.00000000000E+00 0.  1.
         11    1    3    3    0    0  0.21697100452E+02 -0.11239126676E+02 -0.82881698360E+01  0.25802633508E+02  0.51100000000E-03 0. -1.
        -11    1    3    3    0    0  0.60367263857E+01 -0.75340195003E+01 -0.10157936785E+02  0.14013821580E+02  0.51100000000E-03 0.  1.
         12    1    3    3    0    0  0.44232288302E+01  0.28678790338E+01 -0.59786553544E+01  0.79708219955E+01  0.00000000000E+00 0. -1.
</event>
<event>
 7    1  0.1714203E-010  0.4778727E+02  0.7816164E-02  0.1312668E+00
        -11   -1    0    0    0    0  0.00000000000E+00  0.00000000000E+00  0.45593999997E+02  0.45594000000E+02  0.51100000000E-03 0.  1.
         11   -1    0    0    0    0 -0.00000000000E+00 -0.00000000000E+00 -0.45593999997E+02  0.45594000000E+02  0.51100000000E-03 0. -1.
    9900012    2    1    2    0    0  0.25475310687E+01  0.22976966181E+01 -0.43264929102E+02  0.47787269425E+02  0.19999992615E+02 0.  0.
        -12    1    1    2    0    0 -0.25475310687E+01 -0.22976966181E+01  0.43264929102E+02  0.43400730575E+02  0.00000000000E+00 0.  1.
         11    1    3    3    0    0 -0.49475574928E+01 -0.12594128726E+01 -0.87376749943E+01  0.10119852296E+02  0.51100000000E-03 0. -1.
        -11    1    3    3    0    0 -0.12549002672E+01  0.11920393737E+01  0.23155966584E+00  0.17462395853E+01  0.51100000000E-03 0.  1.
         12    1    3    3    0    0  0.87499888287E+01  0.23650701171E+01 -0.34758813773E+02  0.35921177543E+02  0.00000000000E+00 0. -1.
</event>
<event>
 7    1  0.1714203E-010  0.4778727E+02  0.7816164E-02  0.1312668E+00
        -11   -1    0    0    0    0  0.00000000000E+00  0.00000000000E+00  0.45593999997E+02  0.45594000000E+02  0.51100000000E-03 0.  1.
         11   -1    0    0    0    0 -0.00000000000E+00 -0.00000000000E+00 -0.45593999997E+02  0.45594000000E+02  0.51100000000E-03 0. -1.
    9900012    2    1    2    0    0  0.13002053631E+02 -0.10074293131E+00 -0.41407241399E+02  0.47787272033E+02  0.20000004510E+02 0.  0.
        -12    1    1    2    0    0 -0.13002053631E+02  0.10074293131E+00  0.41407241399E+02  0.43400727967E+02  0.00000000000E+00 0.  1.
         11    1    3    3    0    0  0.52833555447E+01 -0.75835476513E+01 -0.30461730355E+02  0.31833018350E+02  0.51100000000E-03 0. -1.
        -11    1    3    3    0    0  0.44985520111E+01  0.29742943498E+01 -0.80861190066E+01  0.97195019382E+01  0.51100000000E-03 0.  1.
         12    1    3    3    0    0  0.32201460756E+01  0.45085103702E+01 -0.28593920374E+01  0.62347517456E+01  0.00000000000E+00 0. -1.
</event>
<event>
 7    1  0.1714203E-010  0.4778727E+02  0.7816164E-02  0.1312668E+00
        -11   -1    0    0    0    0  0.00000000000E+00  0.00000000000E+00  0.45593999997E+02  0.45594000000E+02  0.51100000000E-03 0. -1.
         11   -1    0    0    0    0 -0.00000000000E+00 -0.00000000000E+00 -0.45593999997E+02  0.45594000000E+02  0.51100000000E-03 0.  1.
    9900012    2    1    2    0    0  0.82367958365E+00 -0.25421657708E+01  0.43318382004E+02  0.47787271039E+02  0.19999999976E+02 0.  0.
        -12    1    1    2    0    0 -0.82367958365E+00  0.25421657708E+01 -0.43318382004E+02  0.43400728961E+02  0.00000000000E+00 0.  1.
         11    1    3    3    0    0  0.67224656581E+00 -0.40751249436E+01  0.29501128138E+02  0.29788842214E+02  0.51100000000E-03 0. -1.
        -11    1    3    3    0    0 -0.61874128002E+00  0.98389323756E+00  0.15778376555E+02  0.15821126813E+02  0.51100000000E-03 0.  1.
        -12    1    3    3    0    0  0.77017429786E+00  0.54906593524E+00 -0.19611226888E+01  0.21773020119E+01  0.00000000000E+00 0.  1.
</event>
<event>
 7    1  0.1714203E-010  0.4778727E+02  0.7816164E-02  0.1312668E+00
        -11   -1    0    0    0    0  0.00000000000E+00  0.00000000000E+00  0.45593999997E+02  0.45594000000E+02  0.51100000000E-03 0.  1.
         11   -1    0    0    0    0 -0.00000000000E+00 -0.00000000000E+00 -0.45593999997E+02  0.45594000000E+02  0.51100000000E-03 0. -1.
    9900012    2    1    2    0    0  0.17502082298E+02  0.19877014619E+02 -0.34383207431E+02  0.47787267884E+02  0.19999985591E+02 0.  0.
        -12    1    1    2    0    0 -0.17502082298E+02 -0.19877014619E+02  0.34383207431E+02  0.43400732116E+02  0.00000000000E+00 0.  1.
         11    1    3    3    0    0  0.11937234511E+02  0.15853679019E+02 -0.17297795166E+02  0.26325850871E+02  0.51100000000E-03 0. -1.
        -11    1    3    3    0    0  0.28042801121E+01 -0.14231764969E+01  0.17814990118E+00  0.31497866494E+01  0.51100000000E-03 0.  1.
        -12    1    3    3    0    0  0.27605676753E+01  0.54465120970E+01 -0.17263562166E+02  0.18311630364E+02  0.00000000000E+00 0.  1.
</event>
<event>
 7    1  0.1714203E-010  0.4778727E+02  0.7816164E-02  0.1312668E+00
        -11   -1    0    0    0    0  0.00000000000E+00  0.00000000000E+00  0.45593999997E+02  0.45594000000E+02  0.51100000000E-03 0.  1.
         11   -1    0    0    0    0 -0.00000000000E+00 -0.00000000000E+00 -0.45593999997E+02  0.45594000000E+02  0.51100000000E-03 0. -1.
    9900012    2    1    2    0    0 -0.13589798764E+01 -0.57121311565E+01 -0.43001718852E+02  0.47787273129E+02  0.20000009506E+02 0.  0.
        -12    1    1    2    0    0  0.13589798764E+01  0.57121311565E+01  0.43001718852E+02  0.43400726871E+02  0.00000000000E+00 0.  1.
         11    1    3    3    0    0  0.10669744638E+01 -0.40796592075E+01 -0.16555396748E+02  0.17084004668E+02  0.51100000000E-03 0. -1.
        -11    1    3    3    0    0 -0.94234831664E+00  0.68668024541E+01 -0.10715784359E+02  0.12762015161E+02  0.51100000000E-03 0.  1.
         12    1    3    3    0    0 -0.14836060235E+01 -0.84992744031E+01 -0.15730537746E+02  0.17941253300E+02  0.00000000000E+00 0. -1.
</event>
<event>
 7    1  0.1714203E-010  0.4778727E+02  0.7816164E-02  0.1312668E+00
        -11   -1    0    0    0    0  0.00000000000E+00  0.00000000000E+00  0.45593999997E+02  0.45594000000E+02  0.51100000000E-03 0.  1.
         11   -1    0    0    0    0 -0.00000000000E+00 -0.00000000000E+00 -0.45593999997E+02  0.45594000000E+02  0.51100000000E-03 0. -1.
    9900012    2    1    2    0    0 -0.10419594122E+02 -0.40603500113E+01 -0.41935291267E+02  0.47787273767E+02  0.20000012414E+02 0.  0.
        -12    1    1    2    0    0  0.10419594122E+02  0.40603500113E+01  0.41935291267E+02  0.43400726233E+02  0.00000000000E+00 0.  1.
         11    1    3    3    0    0 -0.42243067782E+01  0.18697930848E+01 -0.21012813213E+02  0.21514627892E+02  0.51100000000E-03 0. -1.
        -11    1    3    3    0    0 -0.38719343495E+00 -0.47872615177E+01 -0.19636184191E+02  0.20215032066E+02  0.51100000000E-03 0.  1.
        -12    1    3    3    0    0 -0.58080939088E+01 -0.11428815784E+01 -0.12862938631E+01  0.60576138089E+01  0.00000000000E+00 0.  1.
</event>
<event>
 7    1  0.1714203E-010  0.4778726E+02  0.7816164E-02  0.1312668E+00
        -11   -1    0    0    0    0  0.00000000000E+00  0.00000000000E+00  0.45593999997E+02  0.45594000000E+02  0.51100000000E-03 0.  1.
         11   -1    0    0    0    0 -0.00000000000E+00 -0.00000000000E+00 -0.45593999997E+02  0.45594000000E+02  0.51100000000E-03 0. -1.
    9900012    2    1    2    0    0 -0.17466315157E+02  0.21501453992E+02 -0.33410170170E+02  0.47787260839E+02  0.19999953470E+02 0.  0.
        -12    1    1    2    0    0  0.17466315157E+02 -0.21501453992E+02  0.33410170170E+02  0.43400739161E+02  0.00000000000E+00 0.  1.
         11    1    3    3    0    0 -0.15164168510E+02  0.52239379126E+01 -0.11390589418E+02  0.19671986718E+02  0.51100000000E-03 0. -1.
        -11    1    3    3    0    0 -0.17174531842E+01  0.88389282089E+00 -0.37476336620E+01  0.42161202882E+01  0.51100000000E-03 0.  1.
        -12    1    3    3    0    0 -0.58469346359E+00  0.15393623258E+02 -0.18271947090E+02  0.23899153833E+02  0.00000000000E+00 0.  1.
</event>
<event>
 7    1  0.1714203E-010  0.4778727E+02  0.7816164E-02  0.1312668E+00
        -11   -1    0    0    0    0  0.00000000000E+00  0.00000000000E+00  0.45593999997E+02  0.45594000000E+02  0.51100000000E-03 0. -1.
         11   -1    0    0    0    0 -0.00000000000E+00 -0.00000000000E+00 -0.45593999997E+02  0.45594000000E+02  0.51100000000E-03 0.  1.
    9900012    2    1    2    0    0  0.36473695644E+01  0.43001583701E+02 -0.46025906046E+01  0.47787270216E+02  0.19999996222E+02 0.  0.
        -12    1    1    2    0    0 -0.36473695644E+01 -0.43001583701E+02  0.46025906046E+01  0.43400729784E+02  0.00000000000E+00 0.  1.
         11    1    3    3    0    0  0.30726428371E+01  0.86378742703E+01  0.18028613526E+01  0.93436778215E+01  0.51100000000E-03 0. -1.
        -11    1    3    3    0    0  0.43325984309E+01  0.23215894166E+02  0.24151806042E+01  0.23739887294E+02  0.51100000000E-03 0.  1.
        -12    1    3    3    0    0 -0.37578717035E+01  0.11147815264E+02 -0.88206325614E+01  0.14703705101E+02  0.00000000000E+00 0.  1.
</event>
<event>
 7    1  0.1714203E-010  0.4778726E+02  0.7816164E-02  0.1312668E+00
        -11   -1    0    0    0    0  0.00000000000E+00  0.00000000000E+00  0.45593999997E+02  0.45594000000E+02  0.51100000000E-03 0. -1.
         11   -1    0    0    0    0 -0.00000000000E+00 -0.00000000000E+00 -0.45593999997E+02  0.45594000000E+02  0.51100000000E-03 0.  1.
    9900012    2    1    2    0    0 -0.20965299431E+02  0.33153623925E+02  0.18571960814E+02  0.47787259360E+02  0.19999946725E+02 0.  0.
        -12    1    1    2    0    0  0.20965299431E+02 -0.33153623925E+02 -0.18571960814E+02  0.43400740640E+02  0.00000000000E+00 0.  1.
         11    1    3    3    0    0 -0.30191762900E+01  0.20582314489E+01  0.58018318305E+01  0.68566022940E+01  0.51100000000E-03 0. -1.
        -11    1    3    3    0    0 -0.52914778981E+01  0.16414573121E+01 -0.16480414365E+01  0.57801523588E+01  0.51100000000E-03 0.  1.
         12    1    3    3    0    0 -0.12654645243E+02  0.29453935164E+02  0.14418170420E+02  0.35150504707E+02  0.00000000000E+00 0. -1.
</event>
<event>
 7    1  0.1714203E-010  0.4778727E+02  0.7816164E-02  0.1312668E+00
        -11   -1    0    0    0    0  0.00000000000E+00  0.00000000000E+00  0.45593999997E+02  0.45594000000E+02  0.51100000000E-03 0.  1.
         11   -1    0    0    0    0 -0.00000000000E+00 -0.00000000000E+00 -0.45593999997E+02  0.45594000000E+02  0.51100000000E-03 0. -1.
    9900012    2    1    2    0    0 -0.31231601544E+02  0.19124739744E+02 -0.23290662905E+02  0.47787267474E+02  0.19999983719E+02 0.  0.
        -12    1    1    2    0    0  0.31231601544E+02 -0.19124739744E+02  0.23290662905E+02  0.43400732526E+02  0.00000000000E+00 0.  1.
         11    1    3    3    0    0 -0.13039978461E+02  0.14850777396E+01 -0.23043399012E+01  0.13325031963E+02  0.51100000000E-03 0.  1.
        -11    1    3    3    0    0 -0.17581108640E+01  0.29135805724E+01  0.75402221716E+00  0.34854634308E+01  0.51100000000E-03 0. -1.
         12    1    3    3    0    0 -0.16433512219E+02  0.14726081432E+02 -0.21740345221E+02  0.30976772080E+02  0.00000000000E+00 0. -1.
</event>
<event>
 7    1  0.1714203E-010  0.4778727E+02  0.7816164E-02  0.1312668E+00
        -11   -1    0    0    0    0  0.00000000000E+00  0.00000000000E+00  0.45593999997E+02  0.45594000000E+02  0.51100000000E-03 0.  1.
         11   -1    0    0    0    0 -0.00000000000E+00 -0.00000000000E+00 -0.45593999997E+02  0.45594000000E+02  0.51100000000E-03 0. -1.
    9900012    2    1    2    0    0  0.26041545772E+02 -0.31514752752E+02 -0.14569885867E+02  0.47787270497E+02  0.19999997505E+02 0.  0.
        -12    1    1    2    0    0 -0.26041545772E+02  0.31514752752E+02  0.14569885867E+02  0.43400729503E+02  0.00000000000E+00 0.  1.
         11    1    3    3    0    0  0.52184780615E+01 -0.22589308787E+01  0.21780814002E+01  0.60892791725E+01  0.51100000000E-03 0. -1.
        -11    1    3    3    0    0  0.14078884173E+01 -0.32451494197E+01  0.21500151116E+01  0.41395301415E+01  0.51100000000E-03 0.  1.
         12    1    3    3    0    0  0.19415179293E+02 -0.26010672453E+02 -0.18897982379E+02  0.37558461183E+02  0.00000000000E+00 0. -1.
</event>
<event>
 7    1  0.1714203E-010  0.4778727E+02  0.7816164E-02  0.1312668E+00
        -11   -1    0    0    0    0  0.00000000000E+00  0.00000000000E+00  0.45593999997E+02  0.45594000000E+02  0.51100000000E-03 0.  1.
         11   -1    0    0    0    0 -0.00000000000E+00 -0.00000000000E+00 -0.45593999997E+02  0.45594000000E+02  0.51100000000E-03 0. -1.
    9900012    2    1    2    0    0  0.40002375167E+02 -0.74071330165E+01 -0.15118450321E+02  0.47787272141E+02  0.20000005001E+02 0.  0.
        -12    1    1    2    0    0 -0.40002375167E+02  0.74071330165E+01  0.15118450321E+02  0.43400727859E+02  0.00000000000E+00 0.  1.
         11    1    3    3    0    0 -0.76086149685E+00 -0.13769225838E+01  0.30128609347E+00  0.16017489162E+01  0.51100000000E-03 0. -1.
        -11    1    3    3    0    0  0.64761064221E+01 -0.14348285048E+01  0.26666453830E+01  0.71491037962E+01  0.51100000000E-03 0.  1.
         12    1    3    3    0    0  0.34287130242E+02 -0.45953819279E+01 -0.18086381797E+02  0.39036419429E+02  0.00000000000E+00 0. -1.
</event>
<event>
 7    1  0.1714203E-010  0.4778727E+02  0.7816164E-02  0.1312668E+00
        -11   -1    0    0    0    0  0.00000000000E+00  0.00000000000E+00  0.45593999997E+02  0.45594000000E+02  0.51100000000E-03 0.  1.
         11   -1    0    0    0    0 -0.00000000000E+00 -0.00000000000E+00 -0.45593999997E+02  0.45594000000E+02  0.51100000000E-03 0. -1.
    9900012    2    1    2    0    0 -0.42052643914E+02 -0.10599410094E+02 -0.16884864907E+01  0.47787270270E+02  0.19999996469E+02 0.  0.
        -12    1    1    2    0    0  0.42052643914E+02  0.10599410094E+02  0.16884864907E+01  0.43400729730E+02  0.00000000000E+00 0.  1.
         11    1    3    3    0    0 -0.48832571396E+01 -0.54262292558E+01  0.17986737117E+01  0.75183370242E+01  0.51100000000E-03 0. -1.
        -11    1    3    3    0    0 -0.23909655752E+02 -0.13858524802E+01 -0.87652176959E+01  0.25503357952E+02  0.51100000000E-03 0.  1.
        -12    1    3    3    0    0 -0.13259731022E+02 -0.37873283579E+01  0.52780574935E+01  0.14765575294E+02  0.00000000000E+00 0.  1.
</event>
<event>
 7    1  0.1714203E-010  0.4778728E+02  0.7816164E-02  0.1312668E+00
        -11   -1    0    0    0    0  0.00000000000E+00  0.00000000000E+00  0.45593999997E+02  0.45594000000E+02  0.51100000000E-03 0.  1.
         11   -1    0    0    0    0 -0.00000000000E+00 -0.00000000000E+00 -0.45593999997E+02  0.45594000000E+02  0.51100000000E-03 0. -1.
    9900012    2    1    2    0    0  0.18161895878E+02 -0.37120842541E+02 -0.13259376817E+02  0.47787280117E+02  0.20000041364E+02 0.  0.
        -12    1    1    2    0    0 -0.18161895878E+02  0.37120842541E+02  0.13259376817E+02  0.43400719883E+02  0.00000000000E+00 0.  1.
         11    1    3    3    0    0  0.90307866476E+01 -0.18222285515E+02 -0.11477081400E+02  0.23352305980E+02  0.51100000000E-03 0. -1.
        -11    1    3    3    0    0  0.27247285206E+01  0.12469487450E+01  0.89304020427E+00  0.31267471518E+01  0.51100000000E-03 0.  1.
         12    1    3    3    0    0  0.64063807101E+01 -0.20145505771E+02 -0.26753356214E+01  0.21308226985E+02  0.00000000000E+00 0. -1.
</event>
<event>
 7    1  0.1714203E-010  0.4778727E+02  0.7816164E-02  0.1312668E+00
        -11   -1    0    0    0    0  0.00000000000E+00  0.00000000000E+00  0.45593999997E+02  0.45594000000E+02  0.51100000000E-03 0.  1.
         11   -1    0    0    0    0 -0.00000000000E+00 -0.00000000000E+00 -0.45593999997E+02  0.45594000000E+02  0.51100000000E-03 0. -1.
    9900012    2    1    2    0    0  0.42752303706E+02  0.61352877280E+00 -0.74489936383E+01  0.47787269638E+02  0.19999993590E+02 0.  0.
        -12    1    1    2    0    0 -0.42752303706E+02 -0.61352877280E+00  0.74489936383E+01  0.43400730362E+02  0.00000000000E+00 0.  1.
         11    1    3    3    0    0  0.32178837516E+02  0.79397292287E+01 -0.51023994244E+01  0.33534331129E+02  0.51100000000E-03 0. -1.
        -11    1    3    3    0    0  0.87520162690E+01 -0.41001780058E+01  0.34929725663E+00  0.96711559437E+01  0.51100000000E-03 0.  1.
         12    1    3    3    0    0  0.18214499207E+01 -0.32260224501E+01 -0.26958914705E+01  0.45817825661E+01  0.00000000000E+00 0. -1.
</event>
<event>
 7    1  0.1714203E-010  0.4778727E+02  0.7816164E-02  0.1312668E+00
        -11   -1    0    0    0    0  0.00000000000E+00  0.00000000000E+00  0.45593999997E+02  0.45594000000E+02  0.51100000000E-03 0.  1.
         11   -1    0    0    0    0 -0.00000000000E+00 -0.00000000000E+00 -0.45593999997E+02  0.45594000000E+02  0.51100000000E-03 0. -1.
    9900012    2    1    2    0    0 -0.40832347971E+02  0.74159888970E+00 -0.14689883523E+02  0.47787270885E+02  0.19999999274E+02 0.  0.
        -12    1    1    2    0    0  0.40832347971E+02 -0.74159888970E+00  0.14689883523E+02  0.43400729115E+02  0.00000000000E+00 0.  1.
         11    1    3    3    0    0 -0.25148078222E+02  0.67810060031E+00 -0.11288991647E+02  0.27574027477E+02  0.51100000000E-03 0. -1.
        -11    1    3    3    0    0 -0.46429093768E+01  0.57117741350E+01 -0.25184358497E+01  0.77796844821E+01  0.51100000000E-03 0.  1.
        -12    1    3    3    0    0 -0.11041360373E+02 -0.56482758456E+01 -0.88245602639E+00  0.12433558926E+02  0.00000000000E+00 0.  1.
</event>
<event>
 7    1  0.1714203E-010  0.4778727E+02  0.7816164E-02  0.1312668E+00
        -11   -1    0    0    0    0  0.00000000000E+00  0.00000000000E+00  0.45593999997E+02  0.45594000000E+02  0.51100000000E-03 0.  1.
         11   -1    0    0    0    0 -0.00000000000E+00 -0.00000000000E+00 -0.45593999997E+02  0.45594000000E+02  0.51100000000E-03 0. -1.
    9900012    2    1    2    0    0  0.38569228006E+02  0.19205201939E+02 -0.52151831373E+01  0.47787271139E+02  0.20000000433E+02 0.  0.
        -12    1    1    2    0    0 -0.38569228006E+02 -0.19205201939E+02  0.52151831373E+01  0.43400728861E+02  0.00000000000E+00 0.  1.
         11    1    3    3    0    0  0.14953604301E+02  0.51360882124E-01 -0.51483722707E+00  0.14962552495E+02  0.51100000000E-03 0.  1.
        -11    1    3    3    0    0  0.22501456316E+02  0.14411590833E+02 -0.67172295507E+01  0.27552325851E+02  0.51100000000E-03 0. -1.
        -12    1    3    3    0    0  0.11141673890E+01  0.47422502238E+01  0.20168836405E+01  0.52723927941E+01  0.00000000000E+00 0.  1.
</event>
<event>
 7    1  0.1714203E-010  0.4778727E+02  0.7816164E-02  0.1312668E+00
        -11   -1    0    0    0    0  0.00000000000E+00  0.00000000000E+00  0.45593999997E+02  0.45594000000E+02  0.51100000000E-03 0.  1.
         11   -1    0    0    0    0 -0.00000000000E+00 -0.00000000000E+00 -0.45593999997E+02  0.45594000000E+02  0.51100000000E-03 0. -1.
    9900012    2    1    2    0    0 -0.23909602586E+02  0.34798657301E+02 -0.10050261618E+02  0.47787269541E+02  0.19999993147E+02 0.  0.
        -12    1    1    2    0    0  0.23909602586E+02 -0.34798657301E+02  0.10050261618E+02  0.43400730459E+02  0.00000000000E+00 0.  1.
         11    1    3    3    0    0 -0.88040804429E+01  0.22543383460E+02 -0.80270002109E+01  0.25498013705E+02  0.51100000000E-03 0. -1.
        -11    1    3    3    0    0 -0.86064090673E+01  0.12947760853E+02 -0.38859482678E+00  0.15552035055E+02  0.51100000000E-03 0.  1.
        -12    1    3    3    0    0 -0.64991130754E+01 -0.69248701188E+00 -0.16346665800E+01  0.67372207814E+01  0.00000000000E+00 0.  1.
</event>
<event>
 7    1  0.1714203E-010  0.4778727E+02  0.7816164E-02  0.1312668E+00
        -11   -1    0    0    0    0  0.00000000000E+00  0.00000000000E+00  0.45593999997E+02  0.45594000000E+02  0.51100000000E-03 0.  1.
         11   -1    0    0    0    0 -0.00000000000E+00 -0.00000000000E+00 -0.45593999997E+02  0.45594000000E+02  0.51100000000E-03 0. -1.
    9900012    2    1    2    0    0 -0.15440437757E+02 -0.35699018496E+02 -0.19256076854E+02  0.47787268030E+02  0.19999986257E+02 0.  0.
        -12    1    1    2    0    0  0.15440437757E+02  0.35699018496E+02  0.19256076854E+02  0.43400731970E+02  0.00000000000E+00 0.  1.
         11    1    3    3    0    0 -0.12805579698E+02 -0.17752476931E+02 -0.10583929780E+02  0.24313635648E+02  0.51100000000E-03 0. -1.
        -11    1    3    3    0    0 -0.19064659813E+01 -0.18625902171E+02 -0.45980492429E+01  0.19279546190E+02  0.51100000000E-03 0.  1.
         12    1    3    3    0    0 -0.72839207755E+00  0.67936060503E+00 -0.40740978305E+01  0.41940861916E+01  0.00000000000E+00 0. -1.
</event>
<event>
 7    1  0.1714203E-010  0.4778727E+02  0.7816164E-02  0.1312668E+00
        -11   -1    0    0    0    0  0.00000000000E+00  0.00000000000E+00  0.45593999997E+02  0.45594000000E+02  0.51100000000E-03 0. -1.
         11   -1    0    0    0    0 -0.00000000000E+00 -0.00000000000E+00 -0.45593999997E+02  0.45594000000E+02  0.51100000000E-03 0.  1.
    9900012    2    1    2    0    0 -0.18177880736E+02 -0.37050026825E+02  0.13434422765E+02  0.47787267854E+02  0.19999985453E+02 0.  0.
        -12    1    1    2    0    0  0.18177880736E+02  0.37050026825E+02 -0.13434422765E+02  0.43400732146E+02  0.00000000000E+00 0.  1.
         11    1    3    3    0    0 -0.22349732881E+01 -0.11851156155E+02  0.18831665394E-01  0.12060073080E+02  0.51100000000E-03 0. -1.
        -11    1    3    3    0    0 -0.16902534193E+01 -0.63368979926E+01 -0.27244304493E+01  0.71018134532E+01  0.51100000000E-03 0.  1.
         12    1    3    3    0    0 -0.14252654028E+02 -0.18861972677E+02  0.16140021549E+02  0.28625381320E+02  0.00000000000E+00 0. -1.
</event>
<event>
 7    1  0.1714203E-010  0.4778727E+02  0.7816164E-02  0.1312668E+00
        -11   -1    0    0    0    0  0.00000000000E+00  0.00000000000E+00  0.45593999997E+02  0.45594000000E+02  0.51100000000E-03 0.  1.
         11   -1    0    0    0    0 -0.00000000000E+00 -0.00000000000E+00 -0.45593999997E+02  0.45594000000E+02  0.51100000000E-03 0. -1.
    9900012    2    1    2    0    0 -0.42151117960E+02  0.82635641008E+01  0.62145134238E+01  0.47787269430E+02  0.19999992639E+02 0.  0.
        -12    1    1    2    0    0  0.42151117960E+02 -0.82635641008E+01 -0.62145134238E+01  0.43400730570E+02  0.00000000000E+00 0.  1.
         11    1    3    3    0    0 -0.64360748148E+01  0.62927444630E+01  0.27879692207E+01  0.94230814777E+01  0.51100000000E-03 0. -1.
        -11    1    3    3    0    0 -0.10575643231E+02  0.63741998606E+01 -0.12711574125E+01  0.12413319259E+02  0.51100000000E-03 0.  1.
         12    1    3    3    0    0 -0.25139399914E+02 -0.44033802229E+01  0.46977016155E+01  0.25950868693E+02  0.00000000000E+00 0. -1.
</event>
<event>
 7    1  0.1714203E-010  0.4778728E+02  0.7816164E-02  0.1312668E+00
        -11   -1    0    0    0    0  0.00000000000E+00  0.00000000000E+00  0.45593999997E+02  0.45594000000E+02  0.51100000000E-03 0.  1.
         11   -1    0    0    0    0 -0.00000000000E+00 -0.00000000000E+00 -0.45593999997E+02  0.45594000000E+02  0.51100000000E-03 0. -1.
    9900012    2    1    2    0    0 -0.12545669232E+02 -0.34652556568E+02 -0.22922245649E+02  0.47787276057E+02  0.20000022855E+02 0.  0.
        -12    1    1    2    0    0  0.12545669232E+02  0.34652556568E+02  0.22922245649E+02  0.43400723943E+02  0.00000000000E+00 0.  1.
         11    1    3    3    0    0 -0.95435734853E+00 -0.88018577904E+01 -0.79322556400E+01  0.11887143404E+02  0.51100000000E-03 0. -1.
        -11    1    3    3    0    0 -0.39505394376E+01 -0.41329707251E+01  0.32061201286E+01  0.65549535011E+01  0.51100000000E-03 0.  1.
        -12    1    3    3    0    0 -0.76407724456E+01 -0.21717728052E+02 -0.18196110138E+02  0.29345179152E+02  0.00000000000E+00 0.  1.
</event>
<event>
 7    1  0.1714203E-010  0.4778727E+02  0.7816164E-02  0.1312668E+00
        -11   -1    0    0    0    0  0.00000000000E+00  0.00000000000E+00  0.45593999997E+02  0.45594000000E+02  0.51100000000E-03 0.  1.
         11   -1    0    0    0    0 -0.00000000000E+00 -0.00000000000E+00 -0.45593999997E+02  0.45594000000E+02  0.51100000000E-03 0. -1.
    9900012    2    1    2    0    0  0.89450199569E+01 -0.29524470301E+02 -0.30527293620E+02  0.47787269772E+02  0.19999994198E+02 0.  0.
        -12    1    1    2    0    0 -0.89450199569E+01  0.29524470301E+02  0.30527293620E+02  0.43400730228E+02  0.00000000000E+00 0.  1.
         11    1    3    3    0    0  0.45937142076E+01 -0.60674268290E+01 -0.82189922598E+01  0.11201237100E+02  0.51100000000E-03 0. -1.
        -11    1    3    3    0    0 -0.31670916657E+01 -0.74168872322E+01  0.44370638763E-01  0.80649026559E+01  0.51100000000E-03 0.  1.
        -12    1    3    3    0    0  0.75183974150E+01 -0.16040156240E+02 -0.22352671999E+02  0.28521130016E+02  0.00000000000E+00 0.  1.
</event>
<event>
 7    1  0.1714203E-010  0.4778727E+02  0.7816164E-02  0.1312668E+00
        -11   -1    0    0    0    0  0.00000000000E+00  0.00000000000E+00  0.45593999997E+02  0.45594000000E+02  0.51100000000E-03 0. -1.
         11   -1    0    0    0    0 -0.00000000000E+00 -0.00000000000E+00 -0.45593999997E+02  0.45594000000E+02  0.51100000000E-03 0.  1.
    9900012    2    1    2    0    0 -0.22445386345E+02  0.33091338406E+02  0.16875763885E+02  0.47787268988E+02  0.19999990623E+02 0.  0.
        -12    1    1    2    0    0  0.22445386345E+02 -0.33091338406E+02 -0.16875763885E+02  0.43400731012E+02  0.00000000000E+00 0.  1.
         11    1    3    3    0    0 -0.41933408652E+01  0.15066005179E+02  0.42597329863E+01  0.16208452888E+02  0.51100000000E-03 0. -1.
        -11    1    3    3    0    0 -0.18994651702E+02  0.16073622261E+02  0.14471714729E+02  0.28785215882E+02  0.51100000000E-03 0.  1.
         12    1    3    3    0    0  0.74260622236E+00  0.19517109664E+01 -0.18556838306E+01  0.27936002178E+01  0.00000000000E+00 0. -1.
</event>
<event>
 7    1  0.1714203E-010  0.4778727E+02  0.7816164E-02  0.1312668E+00
        -11   -1    0    0    0    0  0.00000000000E+00  0.00000000000E+00  0.45593999997E+02  0.45594000000E+02  0.51100000000E-03 0. -1.
         11   -1    0    0    0    0 -0.00000000000E+00 -0.00000000000E+00 -0.45593999997E+02  0.45594000000E+02  0.51100000000E-03 0.  1.
    9900012    2    1    2    0    0 -0.84910719044E+01 -0.42417557348E+02  0.35036595862E+01  0.47787273002E+02  0.20000008927E+02 0.  0.
        -12    1    1    2    0    0  0.84910719044E+01  0.42417557348E+02 -0.35036595862E+01  0.43400726998E+02  0.00000000000E+00 0.  1.
         11    1    3    3    0    0 -0.59938666393E+01 -0.41556956773E+02  0.65942611088E+01  0.42501663183E+02  0.51100000000E-03 0.  1.
        -11    1    3    3    0    0 -0.23972647082E+01 -0.28303879589E+00 -0.29809658055E+00  0.24322522225E+01  0.51100000000E-03 0. -1.
        -12    1    3    3    0    0 -0.99940556809E-01 -0.57756177887E+00 -0.27925049420E+01  0.28533575967E+01  0.00000000000E+00 0.  1.
</event>
<event>
 7    1  0.1714203E-010  0.4778727E+02  0.7816164E-02  0.1312668E+00
        -11   -1    0    0    0    0  0.00000000000E+00  0.00000000000E+00  0.45593999997E+02  0.45594000000E+02  0.51100000000E-03 0. -1.
         11   -1    0    0    0    0 -0.00000000000E+00 -0.00000000000E+00 -0.45593999997E+02  0.45594000000E+02  0.51100000000E-03 0.  1.
    9900012    2    1    2    0    0 -0.22738342101E+02 -0.14748811279E+02  0.33897837390E+02  0.47787274022E+02  0.20000013577E+02 0.  0.
        -12    1    1    2    0    0  0.22738342101E+02  0.14748811279E+02 -0.33897837390E+02  0.43400725978E+02  0.00000000000E+00 0.  1.
         11    1    3    3    0    0 -0.10158928658E+02 -0.48197600078E+01  0.22734424458E+01  0.11471811488E+02  0.51100000000E-03 0. -1.
        -11    1    3    3    0    0  0.68456716945E-01 -0.45795357515E+00  0.72674553797E+01  0.72821916863E+01  0.51100000000E-03 0.  1.
        -12    1    3    3    0    0 -0.12647870161E+02 -0.94710976959E+01  0.24356939565E+02  0.29033270848E+02  0.00000000000E+00 0.  1.
</event>
<event>
 7    1  0.1714203E-010  0.4778727E+02  0.7816164E-02  0.1312668E+00
        -11   -1    0    0    0    0  0.00000000000E+00  0.00000000000E+00  0.45593999997E+02  0.45594000000E+02  0.51100000000E-03 0.  1.
         11   -1    0    0    0    0 -0.00000000000E+00 -0.00000000000E+00 -0.45593999997E+02  0.45594000000E+02  0.51100000000E-03 0. -1.
    9900012    2    1    2    0    0 -0.42780391246E+02  0.18880378453E+01 -0.70637728655E+01  0.47787269026E+02  0.19999990795E+02 0.  0.
        -12    1    1    2    0    0  0.42780391246E+02 -0.18880378453E+01  0.70637728655E+01  0.43400730974E+02  0.00000000000E+00 0.  1.
         11    1    3    3    0    0 -0.87887315570E+01  0.45058152468E+01 -0.21836209537E+01  0.10114957941E+02  0.51100000000E-03 0. -1.
        -11    1    3    3    0    0 -0.19543538369E+02  0.32279974968E+01  0.32821973923E+01  0.20078413279E+02  0.51100000000E-03 0.  1.
         12    1    3    3    0    0 -0.14448121319E+02 -0.58457748983E+01 -0.81623493041E+01  0.17593897805E+02  0.00000000000E+00 0. -1.
</event>
<event>
 7    1  0.1714203E-010  0.4778727E+02  0.7816164E-02  0.1312668E+00
        -11   -1    0    0    0    0  0.00000000000E+00  0.00000000000E+00  0.45593999997E+02  0.45594000000E+02  0.51100000000E-03 0.  1.
         11   -1    0    0    0    0 -0.00000000000E+00 -0.00000000000E+00 -0.45593999997E+02  0.45594000000E+02  0.51100000000E-03 0. -1.
    9900012    2    1    2    0    0  0.38136984101E+02  0.74098529303E+01 -0.19346520078E+02  0.47787270560E+02  0.19999997793E+02 0.  0.
        -12    1    1    2    0    0 -0.38136984101E+02 -0.74098529303E+01  0.19346520078E+02  0.43400729440E+02  0.00000000000E+00 0.  1.
         11    1    3    3    0    0  0.22190419041E+02  0.76396688062E+01 -0.10942880402E+02  0.25894514254E+02  0.51100000000E-03 0. -1.
        -11    1    3    3    0    0  0.11409524304E+02  0.49300170269E+01 -0.84364052227E+01  0.15021825657E+02  0.51100000000E-03 0.  1.
        -12    1    3    3    0    0  0.45370407562E+01 -0.51598329028E+01  0.32765546900E-01  0.68709306494E+01  0.00000000000E+00 0.  1.
</event>
<event>
 7    1  0.1714203E-010  0.4778727E+02  0.7816164E-02  0.1312668E+00
        -11   -1    0    0    0    0  0.00000000000E+00  0.00000000000E+00  0.45593999997E+02  0.45594000000E+02  0.51100000000E-03 0.  1.
         11   -1    0    0    0    0 -0.00000000000E+00 -0.00000000000E+00 -0.45593999997E+02  0.45594000000E+02  0.51100000000E-03 0. -1.
    9900012    2    1    2    0    0 -0.25313877633E+01  0.19440411868E+02 -0.38720607823E+02  0.47787274110E+02  0.20000013977E+02 0.  0.
        -12    1    1    2    0    0  0.25313877633E+01 -0.19440411868E+02  0.38720607823E+02  0.43400725890E+02  0.00000000000E+00 0.  1.
         11    1    3    3    0    0 -0.23171814576E+01 -0.34568978529E+00 -0.71847288946E+01  0.75570603336E+01  0.51100000000E-03 0.  1.
        -11    1    3    3    0    0  0.24182309379E+01  0.20631877121E+02 -0.31146003037E+02  0.37437891232E+02  0.51100000000E-03 0. -1.
        -12    1    3    3    0    0 -0.26324372436E+01 -0.84577546787E+00 -0.38987589113E+00  0.27923225447E+01  0.00000000000E+00 0.  1.
</event>
<event>
 7    1  0.1714203E-010  0.4778727E+02  0.7816164E-02  0.1312668E+00
        -11   -1    0    0    0    0  0.00000000000E+00  0.00000000000E+00  0.45593999997E+02  0.45594000000E+02  0.51100000000E-03 0.  1.
         11   -1    0    0    0    0 -0.00000000000E+00 -0.00000000000E+00 -0.45593999997E+02  0.45594000000E+02  0.51100000000E-03 0. -1.
    9900012    2    1    2    0    0  0.12178488405E+02 -0.38469940264E+02  0.15980347363E+02  0.47787269758E+02  0.19999994133E+02 0.  0.
        -12    1    1    2    0    0 -0.12178488405E+02  0.38469940264E+02 -0.15980347363E+02  0.43400730242E+02  0.00000000000E+00 0.  1.
         11    1    3    3    0    0  0.53987264971E+01 -0.47172500181E+01  0.75789888745E+00  0.72092375817E+01  0.51100000000E-03 0. -1.
        -11    1    3    3    0    0  0.12898740782E+01  0.14495151854E+01  0.35441670366E+00  0.19724301943E+01  0.51100000000E-03 0.  1.
         12    1    3    3    0    0  0.54898878300E+01 -0.35202205431E+02  0.14868031772E+02  0.38605601982E+02  0.00000000000E+00 0. -1.
</event>
<event>
 7    1  0.1714203E-010  0.4778728E+02  0.7816164E-02  0.1312668E+00
        -11   -1    0    0    0    0  0.00000000000E+00  0.00000000000E+00  0.45593999997E+02  0.45594000000E+02  0.51100000000E-03 0.  1.
         11   -1    0    0    0    0 -0.00000000000E+00 -0.00000000000E+00 -0.45593999997E+02  0.45594000000E+02  0.51100000000E-03 0. -1.
    9900012    2    1    2    0    0  0.26742862300E+02  0.33679384628E+02 -0.58429976688E+01  0.47787282786E+02  0.20000053532E+02 0.  0.
        -12    1    1    2    0    0 -0.26742862300E+02 -0.33679384628E+02  0.58429976688E+01  0.43400717214E+02  0.00000000000E+00 0.  1.
         11    1    3    3    0    0  0.61322952209E+01  0.13794342964E+02 -0.71995361793E+01  0.16724899520E+02  0.51100000000E-03 0. -1.
        -11    1    3    3    0    0  0.58911476326E+01  0.59832172213E+01 -0.50843207949E+01  0.98160494575E+01  0.51100000000E-03 0.  1.
        -12    1    3    3    0    0  0.14719419447E+02  0.13901824443E+02  0.64408593054E+01  0.21246333808E+02  0.00000000000E+00 0.  1.
</event>
<event>
 7    1  0.1714203E-010  0.4778727E+02  0.7816164E-02  0.1312668E+00
        -11   -1    0    0    0    0  0.00000000000E+00  0.00000000000E+00  0.45593999997E+02  0.45594000000E+02  0.51100000000E-03 0.  1.
         11   -1    0    0    0    0 -0.00000000000E+00 -0.00000000000E+00 -0.45593999997E+02  0.45594000000E+02  0.51100000000E-03 0. -1.
    9900012    2    1    2    0    0 -0.39385198672E+02  0.18193576496E+02  0.11929816344E+01  0.47787270682E+02  0.19999998346E+02 0.  0.
        -12    1    1    2    0    0  0.39385198672E+02 -0.18193576496E+02 -0.11929816344E+01  0.43400729318E+02  0.00000000000E+00 0.  1.
         11    1    3    3    0    0 -0.29570804542E+02  0.11886687685E+02 -0.23041414894E+01  0.31953636626E+02  0.51100000000E-03 0. -1.
        -11    1    3    3    0    0 -0.71306906918E+01  0.51334798095E+01 -0.25207865719E+01  0.91407729378E+01  0.51100000000E-03 0.  1.
        -12    1    3    3    0    0 -0.26837034383E+01  0.11734090019E+01  0.60179096957E+01  0.66928611174E+01  0.00000000000E+00 0.  1.
</event>
<event>
 7    1  0.1714203E-010  0.4778727E+02  0.7816164E-02  0.1312668E+00
        -11   -1    0    0    0    0  0.00000000000E+00  0.00000000000E+00  0.45593999997E+02  0.45594000000E+02  0.51100000000E-03 0. -1.
         11   -1    0    0    0    0 -0.00000000000E+00 -0.00000000000E+00 -0.45593999997E+02  0.45594000000E+02  0.51100000000E-03 0.  1.
    9900012    2    1    2    0    0  0.26227266376E+02 -0.27201771774E+02 -0.21349875992E+02  0.47787273116E+02  0.20000009443E+02 0.  0.
        -12    1    1    2    0    0 -0.26227266376E+02  0.27201771774E+02  0.21349875992E+02  0.43400726884E+02  0.00000000000E+00 0.  1.
         11    1    3    3    0    0  0.18070313408E+02 -0.11350670006E+02 -0.92112143240E+01  0.23242641972E+02  0.51100000000E-03 0. -1.
        -11    1    3    3    0    0  0.34956638511E+01 -0.86862807462E+01 -0.12925808275E+02  0.15960816357E+02  0.51100000000E-03 0.  1.
         12    1    3    3    0    0  0.46612891168E+01 -0.71648210222E+01  0.78714660710E+00  0.85838147866E+01  0.00000000000E+00 0. -1.
</event>
<event>
 7    1  0.1714203E-010  0.4778727E+02  0.7816164E-02  0.1312668E+00
        -11   -1    0    0    0    0  0.00000000000E+00  0.00000000000E+00  0.45593999997E+02  0.45594000000E+02  0.51100000000E-03 0.  1.
         11   -1    0    0    0    0 -0.00000000000E+00 -0.00000000000E+00 -0.45593999997E+02  0.45594000000E+02  0.51100000000E-03 0. -1.
    9900012    2    1    2    0    0  0.52918373858E+01  0.16921176472E+01 -0.43043661743E+02  0.47787267042E+02  0.19999981749E+02 0.  0.
        -12    1    1    2    0    0 -0.52918373858E+01 -0.16921176472E+01  0.43043661743E+02  0.43400732958E+02  0.00000000000E+00 0.  1.
         11    1    3    3    0    0  0.43028859854E+01  0.50598570762E+01 -0.15880710791E+02  0.17213772304E+02  0.51100000000E-03 0. -1.
        -11    1    3    3    0    0 -0.18255951635E+01 -0.26081892892E+01 -0.27459298933E+02  0.27643236916E+02  0.51100000000E-03 0.  1.
        -12    1    3    3    0    0  0.28145465638E+01 -0.75955013981E+00  0.29634798039E+00  0.29302578215E+01  0.00000000000E+00 0.  1.
</event>
<event>
 7    1  0.1714203E-010  0.4778730E+02  0.7816164E-02  0.1312668E+00
        -11   -1    0    0    0    0  0.00000000000E+00  0.00000000000E+00  0.45593999997E+02  0.45594000000E+02  0.51100000000E-03 0.  1.
         11   -1    0    0    0    0 -0.00000000000E+00 -0.00000000000E+00 -0.45593999997E+02  0.45594000000E+02  0.51100000000E-03 0. -1.
    9900012    2    1    2    0    0 -0.18394859317E+02 -0.36797923403E+02 -0.13826150397E+02  0.47787303567E+02  0.20000148282E+02 0.  0.
        -12    1    1    2    0    0  0.18394859317E+02  0.36797923403E+02  0.13826150397E+02  0.43400696433E+02  0.00000000000E+00 0.  1.
         11    1    3    3    0    0 -0.26610637700E+01 -0.22057757140E+02 -0.99450423185E+01  0.24341934545E+02  0.51100000000E-03 0. -1.
        -11    1    3    3    0    0 -0.32599570804E+01 -0.44082083092E+01  0.25138917742E+01  0.60315232551E+01  0.51100000000E-03 0.  1.
         12    1    3    3    0    0 -0.12473838466E+02 -0.10331957954E+02 -0.63949998531E+01  0.17413845766E+02  0.00000000000E+00 0. -1.
</event>
<event>
 7    1  0.1714203E-010  0.4778726E+02  0.7816164E-02  0.1312668E+00
        -11   -1    0    0    0    0  0.00000000000E+00  0.00000000000E+00  0.45593999997E+02  0.45594000000E+02  0.51100000000E-03 0. -1.
         11   -1    0    0    0    0 -0.00000000000E+00 -0.00000000000E+00 -0.45593999997E+02  0.45594000000E+02  0.51100000000E-03 0.  1.
    9900012    2    1    2    0    0 -0.18301810315E+02  0.24570865375E+02  0.30739891088E+02  0.47787255880E+02  0.19999930859E+02 0.  0.
        -12    1    1    2    0    0  0.18301810315E+02 -0.24570865375E+02 -0.30739891088E+02  0.43400744120E+02  0.00000000000E+00 0.  1.
         11    1    3    3    0    0 -0.16193958386E+02  0.11290718123E+02  0.22781060365E+02  0.30144673088E+02  0.51100000000E-03 0. -1.
        -11    1    3    3    0    0 -0.40361167624E+01  0.54500436330E+01  0.74472140290E+00  0.68225965989E+01  0.51100000000E-03 0.  1.
        -12    1    3    3    0    0  0.19282648334E+01  0.78301036185E+01  0.72141093202E+01  0.10819986194E+02  0.00000000000E+00 0.  1.
</event>
<event>
 7    1  0.1714203E-010  0.4778727E+02  0.7816164E-02  0.1312668E+00
        -11   -1    0    0    0    0  0.00000000000E+00  0.00000000000E+00  0.45593999997E+02  0.45594000000E+02  0.51100000000E-03 0.  1.
         11   -1    0    0    0    0 -0.00000000000E+00 -0.00000000000E+00 -0.45593999997E+02  0.45594000000E+02  0.51100000000E-03 0. -1.
    9900012    2    1    2    0    0  0.43109861057E+02 -0.44793227308E+01 -0.22581345371E+01  0.47787267010E+02  0.19999981604E+02 0.  0.
        -12    1    1    2    0    0 -0.43109861057E+02  0.44793227308E+01  0.22581345371E+01  0.43400732990E+02  0.00000000000E+00 0.  1.
         11    1    3    3    0    0  0.35440937710E+01 -0.43650524706E+01 -0.50383087250E+01  0.75497575324E+01  0.51100000000E-03 0. -1.
        -11    1    3    3    0    0  0.22317443839E+02 -0.24454010322E+01 -0.81137423475E+00  0.22465676355E+02  0.51100000000E-03 0.  1.
         12    1    3    3    0    0  0.17248323448E+02  0.23311307720E+01  0.35915484226E+01  0.17771833122E+02  0.00000000000E+00 0. -1.
</event>
<event>
 7    1  0.1714203E-010  0.4778726E+02  0.7816164E-02  0.1312668E+00
        -11   -1    0    0    0    0  0.00000000000E+00  0.00000000000E+00  0.45593999997E+02  0.45594000000E+02  0.51100000000E-03 0.  1.
         11   -1    0    0    0    0 -0.00000000000E+00 -0.00000000000E+00 -0.45593999997E+02  0.45594000000E+02  0.51100000000E-03 0. -1.
    9900012    2    1    2    0    0 -0.54499669264E+01 -0.38030581038E+02 -0.20189024563E+02  0.47787263297E+02  0.19999964675E+02 0.  0.
        -12    1    1    2    0    0  0.54499669264E+01  0.38030581038E+02  0.20189024563E+02  0.43400736703E+02  0.00000000000E+00 0.  1.
         11    1    3    3    0    0 -0.24865424903E+01 -0.15767989317E+02 -0.18229287338E+02  0.24230544727E+02  0.51100000000E-03 0. -1.
        -11    1    3    3    0    0 -0.43901277517E+00 -0.23771468994E+01  0.19841699885E+01  0.31273775599E+01  0.51100000000E-03 0.  1.
         12    1    3    3    0    0 -0.25244116609E+01 -0.19885444821E+02 -0.39439072130E+01  0.20429341009E+02  0.00000000000E+00 0. -1.
</event>
<event>
 7    1  0.1714203E-010  0.4778727E+02  0.7816164E-02  0.1312668E+00
        -11   -1    0    0    0    0  0.00000000000E+00  0.00000000000E+00  0.45593999997E+02  0.45594000000E+02  0.51100000000E-03 0.  1.
         11   -1    0    0    0    0 -0.00000000000E+00 -0.00000000000E+00 -0.45593999997E+02  0.45594000000E+02  0.51100000000E-03 0. -1.
    9900012    2    1    2    0    0 -0.13604770975E+02 -0.26503092312E+02 -0.31561370320E+02  0.47787265076E+02  0.19999972789E+02 0.  0.
        -12    1    1    2    0    0  0.13604770975E+02  0.26503092312E+02  0.31561370320E+02  0.43400734924E+02  0.00000000000E+00 0.  1.
         11    1    3    3    0    0 -0.11912516064E+02 -0.91836820550E+01 -0.83261557302E+01  0.17192234426E+02  0.51100000000E-03 0. -1.
        -11    1    3    3    0    0 -0.14915299260E+01 -0.25233712195E+01 -0.11032055187E+02  0.11414828328E+02  0.51100000000E-03 0.  1.
         12    1    3    3    0    0 -0.20072498562E+00 -0.14796039038E+02 -0.12203159403E+02  0.19180202323E+02  0.00000000000E+00 0. -1.
</event>
<event>
 7    1  0.1714203E-010  0.4778727E+02  0.7816164E-02  0.1312668E+00
        -11   -1    0    0    0    0  0.00000000000E+00  0.00000000000E+00  0.45593999997E+02  0.45594000000E+02  0.51100000000E-03 0.  1.
         11   -1    0    0    0    0 -0.00000000000E+00 -0.00000000000E+00 -0.45593999997E+02  0.45594000000E+02  0.51100000000E-03 0. -1.
    9900012    2    1    2    0    0  0.26795679422E+02  0.24004102949E+02 -0.24277923017E+02  0.47787274890E+02  0.20000017533E+02 0.  0.
        -12    1    1    2    0    0 -0.26795679422E+02 -0.24004102949E+02  0.24277923017E+02  0.43400725110E+02  0.00000000000E+00 0.  1.
         11    1    3    3    0    0  0.98270436895E+01  0.97082233867E+00 -0.91650332848E+01  0.13472606246E+02  0.51100000000E-03 0. -1.
        -11    1    3    3    0    0  0.23844346829E+01  0.12093281362E+02 -0.39790802301E+01  0.12952453922E+02  0.51100000000E-03 0.  1.
        -12    1    3    3    0    0  0.14584201050E+02  0.10939999248E+02 -0.11133809502E+02  0.21362214722E+02  0.00000000000E+00 0.  1.
</event>
<event>
 7    1  0.1714203E-010  0.4778726E+02  0.7816164E-02  0.1312668E+00
        -11   -1    0    0    0    0  0.00000000000E+00  0.00000000000E+00  0.45593999997E+02  0.45594000000E+02  0.51100000000E-03 0. -1.
         11   -1    0    0    0    0 -0.00000000000E+00 -0.00000000000E+00 -0.45593999997E+02  0.45594000000E+02  0.51100000000E-03 0.  1.
    9900012    2    1    2    0    0  0.21205799790E+02  0.27895251535E+02 -0.25608459100E+02  0.47787260601E+02  0.19999952382E+02 0.  0.
        -12    1    1    2    0    0 -0.21205799790E+02 -0.27895251535E+02  0.25608459100E+02  0.43400739399E+02  0.00000000000E+00 0.  1.
         11    1    3    3    0    0  0.11087651788E+02  0.22701278476E+02 -0.12072836066E+02  0.28000668519E+02  0.51100000000E-03 0. -1.
        -11    1    3    3    0    0  0.88531645366E+01  0.38658821575E+01 -0.46640198709E+01  0.10727378467E+02  0.51100000000E-03 0.  1.
        -12    1    3    3    0    0  0.12649834658E+01  0.13280909017E+01 -0.88716031633E+01  0.90592136137E+01  0.00000000000E+00 0.  1.
</event>
<event>
 7    1  0.1714203E-010  0.4778727E+02  0.7816164E-02  0.1312668E+00
        -11   -1    0    0    0    0  0.00000000000E+00  0.00000000000E+00  0.45593999997E+02  0.45594000000E+02  0.51100000000E-03 0.  1.
         11   -1    0    0    0    0 -0.00000000000E+00 -0.00000000000E+00 -0.45593999997E+02  0.45594000000E+02  0.51100000000E-03 0. -1.
    9900012    2    1    2    0    0 -0.39557578437E+02 -0.12925232781E+02 -0.12319096629E+02  0.47787265029E+02  0.19999972573E+02 0.  0.
        -12    1    1    2    0    0  0.39557578437E+02  0.12925232781E+02  0.12319096629E+02  0.43400734971E+02  0.00000000000E+00 0.  1.
         11    1    3    3    0    0 -0.15137186628E+02 -0.27208778858E+00 -0.10419245196E+02  0.18378496170E+02  0.51100000000E-03 0. -1.
        -11    1    3    3    0    0 -0.48754435591E+01 -0.47421076927E+01 -0.45126626424E+01  0.81622092384E+01  0.51100000000E-03 0.  1.
         12    1    3    3    0    0 -0.19544948251E+02 -0.79110373001E+01  0.26128112091E+01  0.21246559620E+02  0.00000000000E+00 0. -1.
</event>
<event>
 7    1  0.1714203E-010  0.4778726E+02  0.7816164E-02  0.1312668E+00
        -11   -1    0    0    0    0  0.00000000000E+00  0.00000000000E+00  0.45593999997E+02  0.45594000000E+02  0.51100000000E-03 0.  1.
         11   -1    0    0    0    0 -0.00000000000E+00 -0.00000000000E+00 -0.45593999997E+02  0.45594000000E+02  0.51100000000E-03 0. -1.
    9900012    2    1    2    0    0 -0.76934617313E+00 -0.32734021426E+02 -0.28487116342E+02  0.47787264411E+02  0.19999969753E+02 0.  0.
        -12    1    1    2    0    0  0.76934617313E+00  0.32734021426E+02  0.28487116342E+02  0.43400735589E+02  0.00000000000E+00 0.  1.
         11    1    3    3    0    0  0.15315765720E+01 -0.23740412081E+02 -0.10180125489E+02  0.25876395573E+02  0.51100000000E-03 0. -1.
        -11    1    3    3    0    0  0.22954771769E+01 -0.61764655086E+01 -0.11136634488E+02  0.12939960187E+02  0.51100000000E-03 0.  1.
        -12    1    3    3    0    0 -0.45963999220E+01 -0.28171438355E+01 -0.71703563644E+01  0.89709086510E+01  0.00000000000E+00 0.  1.
</event>
<event>
 7    1  0.1714203E-010  0.4778726E+02  0.7816164E-02  0.1312668E+00
        -11   -1    0    0    0    0  0.00000000000E+00  0.00000000000E+00  0.45593999997E+02  0.45594000000E+02  0.51100000000E-03 0.  1.
         11   -1    0    0    0    0 -0.00000000000E+00 -0.00000000000E+00 -0.45593999997E+02  0.45594000000E+02  0.51100000000E-03 0. -1.
    9900012    2    1    2    0    0 -0.72943724114E+01 -0.37858528748E+02 -0.19928573425E+02  0.47787261451E+02  0.19999956261E+02 0.  0.
        -12    1    1    2    0    0  0.72943724114E+01  0.37858528748E+02  0.19928573425E+02  0.43400738549E+02  0.00000000000E+00 0.  1.
         11    1    3    3    0    0 -0.19757276847E+01 -0.45082461936E+00 -0.15634891224E+01  0.25595392591E+01  0.51100000000E-03 0. -1.
        -11    1    3    3    0    0 -0.90278397685E+01 -0.97553867051E+01 -0.76848417496E+01  0.15353379225E+02  0.51100000000E-03 0.  1.
         12    1    3    3    0    0  0.37091950418E+01 -0.27652317423E+02 -0.10680242553E+02  0.29874342967E+02  0.00000000000E+00 0. -1.
</event>
<event>
 7    1  0.1714203E-010  0.4778726E+02  0.7816164E-02  0.1312668E+00
        -11   -1    0    0    0    0  0.00000000000E+00  0.00000000000E+00  0.45593999997E+02  0.45594000000E+02  0.51100000000E-03 0.  1.
         11   -1    0    0    0    0 -0.00000000000E+00 -0.00000000000E+00 -0.45593999997E+02  0.45594000000E+02  0.51100000000E-03 0. -1.
    9900012    2    1    2    0    0 -0.92998005281E+01 -0.36915277941E+02 -0.20842278957E+02  0.47787255451E+02  0.19999928903E+02 0.  0.
        -12    1    1    2    0    0  0.92998005281E+01  0.36915277941E+02  0.20842278957E+02  0.43400744549E+02  0.00000000000E+00 0.  1.
         11    1    3    3    0    0 -0.25310982007E+01 -0.43300466453E+01 -0.88380875402E+01  0.10162064440E+02  0.51100000000E-03 0.  1.
        -11    1    3    3    0    0 -0.17275493345E+01 -0.22360056261E+02 -0.21022708002E+01  0.22525010221E+02  0.51100000000E-03 0. -1.
         12    1    3    3    0    0 -0.50411529929E+01 -0.10225175034E+02 -0.99019206167E+01  0.15100180790E+02  0.00000000000E+00 0. -1.
</event>
<event>
 7    1  0.1714203E-010  0.4778727E+02  0.7816164E-02  0.1312668E+00
        -11   -1    0    0    0    0  0.00000000000E+00  0.00000000000E+00  0.45593999997E+02  0.45594000000E+02  0.51100000000E-03 0.  1.
         11   -1    0    0    0    0 -0.00000000000E+00 -0.00000000000E+00 -0.45593999997E+02  0.45594000000E+02  0.51100000000E-03 0. -1.
    9900012    2    1    2    0    0 -0.11986395956E+02 -0.94906939871E+01 -0.40618670257E+02  0.47787270354E+02  0.19999996850E+02 0.  0.
        -12    1    1    2    0    0  0.11986395956E+02  0.94906939871E+01  0.40618670257E+02  0.43400729646E+02  0.00000000000E+00 0.  1.
         11    1    3    3    0    0  0.42458177774E+00 -0.64341136472E+01 -0.69021553798E+01  0.94455194277E+01  0.51100000000E-03 0.  1.
        -11    1    3    3    0    0 -0.92376514710E+01 -0.70050275803E+01 -0.29682275307E+02  0.31866002005E+02  0.51100000000E-03 0. -1.
         12    1    3    3    0    0 -0.31733262623E+01  0.39484472404E+01 -0.40342395701E+01  0.64757489209E+01  0.00000000000E+00 0. -1.
</event>
<event>
 7    1  0.1714203E-010  0.4778727E+02  0.7816164E-02  0.1312668E+00
        -11   -1    0    0    0    0  0.00000000000E+00  0.00000000000E+00  0.45593999997E+02  0.45594000000E+02  0.51100000000E-03 0.  1.
         11   -1    0    0    0    0 -0.00000000000E+00 -0.00000000000E+00 -0.45593999997E+02  0.45594000000E+02  0.51100000000E-03 0. -1.
    9900012    2    1    2    0    0  0.41196046855E+02  0.81866833958E+01 -0.10931029029E+02  0.47787268934E+02  0.19999990376E+02 0.  0.
        -12    1    1    2    0    0 -0.41196046855E+02 -0.81866833958E+01  0.10931029029E+02  0.43400731066E+02  0.00000000000E+00 0.  1.
         11    1    3    3    0    0  0.16850858817E+02  0.46407546248E+01 -0.12573524545E+02  0.21530944385E+02  0.51100000000E-03 0. -1.
        -11    1    3    3    0    0  0.19933240201E+01 -0.19479724012E+01  0.16505648030E+01  0.32391822355E+01  0.51100000000E-03 0.  1.
        -12    1    3    3    0    0  0.22351864018E+02  0.54939011722E+01 -0.80692863083E-02  0.23017142314E+02  0.00000000000E+00 0.  1.
</event>
<event>
 7    1  0.1714203E-010  0.4778727E+02  0.7816164E-02  0.1312668E+00
        -11   -1    0    0    0    0  0.00000000000E+00  0.00000000000E+00  0.45593999997E+02  0.45594000000E+02  0.51100000000E-03 0. -1.
         11   -1    0    0    0    0 -0.00000000000E+00 -0.00000000000E+00 -0.45593999997E+02  0.45594000000E+02  0.51100000000E-03 0.  1.
    9900012    2    1    2    0    0  0.67007091431E+01 -0.34653357722E+02  0.25256061459E+02  0.47787270227E+02  0.19999996274E+02 0.  0.
        -12    1    1    2    0    0 -0.67007091431E+01  0.34653357722E+02 -0.25256061459E+02  0.43400729773E+02  0.00000000000E+00 0.  1.
         11    1    3    3    0    0 -0.68529725667E+00 -0.39364031980E+01  0.32093626176E+01  0.51249303546E+01  0.51100000000E-03 0. -1.
        -11    1    3    3    0    0 -0.41257001283E+01 -0.16431822538E+02  0.16112337826E+02  0.23380197261E+02  0.51100000000E-03 0.  1.
         12    1    3    3    0    0  0.11511706528E+02 -0.14285131986E+02  0.59343610147E+01  0.19282142611E+02  0.00000000000E+00 0. -1.
</event>
<event>
 7    1  0.1714203E-010  0.4778727E+02  0.7816164E-02  0.1312668E+00
        -11   -1    0    0    0    0  0.00000000000E+00  0.00000000000E+00  0.45593999997E+02  0.45594000000E+02  0.51100000000E-03 0.  1.
         11   -1    0    0    0    0 -0.00000000000E+00 -0.00000000000E+00 -0.45593999997E+02  0.45594000000E+02  0.51100000000E-03 0. -1.
    9900012    2    1    2    0    0  0.11633271447E+02  0.41708573876E+02 -0.29470883133E+01  0.47787268798E+02  0.19999989756E+02 0.  0.
        -12    1    1    2    0    0 -0.11633271447E+02 -0.41708573876E+02  0.29470883133E+01  0.43400731202E+02  0.00000000000E+00 0.  1.
         11    1    3    3    0    0  0.77589903055E+01  0.73466011916E+01 -0.15930068520E+01  0.10803339795E+02  0.51100000000E-03 0. -1.
        -11    1    3    3    0    0 -0.40790219925E+01  0.45846061499E+01 -0.10524540856E+00  0.61374351991E+01  0.51100000000E-03 0.  1.
         12    1    3    3    0    0  0.79533031344E+01  0.29777366535E+02 -0.12488360528E+01  0.30846493804E+02  0.00000000000E+00 0. -1.
</event>
<event>
 7    1  0.1714203E-010  0.4778727E+02  0.7816164E-02  0.1312668E+00
        -11   -1    0    0    0    0  0.00000000000E+00  0.00000000000E+00  0.45593999997E+02  0.45594000000E+02  0.51100000000E-03 0. -1.
         11   -1    0    0    0    0 -0.00000000000E+00 -0.00000000000E+00 -0.45593999997E+02  0.45594000000E+02  0.51100000000E-03 0.  1.
    9900012    2    1    2    0    0  0.36484523714E+02  0.22755478796E+02 -0.58898993204E+01  0.47787271897E+02  0.20000003886E+02 0.  0.
        -12    1    1    2    0    0 -0.36484523714E+02 -0.22755478796E+02  0.58898993204E+01  0.43400728103E+02  0.00000000000E+00 0.  1.
         11    1    3    3    0    0  0.16197851882E+02  0.14529930462E+02 -0.77282817112E+01  0.23091462130E+02  0.51100000000E-03 0. -1.
        -11    1    3    3    0    0 -0.44343413674E+00  0.23533014051E+01  0.20449443680E+01  0.31490409757E+01  0.51100000000E-03 0.  1.
         12    1    3    3    0    0  0.20730105969E+02  0.58722469282E+01 -0.20656197732E+00  0.21546768791E+02  0.00000000000E+00 0. -1.
</event>
<event>
 7    1  0.1714203E-010  0.4778727E+02  0.7816164E-02  0.1312668E+00
        -11   -1    0    0    0    0  0.00000000000E+00  0.00000000000E+00  0.45593999997E+02  0.45594000000E+02  0.51100000000E-03 0.  1.
         11   -1    0    0    0    0 -0.00000000000E+00 -0.00000000000E+00 -0.45593999997E+02  0.45594000000E+02  0.51100000000E-03 0. -1.
    9900012    2    1    2    0    0  0.35603096775E+01 -0.39983378985E+02 -0.16500806274E+02  0.47787274110E+02  0.20000013978E+02 0.  0.
        -12    1    1    2    0    0 -0.35603096775E+01  0.39983378985E+02  0.16500806274E+02  0.43400725890E+02  0.00000000000E+00 0.  1.
         11    1    3    3    0    0  0.31517073834E+01 -0.17713809961E+02 -0.33629709642E+01  0.18303603381E+02  0.51100000000E-03 0. -1.
        -11    1    3    3    0    0  0.35427444257E+01 -0.14554854261E+02 -0.13351609307E+01  0.15039197970E+02  0.51100000000E-03 0.  1.
        -12    1    3    3    0    0 -0.31341421316E+01 -0.77147147635E+01 -0.11802674379E+02  0.14444472759E+02  0.00000000000E+00 0.  1.
</event>
<event>
 7    1  0.1714203E-010  0.4778727E+02  0.7816164E-02  0.1312668E+00
        -11   -1    0    0    0    0  0.00000000000E+00  0.00000000000E+00  0.45593999997E+02  0.45594000000E+02  0.51100000000E-03 0.  1.
         11   -1    0    0    0    0 -0.00000000000E+00 -0.00000000000E+00 -0.45593999997E+02  0.45594000000E+02  0.51100000000E-03 0. -1.
    9900012    2    1    2    0    0 -0.15130803335E+02  0.36069112911E+02 -0.18806951896E+02  0.47787267802E+02  0.19999985216E+02 0.  0.
        -12    1    1    2    0    0  0.15130803335E+02 -0.36069112911E+02  0.18806951896E+02  0.43400732198E+02  0.00000000000E+00 0.  1.
         11    1    3    3    0    0 -0.89132919782E+01  0.21599538284E+02 -0.43482789833E+01  0.23767506355E+02  0.51100000000E-03 0. -1.
        -11    1    3    3    0    0 -0.29822871228E+01 -0.11343830385E+01 -0.17658530891E+01  0.36467929410E+01  0.51100000000E-03 0.  1.
         12    1    3    3    0    0 -0.32352242337E+01  0.15603957666E+02 -0.12692819823E+02  0.20372968506E+02  0.00000000000E+00 0. -1.
</event>
<event>
 7    1  0.1714203E-010  0.4778727E+02  0.7816164E-02  0.1312668E+00
        -11   -1    0    0    0    0  0.00000000000E+00  0.00000000000E+00  0.45593999997E+02  0.45594000000E+02  0.51100000000E-03 0.  1.
         11   -1    0    0    0    0 -0.00000000000E+00 -0.00000000000E+00 -0.45593999997E+02  0.45594000000E+02  0.51100000000E-03 0. -1.
    9900012    2    1    2    0    0 -0.22380533379E+02 -0.36701858369E+02 -0.59756681588E+01  0.47787270835E+02  0.19999999047E+02 0.  0.
        -12    1    1    2    0    0  0.22380533379E+02  0.36701858369E+02  0.59756681588E+01  0.43400729165E+02  0.00000000000E+00 0.  1.
         11    1    3    3    0    0 -0.12874487296E+02 -0.13993547985E+02  0.10589273823E+01  0.19044504084E+02  0.51100000000E-03 0. -1.
        -11    1    3    3    0    0 -0.95996034597E+01 -0.24313029760E+02 -0.72363906454E+01  0.27122705480E+02  0.51100000000E-03 0.  1.
        -12    1    3    3    0    0  0.93557376177E-01  0.16047193765E+01  0.20179510431E+00  0.16200612717E+01  0.00000000000E+00 0.  1.
</event>
<event>
 7    1  0.1714203E-010  0.4778727E+02  0.7816164E-02  0.1312668E+00
        -11   -1    0    0    0    0  0.00000000000E+00  0.00000000000E+00  0.45593999997E+02  0.45594000000E+02  0.51100000000E-03 0.  1.
         11   -1    0    0    0    0 -0.00000000000E+00 -0.00000000000E+00 -0.45593999997E+02  0.45594000000E+02  0.51100000000E-03 0. -1.
    9900012    2    1    2    0    0 -0.10728402065E+02  0.18327410844E+02 -0.37850109613E+02  0.47787269628E+02  0.19999993543E+02 0.  0.
        -12    1    1    2    0    0  0.10728402065E+02 -0.18327410844E+02  0.37850109613E+02  0.43400730372E+02  0.00000000000E+00 0.  1.
         11    1    3    3    0    0  0.25702968811E+01  0.59739695133E+01 -0.15165382475E+02  0.16501017049E+02  0.51100000000E-03 0. -1.
        -11    1    3    3    0    0 -0.40319355392E+01  0.20223746380E+01  0.20783901672E+00  0.45154956192E+01  0.51100000000E-03 0.  1.
        -12    1    3    3    0    0 -0.92667634065E+01  0.10331066693E+02 -0.22892566155E+02  0.26770756960E+02  0.00000000000E+00 0.  1.
</event>
<event>
 7    1  0.1714203E-010  0.4778727E+02  0.7816164E-02  0.1312668E+00
        -11   -1    0    0    0    0  0.00000000000E+00  0.00000000000E+00  0.45593999997E+02  0.45594000000E+02  0.51100000000E-03 0.  1.
         11   -1    0    0    0    0 -0.00000000000E+00 -0.00000000000E+00 -0.45593999997E+02  0.45594000000E+02  0.51100000000E-03 0. -1.
    9900012    2    1    2    0    0  0.82714225272E+01  0.20835693296E+02 -0.37162893463E+02  0.47787271938E+02  0.20000004075E+02 0.  0.
        -12    1    1    2    0    0 -0.82714225272E+01 -0.20835693296E+02  0.37162893463E+02  0.43400728062E+02  0.00000000000E+00 0.  1.
         11    1    3    3    0    0 -0.48817082098E+01  0.19485240032E+01 -0.23608515533E+01  0.57620691730E+01  0.51100000000E-03 0.  1.
        -11    1    3    3    0    0  0.13608954063E+01  0.20690733301E+00 -0.12860481180E+01  0.18838171287E+01  0.51100000000E-03 0. -1.
         12    1    3    3    0    0  0.11792235331E+02  0.18680261960E+02 -0.33515993791E+02  0.40141385637E+02  0.00000000000E+00 0. -1.
</event>
<event>
 7    1  0.1714203E-010  0.4778727E+02  0.7816164E-02  0.1312668E+00
        -11   -1    0    0    0    0  0.00000000000E+00  0.00000000000E+00  0.45593999997E+02  0.45594000000E+02  0.51100000000E-03 0. -1.
         11   -1    0    0    0    0 -0.00000000000E+00 -0.00000000000E+00 -0.45593999997E+02  0.45594000000E+02  0.51100000000E-03 0.  1.
    9900012    2    1    2    0    0  0.32945324020E+02 -0.80656307596E+01  0.27077195247E+02  0.47787271011E+02  0.19999999849E+02 0.  0.
        -12    1    1    2    0    0 -0.32945324020E+02  0.80656307596E+01 -0.27077195247E+02  0.43400728989E+02  0.00000000000E+00 0.  1.
         11    1    3    3    0    0  0.31852155146E+01 -0.14791672792E+01 -0.17933112692E+01  0.39432853414E+01  0.51100000000E-03 0. -1.
        -11    1    3    3    0    0  0.11658699226E+02 -0.87586953763E+01  0.15141299897E+02  0.21021393274E+02  0.51100000000E-03 0.  1.
         12    1    3    3    0    0  0.18101409279E+02  0.21722318959E+01  0.13729206620E+02  0.22822592396E+02  0.00000000000E+00 0. -1.
</event>
<event>
 7    1  0.1714203E-010  0.4778728E+02  0.7816164E-02  0.1312668E+00
        -11   -1    0    0    0    0  0.00000000000E+00  0.00000000000E+00  0.45593999997E+02  0.45594000000E+02  0.51100000000E-03 0.  1.
         11   -1    0    0    0    0 -0.00000000000E+00 -0.00000000000E+00 -0.45593999997E+02  0.45594000000E+02  0.51100000000E-03 0. -1.
    9900012    2    1    2    0    0  0.15086828556E+01  0.32794960962E+02 -0.28387269197E+02  0.47787278337E+02  0.20000033248E+02 0.  0.
        -12    1    1    2    0    0 -0.15086828556E+01 -0.32794960962E+02  0.28387269197E+02  0.43400721663E+02  0.00000000000E+00 0.  1.
         11    1    3    3    0    0  0.14096246896E+01  0.93625287750E+01 -0.15697751150E+02  0.18332031482E+02  0.51100000000E-03 0. -1.
        -11    1    3    3    0    0  0.19645753350E+01  0.24222228771E+02 -0.12719495025E+02  0.27429208461E+02  0.51100000000E-03 0.  1.
         12    1    3    3    0    0 -0.18655171690E+01 -0.78979658359E+00  0.29976978808E-01  0.20260383932E+01  0.00000000000E+00 0. -1.
</event>
<event>
 7    1  0.1714203E-010  0.4778727E+02  0.7816164E-02  0.1312668E+00
        -11   -1    0    0    0    0  0.00000000000E+00  0.00000000000E+00  0.45593999997E+02  0.45594000000E+02  0.51100000000E-03 0.  1.
         11   -1    0    0    0    0 -0.00000000000E+00 -0.00000000000E+00 -0.45593999997E+02  0.45594000000E+02  0.51100000000E-03 0. -1.
    9900012    2    1    2    0    0  0.31783407564E+01 -0.30948883562E+02 -0.30260340128E+02  0.47787269265E+02  0.19999991887E+02 0.  0.
        -12    1    1    2    0    0 -0.31783407564E+01  0.30948883562E+02  0.30260340128E+02  0.43400730735E+02  0.00000000000E+00 0.  1.
         11    1    3    3    0    0 -0.54028483142E+01 -0.18940522780E+02 -0.14320204617E+02  0.24351641292E+02  0.51100000000E-03 0. -1.
        -11    1    3    3    0    0  0.14932824421E+01 -0.41588084893E+01 -0.10815526357E+02  0.11683372422E+02  0.51100000000E-03 0.  1.
        -12    1    3    3    0    0  0.70879066285E+01 -0.78495522926E+01 -0.51246091535E+01  0.11752255551E+02  0.00000000000E+00 0.  1.
</event>
<event>
 7    1  0.1714203E-010  0.4778727E+02  0.7816164E-02  0.1312668E+00
        -11   -1    0    0    0    0  0.00000000000E+00  0.00000000000E+00  0.45593999997E+02  0.45594000000E+02  0.51100000000E-03 0. -1.
         11   -1    0    0    0    0 -0.00000000000E+00 -0.00000000000E+00 -0.45593999997E+02  0.45594000000E+02  0.51100000000E-03 0.  1.
    9900012    2    1    2    0    0 -0.98054518930E+01  0.24594009979E+01  0.42206961742E+02  0.47787272361E+02  0.20000006005E+02 0.  0.
        -12    1    1    2    0    0  0.98054518930E+01 -0.24594009979E+01 -0.42206961742E+02  0.43400727639E+02  0.00000000000E+00 0.  1.
         11    1    3    3    0    0  0.11724168244E+01  0.66648256148E+01  0.18768958592E+02  0.19951648267E+02  0.51100000000E-03 0. -1.
        -11    1    3    3    0    0 -0.13232119612E+01 -0.15954578964E-01  0.12810817179E+02  0.12878982160E+02  0.51100000000E-03 0.  1.
        -12    1    3    3    0    0 -0.96546567562E+01 -0.41894700380E+01  0.10627185971E+02  0.14956641934E+02  0.00000000000E+00 0.  1.
</event>
<event>
 7    1  0.1714203E-010  0.4778728E+02  0.7816164E-02  0.1312668E+00
        -11   -1    0    0    0    0  0.00000000000E+00  0.00000000000E+00  0.45593999997E+02  0.45594000000E+02  0.51100000000E-03 0.  1.
         11   -1    0    0    0    0 -0.00000000000E+00 -0.00000000000E+00 -0.45593999997E+02  0.45594000000E+02  0.51100000000E-03 0. -1.
    9900012    2    1    2    0    0  0.34125180455E+02 -0.25812110738E+02  0.72683701235E+01  0.47787283345E+02  0.20000056085E+02 0.  0.
        -12    1    1    2    0    0 -0.34125180455E+02  0.25812110738E+02 -0.72683701235E+01  0.43400716655E+02  0.00000000000E+00 0.  1.
         11    1    3    3    0    0  0.75780237550E+01 -0.83404165025E+01 -0.43300520444E+01  0.12072213651E+02  0.51100000000E-03 0. -1.
        -11    1    3    3    0    0  0.41975698772E+01 -0.44471075468E+00  0.55533502751E+01  0.69754612800E+01  0.51100000000E-03 0.  1.
         12    1    3    3    0    0  0.22349586823E+02 -0.17026983481E+02  0.60450718928E+01  0.28739608414E+02  0.00000000000E+00 0. -1.
</event>
<event>
 7    1  0.1714203E-010  0.4778727E+02  0.7816164E-02  0.1312668E+00
        -11   -1    0    0    0    0  0.00000000000E+00  0.00000000000E+00  0.45593999997E+02  0.45594000000E+02  0.51100000000E-03 0. -1.
         11   -1    0    0    0    0 -0.00000000000E+00 -0.00000000000E+00 -0.45593999997E+02  0.45594000000E+02  0.51100000000E-03 0.  1.
    9900012    2    1    2    0    0  0.28939970774E+02 -0.17178374860E+02  0.27404470438E+02  0.47787268771E+02  0.19999989634E+02 0.  0.
        -12    1    1    2    0    0 -0.28939970774E+02  0.17178374860E+02 -0.27404470438E+02  0.43400731229E+02  0.00000000000E+00 0.  1.
         11    1    3    3    0    0  0.14873636631E+02  0.57323046516E+00  0.71866569040E+01  0.16528814159E+02  0.51100000000E-03 0. -1.
        -11    1    3    3    0    0  0.81082311029E+00 -0.41485162888E+01  0.67883503829E+01  0.79968320413E+01  0.51100000000E-03 0.  1.
         12    1    3    3    0    0  0.13255511033E+02 -0.13603089037E+02  0.13429463151E+02  0.23261622570E+02  0.00000000000E+00 0. -1.
</event>
<event>
 7    1  0.1714203E-010  0.4778727E+02  0.7816164E-02  0.1312668E+00
        -11   -1    0    0    0    0  0.00000000000E+00  0.00000000000E+00  0.45593999997E+02  0.45594000000E+02  0.51100000000E-03 0. -1.
         11   -1    0    0    0    0 -0.00000000000E+00 -0.00000000000E+00 -0.45593999997E+02  0.45594000000E+02  0.51100000000E-03 0.  1.
    9900012    2    1    2    0    0 -0.16736482299E+02 -0.34654463695E+02  0.20064431630E+02  0.47787272928E+02  0.20000008588E+02 0.  0.
        -12    1    1    2    0    0  0.16736482299E+02  0.34654463695E+02 -0.20064431630E+02  0.43400727072E+02  0.00000000000E+00 0.  1.
         11    1    3    3    0    0 -0.15073825131E+02 -0.28665072069E+02  0.18332583757E+02  0.37215456309E+02  0.51100000000E-03 0. -1.
        -11    1    3    3    0    0 -0.47698854439E+01 -0.15774565773E+01  0.61881618608E+00  0.50619275118E+01  0.51100000000E-03 0.  1.
        -12    1    3    3    0    0  0.31072282763E+01 -0.44119350496E+01  0.11130316861E+01  0.55098891075E+01  0.00000000000E+00 0.  1.
</event>
<event>
 7    1  0.1714203E-010  0.4778727E+02  0.7816164E-02  0.1312668E+00
        -11   -1    0    0    0    0  0.00000000000E+00  0.00000000000E+00  0.45593999997E+02  0.45594000000E+02  0.51100000000E-03 0.  1.
         11   -1    0    0    0    0 -0.00000000000E+00 -0.00000000000E+00 -0.45593999997E+02  0.45594000000E+02  0.51100000000E-03 0. -1.
    9900012    2    1    2    0    0 -0.12860113727E+02  0.33464414736E+02 -0.24461679514E+02  0.47787270244E+02  0.19999996350E+02 0.  0.
        -12    1    1    2    0    0  0.12860113727E+02 -0.33464414736E+02  0.24461679514E+02  0.43400729756E+02  0.00000000000E+00 0.  1.
         11    1    3    3    0    0 -0.16026854084E+02  0.25846387279E+02 -0.22650892791E+02  0.37920426312E+02  0.51100000000E-03 0. -1.
        -11    1    3    3    0    0  0.24264414895E+01  0.44456616846E+01 -0.35395087800E+01  0.61789682618E+01  0.51100000000E-03 0.  1.
        -12    1    3    3    0    0  0.74029886762E+00  0.31723657728E+01  0.17287220566E+01  0.36878756702E+01  0.00000000000E+00 0.  1.
</event>
<event>
 7    1  0.1714203E-010  0.4778727E+02  0.7816164E-02  0.1312668E+00
        -11   -1    0    0    0    0  0.00000000000E+00  0.00000000000E+00  0.45593999997E+02  0.45594000000E+02  0.51100000000E-03 0. -1.
         11   -1    0    0    0    0 -0.00000000000E+00 -0.00000000000E+00 -0.45593999997E+02  0.45594000000E+02  0.51100000000E-03 0.  1.
    9900012    2    1    2    0    0  0.34584821422E+02 -0.15901711849E+02 -0.20848234982E+02  0.47787271729E+02  0.20000003123E+02 0.  0.
        -12    1    1    2    0    0 -0.34584821422E+02  0.15901711849E+02  0.20848234982E+02  0.43400728271E+02  0.00000000000E+00 0.  1.
         11    1    3    3    0    0  0.16949555530E+02 -0.50281733732E+01 -0.91875860202E+01  0.19924399546E+02  0.51100000000E-03 0. -1.
        -11    1    3    3    0    0  0.10909986955E+01  0.27646293279E+01 -0.42322749306E+01  0.51716153012E+01  0.51100000000E-03 0.  1.
        -12    1    3    3    0    0  0.16544267197E+02 -0.13638167804E+02 -0.74283740311E+01  0.22691256882E+02  0.00000000000E+00 0.  1.
</event>
<event>
 7    1  0.1714203E-010  0.4778727E+02  0.7816164E-02  0.1312668E+00
        -11   -1    0    0    0    0  0.00000000000E+00  0.00000000000E+00  0.45593999997E+02  0.45594000000E+02  0.51100000000E-03 0.  1.
         11   -1    0    0    0    0 -0.00000000000E+00 -0.00000000000E+00 -0.45593999997E+02  0.45594000000E+02  0.51100000000E-03 0. -1.
    9900012    2    1    2    0    0  0.14957213295E+01  0.43360740531E+02  0.11099756630E+01  0.47787273650E+02  0.20000011880E+02 0.  0.
        -12    1    1    2    0    0 -0.14957213295E+01 -0.43360740531E+02 -0.11099756630E+01  0.43400726350E+02  0.00000000000E+00 0.  1.
         11    1    3    3    0    0  0.36826861168E+00  0.41281269325E+02  0.29481872494E+01  0.41388049327E+02  0.51100000000E-03 0. -1.
        -11    1    3    3    0    0  0.31427998070E+01  0.24646272385E+01 -0.70636176783E+00  0.40559247108E+01  0.51100000000E-03 0.  1.
        -12    1    3    3    0    0 -0.20153470892E+01 -0.38515603165E+00 -0.11318498186E+01  0.23432996118E+01  0.00000000000E+00 0.  1.
</event>
<event>
 7    1  0.1714203E-010  0.4778727E+02  0.7816164E-02  0.1312668E+00
        -11   -1    0    0    0    0  0.00000000000E+00  0.00000000000E+00  0.45593999997E+02  0.45594000000E+02  0.51100000000E-03 0. -1.
         11   -1    0    0    0    0 -0.00000000000E+00 -0.00000000000E+00 -0.45593999997E+02  0.45594000000E+02  0.51100000000E-03 0.  1.
    9900012    2    1    2    0    0  0.43066359791E+02 -0.51334787493E+01  0.15998048956E+01  0.47787270450E+02  0.19999997291E+02 0.  0.
        -12    1    1    2    0    0 -0.43066359791E+02  0.51334787493E+01 -0.15998048956E+01  0.43400729550E+02  0.00000000000E+00 0.  1.
         11    1    3    3    0    0  0.22209657799E+02 -0.80314678563E+01 -0.29918591321E+01  0.23805978174E+02  0.51100000000E-03 0. -1.
        -11    1    3    3    0    0  0.11307592397E+02 -0.18455937024E+01  0.64652685774E+01  0.13155514432E+02  0.51100000000E-03 0.  1.
         12    1    3    3    0    0  0.95491095950E+01  0.47435828094E+01 -0.18736045497E+01  0.10825777844E+02  0.00000000000E+00 0. -1.
</event>
<event>
 7    1  0.1747354E-010  0.4778727E+02  0.7816164E-02  0.1312668E+00
        -11   -1    0    0    0    0  0.00000000000E+00  0.00000000000E+00  0.45593999997E+02  0.45594000000E+02  0.51100000000E-03 0. -1.
         11   -1    0    0    0    0 -0.00000000000E+00 -0.00000000000E+00 -0.45593999997E+02  0.45594000000E+02  0.51100000000E-03 0.  1.
    9900012    2    1    2    0    0  0.13829301505E+02  0.19992821740E+02  0.35953594802E+02  0.47787268665E+02  0.19999989151E+02 0.  0.
        -12    1    1    2    0    0 -0.13829301505E+02 -0.19992821740E+02 -0.35953594802E+02  0.43400731335E+02  0.00000000000E+00 0.  1.
         11    1    3    3    0    0  0.93718900962E+01  0.63579827796E+01  0.17868029101E+02  0.21154733116E+02  0.51100000000E-03 0. -1.
        -11    1    3    3    0    0 -0.24652304402E+01  0.66975125806E+01  0.14563864937E+02  0.16218514052E+02  0.51100000000E-03 0.  1.
        -12    1    3    3    0    0  0.69226418493E+01  0.69373263794E+01  0.35217007645E+01  0.10414021497E+02  0.00000000000E+00 0.  1.
</event>
<event>
 7    1  0.1714203E-010  0.4778727E+02  0.7816164E-02  0.1312668E+00
        -11   -1    0    0    0    0  0.00000000000E+00  0.00000000000E+00  0.45593999997E+02  0.45594000000E+02  0.51100000000E-03 0.  1.
         11   -1    0    0    0    0 -0.00000000000E+00 -0.00000000000E+00 -0.45593999997E+02  0.45594000000E+02  0.51100000000E-03 0. -1.
    9900012    2    1    2    0    0  0.35165969925E+02 -0.21673432845E+02 -0.13313174403E+02  0.47787265620E+02  0.19999975268E+02 0.  0.
        -12    1    1    2    0    0 -0.35165969925E+02  0.21673432845E+02  0.13313174403E+02  0.43400734380E+02  0.00000000000E+00 0.  1.
         11    1    3    3    0    0  0.27925527206E+02 -0.20236303615E+02 -0.12413750282E+02  0.36653025115E+02  0.51100000000E-03 0. -1.
        -11    1    3    3    0    0  0.18548367926E+01 -0.16125066154E+00 -0.42670457644E+01  0.46555452011E+01  0.51100000000E-03 0.  1.
         12    1    3    3    0    0  0.53856059261E+01 -0.12758785686E+01  0.33676216433E+01  0.64786953043E+01  0.00000000000E+00 0. -1.
</event>
<event>
 7    1  0.1714203E-010  0.4778727E+02  0.7816164E-02  0.1312668E+00
        -11   -1    0    0    0    0  0.00000000000E+00  0.00000000000E+00  0.45593999997E+02  0.45594000000E+02  0.51100000000E-03 0. -1.
         11   -1    0    0    0    0 -0.00000000000E+00 -0.00000000000E+00 -0.45593999997E+02  0.45594000000E+02  0.51100000000E-03 0.  1.
    9900012    2    1    2    0    0 -0.69769737026E+01 -0.41996647566E+02  0.84396185996E+01  0.47787265779E+02  0.19999975994E+02 0.  0.
        -12    1    1    2    0    0  0.69769737026E+01  0.41996647566E+02 -0.84396185996E+01  0.43400734221E+02  0.00000000000E+00 0.  1.
         11    1    3    3    0    0  0.43821560816E+01 -0.18975915430E+02  0.64421012927E+01  0.20513150115E+02  0.51100000000E-03 0. -1.
        -11    1    3    3    0    0  0.38416467390E+00 -0.85711343439E+01  0.50338288028E+00  0.85944936455E+01  0.51100000000E-03 0.  1.
        -12    1    3    3    0    0 -0.11743294458E+02 -0.14449597792E+02  0.14941344266E+01  0.18679622019E+02  0.00000000000E+00 0.  1.
</event>
<event>
 7    1  0.1714203E-010  0.4778728E+02  0.7816164E-02  0.1312668E+00
        -11   -1    0    0    0    0  0.00000000000E+00  0.00000000000E+00  0.45593999997E+02  0.45594000000E+02  0.51100000000E-03 0.  1.
         11   -1    0    0    0    0 -0.00000000000E+00 -0.00000000000E+00 -0.45593999997E+02  0.45594000000E+02  0.51100000000E-03 0. -1.
    9900012    2    1    2    0    0 -0.33008798588E+02 -0.77425190673E+01 -0.27094194656E+02  0.47787276852E+02  0.20000026478E+02 0.  0.
        -12    1    1    2    0    0  0.33008798588E+02  0.77425190673E+01  0.27094194656E+02  0.43400723148E+02  0.00000000000E+00 0.  1.
         11    1    3    3    0    0 -0.48731798439E-01  0.17224767878E+01 -0.33929059363E+01  0.38054056323E+01  0.51100000000E-03 0. -1.
        -11    1    3    3    0    0 -0.27491896828E+01  0.11455353473E+01 -0.75558487526E+01  0.81216467405E+01  0.51100000000E-03 0.  1.
         12    1    3    3    0    0 -0.30210877106E+02 -0.10610531202E+02 -0.16145439967E+02  0.35860224479E+02  0.00000000000E+00 0. -1.
</event>
<event>
 7    1  0.1714203E-010  0.4778728E+02  0.7816164E-02  0.1312668E+00
        -11   -1    0    0    0    0  0.00000000000E+00  0.00000000000E+00  0.45593999997E+02  0.45594000000E+02  0.51100000000E-03 0.  1.
         11   -1    0    0    0    0 -0.00000000000E+00 -0.00000000000E+00 -0.45593999997E+02  0.45594000000E+02  0.51100000000E-03 0. -1.
    9900012    2    1    2    0    0 -0.35753614859E+02  0.14193684719E+02 -0.20095800929E+02  0.47787275624E+02  0.20000020879E+02 0.  0.
        -12    1    1    2    0    0  0.35753614859E+02 -0.14193684719E+02  0.20095800929E+02  0.43400724376E+02  0.00000000000E+00 0.  1.
         11    1    3    3    0    0 -0.61046581730E+01  0.61446688118E+01 -0.47983706216E+01  0.99019274437E+01  0.51100000000E-03 0. -1.
        -11    1    3    3    0    0 -0.65588571805E+01 -0.31467992380E+01  0.12079117346E+01  0.73742798956E+01  0.51100000000E-03 0.  1.
        -12    1    3    3    0    0 -0.23090099505E+02  0.11195815146E+02 -0.16505342042E+02  0.30511068285E+02  0.00000000000E+00 0.  1.
</event>
<event>
 7    1  0.1714203E-010  0.4778727E+02  0.7816164E-02  0.1312668E+00
        -11   -1    0    0    0    0  0.00000000000E+00  0.00000000000E+00  0.45593999997E+02  0.45594000000E+02  0.51100000000E-03 0.  1.
         11   -1    0    0    0    0 -0.00000000000E+00 -0.00000000000E+00 -0.45593999997E+02  0.45594000000E+02  0.51100000000E-03 0. -1.
    9900012    2    1    2    0    0  0.23098395322E+02  0.34674679291E+02 -0.12155406688E+02  0.47787272331E+02  0.20000005868E+02 0.  0.
        -12    1    1    2    0    0 -0.23098395322E+02 -0.34674679291E+02  0.12155406688E+02  0.43400727669E+02  0.00000000000E+00 0.  1.
         11    1    3    3    0    0  0.23810732426E+01  0.52768187848E+01 -0.78337076415E+01  0.97407033600E+01  0.51100000000E-03 0. -1.
        -11    1    3    3    0    0  0.38752864062E+01  0.68615075974E+01  0.38207620311E+01  0.87576454597E+01  0.51100000000E-03 0.  1.
        -12    1    3    3    0    0  0.16842035674E+02  0.22536352909E+02 -0.81424610774E+01  0.29288923512E+02  0.00000000000E+00 0.  1.
</event>
<event>
 7    1  0.1714203E-010  0.4778731E+02  0.7816164E-02  0.1312668E+00
        -11   -1    0    0    0    0  0.00000000000E+00  0.00000000000E+00  0.45593999997E+02  0.45594000000E+02  0.51100000000E-03 0.  1.
         11   -1    0    0    0    0 -0.00000000000E+00 -0.00000000000E+00 -0.45593999997E+02  0.45594000000E+02  0.51100000000E-03 0. -1.
    9900012    2    1    2    0    0 -0.43992238142E+01 -0.33678353106E+02 -0.27019165264E+02  0.47787309571E+02  0.20000175659E+02 0.  0.
        -12    1    1    2    0    0  0.43992238142E+01  0.33678353106E+02  0.27019165264E+02  0.43400690429E+02  0.00000000000E+00 0.  1.
         11    1    3    3    0    0  0.43674796450E+00 -0.21023356896E+02 -0.50466829813E+01  0.21625015453E+02  0.51100000000E-03 0. -1.
        -11    1    3    3    0    0 -0.36382945777E+01 -0.65389948653E+01 -0.85408867440E+01  0.11355280178E+02  0.51100000000E-03 0.  1.
         12    1    3    3    0    0 -0.11976772010E+01 -0.61160013452E+01 -0.13431595539E+02  0.14807013941E+02  0.00000000000E+00 0. -1.
</event>
<event>
 7    1  0.3009027E-010  0.4778726E+02  0.7816164E-02  0.1312668E+00
        -11   -1    0    0    0    0  0.00000000000E+00  0.00000000000E+00  0.45593999997E+02  0.45594000000E+02  0.51100000000E-03 0. -1.
         11   -1    0    0    0    0 -0.00000000000E+00 -0.00000000000E+00 -0.45593999997E+02  0.45594000000E+02  0.51100000000E-03 0.  1.
    9900012    2    1    2    0    0  0.13467704626E+02 -0.16048727481E+02  0.38008992311E+02  0.47787260166E+02  0.19999950399E+02 0.  0.
        -12    1    1    2    0    0 -0.13467704626E+02  0.16048727481E+02 -0.38008992311E+02  0.43400739834E+02  0.00000000000E+00 0.  1.
         11    1    3    3    0    0  0.10210401628E+02 -0.92009699505E+01  0.18497567051E+02  0.23044959026E+02  0.51100000000E-03 0. -1.
        -11    1    3    3    0    0  0.27836182265E+01 -0.64181120149E+00 -0.12129486817E+01  0.31034975133E+01  0.51100000000E-03 0.  1.
        -12    1    3    3    0    0  0.47368477139E+00 -0.62059463290E+01  0.20724373942E+02  0.21638803627E+02  0.00000000000E+00 0.  1.
</event>
<event>
 7    1  0.1714203E-010  0.4778729E+02  0.7816164E-02  0.1312668E+00
        -11   -1    0    0    0    0  0.00000000000E+00  0.00000000000E+00  0.45593999997E+02  0.45594000000E+02  0.51100000000E-03 0. -1.
         11   -1    0    0    0    0 -0.00000000000E+00 -0.00000000000E+00 -0.45593999997E+02  0.45594000000E+02  0.51100000000E-03 0.  1.
    9900012    2    1    2    0    0 -0.12908805315E+01  0.43328548952E+02  0.21429179439E+01  0.47787290050E+02  0.20000086655E+02 0.  0.
        -12    1    1    2    0    0  0.12908805315E+01 -0.43328548952E+02 -0.21429179439E+01  0.43400709950E+02  0.00000000000E+00 0.  1.
         11    1    3    3    0    0 -0.24247643431E+01  0.34061722507E+02  0.74666140612E+01  0.34954695651E+02  0.51100000000E-03 0. -1.
        -11    1    3    3    0    0  0.22858181980E+00  0.59645925136E+01  0.59111956015E+00  0.59981693955E+01  0.51100000000E-03 0.  1.
        -12    1    3    3    0    0  0.90530199180E+00  0.33022339313E+01 -0.59148156775E+01  0.68344250037E+01  0.00000000000E+00 0.  1.
</event>
<event>
 7    1  0.1714203E-010  0.4778727E+02  0.7816164E-02  0.1312668E+00
        -11   -1    0    0    0    0  0.00000000000E+00  0.00000000000E+00  0.45593999997E+02  0.45594000000E+02  0.51100000000E-03 0. -1.
         11   -1    0    0    0    0 -0.00000000000E+00 -0.00000000000E+00 -0.45593999997E+02  0.45594000000E+02  0.51100000000E-03 0.  1.
    9900012    2    1    2    0    0  0.35472879185E+02 -0.16294745417E+02  0.18967846358E+02  0.47787273262E+02  0.20000010112E+02 0.  0.
        -12    1    1    2    0    0 -0.35472879185E+02  0.16294745417E+02 -0.18967846358E+02  0.43400726738E+02  0.00000000000E+00 0.  1.
         11    1    3    3    0    0  0.27860782994E+01  0.40909118268E-01  0.52226662725E+01  0.59194720289E+01  0.51100000000E-03 0. -1.
        -11    1    3    3    0    0  0.33683044939E+02 -0.13580344261E+02  0.14009367006E+02  0.38926027678E+02  0.51100000000E-03 0.  1.
         12    1    3    3    0    0 -0.99624405350E+00 -0.27553102740E+01 -0.26418692027E+00  0.29417735550E+01  0.00000000000E+00 0. -1.
</event>
<event>
 7    1  0.1714203E-010  0.4778727E+02  0.7816164E-02  0.1312668E+00
        -11   -1    0    0    0    0  0.00000000000E+00  0.00000000000E+00  0.45593999997E+02  0.45594000000E+02  0.51100000000E-03 0.  1.
         11   -1    0    0    0    0 -0.00000000000E+00 -0.00000000000E+00 -0.45593999997E+02  0.45594000000E+02  0.51100000000E-03 0. -1.
    9900012    2    1    2    0    0  0.16384202799E+02 -0.39901553517E+02 -0.48007563639E+01  0.47787270327E+02  0.19999996730E+02 0.  0.
        -12    1    1    2    0    0 -0.16384202799E+02  0.39901553517E+02  0.48007563639E+01  0.43400729673E+02  0.00000000000E+00 0.  1.
         11    1    3    3    0    0  0.58799353178E+01 -0.13402445719E+02  0.14316213531E+00  0.14636245633E+02  0.51100000000E-03 0. -1.
        -11    1    3    3    0    0  0.31781787521E+01 -0.76683503352E+01 -0.93160871919E+01  0.12477736088E+02  0.51100000000E-03 0.  1.
        -12    1    3    3    0    0  0.73260887292E+01 -0.18830757464E+02  0.43721686927E+01  0.20673288606E+02  0.00000000000E+00 0.  1.
</event>
<event>
 7    1  0.3205703E-010  0.4778727E+02  0.7816164E-02  0.1312668E+00
        -11   -1    0    0    0    0  0.00000000000E+00  0.00000000000E+00  0.45593999997E+02  0.45594000000E+02  0.51100000000E-03 0.  1.
         11   -1    0    0    0    0 -0.00000000000E+00 -0.00000000000E+00 -0.45593999997E+02  0.45594000000E+02  0.51100000000E-03 0. -1.
    9900012    2    1    2    0    0  0.33173575573E+02 -0.14400607940E+02 -0.23994995113E+02  0.47787269410E+02  0.19999992546E+02 0.  0.
        -12    1    1    2    0    0 -0.33173575573E+02  0.14400607940E+02  0.23994995113E+02  0.43400730590E+02  0.00000000000E+00 0.  1.
         11    1    3    3    0    0  0.11581254390E+02 -0.23615448907E+01 -0.59591843985E+01  0.13236851078E+02  0.51100000000E-03 0. -1.
        -11    1    3    3    0    0  0.45930470803E+01 -0.67647947926E+01 -0.14134479623E+02  0.16329177705E+02  0.51100000000E-03 0.  1.
        -12    1    3    3    0    0  0.16999274103E+02 -0.52742682569E+01 -0.39013310915E+01  0.18221240626E+02  0.00000000000E+00 0.  1.
</event>
<event>
 7    1  0.1714203E-010  0.4778727E+02  0.7816164E-02  0.1312668E+00
        -11   -1    0    0    0    0  0.00000000000E+00  0.00000000000E+00  0.45593999997E+02  0.45594000000E+02  0.51100000000E-03 0.  1.
         11   -1    0    0    0    0 -0.00000000000E+00 -0.00000000000E+00 -0.45593999997E+02  0.45594000000E+02  0.51100000000E-03 0. -1.
    9900012    2    1    2    0    0 -0.15457807248E+01 -0.21653361072E+02 -0.37581453690E+02  0.47787272527E+02  0.20000006758E+02 0.  0.
        -12    1    1    2    0    0  0.15457807248E+01  0.21653361072E+02  0.37581453690E+02  0.43400727473E+02  0.00000000000E+00 0.  1.
         11    1    3    3    0    0 -0.59027302157E+01 -0.18787243268E+02 -0.20312135229E+02  0.28291086431E+02  0.51100000000E-03 0. -1.
        -11    1    3    3    0    0  0.12741218512E+01 -0.49058572287E+01 -0.75114039650E+01  0.90615678238E+01  0.51100000000E-03 0.  1.
         12    1    3    3    0    0  0.30828276398E+01  0.20397394246E+01 -0.97579144958E+01  0.10434618272E+02  0.00000000000E+00 0. -1.
</event>
<event>
 7    1  0.1714203E-010  0.4778727E+02  0.7816164E-02  0.1312668E+00
        -11   -1    0    0    0    0  0.00000000000E+00  0.00000000000E+00  0.45593999997E+02  0.45594000000E+02  0.51100000000E-03 0.  1.
         11   -1    0    0    0    0 -0.00000000000E+00 -0.00000000000E+00 -0.45593999997E+02  0.45594000000E+02  0.51100000000E-03 0. -1.
    9900012    2    1    2    0    0  0.12047124770E+02 -0.20581165547E+02 -0.36261627888E+02  0.47787271348E+02  0.20000001382E+02 0.  0.
        -12    1    1    2    0    0 -0.12047124770E+02  0.20581165547E+02  0.36261627888E+02  0.43400728652E+02  0.00000000000E+00 0.  1.
         11    1    3    3    0    0  0.31941551080E+01 -0.75092670010E+01 -0.63668323206E+01  0.10350278827E+02  0.51100000000E-03 0. -1.
        -11    1    3    3    0    0  0.44195529145E+01 -0.24845247560E+01  0.35528263003E+00  0.50824735352E+01  0.51100000000E-03 0.  1.
         12    1    3    3    0    0  0.44334167472E+01 -0.10587373790E+02 -0.30250078197E+02  0.32354518985E+02  0.00000000000E+00 0. -1.
</event>
<event>
 7    1  0.1714203E-010  0.4778727E+02  0.7816164E-02  0.1312668E+00
        -11   -1    0    0    0    0  0.00000000000E+00  0.00000000000E+00  0.45593999997E+02  0.45594000000E+02  0.51100000000E-03 0. -1.
         11   -1    0    0    0    0 -0.00000000000E+00 -0.00000000000E+00 -0.45593999997E+02  0.45594000000E+02  0.51100000000E-03 0.  1.
    9900012    2    1    2    0    0 -0.38843946138E+02 -0.19359622964E+01  0.19261973038E+02  0.47787266056E+02  0.19999977254E+02 0.  0.
        -12    1    1    2    0    0  0.38843946138E+02  0.19359622964E+01 -0.19261973038E+02  0.43400733944E+02  0.00000000000E+00 0.  1.
         11    1    3    3    0    0 -0.19102695916E+02  0.17076098830E+01  0.86276206798E+01  0.21030091812E+02  0.51100000000E-03 0. -1.
        -11    1    3    3    0    0 -0.23763157848E+01 -0.17338402059E+01  0.86963304790E+01  0.91803726847E+01  0.51100000000E-03 0.  1.
        -12    1    3    3    0    0 -0.17364934438E+02 -0.19097319734E+01  0.19380218789E+01  0.17576801559E+02  0.00000000000E+00 0.  1.
</event>
<event>
 7    1  0.1714203E-010  0.4778727E+02  0.7816164E-02  0.1312668E+00
        -11   -1    0    0    0    0  0.00000000000E+00  0.00000000000E+00  0.45593999997E+02  0.45594000000E+02  0.51100000000E-03 0.  1.
         11   -1    0    0    0    0 -0.00000000000E+00 -0.00000000000E+00 -0.45593999997E+02  0.45594000000E+02  0.51100000000E-03 0. -1.
    9900012    2    1    2    0    0 -0.18274898023E+02 -0.38247070117E+02  0.93173515726E+01  0.47787270621E+02  0.19999998069E+02 0.  0.
        -12    1    1    2    0    0  0.18274898023E+02  0.38247070117E+02 -0.93173515726E+01  0.43400729379E+02  0.00000000000E+00 0.  1.
         11    1    3    3    0    0 -0.35384102418E+01 -0.10390478494E+02 -0.28628112182E+01  0.11343636044E+02  0.51100000000E-03 0. -1.
        -11    1    3    3    0    0 -0.13509951999E+02 -0.11116390359E+02  0.50753272878E+01  0.18216802270E+02  0.51100000000E-03 0.  1.
         12    1    3    3    0    0 -0.12265357829E+01 -0.16740201265E+02  0.71048355030E+01  0.18226832307E+02  0.00000000000E+00 0. -1.
</event>
<event>
 7    1  0.1714203E-010  0.4778727E+02  0.7816164E-02  0.1312668E+00
        -11   -1    0    0    0    0  0.00000000000E+00  0.00000000000E+00  0.45593999997E+02  0.45594000000E+02  0.51100000000E-03 0. -1.
         11   -1    0    0    0    0 -0.00000000000E+00 -0.00000000000E+00 -0.45593999997E+02  0.45594000000E+02  0.51100000000E-03 0.  1.
    9900012    2    1    2    0    0 -0.13509573609E+02 -0.29437235599E+02  0.28888821634E+02  0.47787269198E+02  0.19999991579E+02 0.  0.
        -12    1    1    2    0    0  0.13509573609E+02  0.29437235599E+02 -0.28888821634E+02  0.43400730802E+02  0.00000000000E+00 0.  1.
         11    1    3    3    0    0 -0.76697008111E+01 -0.11593800339E+02  0.91793038704E+01  0.16658335350E+02  0.51100000000E-03 0. -1.
        -11    1    3    3    0    0  0.20757116727E-01 -0.10184180034E+02  0.18876810945E+02  0.21448821542E+02  0.51100000000E-03 0.  1.
        -12    1    3    3    0    0 -0.58606299146E+01 -0.76592552247E+01  0.83270681883E+00  0.96801123051E+01  0.00000000000E+00 0.  1.
</event>
<event>
 7    1  0.1714203E-010  0.4778726E+02  0.7816164E-02  0.1312668E+00
        -11   -1    0    0    0    0  0.00000000000E+00  0.00000000000E+00  0.45593999997E+02  0.45594000000E+02  0.51100000000E-03 0.  1.
         11   -1    0    0    0    0 -0.00000000000E+00 -0.00000000000E+00 -0.45593999997E+02  0.45594000000E+02  0.51100000000E-03 0. -1.
    9900012    2    1    2    0    0  0.19258320238E+02  0.33994974315E+02 -0.18896640488E+02  0.47787260389E+02  0.19999951416E+02 0.  0.
        -12    1    1    2    0    0 -0.19258320238E+02 -0.33994974315E+02  0.18896640488E+02  0.43400739611E+02  0.00000000000E+00 0.  1.
         11    1    3    3    0    0  0.76653700565E+01  0.65613116224E+01  0.13271485335E+01  0.10176936268E+02  0.51100000000E-03 0. -1.
        -11    1    3    3    0    0  0.12437708414E+02  0.16109900194E+02 -0.12758424031E+02  0.24020883807E+02  0.51100000000E-03 0.  1.
         12    1    3    3    0    0 -0.84475823291E+00  0.11323762500E+02 -0.74653649898E+01  0.13589440314E+02  0.00000000000E+00 0. -1.
</event>
<event>
 7    1  0.1714203E-010  0.4778727E+02  0.7816164E-02  0.1312668E+00
        -11   -1    0    0    0    0  0.00000000000E+00  0.00000000000E+00  0.45593999997E+02  0.45594000000E+02  0.51100000000E-03 0.  1.
         11   -1    0    0    0    0 -0.00000000000E+00 -0.00000000000E+00 -0.45593999997E+02  0.45594000000E+02  0.51100000000E-03 0. -1.
    9900012    2    1    2    0    0  0.23157526489E+02  0.22352457833E+02 -0.29115625810E+02  0.47787273387E+02  0.20000010679E+02 0.  0.
        -12    1    1    2    0    0 -0.23157526489E+02 -0.22352457833E+02  0.29115625810E+02  0.43400726613E+02  0.00000000000E+00 0.  1.
         11    1    3    3    0    0 -0.15475423503E+01  0.10612789342E+01 -0.67722503064E+01  0.70274159387E+01  0.51100000000E-03 0. -1.
        -11    1    3    3    0    0  0.12033070013E+02  0.48538717123E+01 -0.57725834069E+01  0.14201322614E+02  0.51100000000E-03 0.  1.
         12    1    3    3    0    0  0.12671998826E+02  0.16437307187E+02 -0.16570792096E+02  0.26558534834E+02  0.00000000000E+00 0. -1.
</event>
<event>
 7    1  0.1714203E-010  0.4778727E+02  0.7816164E-02  0.1312668E+00
        -11   -1    0    0    0    0  0.00000000000E+00  0.00000000000E+00  0.45593999997E+02  0.45594000000E+02  0.51100000000E-03 0.  1.
         11   -1    0    0    0    0 -0.00000000000E+00 -0.00000000000E+00 -0.45593999997E+02  0.45594000000E+02  0.51100000000E-03 0. -1.
    9900012    2    1    2    0    0  0.40505742841E+02  0.14902550058E+02 -0.45631147470E+01  0.47787271694E+02  0.20000002959E+02 0.  0.
        -12    1    1    2    0    0 -0.40505742841E+02 -0.14902550058E+02  0.45631147470E+01  0.43400728306E+02  0.00000000000E+00 0.  1.
         11    1    3    3    0    0  0.13863267955E+02  0.62042349578E+01 -0.11667644975E+01  0.15232992794E+02  0.51100000000E-03 0. -1.
        -11    1    3    3    0    0  0.26250646234E+02  0.10607475452E+02  0.36813858599E+00  0.28315198913E+02  0.51100000000E-03 0.  1.
        -12    1    3    3    0    0  0.39182865153E+00 -0.19091603519E+01 -0.37644888355E+01  0.42390799868E+01  0.00000000000E+00 0.  1.
</event>
<event>
 7    1  0.1714203E-010  0.4778727E+02  0.7816164E-02  0.1312668E+00
        -11   -1    0    0    0    0  0.00000000000E+00  0.00000000000E+00  0.45593999997E+02  0.45594000000E+02  0.51100000000E-03 0. -1.
         11   -1    0    0    0    0 -0.00000000000E+00 -0.00000000000E+00 -0.45593999997E+02  0.45594000000E+02  0.51100000000E-03 0.  1.
    9900012    2    1    2    0    0  0.12226315270E+02 -0.37806701190E+02  0.17458343371E+02  0.47787271973E+02  0.20000004235E+02 0.  0.
        -12    1    1    2    0    0 -0.12226315270E+02  0.37806701190E+02 -0.17458343371E+02  0.43400728027E+02  0.00000000000E+00 0.  1.
         11    1    3    3    0    0  0.23096481896E+01 -0.25239600694E+02  0.11410365903E+02  0.27795114108E+02  0.51100000000E-03 0. -1.
        -11    1    3    3    0    0  0.17906187552E+01 -0.17489503749E+01 -0.28540402246E+01  0.37961413047E+01  0.51100000000E-03 0.  1.
         12    1    3    3    0    0  0.81260483251E+01 -0.10818150122E+02  0.89020176927E+01  0.16196016561E+02  0.00000000000E+00 0. -1.
</event>
<event>
 7    1  0.1714203E-010  0.4778727E+02  0.7816164E-02  0.1312668E+00
        -11   -1    0    0    0    0  0.00000000000E+00  0.00000000000E+00  0.45593999997E+02  0.45594000000E+02  0.51100000000E-03 0. -1.
         11   -1    0    0    0    0 -0.00000000000E+00 -0.00000000000E+00 -0.45593999997E+02  0.45594000000E+02  0.51100000000E-03 0.  1.
    9900012    2    1    2    0    0 -0.27603236832E+02  0.32271747320E+02 -0.89564975758E+01  0.47787271809E+02  0.20000003487E+02 0.  0.
        -12    1    1    2    0    0  0.27603236832E+02 -0.32271747320E+02  0.89564975758E+01  0.43400728191E+02  0.00000000000E+00 0.  1.
         11    1    3    3    0    0 -0.31575307234E+01 -0.12986321754E+01 -0.52365549558E+00  0.34540789127E+01  0.51100000000E-03 0.  1.
        -11    1    3    3    0    0 -0.25895415249E+02  0.31015188179E+02 -0.68015298890E+01  0.40972859770E+02  0.51100000000E-03 0. -1.
         12    1    3    3    0    0  0.14497091403E+01  0.25551913162E+01 -0.16313121912E+01  0.33603331262E+01  0.00000000000E+00 0. -1.
</event>
<event>
 7    1  0.1714203E-010  0.4778727E+02  0.7816164E-02  0.1312668E+00
        -11   -1    0    0    0    0  0.00000000000E+00  0.00000000000E+00  0.45593999997E+02  0.45594000000E+02  0.51100000000E-03 0.  1.
         11   -1    0    0    0    0 -0.00000000000E+00 -0.00000000000E+00 -0.45593999997E+02  0.45594000000E+02  0.51100000000E-03 0. -1.
    9900012    2    1    2    0    0 -0.26561654410E+02 -0.29239251830E+02 -0.17976875624E+02  0.47787269709E+02  0.19999993913E+02 0.  0.
        -12    1    1    2    0    0  0.26561654410E+02  0.29239251830E+02  0.17976875624E+02  0.43400730291E+02  0.00000000000E+00 0.  1.
         11    1    3    3    0    0 -0.12610991345E+02 -0.16774492505E+02 -0.18664617447E+02  0.28085381361E+02  0.51100000000E-03 0. -1.
        -11    1    3    3    0    0 -0.45108573451E+01 -0.81310107186E+01  0.11795383450E+00  0.92991979580E+01  0.51100000000E-03 0.  1.
         12    1    3    3    0    0 -0.94398057195E+01 -0.43337486057E+01  0.56978798798E+00  0.10402690390E+02  0.00000000000E+00 0. -1.
</event>
<event>
 7    1  0.1714203E-010  0.4778727E+02  0.7816164E-02  0.1312668E+00
        -11   -1    0    0    0    0  0.00000000000E+00  0.00000000000E+00  0.45593999997E+02  0.45594000000E+02  0.51100000000E-03 0. -1.
         11   -1    0    0    0    0 -0.00000000000E+00 -0.00000000000E+00 -0.45593999997E+02  0.45594000000E+02  0.51100000000E-03 0.  1.
    9900012    2    1    2    0    0  0.30695649015E+02  0.24723157729E+02  0.18170470649E+02  0.47787269589E+02  0.19999993366E+02 0.  0.
        -12    1    1    2    0    0 -0.30695649015E+02 -0.24723157729E+02 -0.18170470649E+02  0.43400730411E+02  0.00000000000E+00 0.  1.
         11    1    3    3    0    0  0.62931218275E+01  0.90407582218E+01  0.20722565584E+01  0.11208610042E+02  0.51100000000E-03 0. -1.
        -11    1    3    3    0    0  0.11693900257E+02  0.67214959981E+01 -0.92823185951E+00  0.13519890027E+02  0.51100000000E-03 0.  1.
         12    1    3    3    0    0  0.12708626930E+02  0.89609035095E+01  0.17026445950E+02  0.23058769521E+02  0.00000000000E+00 0. -1.
</event>
<event>
 7    1  0.1714203E-010  0.4778727E+02  0.7816164E-02  0.1312668E+00
        -11   -1    0    0    0    0  0.00000000000E+00  0.00000000000E+00  0.45593999997E+02  0.45594000000E+02  0.51100000000E-03 0.  1.
         11   -1    0    0    0    0 -0.00000000000E+00 -0.00000000000E+00 -0.45593999997E+02  0.45594000000E+02  0.51100000000E-03 0. -1.
    9900012    2    1    2    0    0  0.22940388863E+02  0.25163597687E+02 -0.26910136811E+02  0.47787267830E+02  0.19999985342E+02 0.  0.
        -12    1    1    2    0    0 -0.22940388863E+02 -0.25163597687E+02  0.26910136811E+02  0.43400732170E+02  0.00000000000E+00 0.  1.
         11    1    3    3    0    0  0.13579618693E+02  0.50751729921E+01 -0.11417200206E+02  0.18453072523E+02  0.51100000000E-03 0. -1.
        -11    1    3    3    0    0  0.98544914076E+01  0.18700555278E+02 -0.17074568652E+02  0.27172829509E+02  0.51100000000E-03 0.  1.
        -12    1    3    3    0    0 -0.49372123824E+00  0.13878694174E+01  0.15816320464E+01  0.21613657976E+01  0.00000000000E+00 0.  1.
</event>
<event>
 7    1  0.1714203E-010  0.4778727E+02  0.7816164E-02  0.1312668E+00
        -11   -1    0    0    0    0  0.00000000000E+00  0.00000000000E+00  0.45593999997E+02  0.45594000000E+02  0.51100000000E-03 0. -1.
         11   -1    0    0    0    0 -0.00000000000E+00 -0.00000000000E+00 -0.45593999997E+02  0.45594000000E+02  0.51100000000E-03 0.  1.
    9900012    2    1    2    0    0  0.19183566863E+02 -0.22809386484E+02  0.31549107916E+02  0.47787267752E+02  0.19999984990E+02 0.  0.
        -12    1    1    2    0    0 -0.19183566863E+02  0.22809386484E+02 -0.31549107916E+02  0.43400732248E+02  0.00000000000E+00 0.  1.
         11    1    3    3    0    0  0.11710687021E+01 -0.11283771891E+02  0.15531543959E+02  0.19233402403E+02  0.51100000000E-03 0. -1.
        -11    1    3    3    0    0  0.43595699445E+01 -0.45416753637E+01 -0.11357622726E+00  0.62964724275E+01  0.51100000000E-03 0.  1.
         12    1    3    3    0    0  0.13652928216E+02 -0.69839392294E+01  0.16131140184E+02  0.22257392922E+02  0.00000000000E+00 0. -1.
</event>
<event>
 7    1  0.1714203E-010  0.4778727E+02  0.7816164E-02  0.1312668E+00
        -11   -1    0    0    0    0  0.00000000000E+00  0.00000000000E+00  0.45593999997E+02  0.45594000000E+02  0.51100000000E-03 0.  1.
         11   -1    0    0    0    0 -0.00000000000E+00 -0.00000000000E+00 -0.45593999997E+02  0.45594000000E+02  0.51100000000E-03 0. -1.
    9900012    2    1    2    0    0  0.10784906977E+02  0.32115859819E+02 -0.27127119685E+02  0.47787270826E+02  0.19999999004E+02 0.  0.
        -12    1    1    2    0    0 -0.10784906977E+02 -0.32115859819E+02  0.27127119685E+02  0.43400729174E+02  0.00000000000E+00 0.  1.
         11    1    3    3    0    0  0.13369654200E+01  0.10872136096E+02 -0.52276222777E+01  0.12137497879E+02  0.51100000000E-03 0. -1.
        -11    1    3    3    0    0  0.49609200559E+01  0.67249376849E+01 -0.18174286514E+02  0.20003504824E+02  0.51100000000E-03 0.  1.
        -12    1    3    3    0    0  0.44870215013E+01  0.14518786038E+02 -0.37252108925E+01  0.15646268123E+02  0.00000000000E+00 0.  1.
</event>
<event>
 7    1  0.1714203E-010  0.4778728E+02  0.7816164E-02  0.1312668E+00
        -11   -1    0    0    0    0  0.00000000000E+00  0.00000000000E+00  0.45593999997E+02  0.45594000000E+02  0.51100000000E-03 0. -1.
         11   -1    0    0    0    0 -0.00000000000E+00 -0.00000000000E+00 -0.45593999997E+02  0.45594000000E+02  0.51100000000E-03 0.  1.
    9900012    2    1    2    0    0 -0.24339304714E+02 -0.35880492250E+02  0.19522647160E+01  0.47787276324E+02  0.20000024072E+02 0.  0.
        -12    1    1    2    0    0  0.24339304714E+02  0.35880492250E+02 -0.19522647160E+01  0.43400723676E+02  0.00000000000E+00 0.  1.
         11    1    3    3    0    0 -0.16433877625E+02 -0.92529273423E+01 -0.13773946538E+01  0.18909950145E+02  0.51100000000E-03 0. -1.
        -11    1    3    3    0    0  0.96733592805E+00 -0.70307859356E+00  0.60837497339E+00  0.13417073734E+01  0.51100000000E-03 0.  1.
        -12    1    3    3    0    0 -0.88727630163E+01 -0.25924486315E+02  0.27212843964E+01  0.27535618805E+02  0.00000000000E+00 0.  1.
</event>
<event>
 7    1  0.1714203E-010  0.4778726E+02  0.7816164E-02  0.1312668E+00
        -11   -1    0    0    0    0  0.00000000000E+00  0.00000000000E+00  0.45593999997E+02  0.45594000000E+02  0.51100000000E-03 0.  1.
         11   -1    0    0    0    0 -0.00000000000E+00 -0.00000000000E+00 -0.45593999997E+02  0.45594000000E+02  0.51100000000E-03 0. -1.
    9900012    2    1    2    0    0 -0.67680576762E+01  0.15777744418E+02 -0.39860759699E+02  0.47787262824E+02  0.19999962521E+02 0.  0.
        -12    1    1    2    0    0  0.67680576762E+01 -0.15777744418E+02  0.39860759699E+02  0.43400737176E+02  0.00000000000E+00 0.  1.
         11    1    3    3    0    0  0.75029092578E+00  0.31432351659E+00 -0.13054318512E+02  0.13079639438E+02  0.51100000000E-03 0. -1.
        -11    1    3    3    0    0  0.40430590112E+01  0.39774581883E+01 -0.82405856098E+01  0.10003686883E+02  0.51100000000E-03 0.  1.
         12    1    3    3    0    0 -0.11561407613E+02  0.11485962713E+02 -0.18565855577E+02  0.24703936503E+02  0.00000000000E+00 0. -1.
</event>
<event>
 7    1  0.1714203E-010  0.4778727E+02  0.7816164E-02  0.1312668E+00
        -11   -1    0    0    0    0  0.00000000000E+00  0.00000000000E+00  0.45593999997E+02  0.45594000000E+02  0.51100000000E-03 0.  1.
         11   -1    0    0    0    0 -0.00000000000E+00 -0.00000000000E+00 -0.45593999997E+02  0.45594000000E+02  0.51100000000E-03 0. -1.
    9900012    2    1    2    0    0  0.38766213232E+01  0.38195741343E+02 -0.20240568508E+02  0.47787268863E+02  0.19999990056E+02 0.  0.
        -12    1    1    2    0    0 -0.38766213232E+01 -0.38195741343E+02  0.20240568508E+02  0.43400731137E+02  0.00000000000E+00 0.  1.
         11    1    3    3    0    0 -0.34891954270E+01  0.18640362909E+01 -0.39009764141E+01  0.55557837670E+01  0.51100000000E-03 0. -1.
        -11    1    3    3    0    0  0.20484637728E+01 -0.56436271035E-01 -0.16523295822E+01  0.26324099587E+01  0.51100000000E-03 0.  1.
         12    1    3    3    0    0  0.53173529774E+01  0.36388141324E+02 -0.14687262512E+02  0.39599075138E+02  0.00000000000E+00 0. -1.
</event>
<event>
 7    1  0.1714203E-010  0.4778727E+02  0.7816164E-02  0.1312668E+00
        -11   -1    0    0    0    0  0.00000000000E+00  0.00000000000E+00  0.45593999997E+02  0.45594000000E+02  0.51100000000E-03 0.  1.
         11   -1    0    0    0    0 -0.00000000000E+00 -0.00000000000E+00 -0.45593999997E+02  0.45594000000E+02  0.51100000000E-03 0. -1.
    9900012    2    1    2    0    0 -0.10527158683E+02 -0.20553691701E+02 -0.36747081014E+02  0.47787271026E+02  0.19999999914E+02 0.  0.
        -12    1    1    2    0    0  0.10527158683E+02  0.20553691701E+02  0.36747081014E+02  0.43400728974E+02  0.00000000000E+00 0.  1.
         11    1    3    3    0    0 -0.49171402791E+01 -0.96523230080E+00 -0.66309217276E+00  0.50546645200E+01  0.51100000000E-03 0. -1.
        -11    1    3    3    0    0  0.15232480182E+01 -0.26813161738E+01 -0.12365610424E+02  0.12744334520E+02  0.51100000000E-03 0.  1.
         12    1    3    3    0    0 -0.71332664221E+01 -0.16907143227E+02 -0.23718378417E+02  0.29988271985E+02  0.00000000000E+00 0. -1.
</event>
<event>
 7    1  0.1714203E-010  0.4778727E+02  0.7816164E-02  0.1312668E+00
        -11   -1    0    0    0    0  0.00000000000E+00  0.00000000000E+00  0.45593999997E+02  0.45594000000E+02  0.51100000000E-03 0.  1.
         11   -1    0    0    0    0 -0.00000000000E+00 -0.00000000000E+00 -0.45593999997E+02  0.45594000000E+02  0.51100000000E-03 0. -1.
    9900012    2    1    2    0    0 -0.70171274118E+00 -0.42200130031E+02 -0.10113348546E+02  0.47787271963E+02  0.20000004186E+02 0.  0.
        -12    1    1    2    0    0  0.70171274118E+00  0.42200130031E+02  0.10113348546E+02  0.43400728037E+02  0.00000000000E+00 0.  1.
         11    1    3    3    0    0  0.87923287259E-01 -0.14504951384E+02 -0.59170961079E+01  0.15665674954E+02  0.51100000000E-03 0. -1.
        -11    1    3    3    0    0 -0.13509998936E+01 -0.29307165179E+02 -0.56525308795E+01  0.29877855297E+02  0.51100000000E-03 0.  1.
        -12    1    3    3    0    0  0.56136386521E+00  0.16119865323E+01  0.14562784414E+01  0.22437417116E+01  0.00000000000E+00 0.  1.
</event>
<event>
 7    1  0.1714203E-010  0.4778727E+02  0.7816164E-02  0.1312668E+00
        -11   -1    0    0    0    0  0.00000000000E+00  0.00000000000E+00  0.45593999997E+02  0.45594000000E+02  0.51100000000E-03 0. -1.
         11   -1    0    0    0    0 -0.00000000000E+00 -0.00000000000E+00 -0.45593999997E+02  0.45594000000E+02  0.51100000000E-03 0.  1.
    9900012    2    1    2    0    0  0.28917624590E+02  0.10371395411E+02  0.30656627117E+02  0.47787266816E+02  0.19999980723E+02 0.  0.
        -12    1    1    2    0    0 -0.28917624590E+02 -0.10371395411E+02 -0.30656627117E+02  0.43400733184E+02  0.00000000000E+00 0.  1.
         11    1    3    3    0    0  0.12303394546E+02  0.54212458775E+00  0.18264464514E+01  0.12450033066E+02  0.51100000000E-03 0. -1.
        -11    1    3    3    0    0  0.42631032196E+01  0.58632988962E+01  0.79813048964E+01  0.10782094004E+02  0.51100000000E-03 0.  1.
         12    1    3    3    0    0  0.12351126824E+02  0.39659719265E+01  0.20848875769E+02  0.24555139747E+02  0.00000000000E+00 0. -1.
</event>
<event>
 7    1  0.1714203E-010  0.4778727E+02  0.7816164E-02  0.1312668E+00
        -11   -1    0    0    0    0  0.00000000000E+00  0.00000000000E+00  0.45593999997E+02  0.45594000000E+02  0.51100000000E-03 0.  1.
         11   -1    0    0    0    0 -0.00000000000E+00 -0.00000000000E+00 -0.45593999997E+02  0.45594000000E+02  0.51100000000E-03 0. -1.
    9900012    2    1    2    0    0  0.32175710847E+02 -0.79308280649E+00 -0.29115592721E+02  0.47787273182E+02  0.20000009746E+02 0.  0.
        -12    1    1    2    0    0 -0.32175710847E+02  0.79308280649E+00  0.29115592721E+02  0.43400726818E+02  0.00000000000E+00 0.  1.
         11    1    3    3    0    0  0.54677270474E+01 -0.59787072940E+01 -0.59733984834E+01  0.10065906302E+02  0.51100000000E-03 0. -1.
        -11    1    3    3    0    0  0.20579404588E+02 -0.98947904490E-01 -0.20883613993E+02  0.29319737679E+02  0.51100000000E-03 0.  1.
        -12    1    3    3    0    0  0.61285792114E+01  0.52845723920E+01 -0.22585802444E+01  0.84016292013E+01  0.00000000000E+00 0.  1.
</event>
<event>
 7    1  0.1714203E-010  0.4778727E+02  0.7816164E-02  0.1312668E+00
        -11   -1    0    0    0    0  0.00000000000E+00  0.00000000000E+00  0.45593999997E+02  0.45594000000E+02  0.51100000000E-03 0.  1.
         11   -1    0    0    0    0 -0.00000000000E+00 -0.00000000000E+00 -0.45593999997E+02  0.45594000000E+02  0.51100000000E-03 0. -1.
    9900012    2    1    2    0    0  0.34485880565E+02  0.29175200569E+01 -0.26188456209E+02  0.47787272815E+02  0.20000008072E+02 0.  0.
        -12    1    1    2    0    0 -0.34485880565E+02 -0.29175200569E+01  0.26188456209E+02  0.43400727185E+02  0.00000000000E+00 0.  1.
         11    1    3    3    0    0  0.17465123225E+01 -0.84716442031E+00  0.12501241297E+01  0.23088532756E+01  0.51100000000E-03 0. -1.
        -11    1    3    3    0    0  0.27519114617E+02  0.90830189825E+00 -0.14235659986E+02  0.30996462656E+02  0.51100000000E-03 0.  1.
         12    1    3    3    0    0  0.52202536247E+01  0.28563825790E+01 -0.13202920353E+02  0.14481956884E+02  0.00000000000E+00 0. -1.
</event>
<event>
 7    1  0.1714203E-010  0.4778727E+02  0.7816164E-02  0.1312668E+00
        -11   -1    0    0    0    0  0.00000000000E+00  0.00000000000E+00  0.45593999997E+02  0.45594000000E+02  0.51100000000E-03 0. -1.
         11   -1    0    0    0    0 -0.00000000000E+00 -0.00000000000E+00 -0.45593999997E+02  0.45594000000E+02  0.51100000000E-03 0.  1.
    9900012    2    1    2    0    0 -0.10261711291E+02  0.41902393397E+02 -0.47444420329E+01  0.47787273955E+02  0.20000013269E+02 0.  0.
        -12    1    1    2    0    0  0.10261711291E+02 -0.41902393397E+02  0.47444420329E+01  0.43400726045E+02  0.00000000000E+00 0.  1.
         11    1    3    3    0    0 -0.40867989766E+01  0.13189939674E+02 -0.29126938692E+01  0.14112413695E+02  0.51100000000E-03 0. -1.
        -11    1    3    3    0    0 -0.29330460014E+01  0.84330206744E+01  0.69742959455E+01  0.11329580784E+02  0.51100000000E-03 0.  1.
        -12    1    3    3    0    0 -0.32418663130E+01  0.20279433049E+02 -0.88060441091E+01  0.22345279476E+02  0.00000000000E+00 0.  1.
</event>
<event>
 7    1  0.2267066E-010  0.4778727E+02  0.7816164E-02  0.1312668E+00
        -11   -1    0    0    0    0  0.00000000000E+00  0.00000000000E+00  0.45593999997E+02  0.45594000000E+02  0.51100000000E-03 0. -1.
         11   -1    0    0    0    0 -0.00000000000E+00 -0.00000000000E+00 -0.45593999997E+02  0.45594000000E+02  0.51100000000E-03 0.  1.
    9900012    2    1    2    0    0  0.31271811366E+01 -0.16582037492E+02  0.39985999049E+02  0.47787270177E+02  0.19999996046E+02 0.  0.
        -12    1    1    2    0    0 -0.31271811366E+01  0.16582037492E+02 -0.39985999049E+02  0.43400729823E+02  0.00000000000E+00 0.  1.
         11    1    3    3    0    0  0.60310224186E+00 -0.85925327298E+01  0.22003656623E+02  0.23629563179E+02  0.51100000000E-03 0. -1.
        -11    1    3    3    0    0  0.41017862999E+01 -0.10003416632E+02  0.69968015679E+01  0.12878207469E+02  0.51100000000E-03 0.  1.
        -12    1    3    3    0    0 -0.15777074052E+01  0.20139118702E+01  0.10985540858E+02  0.11279499529E+02  0.00000000000E+00 0.  1.
</event>
<event>
 7    1  0.2340037E-010  0.4778727E+02  0.7816164E-02  0.1312668E+00
        -11   -1    0    0    0    0  0.00000000000E+00  0.00000000000E+00  0.45593999997E+02  0.45594000000E+02  0.51100000000E-03 0.  1.
         11   -1    0    0    0    0 -0.00000000000E+00 -0.00000000000E+00 -0.45593999997E+02  0.45594000000E+02  0.51100000000E-03 0. -1.
    9900012    2    1    2    0    0 -0.22250686510E+02 -0.35431153927E+02 -0.11539664245E+02  0.47787267637E+02  0.19999984464E+02 0.  0.
        -12    1    1    2    0    0  0.22250686510E+02  0.35431153927E+02  0.11539664245E+02  0.43400732363E+02  0.00000000000E+00 0.  1.
         11    1    3    3    0    0 -0.11180715219E+02 -0.20177335109E+02 -0.70680280269E+01  0.24126546901E+02  0.51100000000E-03 0. -1.
        -11    1    3    3    0    0 -0.75866262079E+01 -0.91560877393E+01  0.41017378693E+01  0.12578358149E+02  0.51100000000E-03 0.  1.
        -12    1    3    3    0    0 -0.34833450833E+01 -0.60977310784E+01 -0.85733740872E+01  0.11082362587E+02  0.00000000000E+00 0.  1.
</event>
<event>
 7    1  0.1714203E-010  0.4778727E+02  0.7816164E-02  0.1312668E+00
        -11   -1    0    0    0    0  0.00000000000E+00  0.00000000000E+00  0.45593999997E+02  0.45594000000E+02  0.51100000000E-03 0.  1.
         11   -1    0    0    0    0 -0.00000000000E+00 -0.00000000000E+00 -0.45593999997E+02  0.45594000000E+02  0.51100000000E-03 0. -1.
    9900012    2    1    2    0    0  0.75905927720E+01  0.39742140247E+02  0.15702497597E+02  0.47787271425E+02  0.20000001734E+02 0.  0.
        -12    1    1    2    0    0 -0.75905927720E+01 -0.39742140247E+02 -0.15702497597E+02  0.43400728575E+02  0.00000000000E+00 0.  1.
         11    1    3    3    0    0  0.15760227628E+00  0.49738555731E+01 -0.10255655054E+01  0.50809312735E+01  0.51100000000E-03 0. -1.
        -11    1    3    3    0    0  0.93126618269E+01  0.77631857050E+01  0.37874212536E+01  0.12701861383E+02  0.51100000000E-03 0.  1.
         12    1    3    3    0    0 -0.18796713311E+01  0.27005098969E+02  0.12940641849E+02  0.30004478768E+02  0.00000000000E+00 0. -1.
</event>
<event>
 7    1  0.1714203E-010  0.4778727E+02  0.7816164E-02  0.1312668E+00
        -11   -1    0    0    0    0  0.00000000000E+00  0.00000000000E+00  0.45593999997E+02  0.45594000000E+02  0.51100000000E-03 0.  1.
         11   -1    0    0    0    0 -0.00000000000E+00 -0.00000000000E+00 -0.45593999997E+02  0.45594000000E+02  0.51100000000E-03 0. -1.
    9900012    2    1    2    0    0 -0.13369251231E+01  0.35963069240E+02 -0.24258886445E+02  0.47787270865E+02  0.19999999181E+02 0.  0.
        -12    1    1    2    0    0  0.13369251231E+01 -0.35963069240E+02  0.24258886445E+02  0.43400729135E+02  0.00000000000E+00 0.  1.
         11    1    3    3    0    0  0.39642832587E+01  0.48984747505E+01 -0.14104777323E+01  0.64575571488E+01  0.51100000000E-03 0. -1.
        -11    1    3    3    0    0  0.46593560910E+01  0.10763077018E+02 -0.93020978671E+01  0.14969383790E+02  0.51100000000E-03 0.  1.
         12    1    3    3    0    0 -0.99605644728E+01  0.20301517472E+02 -0.13546310845E+02  0.26360329926E+02  0.00000000000E+00 0. -1.
</event>
<event>
 7    1  0.1714203E-010  0.4778727E+02  0.7816164E-02  0.1312668E+00
        -11   -1    0    0    0    0  0.00000000000E+00  0.00000000000E+00  0.45593999997E+02  0.45594000000E+02  0.51100000000E-03 0.  1.
         11   -1    0    0    0    0 -0.00000000000E+00 -0.00000000000E+00 -0.45593999997E+02  0.45594000000E+02  0.51100000000E-03 0. -1.
    9900012    2    1    2    0    0 -0.13344405959E+02  0.14000040681E+02 -0.38852915014E+02  0.47787270576E+02  0.19999997863E+02 0.  0.
        -12    1    1    2    0    0  0.13344405959E+02 -0.14000040681E+02  0.38852915014E+02  0.43400729424E+02  0.00000000000E+00 0.  1.
         11    1    3    3    0    0 -0.42682556154E+01  0.39241259014E+01 -0.29476614436E+02  0.30041430874E+02  0.51100000000E-03 0. -1.
        -11    1    3    3    0    0 -0.42330520150E+01  0.72485480841E+00 -0.13397052273E+01  0.44987725228E+01  0.51100000000E-03 0.  1.
        -12    1    3    3    0    0 -0.48430983283E+01  0.93510599717E+01 -0.80365953511E+01  0.13247067179E+02  0.00000000000E+00 0.  1.
</event>
<event>
 7    1  0.1714203E-010  0.4778727E+02  0.7816164E-02  0.1312668E+00
        -11   -1    0    0    0    0  0.00000000000E+00  0.00000000000E+00  0.45593999997E+02  0.45594000000E+02  0.51100000000E-03 0. -1.
         11   -1    0    0    0    0 -0.00000000000E+00 -0.00000000000E+00 -0.45593999997E+02  0.45594000000E+02  0.51100000000E-03 0.  1.
    9900012    2    1    2    0    0 -0.98511684008E+01  0.40394216801E+02  0.12445284669E+02  0.47787269818E+02  0.19999994408E+02 0.  0.
        -12    1    1    2    0    0  0.98511684008E+01 -0.40394216801E+02 -0.12445284669E+02  0.43400730182E+02  0.00000000000E+00 0.  1.
         11    1    3    3    0    0 -0.45268047782E+01  0.24373019229E+02  0.72912490293E+01  0.25839859529E+02  0.51100000000E-03 0. -1.
        -11    1    3    3    0    0  0.13078033527E+01  0.44520527880E+01  0.70888306369E+01  0.84724638504E+01  0.51100000000E-03 0.  1.
         12    1    3    3    0    0 -0.66321669753E+01  0.11569144785E+02 -0.19347949976E+01  0.13474946438E+02  0.00000000000E+00 0. -1.
</event>
<event>
 7    1  0.1714203E-010  0.4778727E+02  0.7816164E-02  0.1312668E+00
        -11   -1    0    0    0    0  0.00000000000E+00  0.00000000000E+00  0.45593999997E+02  0.45594000000E+02  0.51100000000E-03 0.  1.
         11   -1    0    0    0    0 -0.00000000000E+00 -0.00000000000E+00 -0.45593999997E+02  0.45594000000E+02  0.51100000000E-03 0. -1.
    9900012    2    1    2    0    0  0.37078694185E+00  0.23302433387E+02 -0.36612604340E+02  0.47787266351E+02  0.19999978602E+02 0.  0.
        -12    1    1    2    0    0 -0.37078694185E+00 -0.23302433387E+02  0.36612604340E+02  0.43400733649E+02  0.00000000000E+00 0.  1.
         11    1    3    3    0    0 -0.40200130845E+01  0.73247624906E+01 -0.64609880839E+01  0.10562055578E+02  0.51100000000E-03 0. -1.
        -11    1    3    3    0    0  0.51110547783E+01  0.16115499021E+02 -0.31465872072E+02  0.35720208498E+02  0.51100000000E-03 0.  1.
        -12    1    3    3    0    0 -0.72025475190E+00 -0.13782812490E+00  0.13142558159E+01  0.15050022755E+01  0.00000000000E+00 0.  1.
</event>
<event>
 7    1  0.1714203E-010  0.4778727E+02  0.7816164E-02  0.1312668E+00
        -11   -1    0    0    0    0  0.00000000000E+00  0.00000000000E+00  0.45593999997E+02  0.45594000000E+02  0.51100000000E-03 0.  1.
         11   -1    0    0    0    0 -0.00000000000E+00 -0.00000000000E+00 -0.45593999997E+02  0.45594000000E+02  0.51100000000E-03 0. -1.
    9900012    2    1    2    0    0  0.28291954679E+02  0.13903837157E+02 -0.29830721023E+02  0.47787270697E+02  0.19999998418E+02 0.  0.
        -12    1    1    2    0    0 -0.28291954679E+02 -0.13903837157E+02  0.29830721023E+02  0.43400729303E+02  0.00000000000E+00 0.  1.
         11    1    3    3    0    0  0.94242736573E+00  0.65854900357E+01 -0.73150096888E+00  0.66926782591E+01  0.51100000000E-03 0.  1.
        -11    1    3    3    0    0  0.14257232090E+02  0.66819638819E+01 -0.18037834711E+02  0.23943282764E+02  0.51100000000E-03 0. -1.
        -12    1    3    3    0    0  0.13092295223E+02  0.63638323920E+00 -0.11061385343E+02  0.17151309674E+02  0.00000000000E+00 0.  1.
</event>
<event>
 7    1  0.1714203E-010  0.4778727E+02  0.7816164E-02  0.1312668E+00
        -11   -1    0    0    0    0  0.00000000000E+00  0.00000000000E+00  0.45593999997E+02  0.45594000000E+02  0.51100000000E-03 0. -1.
         11   -1    0    0    0    0 -0.00000000000E+00 -0.00000000000E+00 -0.45593999997E+02  0.45594000000E+02  0.51100000000E-03 0.  1.
    9900012    2    1    2    0    0 -0.26053721200E+02  0.47738536089E+01  0.34380772066E+02  0.47787267811E+02  0.19999985257E+02 0.  0.
        -12    1    1    2    0    0  0.26053721200E+02 -0.47738536089E+01 -0.34380772066E+02  0.43400732189E+02  0.00000000000E+00 0.  1.
         11    1    3    3    0    0  0.44932233260E+00 -0.11464980116E+01 -0.65179999190E+00  0.13932665717E+01  0.51100000000E-03 0.  1.
        -11    1    3    3    0    0 -0.20644710272E+02 -0.10285528841E+01  0.19609033124E+02  0.28491685868E+02  0.51100000000E-03 0. -1.
         12    1    3    3    0    0 -0.58583332606E+01  0.69489045046E+01  0.15423538934E+02  0.17902315371E+02  0.00000000000E+00 0. -1.
</event>
<event>
 7    1  0.1714203E-010  0.4778727E+02  0.7816164E-02  0.1312668E+00
        -11   -1    0    0    0    0  0.00000000000E+00  0.00000000000E+00  0.45593999997E+02  0.45594000000E+02  0.51100000000E-03 0.  1.
         11   -1    0    0    0    0 -0.00000000000E+00 -0.00000000000E+00 -0.45593999997E+02  0.45594000000E+02  0.51100000000E-03 0. -1.
    9900012    2    1    2    0    0  0.38013169587E+02  0.47174601002E-01 -0.20943264706E+02  0.47787267011E+02  0.19999981609E+02 0.  0.
        -12    1    1    2    0    0 -0.38013169587E+02 -0.47174601002E-01  0.20943264706E+02  0.43400732989E+02  0.00000000000E+00 0.  1.
         11    1    3    3    0    0 -0.13794199866E+01  0.59365660652E+00  0.11254634694E+00  0.15059530561E+01  0.51100000000E-03 0. -1.
        -11    1    3    3    0    0  0.11511329698E+01  0.26854412879E+00  0.14737795188E+01  0.18892457210E+01  0.51100000000E-03 0.  1.
         12    1    3    3    0    0  0.38241456603E+02 -0.81502613431E+00 -0.22529590572E+02  0.44392068234E+02  0.00000000000E+00 0. -1.
</event>
<event>
 7    1  0.1714203E-010  0.4778727E+02  0.7816164E-02  0.1312668E+00
        -11   -1    0    0    0    0  0.00000000000E+00  0.00000000000E+00  0.45593999997E+02  0.45594000000E+02  0.51100000000E-03 0.  1.
         11   -1    0    0    0    0 -0.00000000000E+00 -0.00000000000E+00 -0.45593999997E+02  0.45594000000E+02  0.51100000000E-03 0. -1.
    9900012    2    1    2    0    0  0.11699801366E+01  0.80734893242E+01 -0.42627142014E+02  0.47787270516E+02  0.19999997592E+02 0.  0.
        -12    1    1    2    0    0 -0.11699801366E+01 -0.80734893242E+01  0.42627142014E+02  0.43400729484E+02  0.00000000000E+00 0.  1.
         11    1    3    3    0    0  0.42381413013E+01  0.16597266792E+01 -0.17367400521E+02  0.17953916995E+02  0.51100000000E-03 0. -1.
        -11    1    3    3    0    0 -0.48609176309E+01  0.97363366183E+01 -0.22971176940E+02  0.25418492111E+02  0.51100000000E-03 0.  1.
        -12    1    3    3    0    0  0.17927564663E+01 -0.33225739733E+01 -0.22885645541E+01  0.44148614105E+01  0.00000000000E+00 0.  1.
</event>
<event>
 7    1  0.1714203E-010  0.4778728E+02  0.7816164E-02  0.1312668E+00
        -11   -1    0    0    0    0  0.00000000000E+00  0.00000000000E+00  0.45593999997E+02  0.45594000000E+02  0.51100000000E-03 0.  1.
         11   -1    0    0    0    0 -0.00000000000E+00 -0.00000000000E+00 -0.45593999997E+02  0.45594000000E+02  0.51100000000E-03 0. -1.
    9900012    2    1    2    0    0  0.24094583312E+01  0.42509915373E+02  0.84097878599E+01  0.47787275049E+02  0.20000018257E+02 0.  0.
        -12    1    1    2    0    0 -0.24094583312E+01 -0.42509915373E+02 -0.84097878599E+01  0.43400724951E+02  0.00000000000E+00 0.  1.
         11    1    3    3    0    0  0.52676657537E+01  0.32469681750E+02  0.40186792556E+01  0.33138773644E+02  0.51100000000E-03 0. -1.
        -11    1    3    3    0    0 -0.22091783838E+00  0.77849886217E+01  0.68690249684E+01  0.10384524872E+02  0.51100000000E-03 0.  1.
        -12    1    3    3    0    0 -0.26372895842E+01  0.22552450013E+01 -0.24779163640E+01  0.42639765330E+01  0.00000000000E+00 0.  1.
</event>
<event>
 7    1  0.1714203E-010  0.4778727E+02  0.7816164E-02  0.1312668E+00
        -11   -1    0    0    0    0  0.00000000000E+00  0.00000000000E+00  0.45593999997E+02  0.45594000000E+02  0.51100000000E-03 0.  1.
         11   -1    0    0    0    0 -0.00000000000E+00 -0.00000000000E+00 -0.45593999997E+02  0.45594000000E+02  0.51100000000E-03 0. -1.
    9900012    2    1    2    0    0 -0.74141457607E+01 -0.33753910905E+02 -0.26255041620E+02  0.47787271098E+02  0.20000000246E+02 0.  0.
        -12    1    1    2    0    0  0.74141457607E+01  0.33753910905E+02  0.26255041620E+02  0.43400728902E+02  0.00000000000E+00 0.  1.
         11    1    3    3    0    0 -0.71031508130E+01 -0.28747769014E+02 -0.15441172604E+02  0.33396388823E+02  0.51100000000E-03 0. -1.
        -11    1    3    3    0    0 -0.37548014276E+01 -0.54185534990E+00 -0.35504640448E+01  0.51959538274E+01  0.51100000000E-03 0.  1.
        -12    1    3    3    0    0  0.34438064799E+01 -0.44642865410E+01 -0.72634049714E+01  0.91949284483E+01  0.00000000000E+00 0.  1.
</event>
<event>
 7    1  0.1714203E-010  0.4778726E+02  0.7816164E-02  0.1312668E+00
        -11   -1    0    0    0    0  0.00000000000E+00  0.00000000000E+00  0.45593999997E+02  0.45594000000E+02  0.51100000000E-03 0.  1.
         11   -1    0    0    0    0 -0.00000000000E+00 -0.00000000000E+00 -0.45593999997E+02  0.45594000000E+02  0.51100000000E-03 0. -1.
    9900012    2    1    2    0    0  0.89905292168E+01 -0.28757541762E+02 -0.31237765803E+02  0.47787264567E+02  0.19999970465E+02 0.  0.
        -12    1    1    2    0    0 -0.89905292168E+01  0.28757541762E+02  0.31237765803E+02  0.43400735433E+02  0.00000000000E+00 0.  1.
         11    1    3    3    0    0  0.25922838352E+01 -0.16462452947E+02 -0.14130548130E+02  0.21849592290E+02  0.51100000000E-03 0. -1.
        -11    1    3    3    0    0 -0.34329385587E+01  0.23693699316E+00 -0.42464007357E+01  0.54656313227E+01  0.51100000000E-03 0.  1.
         12    1    3    3    0    0  0.98311839404E+01 -0.12532025809E+02 -0.12860816937E+02  0.20472040954E+02  0.00000000000E+00 0. -1.
</event>
<event>
 7    1  0.1714203E-010  0.4778727E+02  0.7816164E-02  0.1312668E+00
        -11   -1    0    0    0    0  0.00000000000E+00  0.00000000000E+00  0.45593999997E+02  0.45594000000E+02  0.51100000000E-03 0.  1.
         11   -1    0    0    0    0 -0.00000000000E+00 -0.00000000000E+00 -0.45593999997E+02  0.45594000000E+02  0.51100000000E-03 0. -1.
    9900012    2    1    2    0    0 -0.40685959506E+02 -0.10726433865E+02 -0.10640466482E+02  0.47787271765E+02  0.20000003285E+02 0.  0.
        -12    1    1    2    0    0  0.40685959506E+02  0.10726433865E+02  0.10640466482E+02  0.43400728235E+02  0.00000000000E+00 0.  1.
         11    1    3    3    0    0 -0.20528223852E+02 -0.35096746561E+01 -0.45943453592E+01  0.21326832870E+02  0.51100000000E-03 0. -1.
        -11    1    3    3    0    0 -0.15876630280E+02 -0.58386900235E+01  0.22088796946E+01  0.17059801875E+02  0.51100000000E-03 0.  1.
         12    1    3    3    0    0 -0.42811053739E+01 -0.13780691849E+01 -0.82550008170E+01  0.94006370204E+01  0.00000000000E+00 0. -1.
</event>
<event>
 7    1  0.1714203E-010  0.4778726E+02  0.7816164E-02  0.1312668E+00
        -11   -1    0    0    0    0  0.00000000000E+00  0.00000000000E+00  0.45593999997E+02  0.45594000000E+02  0.51100000000E-03 0.  1.
         11   -1    0    0    0    0 -0.00000000000E+00 -0.00000000000E+00 -0.45593999997E+02  0.45594000000E+02  0.51100000000E-03 0. -1.
    9900012    2    1    2    0    0  0.29918565929E+02 -0.19409644455E+01 -0.31380502226E+02  0.47787264405E+02  0.19999969729E+02 0.  0.
        -12    1    1    2    0    0 -0.29918565929E+02  0.19409644455E+01  0.31380502226E+02  0.43400735595E+02  0.00000000000E+00 0.  1.
         11    1    3    3    0    0  0.20612725851E+02  0.80949184860E+01 -0.19817488035E+02  0.29717755712E+02  0.51100000000E-03 0.  1.
        -11    1    3    3    0    0  0.44416056566E+01 -0.41763168811E+01 -0.37428347989E+01  0.71539007606E+01  0.51100000000E-03 0. -1.
        -12    1    3    3    0    0  0.48642344207E+01 -0.58595660504E+01 -0.78201793924E+01  0.10915607932E+02  0.00000000000E+00 0.  1.
</event>
<event>
 7    1  0.1714203E-010  0.4778722E+02  0.7816164E-02  0.1312668E+00
        -11   -1    0    0    0    0  0.00000000000E+00  0.00000000000E+00  0.45593999997E+02  0.45594000000E+02  0.51100000000E-03 0.  1.
         11   -1    0    0    0    0 -0.00000000000E+00 -0.00000000000E+00 -0.45593999997E+02  0.45594000000E+02  0.51100000000E-03 0. -1.
    9900012    2    1    2    0    0 -0.13396283015E+02 -0.29642735505E+02 -0.28731083192E+02  0.47787224566E+02  0.19999788085E+02 0.  0.
        -12    1    1    2    0    0  0.13396283015E+02  0.29642735505E+02  0.28731083192E+02  0.43400775434E+02  0.00000000000E+00 0.  1.
         11    1    3    3    0    0 -0.50341086966E+01 -0.12389703663E+02 -0.49641914871E+01  0.14264999285E+02  0.51100000000E-03 0. -1.
        -11    1    3    3    0    0 -0.13141045228E+01  0.20741234803E+01 -0.57660748411E+00  0.25221687811E+01  0.51100000000E-03 0.  1.
         12    1    3    3    0    0 -0.70480697961E+01 -0.19327155323E+02 -0.23190284221E+02  0.31000056499E+02  0.00000000000E+00 0. -1.
</event>
<event>
 7    1  0.1714203E-010  0.4778727E+02  0.7816164E-02  0.1312668E+00
        -11   -1    0    0    0    0  0.00000000000E+00  0.00000000000E+00  0.45593999997E+02  0.45594000000E+02  0.51100000000E-03 0.  1.
         11   -1    0    0    0    0 -0.00000000000E+00 -0.00000000000E+00 -0.45593999997E+02  0.45594000000E+02  0.51100000000E-03 0. -1.
    9900012    2    1    2    0    0  0.60456680906E+01  0.20450249368E+02 -0.37800273132E+02  0.47787269007E+02  0.19999990709E+02 0.  0.
        -12    1    1    2    0    0 -0.60456680906E+01 -0.20450249368E+02  0.37800273132E+02  0.43400730993E+02  0.00000000000E+00 0.  1.
         11    1    3    3    0    0  0.91621143990E+01  0.62749836591E+01 -0.12615354398E+02  0.16806752424E+02  0.51100000000E-03 0. -1.
        -11    1    3    3    0    0 -0.48546121904E+00  0.16956796653E+01 -0.13714036699E+02  0.13826995515E+02  0.51100000000E-03 0.  1.
         12    1    3    3    0    0 -0.26309850893E+01  0.12479586044E+02 -0.11470882034E+02  0.17153521068E+02  0.00000000000E+00 0. -1.
</event>
<event>
 7    1  0.1714203E-010  0.4778727E+02  0.7816164E-02  0.1312668E+00
        -11   -1    0    0    0    0  0.00000000000E+00  0.00000000000E+00  0.45593999997E+02  0.45594000000E+02  0.51100000000E-03 0.  1.
         11   -1    0    0    0    0 -0.00000000000E+00 -0.00000000000E+00 -0.45593999997E+02  0.45594000000E+02  0.51100000000E-03 0. -1.
    9900012    2    1    2    0    0 -0.30818184599E+01  0.83405654634E-01 -0.43291094504E+02  0.47787269304E+02  0.19999992066E+02 0.  0.
        -12    1    1    2    0    0  0.30818184599E+01 -0.83405654634E-01  0.43291094504E+02  0.43400730696E+02  0.00000000000E+00 0.  1.
         11    1    3    3    0    0  0.40200621691E+01 -0.77246467066E+01 -0.26984008041E+02  0.28354325187E+02  0.51100000000E-03 0. -1.
        -11    1    3    3    0    0 -0.25727603205E+01  0.30098134660E+01 -0.65676099416E+01  0.76688704105E+01  0.51100000000E-03 0.  1.
         12    1    3    3    0    0 -0.45291203085E+01  0.47982388952E+01 -0.97394765214E+01  0.11764073707E+02  0.00000000000E+00 0. -1.
</event>
<event>
 7    1  0.1714203E-010  0.4778727E+02  0.7816164E-02  0.1312668E+00
        -11   -1    0    0    0    0  0.00000000000E+00  0.00000000000E+00  0.45593999997E+02  0.45594000000E+02  0.51100000000E-03 0. -1.
         11   -1    0    0    0    0 -0.00000000000E+00 -0.00000000000E+00 -0.45593999997E+02  0.45594000000E+02  0.51100000000E-03 0.  1.
    9900012    2    1    2    0    0 -0.21708129499E+02 -0.35231534898E+02  0.13081267950E+02  0.47787268338E+02  0.19999987660E+02 0.  0.
        -12    1    1    2    0    0  0.21708129499E+02  0.35231534898E+02 -0.13081267950E+02  0.43400731662E+02  0.00000000000E+00 0.  1.
         11    1    3    3    0    0 -0.45979479687E+01 -0.21542019986E+01  0.54819836799E+01  0.74722056383E+01  0.51100000000E-03 0. -1.
        -11    1    3    3    0    0 -0.16393648312E+02 -0.28124430247E+02  0.10888663953E+02  0.34326349713E+02  0.51100000000E-03 0.  1.
        -12    1    3    3    0    0 -0.71653321846E+00 -0.49529026524E+01 -0.32893796826E+01  0.59887129864E+01  0.00000000000E+00 0.  1.
</event>
<event>
 7    1  0.1714203E-010  0.4778727E+02  0.7816164E-02  0.1312668E+00
        -11   -1    0    0    0    0  0.00000000000E+00  0.00000000000E+00  0.45593999997E+02  0.45594000000E+02  0.51100000000E-03 0.  1.
         11   -1    0    0    0    0 -0.00000000000E+00 -0.00000000000E+00 -0.45593999997E+02  0.45594000000E+02  0.51100000000E-03 0. -1.
    9900012    2    1    2    0    0 -0.25274897931E+02 -0.10884494605E+02 -0.33560854943E+02  0.47787266449E+02  0.19999979048E+02 0.  0.
        -12    1    1    2    0    0  0.25274897931E+02  0.10884494605E+02  0.33560854943E+02  0.43400733551E+02  0.00000000000E+00 0.  1.
         11    1    3    3    0    0 -0.22480900082E+02 -0.12919536983E+02 -0.25060874901E+02  0.36060404260E+02  0.51100000000E-03 0. -1.
        -11    1    3    3    0    0 -0.18963865353E+01  0.13375283941E+01  0.72567720280E+00  0.24314340954E+01  0.51100000000E-03 0.  1.
        -12    1    3    3    0    0 -0.89761131316E+00  0.69751398370E+00 -0.92256572457E+01  0.92954280936E+01  0.00000000000E+00 0.  1.
</event>
<event>
 7    1  0.1714203E-010  0.4778727E+02  0.7816164E-02  0.1312668E+00
        -11   -1    0    0    0    0  0.00000000000E+00  0.00000000000E+00  0.45593999997E+02  0.45594000000E+02  0.51100000000E-03 0.  1.
         11   -1    0    0    0    0 -0.00000000000E+00 -0.00000000000E+00 -0.45593999997E+02  0.45594000000E+02  0.51100000000E-03 0. -1.
    9900012    2    1    2    0    0 -0.19968867432E+02 -0.12331832785E+02 -0.36507445916E+02  0.47787269895E+02  0.19999994760E+02 0.  0.
        -12    1    1    2    0    0  0.19968867432E+02  0.12331832785E+02  0.36507445916E+02  0.43400730105E+02  0.00000000000E+00 0.  1.
         11    1    3    3    0    0 -0.43815381292E+01  0.82434636116E+00 -0.16640057047E+02  0.17226982385E+02  0.51100000000E-03 0. -1.
        -11    1    3    3    0    0  0.58812385215E+00  0.10229487824E+01  0.13419981973E+00  0.11875705157E+01  0.51100000000E-03 0.  1.
        -12    1    3    3    0    0 -0.16175453155E+02 -0.14179127929E+02 -0.20001588688E+02  0.29372716994E+02  0.00000000000E+00 0.  1.
</event>
<event>
 7    1  0.1714203E-010  0.4778727E+02  0.7816164E-02  0.1312668E+00
        -11   -1    0    0    0    0  0.00000000000E+00  0.00000000000E+00  0.45593999997E+02  0.45594000000E+02  0.51100000000E-03 0.  1.
         11   -1    0    0    0    0 -0.00000000000E+00 -0.00000000000E+00 -0.45593999997E+02  0.45594000000E+02  0.51100000000E-03 0. -1.
    9900012    2    1    2    0    0 -0.17667736630E+02  0.38939723424E+02 -0.74277874993E+01  0.47787274141E+02  0.20000014119E+02 0.  0.
        -12    1    1    2    0    0  0.17667736630E+02 -0.38939723424E+02  0.74277874993E+01  0.43400725859E+02  0.00000000000E+00 0.  1.
         11    1    3    3    0    0 -0.15046944998E+02  0.19967748631E+02 -0.37924137207E+01  0.25288415159E+02  0.51100000000E-03 0. -1.
        -11    1    3    3    0    0 -0.59129477834E+01  0.12903348361E+02 -0.56958472919E+01  0.15293855859E+02  0.51100000000E-03 0.  1.
        -12    1    3    3    0    0  0.32921561520E+01  0.60686264323E+01  0.20604735133E+01  0.72050031230E+01  0.00000000000E+00 0.  1.
</event>
<event>
 7    1  0.1714203E-010  0.4778727E+02  0.7816164E-02  0.1312668E+00
        -11   -1    0    0    0    0  0.00000000000E+00  0.00000000000E+00  0.45593999997E+02  0.45594000000E+02  0.51100000000E-03 0.  1.
         11   -1    0    0    0    0 -0.00000000000E+00 -0.00000000000E+00 -0.45593999997E+02  0.45594000000E+02  0.51100000000E-03 0. -1.
    9900012    2    1    2    0    0 -0.23224363087E+02 -0.14864374183E+02 -0.33515703535E+02  0.47787273692E+02  0.20000012070E+02 0.  0.
        -12    1    1    2    0    0  0.23224363087E+02  0.14864374183E+02  0.33515703535E+02  0.43400726308E+02  0.00000000000E+00 0.  1.
         11    1    3    3    0    0 -0.83870021928E+00 -0.31529656986E+00 -0.67529031893E+01  0.68120871787E+01  0.51100000000E-03 0. -1.
        -11    1    3    3    0    0 -0.24653353833E+02 -0.12832297591E+02 -0.22079755045E+02  0.35496074428E+02  0.51100000000E-03 0.  1.
        -12    1    3    3    0    0  0.22676909651E+01 -0.17167800227E+01 -0.46830453004E+01  0.54791120854E+01  0.00000000000E+00 0.  1.
</event>
<event>
 7    1  0.1714203E-010  0.4778728E+02  0.7816164E-02  0.1312668E+00
        -11   -1    0    0    0    0  0.00000000000E+00  0.00000000000E+00  0.45593999997E+02  0.45594000000E+02  0.51100000000E-03 0.  1.
         11   -1    0    0    0    0 -0.00000000000E+00 -0.00000000000E+00 -0.45593999997E+02  0.45594000000E+02  0.51100000000E-03 0. -1.
    9900012    2    1    2    0    0 -0.71197823980E+01 -0.38889345307E+02 -0.17903914578E+02  0.47787278381E+02  0.20000033450E+02 0.  0.
        -12    1    1    2    0    0  0.71197823980E+01  0.38889345307E+02  0.17903914578E+02  0.43400721619E+02  0.00000000000E+00 0.  1.
         11    1    3    3    0    0 -0.38471921836E+00 -0.21944809891E+02 -0.80417685166E+01  0.23375045052E+02  0.51100000000E-03 0. -1.
        -11    1    3    3    0    0 -0.30779058825E+00 -0.12431184917E+02 -0.85848376976E+00  0.12464593380E+02  0.51100000000E-03 0.  1.
        -12    1    3    3    0    0 -0.64272725914E+01 -0.45133504995E+01 -0.90036622919E+01  0.11947639949E+02  0.00000000000E+00 0.  1.
</event>
<event>
 7    1  0.1714203E-010  0.4778728E+02  0.7816164E-02  0.1312668E+00
        -11   -1    0    0    0    0  0.00000000000E+00  0.00000000000E+00  0.45593999997E+02  0.45594000000E+02  0.51100000000E-03 0.  1.
         11   -1    0    0    0    0 -0.00000000000E+00 -0.00000000000E+00 -0.45593999997E+02  0.45594000000E+02  0.51100000000E-03 0. -1.
    9900012    2    1    2    0    0 -0.22731183422E+02  0.29235809638E+02 -0.22631473754E+02  0.47787275707E+02  0.20000021257E+02 0.  0.
        -12    1    1    2    0    0  0.22731183422E+02 -0.29235809638E+02  0.22631473754E+02  0.43400724293E+02  0.00000000000E+00 0.  1.
         11    1    3    3    0    0  0.23674999230E+01  0.37225875182E+01 -0.69659565420E+01  0.82454390133E+01  0.51100000000E-03 0.  1.
        -11    1    3    3    0    0 -0.87450542669E+01  0.13060925618E+02 -0.76283810709E+01  0.17471575491E+02  0.51100000000E-03 0. -1.
        -12    1    3    3    0    0 -0.16353629078E+02  0.12452296501E+02 -0.80371361410E+01  0.22070261202E+02  0.00000000000E+00 0.  1.
</event>
<event>
 7    1  0.1714203E-010  0.4778727E+02  0.7816164E-02  0.1312668E+00
        -11   -1    0    0    0    0  0.00000000000E+00  0.00000000000E+00  0.45593999997E+02  0.45594000000E+02  0.51100000000E-03 0.  1.
         11   -1    0    0    0    0 -0.00000000000E+00 -0.00000000000E+00 -0.45593999997E+02  0.45594000000E+02  0.51100000000E-03 0. -1.
    9900012    2    1    2    0    0 -0.12540129366E+02 -0.41441218536E+02 -0.29989561691E+01  0.47787272167E+02  0.20000005120E+02 0.  0.
        -12    1    1    2    0    0  0.12540129366E+02  0.41441218536E+02  0.29989561691E+01  0.43400727833E+02  0.00000000000E+00 0.  1.
         11    1    3    3    0    0 -0.14286722804E+01  0.10603088941E+01 -0.17831401734E+01  0.25189181358E+01  0.51100000000E-03 0. -1.
        -11    1    3    3    0    0  0.12027838347E+01 -0.13255929472E+01  0.13072462640E+01  0.22164788902E+01  0.51100000000E-03 0.  1.
         12    1    3    3    0    0 -0.12314240921E+02 -0.41175934483E+02 -0.25230622597E+01  0.43051875141E+02  0.00000000000E+00 0. -1.
</event>
<event>
 7    1  0.1714203E-010  0.4778723E+02  0.7816164E-02  0.1312668E+00
        -11   -1    0    0    0    0  0.00000000000E+00  0.00000000000E+00  0.45593999997E+02  0.45594000000E+02  0.51100000000E-03 0.  1.
         11   -1    0    0    0    0 -0.00000000000E+00 -0.00000000000E+00 -0.45593999997E+02  0.45594000000E+02  0.51100000000E-03 0. -1.
    9900012    2    1    2    0    0 -0.25697225664E+02 -0.19704584343E+02  0.28896520597E+02  0.47787228652E+02  0.19999806716E+02 0.  0.
        -12    1    1    2    0    0  0.25697225664E+02  0.19704584343E+02 -0.28896520597E+02  0.43400771348E+02  0.00000000000E+00 0.  1.
         11    1    3    3    0    0 -0.33378358661E+01 -0.89310178296E+01  0.11009577659E+01  0.95977255641E+01  0.51100000000E-03 0. -1.
        -11    1    3    3    0    0 -0.16703321910E+02 -0.93035603075E+01  0.15637922632E+02  0.24700239305E+02  0.51100000000E-03 0.  1.
         12    1    3    3    0    0 -0.56560678880E+01 -0.14700062060E+01  0.12157640199E+02  0.13489263783E+02  0.00000000000E+00 0. -1.
</event>
<event>
 7    1  0.1714203E-010  0.4778727E+02  0.7816164E-02  0.1312668E+00
        -11   -1    0    0    0    0  0.00000000000E+00  0.00000000000E+00  0.45593999997E+02  0.45594000000E+02  0.51100000000E-03 0.  1.
         11   -1    0    0    0    0 -0.00000000000E+00 -0.00000000000E+00 -0.45593999997E+02  0.45594000000E+02  0.51100000000E-03 0. -1.
    9900012    2    1    2    0    0 -0.38631244423E+02 -0.12100652771E+02 -0.15646856882E+02  0.47787274505E+02  0.20000015780E+02 0.  0.
        -12    1    1    2    0    0  0.38631244423E+02  0.12100652771E+02  0.15646856882E+02  0.43400725495E+02  0.00000000000E+00 0.  1.
         11    1    3    3    0    0 -0.18277852567E+02 -0.57421967720E+01 -0.21506868651E+01  0.19278956727E+02  0.51100000000E-03 0. -1.
        -11    1    3    3    0    0 -0.14640042746E+02 -0.89516428703E+01 -0.14093525632E+02  0.22205635021E+02  0.51100000000E-03 0.  1.
         12    1    3    3    0    0 -0.57133491108E+01  0.25931868716E+01  0.59735561525E+00  0.63026827577E+01  0.00000000000E+00 0. -1.
</event>
<event>
 7    1  0.1714203E-010  0.4778727E+02  0.7816164E-02  0.1312668E+00
        -11   -1    0    0    0    0  0.00000000000E+00  0.00000000000E+00  0.45593999997E+02  0.45594000000E+02  0.51100000000E-03 0. -1.
         11   -1    0    0    0    0 -0.00000000000E+00 -0.00000000000E+00 -0.45593999997E+02  0.45594000000E+02  0.51100000000E-03 0.  1.
    9900012    2    1    2    0    0  0.47316073197E+01  0.22111821728E+02  0.37044598646E+02  0.47787273545E+02  0.20000011402E+02 0.  0.
        -12    1    1    2    0    0 -0.47316073197E+01 -0.22111821728E+02 -0.37044598646E+02  0.43400726455E+02  0.00000000000E+00 0.  1.
         11    1    3    3    0    0 -0.14068853765E+01  0.36384480422E+01  0.11490315927E+02  0.12134454705E+02  0.51100000000E-03 0. -1.
        -11    1    3    3    0    0 -0.38335180437E+01  0.33432442531E+00  0.63032296581E+01  0.73850076368E+01  0.51100000000E-03 0.  1.
        -12    1    3    3    0    0  0.99720107400E+01  0.18139049261E+02  0.19251053061E+02  0.28267811203E+02  0.00000000000E+00 0.  1.
</event>
<event>
 7    1  0.1714203E-010  0.4778727E+02  0.7816164E-02  0.1312668E+00
        -11   -1    0    0    0    0  0.00000000000E+00  0.00000000000E+00  0.45593999997E+02  0.45594000000E+02  0.51100000000E-03 0. -1.
         11   -1    0    0    0    0 -0.00000000000E+00 -0.00000000000E+00 -0.45593999997E+02  0.45594000000E+02  0.51100000000E-03 0.  1.
    9900012    2    1    2    0    0  0.72981718782E+01 -0.41236924959E+02  0.11396316919E+02  0.47787270373E+02  0.19999996937E+02 0.  0.
        -12    1    1    2    0    0 -0.72981718782E+01  0.41236924959E+02 -0.11396316919E+02  0.43400729627E+02  0.00000000000E+00 0.  1.
         11    1    3    3    0    0 -0.16921109426E+01 -0.85322656089E+01  0.52367597840E+01  0.10153149716E+02  0.51100000000E-03 0. -1.
        -11    1    3    3    0    0  0.12151162280E+02 -0.30958131775E+02  0.68547648198E+01  0.33956508489E+02  0.51100000000E-03 0.  1.
        -12    1    3    3    0    0 -0.31608794597E+01 -0.17465275750E+01 -0.69520768450E+00  0.36776121674E+01  0.00000000000E+00 0.  1.
</event>
<event>
 7    1  0.1714203E-010  0.4778727E+02  0.7816164E-02  0.1312668E+00
        -11   -1    0    0    0    0  0.00000000000E+00  0.00000000000E+00  0.45593999997E+02  0.45594000000E+02  0.51100000000E-03 0.  1.
         11   -1    0    0    0    0 -0.00000000000E+00 -0.00000000000E+00 -0.45593999997E+02  0.45594000000E+02  0.51100000000E-03 0. -1.
    9900012    2    1    2    0    0  0.21418014136E+02  0.34277752282E+02 -0.15809104122E+02  0.47787269544E+02  0.19999993157E+02 0.  0.
        -12    1    1    2    0    0 -0.21418014136E+02 -0.34277752282E+02  0.15809104122E+02  0.43400730456E+02  0.00000000000E+00 0.  1.
         11    1    3    3    0    0  0.10375739594E+02  0.21386803760E+02 -0.10331749537E+02  0.25919035398E+02  0.51100000000E-03 0. -1.
        -11    1    3    3    0    0  0.13441785644E+02  0.10035959138E+02 -0.22289993429E+01  0.16922485499E+02  0.51100000000E-03 0.  1.
        -12    1    3    3    0    0 -0.23995111016E+01  0.28549893836E+01 -0.32483552414E+01  0.49457486473E+01  0.00000000000E+00 0.  1.
</event>
<event>
 7    1  0.1714203E-010  0.4778727E+02  0.7816164E-02  0.1312668E+00
        -11   -1    0    0    0    0  0.00000000000E+00  0.00000000000E+00  0.45593999997E+02  0.45594000000E+02  0.51100000000E-03 0.  1.
         11   -1    0    0    0    0 -0.00000000000E+00 -0.00000000000E+00 -0.45593999997E+02  0.45594000000E+02  0.51100000000E-03 0. -1.
    9900012    2    1    2    0    0  0.25155484664E+02 -0.29445095452E+02 -0.19591103295E+02  0.47787269785E+02  0.19999994258E+02 0.  0.
        -12    1    1    2    0    0 -0.25155484664E+02  0.29445095452E+02  0.19591103295E+02  0.43400730215E+02  0.00000000000E+00 0.  1.
         11    1    3    3    0    0  0.10596470957E+02 -0.34497681167E+01 -0.68201418329E+01  0.13065237529E+02  0.51100000000E-03 0. -1.
        -11    1    3    3    0    0  0.97335251851E+01 -0.18436347690E+02 -0.14750102481E+02  0.25538323206E+02  0.51100000000E-03 0.  1.
         12    1    3    3    0    0  0.48254885217E+01 -0.75589796452E+01  0.19791410193E+01  0.91837090505E+01  0.00000000000E+00 0. -1.
</event>
<event>
 7    1  0.1714203E-010  0.4778726E+02  0.7816164E-02  0.1312668E+00
        -11   -1    0    0    0    0  0.00000000000E+00  0.00000000000E+00  0.45593999997E+02  0.45594000000E+02  0.51100000000E-03 0. -1.
         11   -1    0    0    0    0 -0.00000000000E+00 -0.00000000000E+00 -0.45593999997E+02  0.45594000000E+02  0.51100000000E-03 0.  1.
    9900012    2    1    2    0    0  0.70945505106E+01  0.42747029633E+02 -0.24460326400E+01  0.47787259625E+02  0.19999947935E+02 0.  0.
        -12    1    1    2    0    0 -0.70945505106E+01 -0.42747029633E+02  0.24460326400E+01  0.43400740375E+02  0.00000000000E+00 0.  1.
         11    1    3    3    0    0 -0.88200342008E+00  0.33439767050E+02 -0.48653907654E+01  0.33803372287E+02  0.51100000000E-03 0. -1.
        -11    1    3    3    0    0  0.90266153433E+00  0.40659561697E+01 -0.13903917622E+01  0.43908981920E+01  0.51100000000E-03 0.  1.
        -12    1    3    3    0    0  0.70738923963E+01  0.52413064131E+01  0.38097498877E+01  0.95929891461E+01  0.00000000000E+00 0.  1.
</event>
<event>
 7    1  0.1714203E-010  0.4778727E+02  0.7816164E-02  0.1312668E+00
        -11   -1    0    0    0    0  0.00000000000E+00  0.00000000000E+00  0.45593999997E+02  0.45594000000E+02  0.51100000000E-03 0.  1.
         11   -1    0    0    0    0 -0.00000000000E+00 -0.00000000000E+00 -0.45593999997E+02  0.45594000000E+02  0.51100000000E-03 0. -1.
    9900012    2    1    2    0    0 -0.39797835597E+01 -0.25151300935E+02 -0.35145367432E+02  0.47787268810E+02  0.19999989811E+02 0.  0.
        -12    1    1    2    0    0  0.39797835597E+01  0.25151300935E+02  0.35145367432E+02  0.43400731190E+02  0.00000000000E+00 0.  1.
         11    1    3    3    0    0  0.14697016555E+01 -0.10147488815E+02 -0.39686551176E+01  0.10994624864E+02  0.51100000000E-03 0. -1.
        -11    1    3    3    0    0 -0.44738857306E+01  0.19212749849E-01 -0.66850457186E+01  0.80439952251E+01  0.51100000000E-03 0.  1.
        -12    1    3    3    0    0 -0.97559948466E+00 -0.15023024870E+02 -0.24491666596E+02  0.28748648721E+02  0.00000000000E+00 0.  1.
</event>
<event>
 7    1  0.1714203E-010  0.4778725E+02  0.7816164E-02  0.1312668E+00
        -11   -1    0    0    0    0  0.00000000000E+00  0.00000000000E+00  0.45593999997E+02  0.45594000000E+02  0.51100000000E-03 0. -1.
         11   -1    0    0    0    0 -0.00000000000E+00 -0.00000000000E+00 -0.45593999997E+02  0.45594000000E+02  0.51100000000E-03 0.  1.
    9900012    2    1    2    0    0  0.37098560598E+02 -0.93047723158E+01  0.20512020029E+02  0.47787251712E+02  0.19999911856E+02 0.  0.
        -12    1    1    2    0    0 -0.37098560598E+02  0.93047723158E+01 -0.20512020029E+02  0.43400748288E+02  0.00000000000E+00 0.  1.
         11    1    3    3    0    0  0.14262599965E+02 -0.10488569624E+02  0.97640115325E+01  0.20218006133E+02  0.51100000000E-03 0. -1.
        -11    1    3    3    0    0  0.12472659275E+02 -0.15497187236E+01  0.25650019021E+00  0.12571183322E+02  0.51100000000E-03 0.  1.
        -12    1    3    3    0    0  0.10363301357E+02  0.27335160315E+01  0.10491508306E+02  0.14998062257E+02  0.00000000000E+00 0.  1.
</event>
<event>
 7    1  0.1714203E-010  0.4778727E+02  0.7816164E-02  0.1312668E+00
        -11   -1    0    0    0    0  0.00000000000E+00  0.00000000000E+00  0.45593999997E+02  0.45594000000E+02  0.51100000000E-03 0.  1.
         11   -1    0    0    0    0 -0.00000000000E+00 -0.00000000000E+00 -0.45593999997E+02  0.45594000000E+02  0.51100000000E-03 0. -1.
    9900012    2    1    2    0    0 -0.39727106936E+02  0.17297373918E+02 -0.24861198669E+01  0.47787274638E+02  0.20000016385E+02 0.  0.
        -12    1    1    2    0    0  0.39727106936E+02 -0.17297373918E+02  0.24861198669E+01  0.43400725362E+02  0.00000000000E+00 0.  1.
         11    1    3    3    0    0 -0.17370365327E+02  0.15044238972E+02 -0.79412123439E+01  0.24312991828E+02  0.51100000000E-03 0. -1.
        -11    1    3    3    0    0 -0.10911065892E+02  0.26263608062E+01  0.13255899126E+01  0.11300722050E+02  0.51100000000E-03 0.  1.
         12    1    3    3    0    0 -0.11445675717E+02 -0.37322586058E+00  0.41295025645E+01  0.12173560760E+02  0.00000000000E+00 0. -1.
</event>
<event>
 7    1  0.1714203E-010  0.4778728E+02  0.7816164E-02  0.1312668E+00
        -11   -1    0    0    0    0  0.00000000000E+00  0.00000000000E+00  0.45593999997E+02  0.45594000000E+02  0.51100000000E-03 0. -1.
         11   -1    0    0    0    0 -0.00000000000E+00 -0.00000000000E+00 -0.45593999997E+02  0.45594000000E+02  0.51100000000E-03 0.  1.
    9900012    2    1    2    0    0 -0.35093428186E+02 -0.23196553219E+02  0.10676783858E+02  0.47787279999E+02  0.20000040827E+02 0.  0.
        -12    1    1    2    0    0  0.35093428186E+02  0.23196553219E+02 -0.10676783858E+02  0.43400720001E+02  0.00000000000E+00 0.  1.
         11    1    3    3    0    0 -0.12643120783E+02  0.11118034876E+01  0.40011933510E+01  0.13307672922E+02  0.51100000000E-03 0. -1.
        -11    1    3    3    0    0 -0.75508046272E+01 -0.96362388344E+01  0.58096192452E+01  0.13550772134E+02  0.51100000000E-03 0.  1.
        -12    1    3    3    0    0 -0.14899502776E+02 -0.14672117872E+02  0.86597126152E+00  0.20928834942E+02  0.00000000000E+00 0.  1.
</event>
<event>
 7    1  0.1714203E-010  0.4778727E+02  0.7816164E-02  0.1312668E+00
        -11   -1    0    0    0    0  0.00000000000E+00  0.00000000000E+00  0.45593999997E+02  0.45594000000E+02  0.51100000000E-03 0.  1.
         11   -1    0    0    0    0 -0.00000000000E+00 -0.00000000000E+00 -0.45593999997E+02  0.45594000000E+02  0.51100000000E-03 0. -1.
    9900012    2    1    2    0    0  0.17407968815E+02  0.39249401644E+01 -0.39562366438E+02  0.47787269916E+02  0.19999994857E+02 0.  0.
        -12    1    1    2    0    0 -0.17407968815E+02 -0.39249401644E+01  0.39562366438E+02  0.43400730084E+02  0.00000000000E+00 0.  1.
         11    1    3    3    0    0 -0.21617362555E+01 -0.19758849305E+01 -0.67692557963E+01  0.73756389007E+01  0.51100000000E-03 0. -1.
        -11    1    3    3    0    0  0.35540355905E+00  0.21162589981E+01  0.79982001803E-01  0.21473847392E+01  0.51100000000E-03 0.  1.
         12    1    3    3    0    0  0.19214301512E+02  0.37845660969E+01 -0.32873092644E+02  0.38264246276E+02  0.00000000000E+00 0. -1.
</event>
<event>
 7    1  0.1714203E-010  0.4778727E+02  0.7816164E-02  0.1312668E+00
        -11   -1    0    0    0    0  0.00000000000E+00  0.00000000000E+00  0.45593999997E+02  0.45594000000E+02  0.51100000000E-03 0.  1.
         11   -1    0    0    0    0 -0.00000000000E+00 -0.00000000000E+00 -0.45593999997E+02  0.45594000000E+02  0.51100000000E-03 0. -1.
    9900012    2    1    2    0    0 -0.19491426740E+02 -0.34884435224E+02 -0.16934701431E+02  0.47787266714E+02  0.19999980254E+02 0.  0.
        -12    1    1    2    0    0  0.19491426740E+02  0.34884435224E+02  0.16934701431E+02  0.43400733286E+02  0.00000000000E+00 0.  1.
         11    1    3    3    0    0 -0.80596661082E+01 -0.74799462097E+01 -0.14484903453E+01  0.11090804192E+02  0.51100000000E-03 0. -1.
        -11    1    3    3    0    0 -0.92980108744E+00 -0.20841479398E+02 -0.10367103713E+02  0.23296107684E+02  0.51100000000E-03 0.  1.
         12    1    3    3    0    0 -0.10501959545E+02 -0.65630096158E+01 -0.51191073723E+01  0.13400354838E+02  0.00000000000E+00 0. -1.
</event>
<event>
 7    1  0.1714203E-010  0.4778731E+02  0.7816164E-02  0.1312668E+00
        -11   -1    0    0    0    0  0.00000000000E+00  0.00000000000E+00  0.45593999997E+02  0.45594000000E+02  0.51100000000E-03 0.  1.
         11   -1    0    0    0    0 -0.00000000000E+00 -0.00000000000E+00 -0.45593999997E+02  0.45594000000E+02  0.51100000000E-03 0. -1.
    9900012    2    1    2    0    0 -0.10440152622E+02 -0.79589625646E+01 -0.41367597681E+02  0.47787308649E+02  0.20000171453E+02 0.  0.
        -12    1    1    2    0    0  0.10440152622E+02  0.79589625646E+01  0.41367597681E+02  0.43400691351E+02  0.00000000000E+00 0.  1.
         11    1    3    3    0    0 -0.64633872026E+01 -0.78775258767E+01 -0.96097940285E+01  0.14006388885E+02  0.51100000000E-03 0.  1.
        -11    1    3    3    0    0 -0.53391324036E+01 -0.39988594028E+01 -0.24793066492E+02  0.25674761102E+02  0.51100000000E-03 0. -1.
        -12    1    3    3    0    0  0.13623669843E+01  0.39174227149E+01 -0.69647371606E+01  0.81061586614E+01  0.00000000000E+00 0.  1.
</event>
<event>
 7    1  0.1714203E-010  0.4778724E+02  0.7816164E-02  0.1312668E+00
        -11   -1    0    0    0    0  0.00000000000E+00  0.00000000000E+00  0.45593999997E+02  0.45594000000E+02  0.51100000000E-03 0. -1.
         11   -1    0    0    0    0 -0.00000000000E+00 -0.00000000000E+00 -0.45593999997E+02  0.45594000000E+02  0.51100000000E-03 0.  1.
    9900012    2    1    2    0    0 -0.76529682107E+01 -0.11288490137E+02  0.41202287005E+02  0.47787235186E+02  0.19999836507E+02 0.  0.
        -12    1    1    2    0    0  0.76529682107E+01  0.11288490137E+02 -0.41202287005E+02  0.43400764814E+02  0.00000000000E+00 0.  1.
         11    1    3    3    0    0 -0.24691973680E+01 -0.40822771456E+01  0.92049927795E+01  0.10367922389E+02  0.51100000000E-03 0. -1.
        -11    1    3    3    0    0 -0.10139799936E+02  0.13077689130E-01  0.21335414579E+02  0.23622354440E+02  0.51100000000E-03 0.  1.
         12    1    3    3    0    0  0.49560290936E+01 -0.72192906807E+01  0.10661879646E+02  0.13796958357E+02  0.00000000000E+00 0. -1.
</event>
<event>
 7    1  0.1714203E-010  0.4778727E+02  0.7816164E-02  0.1312668E+00
        -11   -1    0    0    0    0  0.00000000000E+00  0.00000000000E+00  0.45593999997E+02  0.45594000000E+02  0.51100000000E-03 0. -1.
         11   -1    0    0    0    0 -0.00000000000E+00 -0.00000000000E+00 -0.45593999997E+02  0.45594000000E+02  0.51100000000E-03 0.  1.
    9900012    2    1    2    0    0  0.31705006103E+02 -0.14284243009E+02  0.25968760115E+02  0.47787268299E+02  0.19999987480E+02 0.  0.
        -12    1    1    2    0    0 -0.31705006103E+02  0.14284243009E+02 -0.25968760115E+02  0.43400731701E+02  0.00000000000E+00 0.  1.
         11    1    3    3    0    0  0.12873556922E+02 -0.38452686704E+01  0.70503199436E+01  0.15173054094E+02  0.51100000000E-03 0.  1.
        -11    1    3    3    0    0  0.79223632203E+01 -0.57668934769E+01  0.18266497918E+02  0.20728865040E+02  0.51100000000E-03 0. -1.
        -12    1    3    3    0    0  0.10909085961E+02 -0.46720808620E+01  0.65194225313E+00  0.11885349165E+02  0.00000000000E+00 0.  1.
</event>
<event>
 7    1  0.1714203E-010  0.4778723E+02  0.7816164E-02  0.1312668E+00
        -11   -1    0    0    0    0  0.00000000000E+00  0.00000000000E+00  0.45593999997E+02  0.45594000000E+02  0.51100000000E-03 0.  1.
         11   -1    0    0    0    0 -0.00000000000E+00 -0.00000000000E+00 -0.45593999997E+02  0.45594000000E+02  0.51100000000E-03 0. -1.
    9900012    2    1    2    0    0 -0.19069649302E+02  0.38986035253E+02  0.25313039789E+00  0.47787233368E+02  0.19999828216E+02 0.  0.
        -12    1    1    2    0    0  0.19069649302E+02 -0.38986035253E+02 -0.25313039789E+00  0.43400766632E+02  0.00000000000E+00 0.  1.
         11    1    3    3    0    0 -0.86171941400E+01  0.15339988049E+02 -0.46209275964E+01  0.18191323215E+02  0.51100000000E-03 0. -1.
        -11    1    3    3    0    0 -0.47215707387E+01  0.89012227738E+00  0.37633983189E+01  0.61031725420E+01  0.51100000000E-03 0.  1.
         12    1    3    3    0    0 -0.57308844233E+01  0.22755924927E+02  0.11106596754E+01  0.23492737611E+02  0.00000000000E+00 0. -1.
</event>
<event>
 7    1  0.1714203E-010  0.4778729E+02  0.7816164E-02  0.1312668E+00
        -11   -1    0    0    0    0  0.00000000000E+00  0.00000000000E+00  0.45593999997E+02  0.45594000000E+02  0.51100000000E-03 0.  1.
         11   -1    0    0    0    0 -0.00000000000E+00 -0.00000000000E+00 -0.45593999997E+02  0.45594000000E+02  0.51100000000E-03 0. -1.
    9900012    2    1    2    0    0 -0.24921709063E+02 -0.20587899747E+02 -0.28959767027E+02  0.47787293729E+02  0.20000103426E+02 0.  0.
        -12    1    1    2    0    0  0.24921709063E+02  0.20587899747E+02  0.28959767027E+02  0.43400706271E+02  0.00000000000E+00 0.  1.
         11    1    3    3    0    0 -0.89068546618E+01 -0.61562971987E+01 -0.20766056494E+02  0.23419247591E+02  0.51100000000E-03 0. -1.
        -11    1    3    3    0    0 -0.19746791436E+01 -0.22377137930E+01  0.15617697215E+01  0.33683594915E+01  0.51100000000E-03 0.  1.
        -12    1    3    3    0    0 -0.14040175257E+02 -0.12193888755E+02 -0.97554802548E+01  0.20999686646E+02  0.00000000000E+00 0.  1.
</event>
<event>
 7    1  0.1714203E-010  0.4778727E+02  0.7816164E-02  0.1312668E+00
        -11   -1    0    0    0    0  0.00000000000E+00  0.00000000000E+00  0.45593999997E+02  0.45594000000E+02  0.51100000000E-03 0.  1.
         11   -1    0    0    0    0 -0.00000000000E+00 -0.00000000000E+00 -0.45593999997E+02  0.45594000000E+02  0.51100000000E-03 0. -1.
    9900012    2    1    2    0    0  0.27624114072E+01 -0.29575912577E+02 -0.31642652429E+02  0.47787274496E+02  0.20000015736E+02 0.  0.
        -12    1    1    2    0    0 -0.27624114072E+01  0.29575912577E+02  0.31642652429E+02  0.43400725504E+02  0.00000000000E+00 0.  1.
         11    1    3    3    0    0  0.34272967537E+01 -0.11390305888E+02 -0.43680946012E+01  0.12671451454E+02  0.51100000000E-03 0. -1.
        -11    1    3    3    0    0  0.19431402163E+01  0.10528223383E+01 -0.55854199970E+01  0.60067583254E+01  0.51100000000E-03 0.  1.
         12    1    3    3    0    0 -0.26080255627E+01 -0.19238429028E+02 -0.21689137831E+02  0.29109064716E+02  0.00000000000E+00 0. -1.
</event>
<event>
 7    1  0.1714203E-010  0.4778727E+02  0.7816164E-02  0.1312668E+00
        -11   -1    0    0    0    0  0.00000000000E+00  0.00000000000E+00  0.45593999997E+02  0.45594000000E+02  0.51100000000E-03 0.  1.
         11   -1    0    0    0    0 -0.00000000000E+00 -0.00000000000E+00 -0.45593999997E+02  0.45594000000E+02  0.51100000000E-03 0. -1.
    9900012    2    1    2    0    0  0.34041361055E+02  0.26097303576E+02 -0.66135896593E+01  0.47787273225E+02  0.20000009942E+02 0.  0.
        -12    1    1    2    0    0 -0.34041361055E+02 -0.26097303576E+02  0.66135896593E+01  0.43400726775E+02  0.00000000000E+00 0.  1.
         11    1    3    3    0    0  0.23558433204E+02  0.18739038828E+02  0.18497075254E+01  0.30159124149E+02  0.51100000000E-03 0. -1.
        -11    1    3    3    0    0 -0.73430283124E+00  0.32311281330E+01 -0.73249436680E+00  0.33935140958E+01  0.51100000000E-03 0.  1.
        -12    1    3    3    0    0  0.11217230682E+02  0.41271366149E+01 -0.77308028180E+01  0.14234634980E+02  0.00000000000E+00 0.  1.
</event>
<event>
 7    1  0.1714203E-010  0.4778727E+02  0.7816164E-02  0.1312668E+00
        -11   -1    0    0    0    0  0.00000000000E+00  0.00000000000E+00  0.45593999997E+02  0.45594000000E+02  0.51100000000E-03 0. -1.
         11   -1    0    0    0    0 -0.00000000000E+00 -0.00000000000E+00 -0.45593999997E+02  0.45594000000E+02  0.51100000000E-03 0.  1.
    9900012    2    1    2    0    0  0.18032605924E+02  0.46451226163E+01  0.39202949502E+02  0.47787270857E+02  0.19999999144E+02 0.  0.
        -12    1    1    2    0    0 -0.18032605924E+02 -0.46451226163E+01 -0.39202949502E+02  0.43400729143E+02  0.00000000000E+00 0.  1.
         11    1    3    3    0    0  0.98008596855E+01  0.87336883217E+01  0.10515730509E+02  0.16820069877E+02  0.51100000000E-03 0.  1.
        -11    1    3    3    0    0  0.69574078273E+01  0.14129731423E+00  0.20717807238E+02  0.21855274549E+02  0.51100000000E-03 0. -1.
        -12    1    3    3    0    0  0.12743384112E+01 -0.42298630197E+01  0.79694117556E+01  0.91119264308E+01  0.00000000000E+00 0.  1.
</event>
<event>
 7    1  0.1714203E-010  0.4778727E+02  0.7816164E-02  0.1312668E+00
        -11   -1    0    0    0    0  0.00000000000E+00  0.00000000000E+00  0.45593999997E+02  0.45594000000E+02  0.51100000000E-03 0.  1.
         11   -1    0    0    0    0 -0.00000000000E+00 -0.00000000000E+00 -0.45593999997E+02  0.45594000000E+02  0.51100000000E-03 0. -1.
    9900012    2    1    2    0    0 -0.30728339980E+02 -0.80681325435E+01 -0.29568524951E+02  0.47787270646E+02  0.19999998184E+02 0.  0.
        -12    1    1    2    0    0  0.30728339980E+02  0.80681325435E+01  0.29568524951E+02  0.43400729354E+02  0.00000000000E+00 0.  1.
         11    1    3    3    0    0 -0.91561429326E+01  0.30082889274E+01 -0.12532024269E+02  0.15809376592E+02  0.51100000000E-03 0. -1.
        -11    1    3    3    0    0 -0.31536604061E+01  0.49362746598E+00 -0.76474635782E+01  0.82869138691E+01  0.51100000000E-03 0.  1.
        -12    1    3    3    0    0 -0.18418536642E+02 -0.11570048937E+02 -0.93890371032E+01  0.23690980185E+02  0.00000000000E+00 0.  1.
</event>
<event>
 7    1  0.1714203E-010  0.4778728E+02  0.7816164E-02  0.1312668E+00
        -11   -1    0    0    0    0  0.00000000000E+00  0.00000000000E+00  0.45593999997E+02  0.45594000000E+02  0.51100000000E-03 0.  1.
         11   -1    0    0    0    0 -0.00000000000E+00 -0.00000000000E+00 -0.45593999997E+02  0.45594000000E+02  0.51100000000E-03 0. -1.
    9900012    2    1    2    0    0 -0.39379687668E+02  0.12898517461E+01 -0.18198876773E+02  0.47787278414E+02  0.20000033600E+02 0.  0.
        -12    1    1    2    0    0  0.39379687668E+02 -0.12898517461E+01  0.18198876773E+02  0.43400721586E+02  0.00000000000E+00 0.  1.
         11    1    3    3    0    0 -0.19623766751E+02  0.83796053421E+00 -0.14449749222E+02  0.24384209074E+02  0.51100000000E-03 0. -1.
        -11    1    3    3    0    0 -0.13120713798E+02  0.58917468807E+01 -0.11069313506E+01  0.14425363398E+02  0.51100000000E-03 0.  1.
        -12    1    3    3    0    0 -0.66352071191E+01 -0.54398556688E+01 -0.26421962012E+01  0.89777059418E+01  0.00000000000E+00 0.  1.
</event>
<event>
 7    1  0.1714203E-010  0.4778727E+02  0.7816164E-02  0.1312668E+00
        -11   -1    0    0    0    0  0.00000000000E+00  0.00000000000E+00  0.45593999997E+02  0.45594000000E+02  0.51100000000E-03 0.  1.
         11   -1    0    0    0    0 -0.00000000000E+00 -0.00000000000E+00 -0.45593999997E+02  0.45594000000E+02  0.51100000000E-03 0. -1.
    9900012    2    1    2    0    0  0.16713533835E+02 -0.55716627706E+01 -0.39664055983E+02  0.47787274473E+02  0.20000015632E+02 0.  0.
        -12    1    1    2    0    0 -0.16713533835E+02  0.55716627706E+01  0.39664055983E+02  0.43400725527E+02  0.00000000000E+00 0.  1.
         11    1    3    3    0    0  0.12737610072E+00  0.10595501325E+01 -0.14959692283E+02  0.14997708645E+02  0.51100000000E-03 0.  1.
        -11    1    3    3    0    0  0.36300123270E+01 -0.37784982515E+01 -0.59781369927E+00  0.52736533836E+01  0.51100000000E-03 0. -1.
         12    1    3    3    0    0  0.12956145407E+02 -0.28527146516E+01 -0.24106550001E+02  0.27515912444E+02  0.00000000000E+00 0. -1.
</event>
<event>
 7    1  0.1714203E-010  0.4778727E+02  0.7816164E-02  0.1312668E+00
        -11   -1    0    0    0    0  0.00000000000E+00  0.00000000000E+00  0.45593999997E+02  0.45594000000E+02  0.51100000000E-03 0.  1.
         11   -1    0    0    0    0 -0.00000000000E+00 -0.00000000000E+00 -0.45593999997E+02  0.45594000000E+02  0.51100000000E-03 0. -1.
    9900012    2    1    2    0    0 -0.26930609873E+02 -0.32755492849E+02 -0.92435356995E+01  0.47787274060E+02  0.20000013747E+02 0.  0.
        -12    1    1    2    0    0  0.26930609873E+02  0.32755492849E+02  0.92435356995E+01  0.43400725940E+02  0.00000000000E+00 0.  1.
         11    1    3    3    0    0 -0.11618757359E+02 -0.14235451449E+02 -0.55716163722E+01  0.19201211154E+02  0.51100000000E-03 0. -1.
        -11    1    3    3    0    0 -0.12933548377E+02 -0.21005199570E+02 -0.44335151853E+01  0.25062943557E+02  0.51100000000E-03 0.  1.
        -12    1    3    3    0    0 -0.23783041371E+01  0.24851581692E+01  0.76159585797E+00  0.35231193488E+01  0.00000000000E+00 0.  1.
</event>
<event>
 7    1  0.1714203E-010  0.4778727E+02  0.7816164E-02  0.1312668E+00
        -11   -1    0    0    0    0  0.00000000000E+00  0.00000000000E+00  0.45593999997E+02  0.45594000000E+02  0.51100000000E-03 0.  1.
         11   -1    0    0    0    0 -0.00000000000E+00 -0.00000000000E+00 -0.45593999997E+02  0.45594000000E+02  0.51100000000E-03 0. -1.
    9900012    2    1    2    0    0  0.15685943691E+02  0.27172008689E+02 -0.29987608623E+02  0.47787267787E+02  0.19999985147E+02 0.  0.
        -12    1    1    2    0    0 -0.15685943691E+02 -0.27172008689E+02  0.29987608623E+02  0.43400732213E+02  0.00000000000E+00 0.  1.
         11    1    3    3    0    0  0.59796527951E+01  0.12755975516E+02 -0.18263562872E+02  0.23065751407E+02  0.51100000000E-03 0. -1.
        -11    1    3    3    0    0 -0.13703404283E+01  0.15291389085E+00  0.17223762952E+01  0.22063082085E+01  0.51100000000E-03 0.  1.
         12    1    3    3    0    0  0.11076631324E+02  0.14263119283E+02 -0.13446422046E+02  0.22515208172E+02  0.00000000000E+00 0. -1.
</event>
<event>
 7    1  0.1714203E-010  0.4778727E+02  0.7816164E-02  0.1312668E+00
        -11   -1    0    0    0    0  0.00000000000E+00  0.00000000000E+00  0.45593999997E+02  0.45594000000E+02  0.51100000000E-03 0.  1.
         11   -1    0    0    0    0 -0.00000000000E+00 -0.00000000000E+00 -0.45593999997E+02  0.45594000000E+02  0.51100000000E-03 0. -1.
    9900012    2    1    2    0    0  0.11490687333E+01  0.29856863526E+02 -0.31478097921E+02  0.47787270660E+02  0.19999998248E+02 0.  0.
        -12    1    1    2    0    0 -0.11490687333E+01 -0.29856863526E+02  0.31478097921E+02  0.43400729340E+02  0.00000000000E+00 0.  1.
         11    1    3    3    0    0  0.19552455767E+01  0.14114892420E+02 -0.19002920763E+02  0.23752140347E+02  0.51100000000E-03 0. -1.
        -11    1    3    3    0    0  0.60260663948E+01  0.68428271923E+01 -0.39145621434E+01  0.99227797121E+01  0.51100000000E-03 0.  1.
        -12    1    3    3    0    0 -0.68322432381E+01  0.88991439137E+01 -0.85606150139E+01  0.14112350601E+02  0.00000000000E+00 0.  1.
</event>
<event>
 7    1  0.1714203E-010  0.4778728E+02  0.7816164E-02  0.1312668E+00
        -11   -1    0    0    0    0  0.00000000000E+00  0.00000000000E+00  0.45593999997E+02  0.45594000000E+02  0.51100000000E-03 0. -1.
         11   -1    0    0    0    0 -0.00000000000E+00 -0.00000000000E+00 -0.45593999997E+02  0.45594000000E+02  0.51100000000E-03 0.  1.
    9900012    2    1    2    0    0 -0.24349642323E+02 -0.34553347959E+02 -0.98378561729E+01  0.47787281682E+02  0.20000048500E+02 0.  0.
        -12    1    1    2    0    0  0.24349642323E+02  0.34553347959E+02  0.98378561729E+01  0.43400718318E+02  0.00000000000E+00 0.  1.
         11    1    3    3    0    0 -0.51208072130E+01 -0.92950009471E+01 -0.19823637595E+01  0.10795808235E+02  0.51100000000E-03 0. -1.
        -11    1    3    3    0    0 -0.20002237228E+02 -0.22375160575E+02 -0.11623322469E+02  0.32184451686E+02  0.51100000000E-03 0.  1.
         12    1    3    3    0    0  0.77340211809E+00 -0.28831864375E+01  0.37678300561E+01  0.48070217600E+01  0.00000000000E+00 0. -1.
</event>
<event>
 7    1  0.1714203E-010  0.4778727E+02  0.7816164E-02  0.1312668E+00
        -11   -1    0    0    0    0  0.00000000000E+00  0.00000000000E+00  0.45593999997E+02  0.45594000000E+02  0.51100000000E-03 0. -1.
         11   -1    0    0    0    0 -0.00000000000E+00 -0.00000000000E+00 -0.45593999997E+02  0.45594000000E+02  0.51100000000E-03 0.  1.
    9900012    2    1    2    0    0  0.59789828127E+01  0.30467864122E+02  0.30324646220E+02  0.47787272494E+02  0.20000006609E+02 0.  0.
        -12    1    1    2    0    0 -0.59789828127E+01 -0.30467864122E+02 -0.30324646220E+02  0.43400727506E+02  0.00000000000E+00 0.  1.
         11    1    3    3    0    0  0.39370124317E+01  0.49808324668E+00  0.98895496275E+01  0.10656047387E+02  0.51100000000E-03 0. -1.
        -11    1    3    3    0    0 -0.10806657526E+01  0.67573451297E+01  0.14823394596E+01  0.70019198943E+01  0.51100000000E-03 0.  1.
         12    1    3    3    0    0  0.31226361336E+01  0.23212435746E+02  0.18952757133E+02  0.30129305213E+02  0.00000000000E+00 0. -1.
</event>
<event>
 7    1  0.1714203E-010  0.4778728E+02  0.7816164E-02  0.1312668E+00
        -11   -1    0    0    0    0  0.00000000000E+00  0.00000000000E+00  0.45593999997E+02  0.45594000000E+02  0.51100000000E-03 0. -1.
         11   -1    0    0    0    0 -0.00000000000E+00 -0.00000000000E+00 -0.45593999997E+02  0.45594000000E+02  0.51100000000E-03 0.  1.
    9900012    2    1    2    0    0 -0.65990023289E+01 -0.37728261497E+02  0.20412098143E+02  0.47787282288E+02  0.20000051262E+02 0.  0.
        -12    1    1    2    0    0  0.65990023289E+01  0.37728261497E+02 -0.20412098143E+02  0.43400717712E+02  0.00000000000E+00 0.  1.
         11    1    3    3    0    0 -0.15750327969E+01 -0.58924844022E+01  0.34249201477E+01  0.69951539669E+01  0.51100000000E-03 0. -1.
        -11    1    3    3    0    0 -0.75911655543E+01 -0.14151030335E+02  0.16340290893E+02  0.22910315597E+02  0.51100000000E-03 0.  1.
         12    1    3    3    0    0  0.25671960224E+01 -0.17684746759E+02  0.64688710281E+00  0.17881812724E+02  0.00000000000E+00 0. -1.
</event>
<event>
 7    1  0.1714203E-010  0.4778727E+02  0.7816164E-02  0.1312668E+00
        -11   -1    0    0    0    0  0.00000000000E+00  0.00000000000E+00  0.45593999997E+02  0.45594000000E+02  0.51100000000E-03 0.  1.
         11   -1    0    0    0    0 -0.00000000000E+00 -0.00000000000E+00 -0.45593999997E+02  0.45594000000E+02  0.51100000000E-03 0. -1.
    9900012    2    1    2    0    0  0.21359532053E+02  0.35529752686E+01 -0.37613427049E+02  0.47787272620E+02  0.20000007183E+02 0.  0.
        -12    1    1    2    0    0 -0.21359532053E+02 -0.35529752686E+01  0.37613427049E+02  0.43400727380E+02  0.00000000000E+00 0.  1.
         11    1    3    3    0    0  0.57083010937E+01 -0.44426295448E+00 -0.12605446281E+01  0.58626823187E+01  0.51100000000E-03 0. -1.
        -11    1    3    3    0    0  0.48619474661E+01 -0.42822933475E+01 -0.17636164840E+02  0.18788583768E+02  0.51100000000E-03 0.  1.
         12    1    3    3    0    0  0.10789283493E+02  0.82795315706E+01 -0.18716717580E+02  0.23136006533E+02  0.00000000000E+00 0. -1.
</event>
<event>
 7    1  0.1714203E-010  0.4778726E+02  0.7816164E-02  0.1312668E+00
        -11   -1    0    0    0    0  0.00000000000E+00  0.00000000000E+00  0.45593999997E+02  0.45594000000E+02  0.51100000000E-03 0. -1.
         11   -1    0    0    0    0 -0.00000000000E+00 -0.00000000000E+00 -0.45593999997E+02  0.45594000000E+02  0.51100000000E-03 0.  1.
    9900012    2    1    2    0    0  0.40959687705E+02  0.11281648973E+02  0.88686196008E+01  0.47787262287E+02  0.19999960070E+02 0.  0.
        -12    1    1    2    0    0 -0.40959687705E+02 -0.11281648973E+02 -0.88686196008E+01  0.43400737713E+02  0.00000000000E+00 0.  1.
         11    1    3    3    0    0  0.30102424507E+02  0.10182596612E+02  0.59875635636E+00  0.31783639571E+02  0.51100000000E-03 0. -1.
        -11    1    3    3    0    0  0.89497317138E+01  0.36829673795E+01  0.83627670171E+01  0.12790536303E+02  0.51100000000E-03 0.  1.
        -12    1    3    3    0    0  0.19075314844E+01 -0.25839150186E+01 -0.92903772650E-01  0.32130864131E+01  0.00000000000E+00 0.  1.
</event>
<event>
 7    1  0.1714203E-010  0.4778726E+02  0.7816164E-02  0.1312668E+00
        -11   -1    0    0    0    0  0.00000000000E+00  0.00000000000E+00  0.45593999997E+02  0.45594000000E+02  0.51100000000E-03 0. -1.
         11   -1    0    0    0    0 -0.00000000000E+00 -0.00000000000E+00 -0.45593999997E+02  0.45594000000E+02  0.51100000000E-03 0.  1.
    9900012    2    1    2    0    0 -0.15104336230E+02 -0.52968412849E+00  0.40684177258E+02  0.47787264782E+02  0.19999971449E+02 0.  0.
        -12    1    1    2    0    0  0.15104336230E+02  0.52968412849E+00 -0.40684177258E+02  0.43400735218E+02  0.00000000000E+00 0.  1.
         11    1    3    3    0    0 -0.64013192024E+01 -0.24879480847E+01  0.11119709759E+02  0.13069610498E+02  0.51100000000E-03 0. -1.
        -11    1    3    3    0    0 -0.12732576075E+02 -0.15804261084E+01  0.21296082426E+02  0.24862408716E+02  0.51100000000E-03 0.  1.
         12    1    3    3    0    0  0.40295590469E+01  0.35386900646E+01  0.82683850737E+01  0.98552455684E+01  0.00000000000E+00 0. -1.
</event>
<event>
 7    1  0.1714203E-010  0.4778727E+02  0.7816164E-02  0.1312668E+00
        -11   -1    0    0    0    0  0.00000000000E+00  0.00000000000E+00  0.45593999997E+02  0.45594000000E+02  0.51100000000E-03 0. -1.
         11   -1    0    0    0    0 -0.00000000000E+00 -0.00000000000E+00 -0.45593999997E+02  0.45594000000E+02  0.51100000000E-03 0.  1.
    9900012    2    1    2    0    0  0.25837510692E+02  0.73474923568E+01  0.34089009780E+02  0.47787272006E+02  0.20000004383E+02 0.  0.
        -12    1    1    2    0    0 -0.25837510692E+02 -0.73474923568E+01 -0.34089009780E+02  0.43400727994E+02  0.00000000000E+00 0.  1.
         11    1    3    3    0    0  0.62446866761E+01 -0.13594598231E+01  0.11744759697E+02  0.13370999338E+02  0.51100000000E-03 0. -1.
        -11    1    3    3    0    0  0.88790176894E+01  0.24858918428E+01  0.41547685919E+00  0.92298014424E+01  0.51100000000E-03 0.  1.
        -12    1    3    3    0    0  0.10713806326E+02  0.62210603370E+01  0.21928773223E+02  0.25186471225E+02  0.00000000000E+00 0.  1.
</event>
<event>
 7    1  0.1714203E-010  0.4778726E+02  0.7816164E-02  0.1312668E+00
        -11   -1    0    0    0    0  0.00000000000E+00  0.00000000000E+00  0.45593999997E+02  0.45594000000E+02  0.51100000000E-03 0.  1.
         11   -1    0    0    0    0 -0.00000000000E+00 -0.00000000000E+00 -0.45593999997E+02  0.45594000000E+02  0.51100000000E-03 0. -1.
    9900012    2    1    2    0    0 -0.27958779799E+02 -0.26018352873E+02  0.20614947610E+02  0.47787261308E+02  0.19999955607E+02 0.  0.
        -12    1    1    2    0    0  0.27958779799E+02  0.26018352873E+02 -0.20614947610E+02  0.43400738692E+02  0.00000000000E+00 0.  1.
         11    1    3    3    0    0 -0.15188148095E+02 -0.11978491682E+02  0.65662028600E+00  0.19354463464E+02  0.51100000000E-03 0. -1.
        -11    1    3    3    0    0 -0.36174670622E+01 -0.87931446269E+00  0.15766297512E+01  0.40428979092E+01  0.51100000000E-03 0.  1.
        -12    1    3    3    0    0 -0.91531646415E+01 -0.13160546728E+02  0.18381697573E+02  0.24389899934E+02  0.00000000000E+00 0.  1.
</event>
<event>
 7    1  0.1714203E-010  0.4778727E+02  0.7816164E-02  0.1312668E+00
        -11   -1    0    0    0    0  0.00000000000E+00  0.00000000000E+00  0.45593999997E+02  0.45594000000E+02  0.51100000000E-03 0. -1.
         11   -1    0    0    0    0 -0.00000000000E+00 -0.00000000000E+00 -0.45593999997E+02  0.45594000000E+02  0.51100000000E-03 0.  1.
    9900012    2    1    2    0    0  0.13951591860E+02 -0.18328833646E+01  0.41056263219E+02  0.47787272744E+02  0.20000007749E+02 0.  0.
        -12    1    1    2    0    0 -0.13951591860E+02  0.18328833646E+01 -0.41056263219E+02  0.43400727256E+02  0.00000000000E+00 0.  1.
         11    1    3    3    0    0  0.12908229197E+02 -0.44501197764E+01  0.24531592982E+02  0.28075345082E+02  0.51100000000E-03 0. -1.
        -11    1    3    3    0    0  0.47467980653E+01  0.24042774392E+00  0.13654662301E+02  0.14458205289E+02  0.51100000000E-03 0.  1.
        -12    1    3    3    0    0 -0.37034354014E+01  0.23768086679E+01  0.28700079365E+01  0.52537223729E+01  0.00000000000E+00 0.  1.
</event>
<event>
 7    1  0.1714203E-010  0.4778727E+02  0.7816164E-02  0.1312668E+00
        -11   -1    0    0    0    0  0.00000000000E+00  0.00000000000E+00  0.45593999997E+02  0.45594000000E+02  0.51100000000E-03 0. -1.
         11   -1    0    0    0    0 -0.00000000000E+00 -0.00000000000E+00 -0.45593999997E+02  0.45594000000E+02  0.51100000000E-03 0.  1.
    9900012    2    1    2    0    0 -0.14545207351E+02 -0.44478059596E+01  0.40648215954E+02  0.47787268497E+02  0.19999988387E+02 0.  0.
        -12    1    1    2    0    0  0.14545207351E+02  0.44478059596E+01 -0.40648215954E+02  0.43400731503E+02  0.00000000000E+00 0.  1.
         11    1    3    3    0    0 -0.48783888648E+01 -0.87920965138E+01  0.86978966391E+01  0.13294850327E+02  0.51100000000E-03 0. -1.
        -11    1    3    3    0    0 -0.57854469208E+01  0.48255934794E+00  0.77664172949E+01  0.96964682982E+01  0.51100000000E-03 0.  1.
        -12    1    3    3    0    0 -0.38813715655E+01  0.38617312063E+01  0.24183902020E+02  0.24795949872E+02  0.00000000000E+00 0.  1.
</event>
<event>
 7    1  0.1714203E-010  0.4778727E+02  0.7816164E-02  0.1312668E+00
        -11   -1    0    0    0    0  0.00000000000E+00  0.00000000000E+00  0.45593999997E+02  0.45594000000E+02  0.51100000000E-03 0.  1.
         11   -1    0    0    0    0 -0.00000000000E+00 -0.00000000000E+00 -0.45593999997E+02  0.45594000000E+02  0.51100000000E-03 0. -1.
    9900012    2    1    2    0    0 -0.74563652735E+01 -0.18020054178E+02 -0.38772458328E+02  0.47787271199E+02  0.20000000704E+02 0.  0.
        -12    1    1    2    0    0  0.74563652735E+01  0.18020054178E+02  0.38772458328E+02  0.43400728801E+02  0.00000000000E+00 0.  1.
         11    1    3    3    0    0 -0.46574348775E+01 -0.97700053197E+01 -0.34432195443E+02  0.36093223559E+02  0.51100000000E-03 0. -1.
        -11    1    3    3    0    0  0.15920809238E+01 -0.23534873479E+00 -0.80776631135E-01  0.16114080241E+01  0.51100000000E-03 0.  1.
        -12    1    3    3    0    0 -0.43910113198E+01 -0.80147001232E+01 -0.42594862542E+01  0.10082639616E+02  0.00000000000E+00 0.  1.
</event>
<event>
 7    1  0.1714203E-010  0.4778727E+02  0.7816164E-02  0.1312668E+00
        -11   -1    0    0    0    0  0.00000000000E+00  0.00000000000E+00  0.45593999997E+02  0.45594000000E+02  0.51100000000E-03 0.  1.
         11   -1    0    0    0    0 -0.00000000000E+00 -0.00000000000E+00 -0.45593999997E+02  0.45594000000E+02  0.51100000000E-03 0. -1.
    9900012    2    1    2    0    0 -0.28642315907E+01 -0.35075960165E+02 -0.25398746058E+02  0.47787272985E+02  0.20000008850E+02 0.  0.
        -12    1    1    2    0    0  0.28642315907E+01  0.35075960165E+02  0.25398746058E+02  0.43400727015E+02  0.00000000000E+00 0.  1.
         11    1    3    3    0    0 -0.38948106693E+01 -0.33722445715E+01 -0.38314016984E+01  0.64203755993E+01  0.51100000000E-03 0.  1.
        -11    1    3    3    0    0  0.60037307988E+01 -0.18638678587E+02 -0.18740414202E+02  0.27104395358E+02  0.51100000000E-03 0. -1.
         12    1    3    3    0    0 -0.49731517202E+01 -0.13065037006E+02 -0.28269301576E+01  0.14262502029E+02  0.00000000000E+00 0. -1.
</event>
<event>
 7    1  0.1714203E-010  0.4778729E+02  0.7816164E-02  0.1312668E+00
        -11   -1    0    0    0    0  0.00000000000E+00  0.00000000000E+00  0.45593999997E+02  0.45594000000E+02  0.51100000000E-03 0.  1.
         11   -1    0    0    0    0 -0.00000000000E+00 -0.00000000000E+00 -0.45593999997E+02  0.45594000000E+02  0.51100000000E-03 0. -1.
    9900012    2    1    2    0    0 -0.14646133783E+02  0.78675114331E+01 -0.40090085917E+02  0.47787286183E+02  0.20000069024E+02 0.  0.
        -12    1    1    2    0    0  0.14646133783E+02 -0.78675114331E+01  0.40090085917E+02  0.43400713817E+02  0.00000000000E+00 0.  1.
         11    1    3    3    0    0 -0.10662858992E+02  0.47719496162E+01 -0.19196407155E+02  0.22471540066E+02  0.51100000000E-03 0. -1.
        -11    1    3    3    0    0 -0.35032438145E+01 -0.50438911353E+01 -0.89386752142E+01  0.10844974405E+02  0.51100000000E-03 0.  1.
        -12    1    3    3    0    0 -0.48003097659E+00  0.81394529522E+01 -0.11955003548E+02  0.14470771712E+02  0.00000000000E+00 0.  1.
</event>
<event>
 7    1  0.1714203E-010  0.4778727E+02  0.7816164E-02  0.1312668E+00
        -11   -1    0    0    0    0  0.00000000000E+00  0.00000000000E+00  0.45593999997E+02  0.45594000000E+02  0.51100000000E-03 0. -1.
         11   -1    0    0    0    0 -0.00000000000E+00 -0.00000000000E+00 -0.45593999997E+02  0.45594000000E+02  0.51100000000E-03 0.  1.
    9900012    2    1    2    0    0 -0.25951011017E+02  0.92051861706E+01  0.33547473183E+02  0.47787269796E+02  0.19999994308E+02 0.  0.
        -12    1    1    2    0    0  0.25951011017E+02 -0.92051861706E+01 -0.33547473183E+02  0.43400730204E+02  0.00000000000E+00 0.  1.
         11    1    3    3    0    0 -0.49551011292E+01 -0.37818532902E+01  0.61144194751E+01  0.87316417292E+01  0.51100000000E-03 0.  1.
        -11    1    3    3    0    0 -0.23882685459E+01  0.67854838792E+01  0.12430528531E+02  0.14361916932E+02  0.51100000000E-03 0. -1.
        -12    1    3    3    0    0 -0.18607641342E+02  0.62015555816E+01  0.15002525177E+02  0.24693711135E+02  0.00000000000E+00 0.  1.
</event>
<event>
 7    1  0.1714203E-010  0.4778727E+02  0.7816164E-02  0.1312668E+00
        -11   -1    0    0    0    0  0.00000000000E+00  0.00000000000E+00  0.45593999997E+02  0.45594000000E+02  0.51100000000E-03 0.  1.
         11   -1    0    0    0    0 -0.00000000000E+00 -0.00000000000E+00 -0.45593999997E+02  0.45594000000E+02  0.51100000000E-03 0. -1.
    9900012    2    1    2    0    0 -0.37899999676E+02 -0.19302585201E+02 -0.86384849198E+01  0.47787271980E+02  0.20000004268E+02 0.  0.
        -12    1    1    2    0    0  0.37899999676E+02  0.19302585201E+02  0.86384849198E+01  0.43400728020E+02  0.00000000000E+00 0.  1.
         11    1    3    3    0    0 -0.17670651969E+02 -0.76411661367E+01 -0.56548461270E+01  0.20065309515E+02  0.51100000000E-03 0. -1.
        -11    1    3    3    0    0 -0.19014285239E+02 -0.38918666836E+01 -0.29395124005E+00  0.19410720673E+02  0.51100000000E-03 0.  1.
         12    1    3    3    0    0 -0.12150624674E+01 -0.77695523811E+01 -0.26896875527E+01  0.83112417925E+01  0.00000000000E+00 0. -1.
</event>
<event>
 7    1  0.1714203E-010  0.4778728E+02  0.7816164E-02  0.1312668E+00
        -11   -1    0    0    0    0  0.00000000000E+00  0.00000000000E+00  0.45593999997E+02  0.45594000000E+02  0.51100000000E-03 0.  1.
         11   -1    0    0    0    0 -0.00000000000E+00 -0.00000000000E+00 -0.45593999997E+02  0.45594000000E+02  0.51100000000E-03 0. -1.
    9900012    2    1    2    0    0  0.26237056490E+02  0.33986639044E+02 -0.63362508117E+01  0.47787276030E+02  0.20000022733E+02 0.  0.
        -12    1    1    2    0    0 -0.26237056490E+02 -0.33986639044E+02  0.63362508117E+01  0.43400723970E+02  0.00000000000E+00 0.  1.
         11    1    3    3    0    0  0.84570973849E+01  0.18952607625E+02 -0.62187506435E+01  0.21665564654E+02  0.51100000000E-03 0. -1.
        -11    1    3    3    0    0  0.18576574820E+02  0.16034127348E+02  0.79275154023E+00  0.24552206156E+02  0.51100000000E-03 0.  1.
        -12    1    3    3    0    0 -0.79661571479E+00 -0.10000959292E+01 -0.91025170843E+00  0.15695052205E+01  0.00000000000E+00 0.  1.
</event>
<event>
 7    1  0.1714203E-010  0.4778727E+02  0.7816164E-02  0.1312668E+00
        -11   -1    0    0    0    0  0.00000000000E+00  0.00000000000E+00  0.45593999997E+02  0.45594000000E+02  0.51100000000E-03 0.  1.
         11   -1    0    0    0    0 -0.00000000000E+00 -0.00000000000E+00 -0.45593999997E+02  0.45594000000E+02  0.51100000000E-03 0. -1.
    9900012    2    1    2    0    0  0.14508224953E+00  0.29303114575E+02 -0.32014523351E+02  0.47787270996E+02  0.19999999778E+02 0.  0.
        -12    1    1    2    0    0 -0.14508224953E+00 -0.29303114575E+02  0.32014523351E+02  0.43400729004E+02  0.00000000000E+00 0.  1.
         11    1    3    3    0    0  0.31973816907E+01  0.17539203641E+02 -0.22021409740E+02  0.28333538453E+02  0.51100000000E-03 0. -1.
        -11    1    3    3    0    0 -0.56647333635E+01  0.44551185158E+01 -0.91486921096E+01  0.11646280636E+02  0.51100000000E-03 0.  1.
        -12    1    3    3    0    0  0.26124339223E+01  0.73087924183E+01 -0.84442150167E+00  0.78074519073E+01  0.00000000000E+00 0.  1.
</event>
<event>
 7    1  0.1714203E-010  0.4778727E+02  0.7816164E-02  0.1312668E+00
        -11   -1    0    0    0    0  0.00000000000E+00  0.00000000000E+00  0.45593999997E+02  0.45594000000E+02  0.51100000000E-03 0.  1.
         11   -1    0    0    0    0 -0.00000000000E+00 -0.00000000000E+00 -0.45593999997E+02  0.45594000000E+02  0.51100000000E-03 0. -1.
    9900012    2    1    2    0    0 -0.39254387815E+02 -0.18421130452E+02  0.18380239692E+01  0.47787270260E+02  0.19999996422E+02 0.  0.
        -12    1    1    2    0    0  0.39254387815E+02  0.18421130452E+02 -0.18380239692E+01  0.43400729740E+02  0.00000000000E+00 0.  1.
         11    1    3    3    0    0 -0.11873418629E+02  0.92436897961E+00 -0.17912628681E+01  0.12043303155E+02  0.51100000000E-03 0. -1.
        -11    1    3    3    0    0 -0.26350110776E+02 -0.13814236964E+02  0.43628322492E+01  0.30069848459E+02  0.51100000000E-03 0.  1.
        -12    1    3    3    0    0 -0.10308584101E+01 -0.55312624670E+01 -0.73354541188E+00  0.56741186463E+01  0.00000000000E+00 0.  1.
</event>
<event>
 7    1  0.1714203E-010  0.4778727E+02  0.7816164E-02  0.1312668E+00
        -11   -1    0    0    0    0  0.00000000000E+00  0.00000000000E+00  0.45593999997E+02  0.45594000000E+02  0.51100000000E-03 0.  1.
         11   -1    0    0    0    0 -0.00000000000E+00 -0.00000000000E+00 -0.45593999997E+02  0.45594000000E+02  0.51100000000E-03 0. -1.
    9900012    2    1    2    0    0 -0.53523099481E+00  0.26889707720E+02 -0.34062894024E+02  0.47787267255E+02  0.19999982724E+02 0.  0.
        -12    1    1    2    0    0  0.53523099481E+00 -0.26889707720E+02  0.34062894024E+02  0.43400732745E+02  0.00000000000E+00 0.  1.
         11    1    3    3    0    0  0.80113485542E+01  0.13600799994E+02 -0.18332274570E+02  0.24191646436E+02  0.51100000000E-03 0.  1.
        -11    1    3    3    0    0 -0.14991589540E+01  0.15173873455E+01  0.64855356525E+00  0.22294761524E+01  0.51100000000E-03 0. -1.
         12    1    3    3    0    0 -0.70474205950E+01  0.11771520380E+02 -0.16379173020E+02  0.21366144667E+02  0.00000000000E+00 0. -1.
</event>
<event>
 7    1  0.1714203E-010  0.4778727E+02  0.7816164E-02  0.1312668E+00
        -11   -1    0    0    0    0  0.00000000000E+00  0.00000000000E+00  0.45593999997E+02  0.45594000000E+02  0.51100000000E-03 0.  1.
         11   -1    0    0    0    0 -0.00000000000E+00 -0.00000000000E+00 -0.45593999997E+02  0.45594000000E+02  0.51100000000E-03 0. -1.
    9900012    2    1    2    0    0 -0.13995604396E+01  0.41286112325E+02 -0.13308706129E+02  0.47787268449E+02  0.19999988166E+02 0.  0.
        -12    1    1    2    0    0  0.13995604396E+01 -0.41286112325E+02  0.13308706129E+02  0.43400731551E+02  0.00000000000E+00 0.  1.
         11    1    3    3    0    0 -0.39012107734E+01  0.29395571506E+02 -0.11770245574E+02  0.31903883005E+02  0.51100000000E-03 0. -1.
        -11    1    3    3    0    0 -0.20855259738E+01 -0.63862177272E+00 -0.12992256730E+01  0.25387485039E+01  0.51100000000E-03 0.  1.
        -12    1    3    3    0    0  0.45871763076E+01  0.12529162591E+02 -0.23923488225E+00  0.13344636940E+02  0.00000000000E+00 0.  1.
</event>
<event>
 7    1  0.1714203E-010  0.4778727E+02  0.7816164E-02  0.1312668E+00
        -11   -1    0    0    0    0  0.00000000000E+00  0.00000000000E+00  0.45593999997E+02  0.45594000000E+02  0.51100000000E-03 0.  1.
         11   -1    0    0    0    0 -0.00000000000E+00 -0.00000000000E+00 -0.45593999997E+02  0.45594000000E+02  0.51100000000E-03 0. -1.
    9900012    2    1    2    0    0 -0.35384428444E+02 -0.16308466125E+02  0.19120656953E+02  0.47787269983E+02  0.19999995160E+02 0.  0.
        -12    1    1    2    0    0  0.35384428444E+02  0.16308466125E+02 -0.19120656953E+02  0.43400730017E+02  0.00000000000E+00 0.  1.
         11    1    3    3    0    0 -0.44122217521E+01 -0.78919194158E+01  0.40084639190E+01  0.98902920132E+01  0.51100000000E-03 0. -1.
        -11    1    3    3    0    0 -0.84420934945E+01  0.14485212439E+01  0.92620345679E+01  0.12615563442E+02  0.51100000000E-03 0.  1.
         12    1    3    3    0    0 -0.22530113198E+02 -0.98650679535E+01  0.58501584665E+01  0.25281414527E+02  0.00000000000E+00 0. -1.
</event>
<event>
 7    1  0.1714203E-010  0.4778728E+02  0.7816164E-02  0.1312668E+00
        -11   -1    0    0    0    0  0.00000000000E+00  0.00000000000E+00  0.45593999997E+02  0.45594000000E+02  0.51100000000E-03 0.  1.
         11   -1    0    0    0    0 -0.00000000000E+00 -0.00000000000E+00 -0.45593999997E+02  0.45594000000E+02  0.51100000000E-03 0. -1.
    9900012    2    1    2    0    0  0.26405462356E+02  0.27845532398E+02 -0.20273152667E+02  0.47787276091E+02  0.20000023008E+02 0.  0.
        -12    1    1    2    0    0 -0.26405462356E+02 -0.27845532398E+02  0.20273152667E+02  0.43400723909E+02  0.00000000000E+00 0.  1.
         11    1    3    3    0    0  0.16221067957E+02  0.19353667487E+02 -0.12981098431E+02  0.28393598004E+02  0.51100000000E-03 0. -1.
        -11    1    3    3    0    0  0.10139218457E+02  0.91733102954E+01 -0.17210610274E+01  0.13780980517E+02  0.51100000000E-03 0.  1.
        -12    1    3    3    0    0  0.45175941865E-01 -0.68144538372E+00 -0.55709932090E+01  0.56126975700E+01  0.00000000000E+00 0.  1.
</event>
<event>
 7    1  0.1714203E-010  0.4778727E+02  0.7816164E-02  0.1312668E+00
        -11   -1    0    0    0    0  0.00000000000E+00  0.00000000000E+00  0.45593999997E+02  0.45594000000E+02  0.51100000000E-03 0.  1.
         11   -1    0    0    0    0 -0.00000000000E+00 -0.00000000000E+00 -0.45593999997E+02  0.45594000000E+02  0.51100000000E-03 0. -1.
    9900012    2    1    2    0    0  0.35440124098E+02 -0.25052093866E+02  0.11493100628E+00  0.47787274059E+02  0.20000013743E+02 0.  0.
        -12    1    1    2    0    0 -0.35440124098E+02  0.25052093866E+02 -0.11493100628E+00  0.43400725941E+02  0.00000000000E+00 0.  1.
         11    1    3    3    0    0  0.27838426946E+02 -0.21582391035E+02 -0.41596987202E+01  0.35469433479E+02  0.51100000000E-03 0. -1.
        -11    1    3    3    0    0 -0.81830089030E+00 -0.22204807682E+01 -0.68830870053E+00  0.24645324744E+01  0.51100000000E-03 0.  1.
         12    1    3    3    0    0  0.84199980415E+01 -0.12492220626E+01  0.49629384270E+01  0.98533081050E+01  0.00000000000E+00 0. -1.
</event>
<event>
 7    1  0.1714203E-010  0.4778727E+02  0.7816164E-02  0.1312668E+00
        -11   -1    0    0    0    0  0.00000000000E+00  0.00000000000E+00  0.45593999997E+02  0.45594000000E+02  0.51100000000E-03 0.  1.
         11   -1    0    0    0    0 -0.00000000000E+00 -0.00000000000E+00 -0.45593999997E+02  0.45594000000E+02  0.51100000000E-03 0. -1.
    9900012    2    1    2    0    0 -0.16940384600E+02 -0.10937723462E+02 -0.38431926393E+02  0.47787269693E+02  0.19999993837E+02 0.  0.
        -12    1    1    2    0    0  0.16940384600E+02  0.10937723462E+02  0.38431926393E+02  0.43400730307E+02  0.00000000000E+00 0.  1.
         11    1    3    3    0    0 -0.84150200161E+01 -0.24843500643E+01 -0.30760862464E+02  0.31987735414E+02  0.51100000000E-03 0. -1.
        -11    1    3    3    0    0  0.10096243314E+00 -0.52592118075E+00  0.10604412595E+01  0.11879909205E+01  0.51100000000E-03 0.  1.
         12    1    3    3    0    0 -0.86263270173E+01 -0.79274522171E+01 -0.87315051881E+01  0.14611543358E+02  0.00000000000E+00 0. -1.
</event>
<event>
 7    1  0.1714203E-010  0.4778730E+02  0.7816164E-02  0.1312668E+00
        -11   -1    0    0    0    0  0.00000000000E+00  0.00000000000E+00  0.45593999997E+02  0.45594000000E+02  0.51100000000E-03 0. -1.
         11   -1    0    0    0    0 -0.00000000000E+00 -0.00000000000E+00 -0.45593999997E+02  0.45594000000E+02  0.51100000000E-03 0.  1.
    9900012    2    1    2    0    0 -0.63156951869E+01 -0.39987179097E+02  0.15644749628E+02  0.47787300827E+02  0.20000135789E+02 0.  0.
        -12    1    1    2    0    0  0.63156951869E+01  0.39987179097E+02 -0.15644749628E+02  0.43400699173E+02  0.00000000000E+00 0.  1.
         11    1    3    3    0    0  0.93093866714E+00 -0.11551076714E+02  0.26919697896E+01  0.11897088790E+02  0.51100000000E-03 0. -1.
        -11    1    3    3    0    0  0.31986781591E+01 -0.18895550687E+02  0.91774104989E+01  0.21248487980E+02  0.51100000000E-03 0.  1.
        -12    1    3    3    0    0 -0.10445312013E+02 -0.95405516956E+01  0.37753693397E+01  0.14641724057E+02  0.00000000000E+00 0.  1.
</event>
<event>
 7    1  0.1714203E-010  0.4778728E+02  0.7816164E-02  0.1312668E+00
        -11   -1    0    0    0    0  0.00000000000E+00  0.00000000000E+00  0.45593999997E+02  0.45594000000E+02  0.51100000000E-03 0.  1.
         11   -1    0    0    0    0 -0.00000000000E+00 -0.00000000000E+00 -0.45593999997E+02  0.45594000000E+02  0.51100000000E-03 0. -1.
    9900012    2    1    2    0    0  0.90643417785E+01 -0.17039484571E+02 -0.38873076686E+02  0.47787280912E+02  0.20000044990E+02 0.  0.
        -12    1    1    2    0    0 -0.90643417785E+01  0.17039484571E+02  0.38873076686E+02  0.43400719088E+02  0.00000000000E+00 0.  1.
         11    1    3    3    0    0  0.48234507048E+01 -0.41806673160E+00 -0.17484612993E+02  0.18142550765E+02  0.51100000000E-03 0.  1.
        -11    1    3    3    0    0  0.45817514630E+01 -0.70702626362E+01 -0.17314393500E+02  0.19255370231E+02  0.51100000000E-03 0. -1.
        -12    1    3    3    0    0 -0.34086038926E+00 -0.95511552035E+01 -0.40740701938E+01  0.10389359916E+02  0.00000000000E+00 0.  1.
</event>
<event>
 7    1  0.1714203E-010  0.4778727E+02  0.7816164E-02  0.1312668E+00
        -11   -1    0    0    0    0  0.00000000000E+00  0.00000000000E+00  0.45593999997E+02  0.45594000000E+02  0.51100000000E-03 0.  1.
         11   -1    0    0    0    0 -0.00000000000E+00 -0.00000000000E+00 -0.45593999997E+02  0.45594000000E+02  0.51100000000E-03 0. -1.
    9900012    2    1    2    0    0  0.72753254740E+01  0.42206276806E+02  0.70230442125E+01  0.47787270598E+02  0.19999997966E+02 0.  0.
        -12    1    1    2    0    0 -0.72753254740E+01 -0.42206276806E+02 -0.70230442125E+01  0.43400729402E+02  0.00000000000E+00 0.  1.
         11    1    3    3    0    0  0.10075205649E+02  0.30294723469E+02  0.11778917069E+01  0.31947886754E+02  0.51100000000E-03 0. -1.
        -11    1    3    3    0    0  0.60256493256E+00  0.64488955085E+01 -0.87365388322E+00  0.65356414487E+01  0.51100000000E-03 0.  1.
        -12    1    3    3    0    0 -0.34024451080E+01  0.54626578288E+01  0.67188063888E+01  0.93037423953E+01  0.00000000000E+00 0.  1.
</event>
<event>
 7    1  0.1714203E-010  0.4778727E+02  0.7816164E-02  0.1312668E+00
        -11   -1    0    0    0    0  0.00000000000E+00  0.00000000000E+00  0.45593999997E+02  0.45594000000E+02  0.51100000000E-03 0.  1.
         11   -1    0    0    0    0 -0.00000000000E+00 -0.00000000000E+00 -0.45593999997E+02  0.45594000000E+02  0.51100000000E-03 0. -1.
    9900012    2    1    2    0    0  0.12599713871E+02  0.32811512689E+02 -0.25461246899E+02  0.47787271339E+02  0.20000001345E+02 0.  0.
        -12    1    1    2    0    0 -0.12599713871E+02 -0.32811512689E+02  0.25461246899E+02  0.43400728661E+02  0.00000000000E+00 0.  1.
         11    1    3    3    0    0  0.71014262916E+00  0.16628493171E+02 -0.17506741204E+02  0.24155684125E+02  0.51100000000E-03 0. -1.
        -11    1    3    3    0    0  0.18847617274E+01 -0.11595511670E+01 -0.10832576486E+01  0.24638045930E+01  0.51100000000E-03 0.  1.
        -12    1    3    3    0    0  0.10004809514E+02  0.17342570685E+02 -0.68712480466E+01  0.21167782621E+02  0.00000000000E+00 0.  1.
</event>
<event>
 7    1  0.1714203E-010  0.4778729E+02  0.7816164E-02  0.1312668E+00
        -11   -1    0    0    0    0  0.00000000000E+00  0.00000000000E+00  0.45593999997E+02  0.45594000000E+02  0.51100000000E-03 0.  1.
         11   -1    0    0    0    0 -0.00000000000E+00 -0.00000000000E+00 -0.45593999997E+02  0.45594000000E+02  0.51100000000E-03 0. -1.
    9900012    2    1    2    0    0 -0.41278353748E+02 -0.60384096310E+01 -0.11968992046E+02  0.47787289757E+02  0.20000085317E+02 0.  0.
        -12    1    1    2    0    0  0.41278353748E+02  0.60384096310E+01  0.11968992046E+02  0.43400710243E+02  0.00000000000E+00 0.  1.
         11    1    3    3    0    0 -0.59717978988E+01  0.66045982537E+00  0.25127611893E+01  0.65124915647E+01  0.51100000000E-03 0. -1.
        -11    1    3    3    0    0 -0.90985930163E+01 -0.76839106258E+01 -0.77140567855E+01  0.14189205395E+02  0.51100000000E-03 0.  1.
         12    1    3    3    0    0 -0.26207962833E+02  0.98504116940E+00 -0.67676964497E+01  0.27085592798E+02  0.00000000000E+00 0. -1.
</event>
<event>
 7    1  0.1714203E-010  0.4778728E+02  0.7816164E-02  0.1312668E+00
        -11   -1    0    0    0    0  0.00000000000E+00  0.00000000000E+00  0.45593999997E+02  0.45594000000E+02  0.51100000000E-03 0.  1.
         11   -1    0    0    0    0 -0.00000000000E+00 -0.00000000000E+00 -0.45593999997E+02  0.45594000000E+02  0.51100000000E-03 0. -1.
    9900012    2    1    2    0    0 -0.12093547896E+02  0.87119447295E+01 -0.40761141034E+02  0.47787279959E+02  0.20000040645E+02 0.  0.
        -12    1    1    2    0    0  0.12093547896E+02 -0.87119447295E+01  0.40761141034E+02  0.43400720041E+02  0.00000000000E+00 0.  1.
         11    1    3    3    0    0 -0.91735280637E+01 -0.44171470580E+00 -0.16614683118E+02  0.18984109787E+02  0.51100000000E-03 0. -1.
        -11    1    3    3    0    0  0.24573165854E+01 -0.11009525221E+00 -0.80467530022E-01  0.24610975295E+01  0.51100000000E-03 0.  1.
        -12    1    3    3    0    0 -0.53773364181E+01  0.92637546875E+01 -0.24065990386E+02  0.26342072643E+02  0.00000000000E+00 0.  1.
</event>
<event>
 7    1  0.1714203E-010  0.4778727E+02  0.7816164E-02  0.1312668E+00
        -11   -1    0    0    0    0  0.00000000000E+00  0.00000000000E+00  0.45593999997E+02  0.45594000000E+02  0.51100000000E-03 0.  1.
         11   -1    0    0    0    0 -0.00000000000E+00 -0.00000000000E+00 -0.45593999997E+02  0.45594000000E+02  0.51100000000E-03 0. -1.
    9900012    2    1    2    0    0 -0.24860603207E+01 -0.38679397357E+02 -0.19528117794E+02  0.47787266592E+02  0.19999979699E+02 0.  0.
        -12    1    1    2    0    0  0.24860603207E+01  0.38679397357E+02  0.19528117794E+02  0.43400733408E+02  0.00000000000E+00 0.  1.
         11    1    3    3    0    0 -0.20448243608E+01 -0.64102449089E+01 -0.84309361807E+01  0.10786715515E+02  0.51100000000E-03 0. -1.
        -11    1    3    3    0    0  0.69517345275E-01 -0.64309392392E+01  0.34976377365E+01  0.73208798758E+01  0.51100000000E-03 0.  1.
         12    1    3    3    0    0 -0.51075330520E+00 -0.25838213209E+02 -0.14594819350E+02  0.29679671201E+02  0.00000000000E+00 0. -1.
</event>
<event>
 7    1  0.1714203E-010  0.4778727E+02  0.7816164E-02  0.1312668E+00
        -11   -1    0    0    0    0  0.00000000000E+00  0.00000000000E+00  0.45593999997E+02  0.45594000000E+02  0.51100000000E-03 0. -1.
         11   -1    0    0    0    0 -0.00000000000E+00 -0.00000000000E+00 -0.45593999997E+02  0.45594000000E+02  0.51100000000E-03 0.  1.
    9900012    2    1    2    0    0 -0.40151534952E+02 -0.23547963837E+01  0.16307434770E+02  0.47787271276E+02  0.20000001057E+02 0.  0.
        -12    1    1    2    0    0  0.40151534952E+02  0.23547963837E+01 -0.16307434770E+02  0.43400728724E+02  0.00000000000E+00 0.  1.
         11    1    3    3    0    0 -0.41499238599E+01  0.18435368066E+01  0.13347763260E+01  0.47330882204E+01  0.51100000000E-03 0. -1.
        -11    1    3    3    0    0 -0.33948830821E+00  0.18595407662E+01 -0.22931841367E+01  0.29718408299E+01  0.51100000000E-03 0.  1.
        -12    1    3    3    0    0 -0.35662122783E+02 -0.60578739564E+01  0.17265842581E+02  0.40082342226E+02  0.00000000000E+00 0.  1.
</event>
<event>
 7    1  0.1714203E-010  0.4778727E+02  0.7816164E-02  0.1312668E+00
        -11   -1    0    0    0    0  0.00000000000E+00  0.00000000000E+00  0.45593999997E+02  0.45594000000E+02  0.51100000000E-03 0. -1.
         11   -1    0    0    0    0 -0.00000000000E+00 -0.00000000000E+00 -0.45593999997E+02  0.45594000000E+02  0.51100000000E-03 0.  1.
    9900012    2    1    2    0    0 -0.56848451064E+01 -0.32036265061E+02  0.28722534790E+02  0.47787265586E+02  0.19999975111E+02 0.  0.
        -12    1    1    2    0    0  0.56848451064E+01  0.32036265061E+02 -0.28722534790E+02  0.43400734414E+02  0.00000000000E+00 0.  1.
         11    1    3    3    0    0 -0.35715173335E+01 -0.28577726799E+02  0.20566246236E+02  0.35389443194E+02  0.51100000000E-03 0.  1.
        -11    1    3    3    0    0 -0.49845143812E+01 -0.36912186381E+01  0.68316918236E+01  0.92272689396E+01  0.51100000000E-03 0. -1.
        -12    1    3    3    0    0  0.28711866083E+01  0.23268037561E+00  0.13245967297E+01  0.31705534521E+01  0.00000000000E+00 0.  1.
</event>
<event>
 7    1  0.1714203E-010  0.4778727E+02  0.7816164E-02  0.1312668E+00
        -11   -1    0    0    0    0  0.00000000000E+00  0.00000000000E+00  0.45593999997E+02  0.45594000000E+02  0.51100000000E-03 0. -1.
         11   -1    0    0    0    0 -0.00000000000E+00 -0.00000000000E+00 -0.45593999997E+02  0.45594000000E+02  0.51100000000E-03 0.  1.
    9900012    2    1    2    0    0 -0.40731704103E+02 -0.14759958267E+02 -0.25875430120E+01  0.47787268830E+02  0.19999989905E+02 0.  0.
        -12    1    1    2    0    0  0.40731704103E+02  0.14759958267E+02  0.25875430120E+01  0.43400731170E+02  0.00000000000E+00 0.  1.
         11    1    3    3    0    0 -0.13212236478E+02 -0.13410687065E+02  0.23380307012E+01  0.18970400843E+02  0.51100000000E-03 0. -1.
        -11    1    3    3    0    0 -0.36518339171E+01  0.63320751810E+00 -0.30388255261E+01  0.47928387787E+01  0.51100000000E-03 0.  1.
         12    1    3    3    0    0 -0.23867633708E+02 -0.19824787198E+01 -0.18867481870E+01  0.24024029209E+02  0.00000000000E+00 0. -1.
</event>
<event>
 7    1  0.1714203E-010  0.4778727E+02  0.7816164E-02  0.1312668E+00
        -11   -1    0    0    0    0  0.00000000000E+00  0.00000000000E+00  0.45593999997E+02  0.45594000000E+02  0.51100000000E-03 0.  1.
         11   -1    0    0    0    0 -0.00000000000E+00 -0.00000000000E+00 -0.45593999997E+02  0.45594000000E+02  0.51100000000E-03 0. -1.
    9900012    2    1    2    0    0 -0.30985119500E+02  0.12296661136E+02 -0.27790962936E+02  0.47787272743E+02  0.20000007744E+02 0.  0.
        -12    1    1    2    0    0  0.30985119500E+02 -0.12296661136E+02  0.27790962936E+02  0.43400727257E+02  0.00000000000E+00 0.  1.
         11    1    3    3    0    0 -0.15283932332E+02  0.75641331432E+01 -0.18983615778E+02  0.25518471075E+02  0.51100000000E-03 0. -1.
        -11    1    3    3    0    0 -0.95027038741E+00 -0.20433883826E+01 -0.51609853606E+01  0.56315379822E+01  0.51100000000E-03 0.  1.
        -12    1    3    3    0    0 -0.14750916780E+02  0.67759163758E+01 -0.36463617975E+01  0.16637263686E+02  0.00000000000E+00 0.  1.
</event>
<event>
 7    1  0.1714203E-010  0.4778726E+02  0.7816164E-02  0.1312668E+00
        -11   -1    0    0    0    0  0.00000000000E+00  0.00000000000E+00  0.45593999997E+02  0.45594000000E+02  0.51100000000E-03 0.  1.
         11   -1    0    0    0    0 -0.00000000000E+00 -0.00000000000E+00 -0.45593999997E+02  0.45594000000E+02  0.51100000000E-03 0. -1.
    9900012    2    1    2    0    0 -0.13531839007E+02 -0.25692423416E+02 -0.32255426193E+02  0.47787264905E+02  0.19999972008E+02 0.  0.
        -12    1    1    2    0    0  0.13531839007E+02  0.25692423416E+02  0.32255426193E+02  0.43400735095E+02  0.00000000000E+00 0.  1.
         11    1    3    3    0    0 -0.67676986123E+01 -0.77660684784E+01 -0.23502390481E+02  0.25660785700E+02  0.51100000000E-03 0. -1.
        -11    1    3    3    0    0  0.11944133828E+01 -0.49747563740E+01 -0.23959883127E+01  0.56493879815E+01  0.51100000000E-03 0.  1.
        -12    1    3    3    0    0 -0.79585537774E+01 -0.12951598563E+02 -0.63570473990E+01  0.16477091224E+02  0.00000000000E+00 0.  1.
</event>
<event>
 7    1  0.2408276E-010  0.4778728E+02  0.7816164E-02  0.1312668E+00
        -11   -1    0    0    0    0  0.00000000000E+00  0.00000000000E+00  0.45593999997E+02  0.45594000000E+02  0.51100000000E-03 0.  1.
         11   -1    0    0    0    0 -0.00000000000E+00 -0.00000000000E+00 -0.45593999997E+02  0.45594000000E+02  0.51100000000E-03 0. -1.
    9900012    2    1    2    0    0 -0.29459439720E+02  0.31446002808E+02  0.51877928381E+01  0.47787275631E+02  0.20000020911E+02 0.  0.
        -12    1    1    2    0    0  0.29459439720E+02 -0.31446002808E+02 -0.51877928381E+01  0.43400724369E+02  0.00000000000E+00 0.  1.
         11    1    3    3    0    0 -0.96619753811E+01  0.11501999844E+02  0.53991179946E+01  0.15962463596E+02  0.51100000000E-03 0. -1.
        -11    1    3    3    0    0 -0.15378337600E+02  0.18334634559E+02 -0.56971281656E+01  0.24598970737E+02  0.51100000000E-03 0.  1.
        -12    1    3    3    0    0 -0.44191267392E+01  0.16093684053E+01  0.54858030090E+01  0.72258412974E+01  0.00000000000E+00 0.  1.
</event>
<event>
 7    1  0.1714203E-010  0.4778727E+02  0.7816164E-02  0.1312668E+00
        -11   -1    0    0    0    0  0.00000000000E+00  0.00000000000E+00  0.45593999997E+02  0.45594000000E+02  0.51100000000E-03 0.  1.
         11   -1    0    0    0    0 -0.00000000000E+00 -0.00000000000E+00 -0.45593999997E+02  0.45594000000E+02  0.51100000000E-03 0. -1.
    9900012    2    1    2    0    0 -0.23318647752E+02  0.85623622381E+00 -0.36594139938E+02  0.47787267849E+02  0.19999985429E+02 0.  0.
        -12    1    1    2    0    0  0.23318647752E+02 -0.85623622381E+00  0.36594139938E+02  0.43400732151E+02  0.00000000000E+00 0.  1.
         11    1    3    3    0    0 -0.83926582774E+01 -0.42429500201E+01 -0.65585791299E+01  0.11465352079E+02  0.51100000000E-03 0. -1.
        -11    1    3    3    0    0 -0.17045052168E+02  0.60404531377E+01 -0.26064762935E+02  0.31723693742E+02  0.51100000000E-03 0.  1.
         12    1    3    3    0    0  0.21190626931E+01 -0.94126689380E+00 -0.39707978733E+01  0.45982220274E+01  0.00000000000E+00 0. -1.
</event>
<event>
 7    1  0.1714203E-010  0.4778728E+02  0.7816164E-02  0.1312668E+00
        -11   -1    0    0    0    0  0.00000000000E+00  0.00000000000E+00  0.45593999997E+02  0.45594000000E+02  0.51100000000E-03 0. -1.
         11   -1    0    0    0    0 -0.00000000000E+00 -0.00000000000E+00 -0.45593999997E+02  0.45594000000E+02  0.51100000000E-03 0.  1.
    9900012    2    1    2    0    0 -0.39373339854E+02 -0.10300657035E+02  0.15075125932E+02  0.47787275945E+02  0.20000022342E+02 0.  0.
        -12    1    1    2    0    0  0.39373339854E+02  0.10300657035E+02 -0.15075125932E+02  0.43400724055E+02  0.00000000000E+00 0.  1.
         11    1    3    3    0    0 -0.22177659022E+02 -0.51796490387E+01  0.69230919139E+01  0.23803498184E+02  0.51100000000E-03 0. -1.
        -11    1    3    3    0    0 -0.77833359713E+01 -0.39440345286E+01 -0.31063883603E+01  0.92620395222E+01  0.51100000000E-03 0.  1.
        -12    1    3    3    0    0 -0.94123448611E+01 -0.11769734681E+01  0.11258422378E+02  0.14721738239E+02  0.00000000000E+00 0.  1.
</event>
<event>
 7    1  0.1714203E-010  0.4778727E+02  0.7816164E-02  0.1312668E+00
        -11   -1    0    0    0    0  0.00000000000E+00  0.00000000000E+00  0.45593999997E+02  0.45594000000E+02  0.51100000000E-03 0. -1.
         11   -1    0    0    0    0 -0.00000000000E+00 -0.00000000000E+00 -0.45593999997E+02  0.45594000000E+02  0.51100000000E-03 0.  1.
    9900012    2    1    2    0    0  0.97385435180E+01  0.70366091588E+01  0.41704559267E+02  0.47787270029E+02  0.19999995372E+02 0.  0.
        -12    1    1    2    0    0 -0.97385435180E+01 -0.70366091588E+01 -0.41704559267E+02  0.43400729971E+02  0.00000000000E+00 0.  1.
         11    1    3    3    0    0  0.61902658044E+01  0.77220849944E+01  0.23161200742E+02  0.25187123843E+02  0.51100000000E-03 0. -1.
        -11    1    3    3    0    0 -0.37310901304E+01  0.21798548947E+01  0.31983668530E+01  0.53760907462E+01  0.51100000000E-03 0.  1.
         12    1    3    3    0    0  0.72793678440E+01 -0.28653307303E+01  0.15344991672E+02  0.17224055441E+02  0.00000000000E+00 0. -1.
</event>
<event>
 7    1  0.1714203E-010  0.4778728E+02  0.7816164E-02  0.1312668E+00
        -11   -1    0    0    0    0  0.00000000000E+00  0.00000000000E+00  0.45593999997E+02  0.45594000000E+02  0.51100000000E-03 0.  1.
         11   -1    0    0    0    0 -0.00000000000E+00 -0.00000000000E+00 -0.45593999997E+02  0.45594000000E+02  0.51100000000E-03 0. -1.
    9900012    2    1    2    0    0 -0.30001433124E+02  0.15756679411E+02  0.27115749421E+02  0.47787276478E+02  0.20000024773E+02 0.  0.
        -12    1    1    2    0    0  0.30001433124E+02 -0.15756679411E+02 -0.27115749421E+02  0.43400723522E+02  0.00000000000E+00 0.  1.
         11    1    3    3    0    0 -0.19857539009E+02  0.15553306663E+02  0.16554143718E+02  0.30170629396E+02  0.51100000000E-03 0. -1.
        -11    1    3    3    0    0 -0.11969400973E+02 -0.41479098266E+00  0.10018160349E+02  0.15614164988E+02  0.51100000000E-03 0.  1.
        -12    1    3    3    0    0  0.18255068578E+01  0.61816373126E+00  0.54344535342E+00  0.20024820944E+01  0.00000000000E+00 0.  1.
</event>
<event>
 7    1  0.1714203E-010  0.4778727E+02  0.7816164E-02  0.1312668E+00
        -11   -1    0    0    0    0  0.00000000000E+00  0.00000000000E+00  0.45593999997E+02  0.45594000000E+02  0.51100000000E-03 0. -1.
         11   -1    0    0    0    0 -0.00000000000E+00 -0.00000000000E+00 -0.45593999997E+02  0.45594000000E+02  0.51100000000E-03 0.  1.
    9900012    2    1    2    0    0 -0.27078781583E+02  0.33715711143E+02 -0.36896775205E+01  0.47787270627E+02  0.19999998098E+02 0.  0.
        -12    1    1    2    0    0  0.27078781583E+02 -0.33715711143E+02  0.36896775205E+01  0.43400729373E+02  0.00000000000E+00 0.  1.
         11    1    3    3    0    0 -0.95860798289E+01  0.19276344330E+02  0.19323049303E+01  0.21614906426E+02  0.51100000000E-03 0. -1.
        -11    1    3    3    0    0  0.97227737548E+00  0.19829174934E+01 -0.30284304504E+01  0.37481563914E+01  0.51100000000E-03 0.  1.
        -12    1    3    3    0    0 -0.18464979129E+02  0.12456449320E+02 -0.25935520004E+01  0.22424207809E+02  0.00000000000E+00 0.  1.
</event>
<event>
 7    1  0.1714203E-010  0.4778727E+02  0.7816164E-02  0.1312668E+00
        -11   -1    0    0    0    0  0.00000000000E+00  0.00000000000E+00  0.45593999997E+02  0.45594000000E+02  0.51100000000E-03 0.  1.
         11   -1    0    0    0    0 -0.00000000000E+00 -0.00000000000E+00 -0.45593999997E+02  0.45594000000E+02  0.51100000000E-03 0. -1.
    9900012    2    1    2    0    0 -0.33473848184E+02 -0.68206983712E+01 -0.26769442240E+02  0.47787268712E+02  0.19999989366E+02 0.  0.
        -12    1    1    2    0    0  0.33473848184E+02  0.68206983712E+01  0.26769442240E+02  0.43400731288E+02  0.00000000000E+00 0.  1.
         11    1    3    3    0    0 -0.80106594013E+01  0.82765321435E+00 -0.82265566781E+01  0.11512250385E+02  0.51100000000E-03 0. -1.
        -11    1    3    3    0    0 -0.17366682789E+02 -0.12005322967E+02 -0.87829921338E+01  0.22866359608E+02  0.51100000000E-03 0.  1.
        -12    1    3    3    0    0 -0.80965059929E+01  0.43569713817E+01 -0.97598934278E+01  0.13408658719E+02  0.00000000000E+00 0.  1.
</event>
<event>
 7    1  0.1714203E-010  0.4778727E+02  0.7816164E-02  0.1312668E+00
        -11   -1    0    0    0    0  0.00000000000E+00  0.00000000000E+00  0.45593999997E+02  0.45594000000E+02  0.51100000000E-03 0.  1.
         11   -1    0    0    0    0 -0.00000000000E+00 -0.00000000000E+00 -0.45593999997E+02  0.45594000000E+02  0.51100000000E-03 0. -1.
    9900012    2    1    2    0    0 -0.21946633433E+02 -0.63615722536E+01 -0.36898493963E+02  0.47787272157E+02  0.20000005074E+02 0.  0.
        -12    1    1    2    0    0  0.21946633433E+02  0.63615722536E+01  0.36898493963E+02  0.43400727843E+02  0.00000000000E+00 0.  1.
         11    1    3    3    0    0 -0.67725292381E+01 -0.61415618657E+01 -0.56959932807E+01  0.10771734965E+02  0.51100000000E-03 0. -1.
        -11    1    3    3    0    0 -0.11851815008E+02 -0.39871533153E+01 -0.28901690091E+02  0.31490801847E+02  0.51100000000E-03 0.  1.
        -12    1    3    3    0    0 -0.33222891860E+01  0.37671429275E+01 -0.23008105907E+01  0.55247353462E+01  0.00000000000E+00 0.  1.
</event>
<event>
 7    1  0.1714203E-010  0.4778727E+02  0.7816164E-02  0.1312668E+00
        -11   -1    0    0    0    0  0.00000000000E+00  0.00000000000E+00  0.45593999997E+02  0.45594000000E+02  0.51100000000E-03 0.  1.
         11   -1    0    0    0    0 -0.00000000000E+00 -0.00000000000E+00 -0.45593999997E+02  0.45594000000E+02  0.51100000000E-03 0. -1.
    9900012    2    1    2    0    0  0.17688509266E+00  0.43208418097E+02 -0.40773146334E+01  0.47787272156E+02  0.20000005068E+02 0.  0.
        -12    1    1    2    0    0 -0.17688509266E+00 -0.43208418097E+02  0.40773146334E+01  0.43400727844E+02  0.00000000000E+00 0.  1.
         11    1    3    3    0    0  0.32982685177E+01  0.26754480021E+02 -0.12098553980E+01  0.26984153252E+02  0.51100000000E-03 0. -1.
        -11    1    3    3    0    0  0.25570566042E+01 -0.54543586763E+00 -0.93411458393E+00  0.27764382002E+01  0.51100000000E-03 0.  1.
         12    1    3    3    0    0 -0.56784400293E+01  0.16999373944E+02 -0.19333446515E+01  0.18026680703E+02  0.00000000000E+00 0. -1.
</event>
<event>
 7    1  0.1714203E-010  0.4778727E+02  0.7816164E-02  0.1312668E+00
        -11   -1    0    0    0    0  0.00000000000E+00  0.00000000000E+00  0.45593999997E+02  0.45594000000E+02  0.51100000000E-03 0. -1.
         11   -1    0    0    0    0 -0.00000000000E+00 -0.00000000000E+00 -0.45593999997E+02  0.45594000000E+02  0.51100000000E-03 0.  1.
    9900012    2    1    2    0    0  0.23966756224E+02  0.25028151577E+02  0.26130624351E+02  0.47787270695E+02  0.19999998406E+02 0.  0.
        -12    1    1    2    0    0 -0.23966756224E+02 -0.25028151577E+02 -0.26130624351E+02  0.43400729305E+02  0.00000000000E+00 0.  1.
         11    1    3    3    0    0  0.94555769757E+01  0.58042420074E+01  0.31579538895E+01  0.11535589896E+02  0.51100000000E-03 0. -1.
        -11    1    3    3    0    0  0.53216227209E+01  0.17318697571E+02  0.11628167983E+02  0.21528382309E+02  0.51100000000E-03 0.  1.
        -12    1    3    3    0    0  0.91895565279E+01  0.19052119985E+01  0.11344502478E+02  0.14723298490E+02  0.00000000000E+00 0.  1.
</event>
<event>
 7    1  0.1714203E-010  0.4778727E+02  0.7816164E-02  0.1312668E+00
        -11   -1    0    0    0    0  0.00000000000E+00  0.00000000000E+00  0.45593999997E+02  0.45594000000E+02  0.51100000000E-03 0.  1.
         11   -1    0    0    0    0 -0.00000000000E+00 -0.00000000000E+00 -0.45593999997E+02  0.45594000000E+02  0.51100000000E-03 0. -1.
    9900012    2    1    2    0    0 -0.34602443811E+02  0.17601134563E+02 -0.19403456829E+02  0.47787271982E+02  0.20000004273E+02 0.  0.
        -12    1    1    2    0    0  0.34602443811E+02 -0.17601134563E+02  0.19403456829E+02  0.43400728018E+02  0.00000000000E+00 0.  1.
         11    1    3    3    0    0 -0.28854614030E+02  0.15667113899E+02 -0.11893952232E+02  0.34921530733E+02  0.51100000000E-03 0. -1.
        -11    1    3    3    0    0 -0.61744829157E+01 -0.19735819163E+00 -0.84747884885E+01  0.10487384313E+02  0.51100000000E-03 0.  1.
        -12    1    3    3    0    0  0.42665313526E+00  0.21313788559E+01  0.96528389134E+00  0.23783569362E+01  0.00000000000E+00 0.  1.
</event>
<event>
 7    1  0.1714203E-010  0.4778728E+02  0.7816164E-02  0.1312668E+00
        -11   -1    0    0    0    0  0.00000000000E+00  0.00000000000E+00  0.45593999997E+02  0.45594000000E+02  0.51100000000E-03 0.  1.
         11   -1    0    0    0    0 -0.00000000000E+00 -0.00000000000E+00 -0.45593999997E+02  0.45594000000E+02  0.51100000000E-03 0. -1.
    9900012    2    1    2    0    0 -0.39328596175E+02 -0.18278087890E+02 -0.16719716554E+01  0.47787280383E+02  0.20000042580E+02 0.  0.
        -12    1    1    2    0    0  0.39328596175E+02  0.18278087890E+02  0.16719716554E+01  0.43400719617E+02  0.00000000000E+00 0.  1.
         11    1    3    3    0    0 -0.27371264209E+02 -0.58247396156E+01  0.44092300404E+01  0.28329401790E+02  0.51100000000E-03 0. -1.
        -11    1    3    3    0    0 -0.10442914012E+01 -0.14722079268E+01 -0.32528007378E+01  0.37200340874E+01  0.51100000000E-03 0.  1.
         12    1    3    3    0    0 -0.10913040565E+02 -0.10981140348E+02 -0.28284009579E+01  0.15737844506E+02  0.00000000000E+00 0. -1.
</event>
<event>
 7    1  0.1714203E-010  0.4778727E+02  0.7816164E-02  0.1312668E+00
        -11   -1    0    0    0    0  0.00000000000E+00  0.00000000000E+00  0.45593999997E+02  0.45594000000E+02  0.51100000000E-03 0. -1.
         11   -1    0    0    0    0 -0.00000000000E+00 -0.00000000000E+00 -0.45593999997E+02  0.45594000000E+02  0.51100000000E-03 0.  1.
    9900012    2    1    2    0    0 -0.81632879303E+01  0.37179907737E+02  0.20847989720E+02  0.47787268618E+02  0.19999988935E+02 0.  0.
        -12    1    1    2    0    0  0.81632879303E+01 -0.37179907737E+02 -0.20847989720E+02  0.43400731382E+02  0.00000000000E+00 0.  1.
         11    1    3    3    0    0  0.16699514660E+01  0.13727689221E+02  0.28548375490E+01  0.14120491739E+02  0.51100000000E-03 0. -1.
        -11    1    3    3    0    0 -0.19799576448E+01 -0.13245978377E+01  0.22635985505E+01  0.32861330414E+01  0.51100000000E-03 0.  1.
         12    1    3    3    0    0 -0.78532817516E+01  0.24776816353E+02  0.15729553620E+02  0.30380643837E+02  0.00000000000E+00 0. -1.
</event>
<event>
 7    1  0.1714203E-010  0.4778727E+02  0.7816164E-02  0.1312668E+00
        -11   -1    0    0    0    0  0.00000000000E+00  0.00000000000E+00  0.45593999997E+02  0.45594000000E+02  0.51100000000E-03 0. -1.
         11   -1    0    0    0    0 -0.00000000000E+00 -0.00000000000E+00 -0.45593999997E+02  0.45594000000E+02  0.51100000000E-03 0.  1.
    9900012    2    1    2    0    0 -0.47203067081E+01  0.40385198669E+02  0.15178204775E+02  0.47787268818E+02  0.19999989848E+02 0.  0.
        -12    1    1    2    0    0  0.47203067081E+01 -0.40385198669E+02 -0.15178204775E+02  0.43400731182E+02  0.00000000000E+00 0.  1.
         11    1    3    3    0    0 -0.47948430099E-01  0.12224238739E+02 -0.10197152501E+01  0.12266789769E+02  0.51100000000E-03 0. -1.
        -11    1    3    3    0    0 -0.75763058999E+01  0.72913316448E+01  0.60831597328E+01  0.12147788311E+02  0.51100000000E-03 0.  1.
         12    1    3    3    0    0  0.29039476219E+01  0.20869628285E+02  0.10114760292E+02  0.23372690738E+02  0.00000000000E+00 0. -1.
</event>
<event>
 7    1  0.1714203E-010  0.4778727E+02  0.7816164E-02  0.1312668E+00
        -11   -1    0    0    0    0  0.00000000000E+00  0.00000000000E+00  0.45593999997E+02  0.45594000000E+02  0.51100000000E-03 0.  1.
         11   -1    0    0    0    0 -0.00000000000E+00 -0.00000000000E+00 -0.45593999997E+02  0.45594000000E+02  0.51100000000E-03 0. -1.
    9900012    2    1    2    0    0 -0.12248574030E+02  0.24055230764E+02 -0.33984429157E+02  0.47787272840E+02  0.20000008186E+02 0.  0.
        -12    1    1    2    0    0  0.12248574030E+02 -0.24055230764E+02  0.33984429157E+02  0.43400727160E+02  0.00000000000E+00 0.  1.
         11    1    3    3    0    0  0.21045996533E+00 -0.51760431173E+00  0.60116209160E+00  0.82073366083E+00  0.51100000000E-03 0. -1.
        -11    1    3    3    0    0 -0.22147057660E+01 -0.13884388342E+01 -0.11849226475E+00  0.26166246777E+01  0.51100000000E-03 0.  1.
         12    1    3    3    0    0 -0.10244328229E+02  0.25961273910E+02 -0.34467098984E+02  0.44349914501E+02  0.00000000000E+00 0. -1.
</event>
<event>
 7    1  0.1714203E-010  0.4778727E+02  0.7816164E-02  0.1312668E+00
        -11   -1    0    0    0    0  0.00000000000E+00  0.00000000000E+00  0.45593999997E+02  0.45594000000E+02  0.51100000000E-03 0.  1.
         11   -1    0    0    0    0 -0.00000000000E+00 -0.00000000000E+00 -0.45593999997E+02  0.45594000000E+02  0.51100000000E-03 0. -1.
    9900012    2    1    2    0    0 -0.37660434772E+02  0.13319098859E+02 -0.16968100663E+02  0.47787272106E+02  0.20000004840E+02 0.  0.
        -12    1    1    2    0    0  0.37660434772E+02 -0.13319098859E+02  0.16968100663E+02  0.43400727894E+02  0.00000000000E+00 0.  1.
         11    1    3    3    0    0 -0.14590948653E+02  0.55452529063E+01  0.16381653214E+01  0.15694878090E+02  0.51100000000E-03 0. -1.
        -11    1    3    3    0    0 -0.13816452301E+02  0.94021908803E+01 -0.11041565404E+02  0.20030269952E+02  0.51100000000E-03 0.  1.
        -12    1    3    3    0    0 -0.92530338188E+01 -0.16283449280E+01 -0.75647005801E+01  0.12062124064E+02  0.00000000000E+00 0.  1.
</event>
<event>
 7    1  0.1714203E-010  0.4778727E+02  0.7816164E-02  0.1312668E+00
        -11   -1    0    0    0    0  0.00000000000E+00  0.00000000000E+00  0.45593999997E+02  0.45594000000E+02  0.51100000000E-03 0.  1.
         11   -1    0    0    0    0 -0.00000000000E+00 -0.00000000000E+00 -0.45593999997E+02  0.45594000000E+02  0.51100000000E-03 0. -1.
    9900012    2    1    2    0    0  0.32178693251E+00  0.40710950446E+02 -0.15037907883E+02  0.47787266060E+02  0.19999977275E+02 0.  0.
        -12    1    1    2    0    0 -0.32178693251E+00 -0.40710950446E+02  0.15037907883E+02  0.43400733940E+02  0.00000000000E+00 0.  1.
         11    1    3    3    0    0  0.18091325231E+01  0.28755377120E+02 -0.83381418918E+01  0.29994487564E+02  0.51100000000E-03 0. -1.
        -11    1    3    3    0    0 -0.54224653693E+01  0.91688161856E+01 -0.15955392763E+01  0.10771075470E+02  0.51100000000E-03 0.  1.
         12    1    3    3    0    0  0.39351197787E+01  0.27867571404E+01 -0.51042267147E+01  0.70217030261E+01  0.00000000000E+00 0. -1.
</event>
<event>
 7    1  0.1714203E-010  0.4778727E+02  0.7816164E-02  0.1312668E+00
        -11   -1    0    0    0    0  0.00000000000E+00  0.00000000000E+00  0.45593999997E+02  0.45594000000E+02  0.51100000000E-03 0.  1.
         11   -1    0    0    0    0 -0.00000000000E+00 -0.00000000000E+00 -0.45593999997E+02  0.45594000000E+02  0.51100000000E-03 0. -1.
    9900012    2    1    2    0    0  0.13511215110E+02  0.37500778986E+01 -0.41073190161E+02  0.47787274568E+02  0.20000016066E+02 0.  0.
        -12    1    1    2    0    0 -0.13511215110E+02 -0.37500778986E+01  0.41073190161E+02  0.43400725432E+02  0.00000000000E+00 0.  1.
         11    1    3    3    0    0  0.13266971117E+01  0.68183650242E+01 -0.33800571322E+01  0.77249604081E+01  0.51100000000E-03 0.  1.
        -11    1    3    3    0    0  0.70731654328E+01  0.85444874001E+00 -0.19252779914E+02  0.20528742937E+02  0.51100000000E-03 0. -1.
        -12    1    3    3    0    0  0.51113525655E+01 -0.39227358656E+01 -0.18440353115E+02  0.19533571223E+02  0.00000000000E+00 0.  1.
</event>
<event>
 7    1  0.1714203E-010  0.4778727E+02  0.7816164E-02  0.1312668E+00
        -11   -1    0    0    0    0  0.00000000000E+00  0.00000000000E+00  0.45593999997E+02  0.45594000000E+02  0.51100000000E-03 0.  1.
         11   -1    0    0    0    0 -0.00000000000E+00 -0.00000000000E+00 -0.45593999997E+02  0.45594000000E+02  0.51100000000E-03 0. -1.
    9900012    2    1    2    0    0 -0.15887685522E+00  0.37548023541E+02 -0.21765662750E+02  0.47787269723E+02  0.19999993973E+02 0.  0.
        -12    1    1    2    0    0  0.15887685522E+00 -0.37548023541E+02  0.21765662750E+02  0.43400730277E+02  0.00000000000E+00 0.  1.
         11    1    3    3    0    0 -0.14029787224E+01  0.10879479622E+02 -0.91190723899E+01  0.14264953826E+02  0.51100000000E-03 0. -1.
        -11    1    3    3    0    0  0.34080030327E+01  0.25252986187E+02 -0.15376802307E+02  0.29761952985E+02  0.51100000000E-03 0.  1.
        -12    1    3    3    0    0 -0.21639011655E+01  0.14155577313E+01  0.27302119474E+01  0.37603629110E+01  0.00000000000E+00 0.  1.
</event>
<event>
 7    1  0.1714203E-010  0.4778726E+02  0.7816164E-02  0.1312668E+00
        -11   -1    0    0    0    0  0.00000000000E+00  0.00000000000E+00  0.45593999997E+02  0.45594000000E+02  0.51100000000E-03 0.  1.
         11   -1    0    0    0    0 -0.00000000000E+00 -0.00000000000E+00 -0.45593999997E+02  0.45594000000E+02  0.51100000000E-03 0. -1.
    9900012    2    1    2    0    0  0.77704782744E+01  0.42139888235E+02 -0.68900863881E+01  0.47787264943E+02  0.19999972182E+02 0.  0.
        -12    1    1    2    0    0 -0.77704782744E+01 -0.42139888235E+02  0.68900863881E+01  0.43400735057E+02  0.00000000000E+00 0.  1.
         11    1    3    3    0    0 -0.30845694505E+01  0.98388114975E+01 -0.41915037178E+00  0.10319518771E+02  0.51100000000E-03 0. -1.
        -11    1    3    3    0    0  0.11507147809E+02  0.18848185644E+02 -0.88499856587E+01  0.23790561137E+02  0.51100000000E-03 0.  1.
         12    1    3    3    0    0 -0.65210008449E+00  0.13452891093E+02  0.23790496424E+01  0.13677185035E+02  0.00000000000E+00 0. -1.
</event>
<event>
 7    1  0.1714203E-010  0.4778727E+02  0.7816164E-02  0.1312668E+00
        -11   -1    0    0    0    0  0.00000000000E+00  0.00000000000E+00  0.45593999997E+02  0.45594000000E+02  0.51100000000E-03 0.  1.
         11   -1    0    0    0    0 -0.00000000000E+00 -0.00000000000E+00 -0.45593999997E+02  0.45594000000E+02  0.51100000000E-03 0. -1.
    9900012    2    1    2    0    0  0.27506717486E+02  0.65238308873E+01 -0.32930888099E+02  0.47787271120E+02  0.20000000345E+02 0.  0.
        -12    1    1    2    0    0 -0.27506717486E+02 -0.65238308873E+01  0.32930888099E+02  0.43400728880E+02  0.00000000000E+00 0.  1.
         11    1    3    3    0    0  0.48520359419E+01 -0.38337772190E+01 -0.10760211888E+02  0.12410570522E+02  0.51100000000E-03 0. -1.
        -11    1    3    3    0    0  0.25947692809E+01 -0.13038073874E+01 -0.71988780968E+01  0.77625116708E+01  0.51100000000E-03 0.  1.
        -12    1    3    3    0    0  0.20059912263E+02  0.11661415494E+02 -0.14971798114E+02  0.27614188927E+02  0.00000000000E+00 0.  1.
</event>
<event>
 7    1  0.1714203E-010  0.4778729E+02  0.7816164E-02  0.1312668E+00
        -11   -1    0    0    0    0  0.00000000000E+00  0.00000000000E+00  0.45593999997E+02  0.45594000000E+02  0.51100000000E-03 0. -1.
         11   -1    0    0    0    0 -0.00000000000E+00 -0.00000000000E+00 -0.45593999997E+02  0.45594000000E+02  0.51100000000E-03 0.  1.
    9900012    2    1    2    0    0  0.41801938106E+02  0.11262961258E+02 -0.30602303804E+01  0.47787293374E+02  0.20000101807E+02 0.  0.
        -12    1    1    2    0    0 -0.41801938106E+02 -0.11262961258E+02  0.30602303804E+01  0.43400706626E+02  0.00000000000E+00 0.  1.
         11    1    3    3    0    0  0.81377962189E+01 -0.16655693829E+01  0.60095357528E+00  0.83282047364E+01  0.51100000000E-03 0. -1.
        -11    1    3    3    0    0  0.59821669310E+01  0.87760460076E+01 -0.43042454031E+01  0.11460010186E+02  0.51100000000E-03 0.  1.
        -12    1    3    3    0    0  0.27681974956E+02  0.41524846333E+01  0.64306144737E+00  0.27999078451E+02  0.00000000000E+00 0.  1.
</event>
<event>
 7    1  0.1714203E-010  0.4778727E+02  0.7816164E-02  0.1312668E+00
        -11   -1    0    0    0    0  0.00000000000E+00  0.00000000000E+00  0.45593999997E+02  0.45594000000E+02  0.51100000000E-03 0.  1.
         11   -1    0    0    0    0 -0.00000000000E+00 -0.00000000000E+00 -0.45593999997E+02  0.45594000000E+02  0.51100000000E-03 0. -1.
    9900012    2    1    2    0    0 -0.71756900886E+01  0.25034624041E+02 -0.34718875890E+02  0.47787271064E+02  0.20000000090E+02 0.  0.
        -12    1    1    2    0    0  0.71756900886E+01 -0.25034624041E+02  0.34718875890E+02  0.43400728936E+02  0.00000000000E+00 0.  1.
         11    1    3    3    0    0  0.73289113987E+00  0.60668698542E+01 -0.21481103591E+01  0.64775317542E+01  0.51100000000E-03 0. -1.
        -11    1    3    3    0    0 -0.83300857848E+01  0.18907913226E+02 -0.34018072921E+02  0.39801115528E+02  0.51100000000E-03 0.  1.
        -12    1    3    3    0    0  0.42150455636E+00  0.59840960823E-01  0.14473073908E+01  0.15086237819E+01  0.00000000000E+00 0.  1.
</event>
<event>
 7    1  0.1714203E-010  0.4778728E+02  0.7816164E-02  0.1312668E+00
        -11   -1    0    0    0    0  0.00000000000E+00  0.00000000000E+00  0.45593999997E+02  0.45594000000E+02  0.51100000000E-03 0. -1.
         11   -1    0    0    0    0 -0.00000000000E+00 -0.00000000000E+00 -0.45593999997E+02  0.45594000000E+02  0.51100000000E-03 0.  1.
    9900012    2    1    2    0    0  0.16640840693E+02  0.39639265310E+02 -0.59526268929E+01  0.47787277653E+02  0.20000030132E+02 0.  0.
        -12    1    1    2    0    0 -0.16640840693E+02 -0.39639265310E+02  0.59526268929E+01  0.43400722347E+02  0.00000000000E+00 0.  1.
         11    1    3    3    0    0  0.30312637509E+01  0.41093409438E+01 -0.46167460755E+01  0.68840095516E+01  0.51100000000E-03 0. -1.
        -11    1    3    3    0    0 -0.22061156341E+00  0.19966101459E+02  0.72663324006E+00  0.19980537356E+02  0.51100000000E-03 0.  1.
        -12    1    3    3    0    0  0.13830188505E+02  0.15563822908E+02 -0.20625140575E+01  0.20922730745E+02  0.00000000000E+00 0.  1.
</event>
<event>
 7    1  0.1714203E-010  0.4778728E+02  0.7816164E-02  0.1312668E+00
        -11   -1    0    0    0    0  0.00000000000E+00  0.00000000000E+00  0.45593999997E+02  0.45594000000E+02  0.51100000000E-03 0. -1.
         11   -1    0    0    0    0 -0.00000000000E+00 -0.00000000000E+00 -0.45593999997E+02  0.45594000000E+02  0.51100000000E-03 0.  1.
    9900012    2    1    2    0    0  0.68409535522E+01  0.29173994651E+02  0.31395892987E+02  0.47787277588E+02  0.20000029837E+02 0.  0.
        -12    1    1    2    0    0 -0.68409535522E+01 -0.29173994651E+02 -0.31395892987E+02  0.43400722412E+02  0.00000000000E+00 0.  1.
         11    1    3    3    0    0  0.69859040355E+01  0.53494019555E+01  0.18309841766E+02  0.20314262532E+02  0.51100000000E-03 0. -1.
        -11    1    3    3    0    0 -0.10653495298E+01  0.82414865071E+01  0.64103747207E+01  0.10495235766E+02  0.51100000000E-03 0.  1.
         12    1    3    3    0    0  0.92039904645E+00  0.15583106188E+02  0.66756765002E+01  0.16977779290E+02  0.00000000000E+00 0. -1.
</event>
<event>
 7    1  0.1714203E-010  0.4778727E+02  0.7816164E-02  0.1312668E+00
        -11   -1    0    0    0    0  0.00000000000E+00  0.00000000000E+00  0.45593999997E+02  0.45594000000E+02  0.51100000000E-03 0.  1.
         11   -1    0    0    0    0 -0.00000000000E+00 -0.00000000000E+00 -0.45593999997E+02  0.45594000000E+02  0.51100000000E-03 0. -1.
    9900012    2    1    2    0    0  0.54298908031E+01  0.18660322547E+02 -0.38806337444E+02  0.47787272154E+02  0.20000005060E+02 0.  0.
        -12    1    1    2    0    0 -0.54298908031E+01 -0.18660322547E+02  0.38806337444E+02  0.43400727846E+02  0.00000000000E+00 0.  1.
         11    1    3    3    0    0  0.26673965670E-01  0.57832935322E+01 -0.18413255112E+02  0.19300133669E+02  0.51100000000E-03 0. -1.
        -11    1    3    3    0    0  0.39870058564E-01 -0.67642007908E+00  0.18068256944E+01  0.19297028517E+01  0.51100000000E-03 0.  1.
         12    1    3    3    0    0  0.53633467789E+01  0.13553449094E+02 -0.22199908027E+02  0.26557435634E+02  0.00000000000E+00 0. -1.
</event>
<event>
 7    1  0.1714203E-010  0.4778727E+02  0.7816164E-02  0.1312668E+00
        -11   -1    0    0    0    0  0.00000000000E+00  0.00000000000E+00  0.45593999997E+02  0.45594000000E+02  0.51100000000E-03 0.  1.
         11   -1    0    0    0    0 -0.00000000000E+00 -0.00000000000E+00 -0.45593999997E+02  0.45594000000E+02  0.51100000000E-03 0. -1.
    9900012    2    1    2    0    0 -0.42761900748E+02 -0.25795906134E+01 -0.69562130452E+01  0.47787270245E+02  0.19999996354E+02 0.  0.
        -12    1    1    2    0    0  0.42761900748E+02  0.25795906134E+01  0.69562130452E+01  0.43400729755E+02  0.00000000000E+00 0.  1.
         11    1    3    3    0    0 -0.88641126963E+01  0.38984737517E+01 -0.13849508762E+01  0.97820591225E+01  0.51100000000E-03 0. -1.
        -11    1    3    3    0    0 -0.12693304688E+02  0.24612024919E+01  0.32975240801E+01  0.13343581488E+02  0.51100000000E-03 0.  1.
         12    1    3    3    0    0 -0.21204483365E+02 -0.89392668570E+01 -0.88687862491E+01  0.24661629635E+02  0.00000000000E+00 0. -1.
</event>
<event>
 7    1  0.1714203E-010  0.4778727E+02  0.7816164E-02  0.1312668E+00
        -11   -1    0    0    0    0  0.00000000000E+00  0.00000000000E+00  0.45593999997E+02  0.45594000000E+02  0.51100000000E-03 0.  1.
         11   -1    0    0    0    0 -0.00000000000E+00 -0.00000000000E+00 -0.45593999997E+02  0.45594000000E+02  0.51100000000E-03 0. -1.
    9900012    2    1    2    0    0  0.26832388632E+02 -0.21034232663E+02 -0.26855302639E+02  0.47787270706E+02  0.19999998455E+02 0.  0.
        -12    1    1    2    0    0 -0.26832388632E+02  0.21034232663E+02  0.26855302639E+02  0.43400729294E+02  0.00000000000E+00 0.  1.
         11    1    3    3    0    0  0.14441270541E+02 -0.87333333389E+01 -0.50379973719E+01  0.17612575730E+02  0.51100000000E-03 0. -1.
        -11    1    3    3    0    0  0.18089072648E+00 -0.75466973091E+01 -0.60542260522E+01  0.96767254318E+01  0.51100000000E-03 0.  1.
         12    1    3    3    0    0  0.12210227364E+02 -0.47542020151E+01 -0.15763079215E+02  0.20497969544E+02  0.00000000000E+00 0. -1.
</event>
<event>
 7    1  0.1714203E-010  0.4778727E+02  0.7816164E-02  0.1312668E+00
        -11   -1    0    0    0    0  0.00000000000E+00  0.00000000000E+00  0.45593999997E+02  0.45594000000E+02  0.51100000000E-03 0.  1.
         11   -1    0    0    0    0 -0.00000000000E+00 -0.00000000000E+00 -0.45593999997E+02  0.45594000000E+02  0.51100000000E-03 0. -1.
    9900012    2    1    2    0    0 -0.25021707891E+02 -0.72215601405E+01 -0.34718676401E+02  0.47787270885E+02  0.19999999275E+02 0.  0.
        -12    1    1    2    0    0  0.25021707891E+02  0.72215601405E+01  0.34718676401E+02  0.43400729115E+02  0.00000000000E+00 0.  1.
         11    1    3    3    0    0 -0.40477284686E+01  0.19246442550E+01 -0.61353533791E+01  0.75980867731E+01  0.51100000000E-03 0. -1.
        -11    1    3    3    0    0 -0.93366380174E+01 -0.12213759511E+02 -0.11091338710E+02  0.18956965092E+02  0.51100000000E-03 0.  1.
        -12    1    3    3    0    0 -0.11637341405E+02  0.30675551152E+01 -0.17491984312E+02  0.21232219020E+02  0.00000000000E+00 0.  1.
</event>
<event>
 7    1  0.1714203E-010  0.4778729E+02  0.7816164E-02  0.1312668E+00
        -11   -1    0    0    0    0  0.00000000000E+00  0.00000000000E+00  0.45593999997E+02  0.45594000000E+02  0.51100000000E-03 0.  1.
         11   -1    0    0    0    0 -0.00000000000E+00 -0.00000000000E+00 -0.45593999997E+02  0.45594000000E+02  0.51100000000E-03 0. -1.
    9900012    2    1    2    0    0  0.12762715017E+01  0.57044970510E+01 -0.43005252439E+02  0.47787286954E+02  0.20000072538E+02 0.  0.
        -12    1    1    2    0    0 -0.12762715017E+01 -0.57044970510E+01  0.43005252439E+02  0.43400713046E+02  0.00000000000E+00 0.  1.
         11    1    3    3    0    0 -0.22792299776E+01 -0.27463351802E+01 -0.11852490434E+02  0.12378157212E+02  0.51100000000E-03 0. -1.
        -11    1    3    3    0    0  0.52936152155E+01  0.38416091344E+01 -0.36934249986E+01  0.75114386952E+01  0.51100000000E-03 0.  1.
         12    1    3    3    0    0 -0.17381137362E+01  0.46092230969E+01 -0.27459337006E+02  0.27897691046E+02  0.00000000000E+00 0. -1.
</event>
<event>
 7    1  0.1714203E-010  0.4778727E+02  0.7816164E-02  0.1312668E+00
        -11   -1    0    0    0    0  0.00000000000E+00  0.00000000000E+00  0.45593999997E+02  0.45594000000E+02  0.51100000000E-03 0.  1.
         11   -1    0    0    0    0 -0.00000000000E+00 -0.00000000000E+00 -0.45593999997E+02  0.45594000000E+02  0.51100000000E-03 0. -1.
    9900012    2    1    2    0    0  0.12966887444E+02 -0.29104964409E+02 -0.29468357303E+02  0.47787271834E+02  0.20000003598E+02 0.  0.
        -12    1    1    2    0    0 -0.12966887444E+02  0.29104964409E+02  0.29468357303E+02  0.43400728166E+02  0.00000000000E+00 0.  1.
         11    1    3    3    0    0  0.53530824187E-01 -0.13612606819E+02 -0.10184677888E+02  0.17000988027E+02  0.51100000000E-03 0. -1.
        -11    1    3    3    0    0 -0.16370758989E+01 -0.68531994561E+01 -0.63890462270E+01  0.95113759381E+01  0.51100000000E-03 0.  1.
         12    1    3    3    0    0  0.14550432519E+02 -0.86391581340E+01 -0.12894633188E+02  0.21274907868E+02  0.00000000000E+00 0. -1.
</event>
<event>
 7    1  0.1714203E-010  0.4778727E+02  0.7816164E-02  0.1312668E+00
        -11   -1    0    0    0    0  0.00000000000E+00  0.00000000000E+00  0.45593999997E+02  0.45594000000E+02  0.51100000000E-03 0.  1.
         11   -1    0    0    0    0 -0.00000000000E+00 -0.00000000000E+00 -0.45593999997E+02  0.45594000000E+02  0.51100000000E-03 0. -1.
    9900012    2    1    2    0    0  0.11675663306E+02 -0.18178346347E+02 -0.37641072035E+02  0.47787266210E+02  0.19999977958E+02 0.  0.
        -12    1    1    2    0    0 -0.11675663306E+02  0.18178346347E+02  0.37641072035E+02  0.43400733790E+02  0.00000000000E+00 0.  1.
         11    1    3    3    0    0  0.50380321690E+01 -0.10418996292E+02 -0.13250489274E+02  0.17592973544E+02  0.51100000000E-03 0. -1.
        -11    1    3    3    0    0  0.27125214752E+01  0.33250754246E+00  0.12625153397E+01  0.30103619821E+01  0.51100000000E-03 0.  1.
        -12    1    3    3    0    0  0.39251096615E+01 -0.80918575977E+01 -0.25653098101E+02  0.27183930684E+02  0.00000000000E+00 0.  1.
</event>
<event>
 7    1  0.1714203E-010  0.4778726E+02  0.7816164E-02  0.1312668E+00
        -11   -1    0    0    0    0  0.00000000000E+00  0.00000000000E+00  0.45593999997E+02  0.45594000000E+02  0.51100000000E-03 0. -1.
         11   -1    0    0    0    0 -0.00000000000E+00 -0.00000000000E+00 -0.45593999997E+02  0.45594000000E+02  0.51100000000E-03 0.  1.
    9900012    2    1    2    0    0 -0.40396939861E+02 -0.30403619852E+01  0.15571361658E+02  0.47787264350E+02  0.19999969475E+02 0.  0.
        -12    1    1    2    0    0  0.40396939861E+02  0.30403619852E+01 -0.15571361658E+02  0.43400735650E+02  0.00000000000E+00 0.  1.
         11    1    3    3    0    0 -0.12816316738E+02  0.85132676533E+00  0.15423205558E+01  0.12936826695E+02  0.51100000000E-03 0. -1.
        -11    1    3    3    0    0 -0.46794405151E+01 -0.42665987585E+01 -0.22827512572E+01  0.67314175375E+01  0.51100000000E-03 0.  1.
         12    1    3    3    0    0 -0.22901182608E+02  0.37491000800E+00  0.16311792360E+02  0.28119020117E+02  0.00000000000E+00 0. -1.
</event>
<event>
 7    1  0.1714203E-010  0.4778727E+02  0.7816164E-02  0.1312668E+00
        -11   -1    0    0    0    0  0.00000000000E+00  0.00000000000E+00  0.45593999997E+02  0.45594000000E+02  0.51100000000E-03 0.  1.
         11   -1    0    0    0    0 -0.00000000000E+00 -0.00000000000E+00 -0.45593999997E+02  0.45594000000E+02  0.51100000000E-03 0. -1.
    9900012    2    1    2    0    0 -0.28496430712E+02  0.86179707364E+01 -0.31580172218E+02  0.47787271201E+02  0.20000000716E+02 0.  0.
        -12    1    1    2    0    0  0.28496430712E+02 -0.86179707364E+01  0.31580172218E+02  0.43400728799E+02  0.00000000000E+00 0.  1.
         11    1    3    3    0    0 -0.10763121432E+02 -0.33401758583E+01 -0.63707305311E+01  0.12945569338E+02  0.51100000000E-03 0. -1.
        -11    1    3    3    0    0 -0.48970384367E+01  0.95947388578E+01 -0.90475763491E+01  0.14067645050E+02  0.51100000000E-03 0.  1.
         12    1    3    3    0    0 -0.12836270843E+02  0.23634077369E+01 -0.16161865338E+02  0.20774056813E+02  0.00000000000E+00 0. -1.
</event>
<event>
 7    1  0.1714203E-010  0.4778727E+02  0.7816164E-02  0.1312668E+00
        -11   -1    0    0    0    0  0.00000000000E+00  0.00000000000E+00  0.45593999997E+02  0.45594000000E+02  0.51100000000E-03 0. -1.
         11   -1    0    0    0    0 -0.00000000000E+00 -0.00000000000E+00 -0.45593999997E+02  0.45594000000E+02  0.51100000000E-03 0.  1.
    9900012    2    1    2    0    0  0.38046477249E+02  0.20501766044E+02  0.39706965398E+01  0.47787271054E+02  0.20000000046E+02 0.  0.
        -12    1    1    2    0    0 -0.38046477249E+02 -0.20501766044E+02 -0.39706965398E+01  0.43400728946E+02  0.00000000000E+00 0.  1.
         11    1    3    3    0    0  0.10778148999E+02  0.27756069160E+01  0.87586715816E+00  0.11164212159E+02  0.51100000000E-03 0. -1.
        -11    1    3    3    0    0  0.53507424909E+01  0.74771590983E+00  0.67639487189E+01  0.86568196712E+01  0.51100000000E-03 0.  1.
        -12    1    3    3    0    0  0.21917585760E+02  0.16978443218E+02 -0.36691193373E+01  0.27966239224E+02  0.00000000000E+00 0.  1.
</event>
<event>
 7    1  0.1714203E-010  0.4778727E+02  0.7816164E-02  0.1312668E+00
        -11   -1    0    0    0    0  0.00000000000E+00  0.00000000000E+00  0.45593999997E+02  0.45594000000E+02  0.51100000000E-03 0.  1.
         11   -1    0    0    0    0 -0.00000000000E+00 -0.00000000000E+00 -0.45593999997E+02  0.45594000000E+02  0.51100000000E-03 0. -1.
    9900012    2    1    2    0    0 -0.12094496769E+02  0.20411381484E+02 -0.36341742251E+02  0.47787267563E+02  0.19999984128E+02 0.  0.
        -12    1    1    2    0    0  0.12094496769E+02 -0.20411381484E+02  0.36341742251E+02  0.43400732437E+02  0.00000000000E+00 0.  1.
         11    1    3    3    0    0 -0.17102747757E+01 -0.12585072762E+01 -0.77619839853E+01  0.80471905670E+01  0.51100000000E-03 0. -1.
        -11    1    3    3    0    0 -0.13515290238E+02  0.14871773130E+02 -0.21669469557E+02  0.29553318213E+02  0.51100000000E-03 0.  1.
         12    1    3    3    0    0  0.31310682443E+01  0.67981156302E+01 -0.69102887092E+01  0.10186758784E+02  0.00000000000E+00 0. -1.
</event>
<event>
 7    1  0.1714203E-010  0.4778727E+02  0.7816164E-02  0.1312668E+00
        -11   -1    0    0    0    0  0.00000000000E+00  0.00000000000E+00  0.45593999997E+02  0.45594000000E+02  0.51100000000E-03 0.  1.
         11   -1    0    0    0    0 -0.00000000000E+00 -0.00000000000E+00 -0.45593999997E+02  0.45594000000E+02  0.51100000000E-03 0. -1.
    9900012    2    1    2    0    0 -0.13952512740E+02 -0.31966526086E+02 -0.25828127602E+02  0.47787267550E+02  0.19999984067E+02 0.  0.
        -12    1    1    2    0    0  0.13952512740E+02  0.31966526086E+02  0.25828127602E+02  0.43400732450E+02  0.00000000000E+00 0.  1.
         11    1    3    3    0    0 -0.42519841472E+01 -0.14875708996E+02 -0.10957201631E+02  0.18958543066E+02  0.51100000000E-03 0. -1.
        -11    1    3    3    0    0 -0.85817662439E+01 -0.29951213041E+01 -0.12136158438E+01  0.91700778170E+01  0.51100000000E-03 0.  1.
        -12    1    3    3    0    0 -0.11187623492E+01 -0.14095695786E+02 -0.13657310128E+02  0.19658646667E+02  0.00000000000E+00 0.  1.
</event>
<event>
 7    1  0.1714203E-010  0.4778727E+02  0.7816164E-02  0.1312668E+00
        -11   -1    0    0    0    0  0.00000000000E+00  0.00000000000E+00  0.45593999997E+02  0.45594000000E+02  0.51100000000E-03 0.  1.
         11   -1    0    0    0    0 -0.00000000000E+00 -0.00000000000E+00 -0.45593999997E+02  0.45594000000E+02  0.51100000000E-03 0. -1.
    9900012    2    1    2    0    0 -0.70953401729E+01  0.19760837926E+02 -0.37984060047E+02  0.47787269760E+02  0.19999994143E+02 0.  0.
        -12    1    1    2    0    0  0.70953401729E+01 -0.19760837926E+02  0.37984060047E+02  0.43400730240E+02  0.00000000000E+00 0.  1.
         11    1    3    3    0    0  0.26983075094E+01  0.18158275331E+02 -0.25170655500E+02  0.31153903848E+02  0.51100000000E-03 0. -1.
        -11    1    3    3    0    0 -0.21831599647E+01 -0.80442723392E+00 -0.14322419094E+01  0.27321434359E+01  0.51100000000E-03 0.  1.
         12    1    3    3    0    0 -0.76104877177E+01  0.24069898286E+01 -0.11381162638E+02  0.13901222476E+02  0.00000000000E+00 0. -1.
</event>
<event>
 7    1  0.1714203E-010  0.4778728E+02  0.7816164E-02  0.1312668E+00
        -11   -1    0    0    0    0  0.00000000000E+00  0.00000000000E+00  0.45593999997E+02  0.45594000000E+02  0.51100000000E-03 0.  1.
         11   -1    0    0    0    0 -0.00000000000E+00 -0.00000000000E+00 -0.45593999997E+02  0.45594000000E+02  0.51100000000E-03 0. -1.
    9900012    2    1    2    0    0 -0.15213326788E+02  0.23798928926E+02 -0.32951303238E+02  0.47787277482E+02  0.20000029353E+02 0.  0.
        -12    1    1    2    0    0  0.15213326788E+02 -0.23798928926E+02  0.32951303238E+02  0.43400722518E+02  0.00000000000E+00 0.  1.
         11    1    3    3    0    0 -0.14027834121E+00  0.61424409525E+00  0.46341707491E+00  0.78213136237E+00  0.51100000000E-03 0. -1.
        -11    1    3    3    0    0 -0.10076085528E+02  0.83451894410E+01 -0.39976401086E+01  0.13680307492E+02  0.51100000000E-03 0.  1.
         12    1    3    3    0    0 -0.49969629183E+01  0.14839495390E+02 -0.29417080204E+02  0.33324838628E+02  0.00000000000E+00 0. -1.
</event>
<event>
 7    1  0.1714203E-010  0.4778727E+02  0.7816164E-02  0.1312668E+00
        -11   -1    0    0    0    0  0.00000000000E+00  0.00000000000E+00  0.45593999997E+02  0.45594000000E+02  0.51100000000E-03 0.  1.
         11   -1    0    0    0    0 -0.00000000000E+00 -0.00000000000E+00 -0.45593999997E+02  0.45594000000E+02  0.51100000000E-03 0. -1.
    9900012    2    1    2    0    0 -0.62011108060E+01 -0.27102641288E+02 -0.33325911192E+02  0.47787270781E+02  0.19999998797E+02 0.  0.
        -12    1    1    2    0    0  0.62011108060E+01  0.27102641288E+02  0.33325911192E+02  0.43400729219E+02  0.00000000000E+00 0.  1.
         11    1    3    3    0    0 -0.77878414152E+01 -0.12854546100E+02 -0.10310292829E+02  0.18226134198E+02  0.51100000000E-03 0. -1.
        -11    1    3    3    0    0  0.48322895001E+00 -0.15899524453E+02 -0.22415912643E+02  0.27486388048E+02  0.51100000000E-03 0.  1.
        -12    1    3    3    0    0  0.11035016592E+01  0.16514292651E+01 -0.59970572017E+00  0.20747485342E+01  0.00000000000E+00 0.  1.
</event>
<event>
 7    1  0.1714203E-010  0.4778727E+02  0.7816164E-02  0.1312668E+00
        -11   -1    0    0    0    0  0.00000000000E+00  0.00000000000E+00  0.45593999997E+02  0.45594000000E+02  0.51100000000E-03 0. -1.
         11   -1    0    0    0    0 -0.00000000000E+00 -0.00000000000E+00 -0.45593999997E+02  0.45594000000E+02  0.51100000000E-03 0.  1.
    9900012    2    1    2    0    0  0.30967484477E+02  0.28467234935E+02  0.10689000662E+02  0.47787270803E+02  0.19999998898E+02 0.  0.
        -12    1    1    2    0    0 -0.30967484477E+02 -0.28467234935E+02 -0.10689000662E+02  0.43400729197E+02  0.00000000000E+00 0.  1.
         11    1    3    3    0    0  0.12451090703E+02  0.20117273062E+02  0.86649169125E+01  0.25195537710E+02  0.51100000000E-03 0. -1.
        -11    1    3    3    0    0  0.12628617344E+02  0.29553701803E+01  0.52329001937E+01  0.13985686741E+02  0.51100000000E-03 0.  1.
        -12    1    3    3    0    0  0.58877764307E+01  0.53945916928E+01 -0.32088164443E+01  0.86060463514E+01  0.00000000000E+00 0.  1.
</event>
<event>
 7    1  0.1714203E-010  0.4778727E+02  0.7816164E-02  0.1312668E+00
        -11   -1    0    0    0    0  0.00000000000E+00  0.00000000000E+00  0.45593999997E+02  0.45594000000E+02  0.51100000000E-03 0. -1.
         11   -1    0    0    0    0 -0.00000000000E+00 -0.00000000000E+00 -0.45593999997E+02  0.45594000000E+02  0.51100000000E-03 0.  1.
    9900012    2    1    2    0    0 -0.14150464690E+02  0.39389318942E+02  0.11483426799E+02  0.47787272025E+02  0.20000004472E+02 0.  0.
        -12    1    1    2    0    0  0.14150464690E+02 -0.39389318942E+02 -0.11483426799E+02  0.43400727975E+02  0.00000000000E+00 0.  1.
         11    1    3    3    0    0 -0.15236470634E+02  0.26315782956E+02  0.38135605127E+01  0.30646593840E+02  0.51100000000E-03 0. -1.
        -11    1    3    3    0    0 -0.20065478946E+01  0.62687053155E+01  0.21734695862E+00  0.65856010165E+01  0.51100000000E-03 0.  1.
        -12    1    3    3    0    0  0.30925538383E+01  0.68048306710E+01  0.74525193281E+01  0.10555077169E+02  0.00000000000E+00 0.  1.
</event>
<event>
 7    1  0.1714203E-010  0.4778727E+02  0.7816164E-02  0.1312668E+00
        -11   -1    0    0    0    0  0.00000000000E+00  0.00000000000E+00  0.45593999997E+02  0.45594000000E+02  0.51100000000E-03 0.  1.
         11   -1    0    0    0    0 -0.00000000000E+00 -0.00000000000E+00 -0.45593999997E+02  0.45594000000E+02  0.51100000000E-03 0. -1.
    9900012    2    1    2    0    0  0.20460030720E+02 -0.10088938747E+01 -0.38262160016E+02  0.47787267138E+02  0.19999982189E+02 0.  0.
        -12    1    1    2    0    0 -0.20460030720E+02  0.10088938747E+01  0.38262160016E+02  0.43400732862E+02  0.00000000000E+00 0.  1.
         11    1    3    3    0    0  0.74384886302E+01  0.32933361247E+01 -0.72296177390E+01  0.10883223275E+02  0.51100000000E-03 0. -1.
        -11    1    3    3    0    0 -0.24285076644E+01 -0.37331733266E+01 -0.81638562299E+01  0.92996118933E+01  0.51100000000E-03 0.  1.
        -12    1    3    3    0    0  0.15450049754E+02 -0.56905667280E+00 -0.22868686047E+02  0.27604431970E+02  0.00000000000E+00 0.  1.
</event>
<event>
 7    1  0.1714203E-010  0.4778728E+02  0.7816164E-02  0.1312668E+00
        -11   -1    0    0    0    0  0.00000000000E+00  0.00000000000E+00  0.45593999997E+02  0.45594000000E+02  0.51100000000E-03 0.  1.
         11   -1    0    0    0    0 -0.00000000000E+00 -0.00000000000E+00 -0.45593999997E+02  0.45594000000E+02  0.51100000000E-03 0. -1.
    9900012    2    1    2    0    0  0.79715054974E+01 -0.22290155873E+02 -0.36376185634E+02  0.47787276157E+02  0.20000023312E+02 0.  0.
        -12    1    1    2    0    0 -0.79715054974E+01  0.22290155873E+02  0.36376185634E+02  0.43400723843E+02  0.00000000000E+00 0.  1.
         11    1    3    3    0    0  0.20299151189E+01  0.11141968059E+01 -0.50134121968E+01  0.55223447944E+01  0.51100000000E-03 0.  1.
        -11    1    3    3    0    0  0.54028729804E+01 -0.11980737761E+02 -0.60089780807E+01  0.14451191355E+02  0.51100000000E-03 0. -1.
         12    1    3    3    0    0  0.53871739812E+00 -0.11423614918E+02 -0.25353795357E+02  0.27813740008E+02  0.00000000000E+00 0. -1.
</event>
<event>
 7    1  0.1714203E-010  0.4778727E+02  0.7816164E-02  0.1312668E+00
        -11   -1    0    0    0    0  0.00000000000E+00  0.00000000000E+00  0.45593999997E+02  0.45594000000E+02  0.51100000000E-03 0.  1.
         11   -1    0    0    0    0 -0.00000000000E+00 -0.00000000000E+00 -0.45593999997E+02  0.45594000000E+02  0.51100000000E-03 0. -1.
    9900012    2    1    2    0    0  0.20783002321E+02  0.26321941654E+02 -0.27547152817E+02  0.47787269289E+02  0.19999991996E+02 0.  0.
        -12    1    1    2    0    0 -0.20783002321E+02 -0.26321941654E+02  0.27547152817E+02  0.43400730711E+02  0.00000000000E+00 0.  1.
         11    1    3    3    0    0  0.19628612463E+01  0.13772894724E+02 -0.33735849067E+01  0.14315255105E+02  0.51100000000E-03 0. -1.
        -11    1    3    3    0    0  0.63061526997E+01  0.16755102040E+01 -0.58698641041E+01  0.87766850905E+01  0.51100000000E-03 0.  1.
         12    1    3    3    0    0  0.12513988375E+02  0.10873536727E+02 -0.18303703806E+02  0.24695329093E+02  0.00000000000E+00 0. -1.
</event>
<event>
 7    1  0.1714203E-010  0.4778727E+02  0.7816164E-02  0.1312668E+00
        -11   -1    0    0    0    0  0.00000000000E+00  0.00000000000E+00  0.45593999997E+02  0.45594000000E+02  0.51100000000E-03 0. -1.
         11   -1    0    0    0    0 -0.00000000000E+00 -0.00000000000E+00 -0.45593999997E+02  0.45594000000E+02  0.51100000000E-03 0.  1.
    9900012    2    1    2    0    0 -0.15786576030E+02  0.40427144963E+01  0.40225164372E+02  0.47787269914E+02  0.19999994846E+02 0.  0.
        -12    1    1    2    0    0  0.15786576030E+02 -0.40427144963E+01 -0.40225164372E+02  0.43400730086E+02  0.00000000000E+00 0.  1.
         11    1    3    3    0    0 -0.89524254111E+01 -0.37911595356E+01  0.18852585453E+02  0.21211760651E+02  0.51100000000E-03 0.  1.
        -11    1    3    3    0    0 -0.10003521091E+02  0.76915582441E+01  0.17297396703E+02  0.21410988660E+02  0.51100000000E-03 0. -1.
        -12    1    3    3    0    0  0.31693704718E+01  0.14231578780E+00  0.40751822152E+01  0.51645206029E+01  0.00000000000E+00 0.  1.
</event>
<event>
 7    1  0.1714203E-010  0.4778728E+02  0.7816164E-02  0.1312668E+00
        -11   -1    0    0    0    0  0.00000000000E+00  0.00000000000E+00  0.45593999997E+02  0.45594000000E+02  0.51100000000E-03 0.  1.
         11   -1    0    0    0    0 -0.00000000000E+00 -0.00000000000E+00 -0.45593999997E+02  0.45594000000E+02  0.51100000000E-03 0. -1.
    9900012    2    1    2    0    0 -0.24340027371E+02  0.33767000474E+02 -0.12287207400E+02  0.47787277435E+02  0.20000029139E+02 0.  0.
        -12    1    1    2    0    0  0.24340027371E+02 -0.33767000474E+02  0.12287207400E+02  0.43400722565E+02  0.00000000000E+00 0.  1.
         11    1    3    3    0    0 -0.14457203971E+02  0.24433748845E+02 -0.15359578000E+02  0.32279025169E+02  0.51100000000E-03 0. -1.
        -11    1    3    3    0    0  0.22029117503E+00 -0.55762364790E+00  0.10726672464E+01  0.12288562231E+01  0.51100000000E-03 0.  1.
        -12    1    3    3    0    0 -0.10103114574E+02  0.98908752778E+01  0.19997033531E+01  0.14279396043E+02  0.00000000000E+00 0.  1.
</event>
<event>
 7    1  0.1714203E-010  0.4778727E+02  0.7816164E-02  0.1312668E+00
        -11   -1    0    0    0    0  0.00000000000E+00  0.00000000000E+00  0.45593999997E+02  0.45594000000E+02  0.51100000000E-03 0.  1.
         11   -1    0    0    0    0 -0.00000000000E+00 -0.00000000000E+00 -0.45593999997E+02  0.45594000000E+02  0.51100000000E-03 0. -1.
    9900012    2    1    2    0    0 -0.25684154443E+02 -0.41601612448E+01 -0.34736737189E+02  0.47787266809E+02  0.19999980688E+02 0.  0.
        -12    1    1    2    0    0  0.25684154443E+02  0.41601612448E+01  0.34736737189E+02  0.43400733191E+02  0.00000000000E+00 0.  1.
         11    1    3    3    0    0 -0.20595048476E+02  0.18669809684E+00 -0.23574812478E+02  0.31304355313E+02  0.51100000000E-03 0. -1.
        -11    1    3    3    0    0 -0.80283555973E+00  0.23679151261E+01  0.30668702914E+00  0.25190522375E+01  0.51100000000E-03 0.  1.
         12    1    3    3    0    0 -0.42862704073E+01 -0.67147744677E+01 -0.11468611740E+02  0.13963859258E+02  0.00000000000E+00 0. -1.
</event>
<event>
 7    1  0.1714203E-010  0.4778727E+02  0.7816164E-02  0.1312668E+00
        -11   -1    0    0    0    0  0.00000000000E+00  0.00000000000E+00  0.45593999997E+02  0.45594000000E+02  0.51100000000E-03 0. -1.
         11   -1    0    0    0    0 -0.00000000000E+00 -0.00000000000E+00 -0.45593999997E+02  0.45594000000E+02  0.51100000000E-03 0.  1.
    9900012    2    1    2    0    0 -0.31014634030E+02  0.18862924024E+02  0.23788774403E+02  0.47787271730E+02  0.20000003124E+02 0.  0.
        -12    1    1    2    0    0  0.31014634030E+02 -0.18862924024E+02 -0.23788774403E+02  0.43400728270E+02  0.00000000000E+00 0.  1.
         11    1    3    3    0    0 -0.81779487134E+01  0.32969051085E+01  0.12182843936E+02  0.15038953258E+02  0.51100000000E-03 0. -1.
        -11    1    3    3    0    0 -0.11003399178E+02  0.51503291297E+01 -0.15082225706E+01  0.12242361667E+02  0.51100000000E-03 0.  1.
        -12    1    3    3    0    0 -0.11833286139E+02  0.10415689786E+02  0.13114153038E+02  0.20505956805E+02  0.00000000000E+00 0.  1.
</event>
<event>
 7    1  0.1714203E-010  0.4778727E+02  0.7816164E-02  0.1312668E+00
        -11   -1    0    0    0    0  0.00000000000E+00  0.00000000000E+00  0.45593999997E+02  0.45594000000E+02  0.51100000000E-03 0.  1.
         11   -1    0    0    0    0 -0.00000000000E+00 -0.00000000000E+00 -0.45593999997E+02  0.45594000000E+02  0.51100000000E-03 0. -1.
    9900012    2    1    2    0    0  0.29141260583E+02 -0.14871339167E+01 -0.32127845881E+02  0.47787272856E+02  0.20000008261E+02 0.  0.
        -12    1    1    2    0    0 -0.29141260583E+02  0.14871339167E+01  0.32127845881E+02  0.43400727144E+02  0.00000000000E+00 0.  1.
         11    1    3    3    0    0  0.70027843764E+01 -0.22079429016E+01 -0.46220244797E+01  0.86762383226E+01  0.51100000000E-03 0. -1.
        -11    1    3    3    0    0  0.15385748488E+01  0.10384483332E+01  0.22513205884E+01  0.29178814505E+01  0.51100000000E-03 0.  1.
         12    1    3    3    0    0  0.20599901358E+02 -0.31763934835E+00 -0.29757141990E+02  0.36193153083E+02  0.00000000000E+00 0. -1.
</event>
<event>
 7    1  0.1714203E-010  0.4778727E+02  0.7816164E-02  0.1312668E+00
        -11   -1    0    0    0    0  0.00000000000E+00  0.00000000000E+00  0.45593999997E+02  0.45594000000E+02  0.51100000000E-03 0.  1.
         11   -1    0    0    0    0 -0.00000000000E+00 -0.00000000000E+00 -0.45593999997E+02  0.45594000000E+02  0.51100000000E-03 0. -1.
    9900012    2    1    2    0    0  0.40334828252E+01  0.65860436565E+01 -0.42708058541E+02  0.47787271676E+02  0.20000002878E+02 0.  0.
        -12    1    1    2    0    0 -0.40334828252E+01 -0.65860436565E+01  0.42708058541E+02  0.43400728324E+02  0.00000000000E+00 0.  1.
         11    1    3    3    0    0  0.16614832564E+01  0.60639896288E+01 -0.22179985899E+02  0.23053942647E+02  0.51100000000E-03 0. -1.
        -11    1    3    3    0    0  0.79741353911E+01 -0.77310800080E+00 -0.11076474722E+02  0.13670143516E+02  0.51100000000E-03 0.  1.
        -12    1    3    3    0    0 -0.56021358223E+01  0.12951620285E+01 -0.94515979202E+01  0.11063185513E+02  0.00000000000E+00 0.  1.
</event>
<event>
 7    1  0.1714203E-010  0.4778727E+02  0.7816164E-02  0.1312668E+00
        -11   -1    0    0    0    0  0.00000000000E+00  0.00000000000E+00  0.45593999997E+02  0.45594000000E+02  0.51100000000E-03 0.  1.
         11   -1    0    0    0    0 -0.00000000000E+00 -0.00000000000E+00 -0.45593999997E+02  0.45594000000E+02  0.51100000000E-03 0. -1.
    9900012    2    1    2    0    0 -0.38040035309E+02  0.53459676545E+01 -0.20198998758E+02  0.47787271811E+02  0.20000003496E+02 0.  0.
        -12    1    1    2    0    0  0.38040035309E+02 -0.53459676545E+01  0.20198998758E+02  0.43400728189E+02  0.00000000000E+00 0.  1.
         11    1    3    3    0    0 -0.11050950609E+02  0.40533853020E+01 -0.10719825316E+02  0.15920681419E+02  0.51100000000E-03 0. -1.
        -11    1    3    3    0    0 -0.14757086150E+02  0.58560576671E+01 -0.25035922942E+00  0.15878528995E+02  0.51100000000E-03 0.  1.
         12    1    3    3    0    0 -0.12231998550E+02 -0.45634753145E+01 -0.92288142121E+01  0.15988061397E+02  0.00000000000E+00 0. -1.
</event>
<event>
 7    1  0.1714203E-010  0.4778727E+02  0.7816164E-02  0.1312668E+00
        -11   -1    0    0    0    0  0.00000000000E+00  0.00000000000E+00  0.45593999997E+02  0.45594000000E+02  0.51100000000E-03 0. -1.
         11   -1    0    0    0    0 -0.00000000000E+00 -0.00000000000E+00 -0.45593999997E+02  0.45594000000E+02  0.51100000000E-03 0.  1.
    9900012    2    1    2    0    0 -0.25848029372E+02  0.27508869935E+02  0.21418805534E+02  0.47787265237E+02  0.19999973520E+02 0.  0.
        -12    1    1    2    0    0  0.25848029372E+02 -0.27508869935E+02 -0.21418805534E+02  0.43400734763E+02  0.00000000000E+00 0.  1.
         11    1    3    3    0    0 -0.16253893616E+02  0.57319974121E+01  0.11440099307E+02  0.20686244812E+02  0.51100000000E-03 0.  1.
        -11    1    3    3    0    0 -0.99860957905E+01  0.14559852754E+02  0.50869678928E+01  0.18373586040E+02  0.51100000000E-03 0. -1.
        -12    1    3    3    0    0  0.39196003448E+00  0.72170197689E+01  0.48917383341E+01  0.87274343849E+01  0.00000000000E+00 0.  1.
</event>
<event>
 7    1  0.1714203E-010  0.4778727E+02  0.7816164E-02  0.1312668E+00
        -11   -1    0    0    0    0  0.00000000000E+00  0.00000000000E+00  0.45593999997E+02  0.45594000000E+02  0.51100000000E-03 0.  1.
         11   -1    0    0    0    0 -0.00000000000E+00 -0.00000000000E+00 -0.45593999997E+02  0.45594000000E+02  0.51100000000E-03 0. -1.
    9900012    2    1    2    0    0 -0.29213276052E+02  0.41551289487E+01 -0.31826766825E+02  0.47787266356E+02  0.19999978623E+02 0.  0.
        -12    1    1    2    0    0  0.29213276052E+02 -0.41551289487E+01  0.31826766825E+02  0.43400733644E+02  0.00000000000E+00 0.  1.
         11    1    3    3    0    0  0.67442261120E+00  0.15459621116E+01 -0.22871319816E+00  0.17021030219E+01  0.51100000000E-03 0. -1.
        -11    1    3    3    0    0 -0.12497403889E+02  0.47089231933E+01 -0.50478910106E+01  0.14277263937E+02  0.51100000000E-03 0.  1.
         12    1    3    3    0    0 -0.17390294775E+02 -0.20997563562E+01 -0.26550162616E+02  0.31807899397E+02  0.00000000000E+00 0. -1.
</event>
<event>
 7    1  0.1714203E-010  0.4778727E+02  0.7816164E-02  0.1312668E+00
        -11   -1    0    0    0    0  0.00000000000E+00  0.00000000000E+00  0.45593999997E+02  0.45594000000E+02  0.51100000000E-03 0.  1.
         11   -1    0    0    0    0 -0.00000000000E+00 -0.00000000000E+00 -0.45593999997E+02  0.45594000000E+02  0.51100000000E-03 0. -1.
    9900012    2    1    2    0    0 -0.34619486379E+02  0.17729504480E+02 -0.19255627567E+02  0.47787270061E+02  0.19999995517E+02 0.  0.
        -12    1    1    2    0    0  0.34619486379E+02 -0.17729504480E+02  0.19255627567E+02  0.43400729939E+02  0.00000000000E+00 0.  1.
         11    1    3    3    0    0 -0.13243972203E+02  0.13787910221E+02 -0.67028326642E+01  0.20259250577E+02  0.51100000000E-03 0. -1.
        -11    1    3    3    0    0  0.19842389236E+00 -0.58038300724E+00 -0.37381832600E+01  0.37881698513E+01  0.51100000000E-03 0.  1.
        -12    1    3    3    0    0 -0.21573938068E+02  0.45219772663E+01 -0.88146116423E+01  0.23739849632E+02  0.00000000000E+00 0.  1.
</event>
<event>
 7    1  0.1714203E-010  0.4778726E+02  0.7816164E-02  0.1312668E+00
        -11   -1    0    0    0    0  0.00000000000E+00  0.00000000000E+00  0.45593999997E+02  0.45594000000E+02  0.51100000000E-03 0.  1.
         11   -1    0    0    0    0 -0.00000000000E+00 -0.00000000000E+00 -0.45593999997E+02  0.45594000000E+02  0.51100000000E-03 0. -1.
    9900012    2    1    2    0    0  0.33267242339E+02  0.27871280790E+02 -0.32606930553E+00  0.47787262369E+02  0.19999960444E+02 0.  0.
        -12    1    1    2    0    0 -0.33267242339E+02 -0.27871280790E+02  0.32606930553E+00  0.43400737631E+02  0.00000000000E+00 0.  1.
         11    1    3    3    0    0  0.41536943939E+01  0.93675571959E+01 -0.11433148391E+01  0.10310745561E+02  0.51100000000E-03 0. -1.
        -11    1    3    3    0    0  0.67451189592E+01  0.12378296789E+02  0.20839889394E+01  0.14249977942E+02  0.51100000000E-03 0.  1.
         12    1    3    3    0    0  0.22368428986E+02  0.61254268049E+01 -0.12667434059E+01  0.23226538866E+02  0.00000000000E+00 0. -1.
</event>
<event>
 7    1  0.1714203E-010  0.4778727E+02  0.7816164E-02  0.1312668E+00
        -11   -1    0    0    0    0  0.00000000000E+00  0.00000000000E+00  0.45593999997E+02  0.45594000000E+02  0.51100000000E-03 0.  1.
         11   -1    0    0    0    0 -0.00000000000E+00 -0.00000000000E+00 -0.45593999997E+02  0.45594000000E+02  0.51100000000E-03 0. -1.
    9900012    2    1    2    0    0 -0.37028784603E+02  0.37772057369E+01 -0.22320956259E+02  0.47787271197E+02  0.20000000694E+02 0.  0.
        -12    1    1    2    0    0  0.37028784603E+02 -0.37772057369E+01  0.22320956259E+02  0.43400728803E+02  0.00000000000E+00 0.  1.
         11    1    3    3    0    0 -0.29665708358E+02  0.48760617489E+01 -0.13952190170E+02  0.33143533930E+02  0.51100000000E-03 0. -1.
        -11    1    3    3    0    0 -0.51510985355E+01 -0.49417987868E+01 -0.31690212079E+01  0.78101144068E+01  0.51100000000E-03 0.  1.
        -12    1    3    3    0    0 -0.22119777094E+01  0.38429427748E+01 -0.51997448818E+01  0.68336228600E+01  0.00000000000E+00 0.  1.
</event>
<event>
 7    1  0.1714203E-010  0.4778724E+02  0.7816164E-02  0.1312668E+00
        -11   -1    0    0    0    0  0.00000000000E+00  0.00000000000E+00  0.45593999997E+02  0.45594000000E+02  0.51100000000E-03 0.  1.
         11   -1    0    0    0    0 -0.00000000000E+00 -0.00000000000E+00 -0.45593999997E+02  0.45594000000E+02  0.51100000000E-03 0. -1.
    9900012    2    1    2    0    0  0.16989503592E+01 -0.42574555780E+02  0.82551151686E+01  0.47787237810E+02  0.19999848472E+02 0.  0.
        -12    1    1    2    0    0 -0.16989503592E+01  0.42574555780E+02 -0.82551151686E+01  0.43400762190E+02  0.00000000000E+00 0.  1.
         11    1    3    3    0    0  0.29270599354E+01 -0.16407255814E+02  0.41288383748E+01  0.17170120262E+02  0.51100000000E-03 0. -1.
        -11    1    3    3    0    0  0.44647884235E+01 -0.18240483896E+02  0.75992723067E+01  0.20258295296E+02  0.51100000000E-03 0.  1.
        -12    1    3    3    0    0 -0.56928979997E+01 -0.79268160698E+01 -0.34729955129E+01  0.10358822253E+02  0.00000000000E+00 0.  1.
</event>
<event>
 7    1  0.1714203E-010  0.4778728E+02  0.7816164E-02  0.1312668E+00
        -11   -1    0    0    0    0  0.00000000000E+00  0.00000000000E+00  0.45593999997E+02  0.45594000000E+02  0.51100000000E-03 0.  1.
         11   -1    0    0    0    0 -0.00000000000E+00 -0.00000000000E+00 -0.45593999997E+02  0.45594000000E+02  0.51100000000E-03 0. -1.
    9900012    2    1    2    0    0  0.23379355520E+02  0.21555690597E+01 -0.36501806828E+02  0.47787278298E+02  0.20000033074E+02 0.  0.
        -12    1    1    2    0    0 -0.23379355520E+02 -0.21555690597E+01  0.36501806828E+02  0.43400721702E+02  0.00000000000E+00 0.  1.
         11    1    3    3    0    0  0.77387581645E+01 -0.68260276842E+01 -0.22976391038E+02  0.25187250292E+02  0.51100000000E-03 0.  1.
        -11    1    3    3    0    0  0.58084076958E+01  0.30142308708E+01 -0.40287192490E+01  0.76846448682E+01  0.51100000000E-03 0. -1.
        -12    1    3    3    0    0  0.98321896597E+01  0.59673658731E+01 -0.94966965408E+01  0.14915383138E+02  0.00000000000E+00 0.  1.
</event>
<event>
 7    1  0.1714203E-010  0.4778725E+02  0.7816164E-02  0.1312668E+00
        -11   -1    0    0    0    0  0.00000000000E+00  0.00000000000E+00  0.45593999997E+02  0.45594000000E+02  0.51100000000E-03 0.  1.
         11   -1    0    0    0    0 -0.00000000000E+00 -0.00000000000E+00 -0.45593999997E+02  0.45594000000E+02  0.51100000000E-03 0. -1.
    9900012    2    1    2    0    0 -0.41781251062E+02 -0.11596005623E+02 -0.18668018140E+01  0.47787248443E+02  0.19999896949E+02 0.  0.
        -12    1    1    2    0    0  0.41781251062E+02  0.11596005623E+02  0.18668018140E+01  0.43400751557E+02  0.00000000000E+00 0.  1.
         11    1    3    3    0    0  0.77234547175E+00  0.11726095942E+01 -0.14776247851E+00  0.14118657158E+01  0.51100000000E-03 0.  1.
        -11    1    3    3    0    0 -0.32961728942E+02 -0.12376373031E+02  0.36139336760E+01  0.35393653402E+02  0.51100000000E-03 0. -1.
         12    1    3    3    0    0 -0.95918675915E+01 -0.39224218683E+00 -0.53329730115E+01  0.10981729325E+02  0.00000000000E+00 0. -1.
</event>
<event>
 7    1  0.1714203E-010  0.4778727E+02  0.7816164E-02  0.1312668E+00
        -11   -1    0    0    0    0  0.00000000000E+00  0.00000000000E+00  0.45593999997E+02  0.45594000000E+02  0.51100000000E-03 0. -1.
         11   -1    0    0    0    0 -0.00000000000E+00 -0.00000000000E+00 -0.45593999997E+02  0.45594000000E+02  0.51100000000E-03 0.  1.
    9900012    2    1    2    0    0  0.24312557849E+02 -0.15179412317E+02  0.32590004379E+02  0.47787269443E+02  0.19999992700E+02 0.  0.
        -12    1    1    2    0    0 -0.24312557849E+02  0.15179412317E+02 -0.32590004379E+02  0.43400730557E+02  0.00000000000E+00 0.  1.
         11    1    3    3    0    0  0.15535617685E+02 -0.80027725837E+01  0.28803012347E+02  0.33689958540E+02  0.51100000000E-03 0.  1.
        -11    1    3    3    0    0  0.39999372405E+01 -0.66051229265E+01  0.49181258244E+01  0.91550591854E+01  0.51100000000E-03 0. -1.
        -12    1    3    3    0    0  0.47770029231E+01 -0.57151680638E+00 -0.11311337928E+01  0.49422517181E+01  0.00000000000E+00 0.  1.
</event>
<event>
 7    1  0.1714203E-010  0.4778727E+02  0.7816164E-02  0.1312668E+00
        -11   -1    0    0    0    0  0.00000000000E+00  0.00000000000E+00  0.45593999997E+02  0.45594000000E+02  0.51100000000E-03 0. -1.
         11   -1    0    0    0    0 -0.00000000000E+00 -0.00000000000E+00 -0.45593999997E+02  0.45594000000E+02  0.51100000000E-03 0.  1.
    9900012    2    1    2    0    0 -0.26676674943E+02  0.33976015589E+02  0.41962477703E+01  0.47787272856E+02  0.20000008258E+02 0.  0.
        -12    1    1    2    0    0  0.26676674943E+02 -0.33976015589E+02 -0.41962477703E+01  0.43400727144E+02  0.00000000000E+00 0.  1.
         11    1    3    3    0    0 -0.20955632896E+02  0.19107197826E+02 -0.57623428071E+01  0.28938350916E+02  0.51100000000E-03 0. -1.
        -11    1    3    3    0    0 -0.10010102861E+01  0.43718693891E+01  0.30797750482E+01  0.54406137666E+01  0.51100000000E-03 0.  1.
         12    1    3    3    0    0 -0.47200317601E+01  0.10496948374E+02  0.68788155291E+01  0.13408308173E+02  0.00000000000E+00 0. -1.
</event>
<event>
 7    1  0.1714203E-010  0.4778727E+02  0.7816164E-02  0.1312668E+00
        -11   -1    0    0    0    0  0.00000000000E+00  0.00000000000E+00  0.45593999997E+02  0.45594000000E+02  0.51100000000E-03 0.  1.
         11   -1    0    0    0    0 -0.00000000000E+00 -0.00000000000E+00 -0.45593999997E+02  0.45594000000E+02  0.51100000000E-03 0. -1.
    9900012    2    1    2    0    0 -0.41585956060E+02 -0.76225398453E+01 -0.98045110229E+01  0.47787270842E+02  0.19999999075E+02 0.  0.
        -12    1    1    2    0    0  0.41585956060E+02  0.76225398453E+01  0.98045110229E+01  0.43400729158E+02  0.00000000000E+00 0.  1.
         11    1    3    3    0    0 -0.34254680973E+02 -0.10860094739E+02 -0.21615036731E+01  0.35999957287E+02  0.51100000000E-03 0. -1.
        -11    1    3    3    0    0 -0.43691771889E+01 -0.58365819603E-01 -0.49461573282E+01  0.65998173045E+01  0.51100000000E-03 0.  1.
         12    1    3    3    0    0 -0.29620978980E+01  0.32959207131E+01 -0.26968500217E+01  0.51874962500E+01  0.00000000000E+00 0. -1.
</event>
<event>
 7    1  0.1714203E-010  0.4778731E+02  0.7816164E-02  0.1312668E+00
        -11   -1    0    0    0    0  0.00000000000E+00  0.00000000000E+00  0.45593999997E+02  0.45594000000E+02  0.51100000000E-03 0.  1.
         11   -1    0    0    0    0 -0.00000000000E+00 -0.00000000000E+00 -0.45593999997E+02  0.45594000000E+02  0.51100000000E-03 0. -1.
    9900012    2    1    2    0    0  0.13685874053E+02  0.25290577707E+02 -0.32506981594E+02  0.47787305055E+02  0.20000155069E+02 0.  0.
        -12    1    1    2    0    0 -0.13685874053E+02 -0.25290577707E+02  0.32506981594E+02  0.43400694945E+02  0.00000000000E+00 0.  1.
         11    1    3    3    0    0  0.20043037582E+00  0.78927004720E+01 -0.93635836860E+01  0.12247921978E+02  0.51100000000E-03 0. -1.
        -11    1    3    3    0    0  0.53922015020E+01  0.15816620123E+02 -0.21329593164E+02  0.27095993319E+02  0.51100000000E-03 0.  1.
        -12    1    3    3    0    0  0.80932421748E+01  0.15812571122E+01 -0.18138047432E+01  0.84433897577E+01  0.00000000000E+00 0.  1.
</event>
<event>
 7    1  0.1714203E-010  0.4778727E+02  0.7816164E-02  0.1312668E+00
        -11   -1    0    0    0    0  0.00000000000E+00  0.00000000000E+00  0.45593999997E+02  0.45594000000E+02  0.51100000000E-03 0.  1.
         11   -1    0    0    0    0 -0.00000000000E+00 -0.00000000000E+00 -0.45593999997E+02  0.45594000000E+02  0.51100000000E-03 0. -1.
    9900012    2    1    2    0    0  0.39034319842E+02  0.80568724581E+01  0.17176493208E+02  0.47787271454E+02  0.20000001869E+02 0.  0.
        -12    1    1    2    0    0 -0.39034319842E+02 -0.80568724581E+01 -0.17176493208E+02  0.43400728546E+02  0.00000000000E+00 0.  1.
         11    1    3    3    0    0  0.26270761566E+01  0.26759756463E+01  0.21617273602E+01  0.43284454753E+01  0.51100000000E-03 0.  1.
        -11    1    3    3    0    0  0.32606906841E+02  0.27884715231E+01  0.59064189778E+01  0.33254649789E+02  0.51100000000E-03 0. -1.
         12    1    3    3    0    0  0.38003368444E+01  0.25924252886E+01  0.91083468704E+01  0.10204176190E+02  0.00000000000E+00 0. -1.
</event>
<event>
 7    1  0.1714203E-010  0.4778727E+02  0.7816164E-02  0.1312668E+00
        -11   -1    0    0    0    0  0.00000000000E+00  0.00000000000E+00  0.45593999997E+02  0.45594000000E+02  0.51100000000E-03 0. -1.
         11   -1    0    0    0    0 -0.00000000000E+00 -0.00000000000E+00 -0.45593999997E+02  0.45594000000E+02  0.51100000000E-03 0.  1.
    9900012    2    1    2    0    0 -0.78967432799E+01 -0.14525026690E+02  0.40128398871E+02  0.47787270159E+02  0.19999995964E+02 0.  0.
        -12    1    1    2    0    0  0.78967432799E+01  0.14525026690E+02 -0.40128398871E+02  0.43400729841E+02  0.00000000000E+00 0.  1.
         11    1    3    3    0    0  0.30285050580E+01 -0.17694410438E+01  0.37599837140E+01  0.51420076122E+01  0.51100000000E-03 0. -1.
        -11    1    3    3    0    0  0.19061866873E+01 -0.85298770361E+01  0.15186575654E+02  0.17522112609E+02  0.51100000000E-03 0.  1.
         12    1    3    3    0    0 -0.12831435025E+02 -0.42257086100E+01  0.21181839503E+02  0.25123149938E+02  0.00000000000E+00 0. -1.
</event>
<event>
 7    1  0.1714203E-010  0.4778727E+02  0.7816164E-02  0.1312668E+00
        -11   -1    0    0    0    0  0.00000000000E+00  0.00000000000E+00  0.45593999997E+02  0.45594000000E+02  0.51100000000E-03 0.  1.
         11   -1    0    0    0    0 -0.00000000000E+00 -0.00000000000E+00 -0.45593999997E+02  0.45594000000E+02  0.51100000000E-03 0. -1.
    9900012    2    1    2    0    0  0.20960985151E+02 -0.35373765643E+02 -0.13890901258E+02  0.47787270375E+02  0.19999996946E+02 0.  0.
        -12    1    1    2    0    0 -0.20960985151E+02  0.35373765643E+02  0.13890901258E+02  0.43400729625E+02  0.00000000000E+00 0.  1.
         11    1    3    3    0    0  0.52841545643E+01 -0.12905996955E+02  0.37641976772E+01  0.14444937912E+02  0.51100000000E-03 0. -1.
        -11    1    3    3    0    0 -0.58875463439E+00 -0.12189693272E+01 -0.17508886388E+01  0.22131718249E+01  0.51100000000E-03 0.  1.
         12    1    3    3    0    0  0.16265585222E+02 -0.21248799361E+02 -0.15904210297E+02  0.31129160638E+02  0.00000000000E+00 0. -1.
</event>
<event>
 7    1  0.1714203E-010  0.4778727E+02  0.7816164E-02  0.1312668E+00
        -11   -1    0    0    0    0  0.00000000000E+00  0.00000000000E+00  0.45593999997E+02  0.45594000000E+02  0.51100000000E-03 0.  1.
         11   -1    0    0    0    0 -0.00000000000E+00 -0.00000000000E+00 -0.45593999997E+02  0.45594000000E+02  0.51100000000E-03 0. -1.
    9900012    2    1    2    0    0  0.15991364015E+02 -0.35426814423E+02 -0.19309071901E+02  0.47787272346E+02  0.20000005932E+02 0.  0.
        -12    1    1    2    0    0 -0.15991364015E+02  0.35426814423E+02  0.19309071901E+02  0.43400727654E+02  0.00000000000E+00 0.  1.
         11    1    3    3    0    0 -0.80900042991E+00 -0.14288957596E+02 -0.70630149539E+01  0.15959792335E+02  0.51100000000E-03 0. -1.
        -11    1    3    3    0    0  0.11975767261E+02 -0.11602657002E+02 -0.16130108656E+01  0.16752386555E+02  0.51100000000E-03 0.  1.
        -12    1    3    3    0    0  0.48245971841E+01 -0.95351998250E+01 -0.10633046082E+02  0.15075093455E+02  0.00000000000E+00 0.  1.
</event>
<event>
 7    1  0.1714203E-010  0.4778727E+02  0.7816164E-02  0.1312668E+00
        -11   -1    0    0    0    0  0.00000000000E+00  0.00000000000E+00  0.45593999997E+02  0.45594000000E+02  0.51100000000E-03 0. -1.
         11   -1    0    0    0    0 -0.00000000000E+00 -0.00000000000E+00 -0.45593999997E+02  0.45594000000E+02  0.51100000000E-03 0.  1.
    9900012    2    1    2    0    0 -0.33718847082E+01  0.12258845911E+02  0.41496676327E+02  0.47787273557E+02  0.20000011457E+02 0.  0.
        -12    1    1    2    0    0  0.33718847082E+01 -0.12258845911E+02 -0.41496676327E+02  0.43400726443E+02  0.00000000000E+00 0.  1.
         11    1    3    3    0    0  0.35745256819E+01  0.23337156213E+01  0.34244624410E+01  0.54726963850E+01  0.51100000000E-03 0.  1.
        -11    1    3    3    0    0 -0.85574096281E+01  0.64418276517E+01  0.36712393407E+02  0.38242989331E+02  0.51100000000E-03 0. -1.
         12    1    3    3    0    0  0.16109992379E+01  0.34833026381E+01  0.13598204789E+01  0.40715878412E+01  0.00000000000E+00 0. -1.
</event>
<event>
 7    1  0.1714203E-010  0.4778727E+02  0.7816164E-02  0.1312668E+00
        -11   -1    0    0    0    0  0.00000000000E+00  0.00000000000E+00  0.45593999997E+02  0.45594000000E+02  0.51100000000E-03 0.  1.
         11   -1    0    0    0    0 -0.00000000000E+00 -0.00000000000E+00 -0.45593999997E+02  0.45594000000E+02  0.51100000000E-03 0. -1.
    9900012    2    1    2    0    0  0.17250701139E+02  0.33731065136E+02 -0.21171957465E+02  0.47787271574E+02  0.20000002414E+02 0.  0.
        -12    1    1    2    0    0 -0.17250701139E+02 -0.33731065136E+02  0.21171957465E+02  0.43400728426E+02  0.00000000000E+00 0.  1.
         11    1    3    3    0    0  0.12712627175E+02  0.18850269337E+02 -0.58289541010E+01  0.23471690394E+02  0.51100000000E-03 0. -1.
        -11    1    3    3    0    0  0.14213084928E+01 -0.15713853513E+01 -0.17479922025E+01  0.27467884438E+01  0.51100000000E-03 0.  1.
         12    1    3    3    0    0  0.31167654712E+01  0.16452181151E+02 -0.13595011162E+02  0.21568792736E+02  0.00000000000E+00 0. -1.
</event>
<event>
 7    1  0.1714203E-010  0.4778727E+02  0.7816164E-02  0.1312668E+00
        -11   -1    0    0    0    0  0.00000000000E+00  0.00000000000E+00  0.45593999997E+02  0.45594000000E+02  0.51100000000E-03 0. -1.
         11   -1    0    0    0    0 -0.00000000000E+00 -0.00000000000E+00 -0.45593999997E+02  0.45594000000E+02  0.51100000000E-03 0.  1.
    9900012    2    1    2    0    0  0.26794059764E+02  0.27806537609E+02  0.19811563075E+02  0.47787271850E+02  0.20000003673E+02 0.  0.
        -12    1    1    2    0    0 -0.26794059764E+02 -0.27806537609E+02 -0.19811563075E+02  0.43400728150E+02  0.00000000000E+00 0.  1.
         11    1    3    3    0    0  0.15459708351E+02  0.21563232516E+02  0.17669933345E+02  0.31877925333E+02  0.51100000000E-03 0. -1.
        -11    1    3    3    0    0  0.42075859740E+01  0.69355691636E+01 -0.83505388281E+00  0.81549503125E+01  0.51100000000E-03 0.  1.
         12    1    3    3    0    0  0.71267654389E+01 -0.69226407065E+00  0.29766836129E+01  0.77543962045E+01  0.00000000000E+00 0. -1.
</event>
<event>
 7    1  0.1714203E-010  0.4778727E+02  0.7816164E-02  0.1312668E+00
        -11   -1    0    0    0    0  0.00000000000E+00  0.00000000000E+00  0.45593999997E+02  0.45594000000E+02  0.51100000000E-03 0. -1.
         11   -1    0    0    0    0 -0.00000000000E+00 -0.00000000000E+00 -0.45593999997E+02  0.45594000000E+02  0.51100000000E-03 0.  1.
    9900012    2    1    2    0    0  0.34274095266E+02 -0.26401691350E+02  0.34439190764E+01  0.47787268543E+02  0.19999988593E+02 0.  0.
        -12    1    1    2    0    0 -0.34274095266E+02  0.26401691350E+02 -0.34439190764E+01  0.43400731457E+02  0.00000000000E+00 0.  1.
         11    1    3    3    0    0  0.13188999608E+02 -0.14136536593E+02 -0.17835044957E+01  0.19415773640E+02  0.51100000000E-03 0. -1.
        -11    1    3    3    0    0  0.17447208201E+02 -0.43199691495E+01 -0.39878933319E+00  0.17978493837E+02  0.51100000000E-03 0.  1.
         12    1    3    3    0    0  0.36378874574E+01 -0.79451856080E+01  0.56262129053E+01  0.10393001066E+02  0.00000000000E+00 0. -1.
</event>
<event>
 7    1  0.1714203E-010  0.4778728E+02  0.7816164E-02  0.1312668E+00
        -11   -1    0    0    0    0  0.00000000000E+00  0.00000000000E+00  0.45593999997E+02  0.45594000000E+02  0.51100000000E-03 0.  1.
         11   -1    0    0    0    0 -0.00000000000E+00 -0.00000000000E+00 -0.45593999997E+02  0.45594000000E+02  0.51100000000E-03 0. -1.
    9900012    2    1    2    0    0 -0.17874470886E+02 -0.22392800147E+02 -0.32598900104E+02  0.47787280007E+02  0.20000040865E+02 0.  0.
        -12    1    1    2    0    0  0.17874470886E+02  0.22392800147E+02  0.32598900104E+02  0.43400719993E+02  0.00000000000E+00 0.  1.
         11    1    3    3    0    0 -0.40882014766E+01  0.10418384721E+01 -0.21716732941E+01  0.47449956663E+01  0.51100000000E-03 0. -1.
        -11    1    3    3    0    0 -0.50478932729E+01 -0.16573280739E+02 -0.10588749616E+02  0.20304592576E+02  0.51100000000E-03 0.  1.
         12    1    3    3    0    0 -0.87383761366E+01 -0.68613578799E+01 -0.19838477194E+02  0.22737691765E+02  0.00000000000E+00 0. -1.
</event>
<event>
 7    1  0.2054153E-010  0.4778727E+02  0.7816164E-02  0.1312668E+00
        -11   -1    0    0    0    0  0.00000000000E+00  0.00000000000E+00  0.45593999997E+02  0.45594000000E+02  0.51100000000E-03 0.  1.
         11   -1    0    0    0    0 -0.00000000000E+00 -0.00000000000E+00 -0.45593999997E+02  0.45594000000E+02  0.51100000000E-03 0. -1.
    9900012    2    1    2    0    0  0.31817033734E+02  0.84110955610E+01 -0.28294050147E+02  0.47787269155E+02  0.19999991386E+02 0.  0.
        -12    1    1    2    0    0 -0.31817033734E+02 -0.84110955610E+01  0.28294050147E+02  0.43400730845E+02  0.00000000000E+00 0.  1.
         11    1    3    3    0    0  0.11083353285E+02  0.11530688519E+01 -0.11507280333E+02  0.16018357867E+02  0.51100000000E-03 0. -1.
        -11    1    3    3    0    0  0.10725623084E+02  0.11323832084E+02 -0.66512025855E+01  0.16956021340E+02  0.51100000000E-03 0.  1.
        -12    1    3    3    0    0  0.10008057365E+02 -0.40658053750E+01 -0.10135567229E+02  0.14812889948E+02  0.00000000000E+00 0.  1.
</event>
<event>
 7    1  0.1714203E-010  0.4778727E+02  0.7816164E-02  0.1312668E+00
        -11   -1    0    0    0    0  0.00000000000E+00  0.00000000000E+00  0.45593999997E+02  0.45594000000E+02  0.51100000000E-03 0. -1.
         11   -1    0    0    0    0 -0.00000000000E+00 -0.00000000000E+00 -0.45593999997E+02  0.45594000000E+02  0.51100000000E-03 0.  1.
    9900012    2    1    2    0    0 -0.16998215302E+02 -0.13658342949E+02  0.37525105656E+02  0.47787271780E+02  0.20000003353E+02 0.  0.
        -12    1    1    2    0    0  0.16998215302E+02  0.13658342949E+02 -0.37525105656E+02  0.43400728220E+02  0.00000000000E+00 0.  1.
         11    1    3    3    0    0 -0.67014550341E+01 -0.17965958663E+01  0.11705749571E+02  0.13607418182E+02  0.51100000000E-03 0.  1.
        -11    1    3    3    0    0 -0.10872979806E+02 -0.13926468423E+02  0.26570349837E+02  0.31908489518E+02  0.51100000000E-03 0. -1.
        -12    1    3    3    0    0  0.57621953808E+00  0.20647213404E+01 -0.75099375252E+00  0.22713640804E+01  0.00000000000E+00 0.  1.
</event>
<event>
 7    1  0.1714203E-010  0.4778727E+02  0.7816164E-02  0.1312668E+00
        -11   -1    0    0    0    0  0.00000000000E+00  0.00000000000E+00  0.45593999997E+02  0.45594000000E+02  0.51100000000E-03 0.  1.
         11   -1    0    0    0    0 -0.00000000000E+00 -0.00000000000E+00 -0.45593999997E+02  0.45594000000E+02  0.51100000000E-03 0. -1.
    9900012    2    1    2    0    0 -0.25441491929E+01 -0.33106389872E+02 -0.27948484961E+02  0.47787267782E+02  0.19999985125E+02 0.  0.
        -12    1    1    2    0    0  0.25441491929E+01  0.33106389872E+02  0.27948484961E+02  0.43400732218E+02  0.00000000000E+00 0.  1.
         11    1    3    3    0    0  0.74368862002E-01  0.14300279274E+01 -0.19490128026E+01  0.24185040348E+01  0.51100000000E-03 0. -1.
        -11    1    3    3    0    0  0.80762543714E-01 -0.18641638239E+02 -0.57983273402E+01  0.19522750805E+02  0.51100000000E-03 0.  1.
        -12    1    3    3    0    0 -0.26992805986E+01 -0.15894779560E+02 -0.20201144818E+02  0.25846012942E+02  0.00000000000E+00 0.  1.
</event>
<event>
 7    1  0.1714203E-010  0.4778727E+02  0.7816164E-02  0.1312668E+00
        -11   -1    0    0    0    0  0.00000000000E+00  0.00000000000E+00  0.45593999997E+02  0.45594000000E+02  0.51100000000E-03 0. -1.
         11   -1    0    0    0    0 -0.00000000000E+00 -0.00000000000E+00 -0.45593999997E+02  0.45594000000E+02  0.51100000000E-03 0.  1.
    9900012    2    1    2    0    0 -0.20892164544E+02  0.38041169534E+02  0.10035115022E+00  0.47787272020E+02  0.20000004449E+02 0.  0.
        -12    1    1    2    0    0  0.20892164544E+02 -0.38041169534E+02 -0.10035115022E+00  0.43400727980E+02  0.00000000000E+00 0.  1.
         11    1    3    3    0    0 -0.21732766951E+01  0.54638994681E+01  0.37950424278E+01  0.69985481552E+01  0.51100000000E-03 0. -1.
        -11    1    3    3    0    0 -0.11399861286E+02  0.88123472625E+01 -0.64180998112E+01  0.15773595249E+02  0.51100000000E-03 0.  1.
         12    1    3    3    0    0 -0.73190265628E+01  0.23764922803E+02  0.27234085336E+01  0.25015128616E+02  0.00000000000E+00 0. -1.
</event>
<event>
 7    1  0.1714203E-010  0.4778727E+02  0.7816164E-02  0.1312668E+00
        -11   -1    0    0    0    0  0.00000000000E+00  0.00000000000E+00  0.45593999997E+02  0.45594000000E+02  0.51100000000E-03 0.  1.
         11   -1    0    0    0    0 -0.00000000000E+00 -0.00000000000E+00 -0.45593999997E+02  0.45594000000E+02  0.51100000000E-03 0. -1.
    9900012    2    1    2    0    0 -0.17129108500E+02 -0.15602365907E+02 -0.36698540807E+02  0.47787273309E+02  0.20000010327E+02 0.  0.
        -12    1    1    2    0    0  0.17129108500E+02  0.15602365907E+02  0.36698540807E+02  0.43400726691E+02  0.00000000000E+00 0.  1.
         11    1    3    3    0    0 -0.85826221618E+00  0.13106902704E+01 -0.37032271724E+01  0.40209967381E+01  0.51100000000E-03 0. -1.
        -11    1    3    3    0    0 -0.10272989414E+02 -0.17189788856E+02 -0.15663110681E+02  0.25423536121E+02  0.51100000000E-03 0.  1.
        -12    1    3    3    0    0 -0.59978568701E+01  0.27673267903E+00 -0.17332202953E+02  0.18342740450E+02  0.00000000000E+00 0.  1.
</event>
<event>
 7    1  0.1960275E-010  0.4778727E+02  0.7816164E-02  0.1312668E+00
        -11   -1    0    0    0    0  0.00000000000E+00  0.00000000000E+00  0.45593999997E+02  0.45594000000E+02  0.51100000000E-03 0.  1.
         11   -1    0    0    0    0 -0.00000000000E+00 -0.00000000000E+00 -0.45593999997E+02  0.45594000000E+02  0.51100000000E-03 0. -1.
    9900012    2    1    2    0    0 -0.23082554616E+02  0.36305017001E+02  0.57240177405E+01  0.47787274590E+02  0.20000016166E+02 0.  0.
        -12    1    1    2    0    0  0.23082554616E+02 -0.36305017001E+02 -0.57240177405E+01  0.43400725410E+02  0.00000000000E+00 0.  1.
         11    1    3    3    0    0 -0.59048570340E+01  0.14286707819E+02  0.46269356845E+01  0.16136477031E+02  0.51100000000E-03 0. -1.
        -11    1    3    3    0    0 -0.13588130107E+02  0.17065066301E+02 -0.56596936682E+01  0.22536324020E+02  0.51100000000E-03 0.  1.
        -12    1    3    3    0    0 -0.35895674750E+01  0.49532428805E+01  0.67567757242E+01  0.91144735382E+01  0.00000000000E+00 0.  1.
</event>
<event>
 7    1  0.1714203E-010  0.4778728E+02  0.7816164E-02  0.1312668E+00
        -11   -1    0    0    0    0  0.00000000000E+00  0.00000000000E+00  0.45593999997E+02  0.45594000000E+02  0.51100000000E-03 0.  1.
         11   -1    0    0    0    0 -0.00000000000E+00 -0.00000000000E+00 -0.45593999997E+02  0.45594000000E+02  0.51100000000E-03 0. -1.
    9900012    2    1    2    0    0 -0.29062008965E+02 -0.96283774598E+01 -0.30762263686E+02  0.47787275529E+02  0.20000020446E+02 0.  0.
        -12    1    1    2    0    0  0.29062008965E+02  0.96283774598E+01  0.30762263686E+02  0.43400724471E+02  0.00000000000E+00 0.  1.
         11    1    3    3    0    0 -0.15369122285E+02 -0.24762457741E+01 -0.15781852037E+02  0.22167737073E+02  0.51100000000E-03 0. -1.
        -11    1    3    3    0    0 -0.96193541676E+01 -0.71565132296E+01 -0.17210924114E+02  0.20975308468E+02  0.51100000000E-03 0.  1.
        -12    1    3    3    0    0 -0.40735325116E+01  0.43815439368E-02  0.22305124654E+01  0.46442299878E+01  0.00000000000E+00 0.  1.
</event>
<event>
 7    1  0.1714203E-010  0.4778726E+02  0.7816164E-02  0.1312668E+00
        -11   -1    0    0    0    0  0.00000000000E+00  0.00000000000E+00  0.45593999997E+02  0.45594000000E+02  0.51100000000E-03 0. -1.
         11   -1    0    0    0    0 -0.00000000000E+00 -0.00000000000E+00 -0.45593999997E+02  0.45594000000E+02  0.51100000000E-03 0.  1.
    9900012    2    1    2    0    0 -0.17864804577E+02 -0.27510055635E+02  0.28419527064E+02  0.47787263576E+02  0.19999965949E+02 0.  0.
        -12    1    1    2    0    0  0.17864804577E+02  0.27510055635E+02 -0.28419527064E+02  0.43400736424E+02  0.00000000000E+00 0.  1.
         11    1    3    3    0    0 -0.11715379089E+02 -0.20532102951E+02  0.28613665974E+02  0.37115485171E+02  0.51100000000E-03 0. -1.
        -11    1    3    3    0    0 -0.49959242387E+01 -0.34648658390E+01  0.19655230494E+01  0.63896662980E+01  0.51100000000E-03 0.  1.
         12    1    3    3    0    0 -0.11535012493E+01 -0.35130868453E+01 -0.21596619597E+01  0.42821121067E+01  0.00000000000E+00 0. -1.
</event>
<event>
 7    1  0.1714203E-010  0.4778727E+02  0.7816164E-02  0.1312668E+00
        -11   -1    0    0    0    0  0.00000000000E+00  0.00000000000E+00  0.45593999997E+02  0.45594000000E+02  0.51100000000E-03 0.  1.
         11   -1    0    0    0    0 -0.00000000000E+00 -0.00000000000E+00 -0.45593999997E+02  0.45594000000E+02  0.51100000000E-03 0. -1.
    9900012    2    1    2    0    0 -0.30356664249E+02 -0.24151645986E+02 -0.19462643198E+02  0.47787267882E+02  0.19999985581E+02 0.  0.
        -12    1    1    2    0    0  0.30356664249E+02  0.24151645986E+02  0.19462643198E+02  0.43400732118E+02  0.00000000000E+00 0.  1.
         11    1    3    3    0    0 -0.10949655921E+02 -0.27605500260E+01 -0.65036404636E+01  0.13031229442E+02  0.51100000000E-03 0. -1.
        -11    1    3    3    0    0  0.20671529086E+01 -0.23966892154E+01  0.28044967308E+00  0.31774034404E+01  0.51100000000E-03 0.  1.
         12    1    3    3    0    0 -0.21474161236E+02 -0.18994406745E+02 -0.13239452407E+02  0.31578634999E+02  0.00000000000E+00 0. -1.
</event>
<event>
 7    1  0.1714203E-010  0.4778727E+02  0.7816164E-02  0.1312668E+00
        -11   -1    0    0    0    0  0.00000000000E+00  0.00000000000E+00  0.45593999997E+02  0.45594000000E+02  0.51100000000E-03 0.  1.
         11   -1    0    0    0    0 -0.00000000000E+00 -0.00000000000E+00 -0.45593999997E+02  0.45594000000E+02  0.51100000000E-03 0. -1.
    9900012    2    1    2    0    0 -0.13102585609E+02  0.33871006863E+02 -0.23763424918E+02  0.47787271672E+02  0.20000002863E+02 0.  0.
        -12    1    1    2    0    0  0.13102585609E+02 -0.33871006863E+02  0.23763424918E+02  0.43400728328E+02  0.00000000000E+00 0.  1.
         11    1    3    3    0    0 -0.18700760957E+01  0.13054605661E+02 -0.12666067662E+02  0.18285217632E+02  0.51100000000E-03 0. -1.
        -11    1    3    3    0    0 -0.71582381880E+01  0.15215185829E+02 -0.47573585662E+00  0.16821669912E+02  0.51100000000E-03 0.  1.
        -12    1    3    3    0    0 -0.40742713256E+01  0.56012153729E+01 -0.10621621399E+02  0.12680384128E+02  0.00000000000E+00 0.  1.
</event>
<event>
 7    1  0.1714203E-010  0.4778727E+02  0.7816164E-02  0.1312668E+00
        -11   -1    0    0    0    0  0.00000000000E+00  0.00000000000E+00  0.45593999997E+02  0.45594000000E+02  0.51100000000E-03 0. -1.
         11   -1    0    0    0    0 -0.00000000000E+00 -0.00000000000E+00 -0.45593999997E+02  0.45594000000E+02  0.51100000000E-03 0.  1.
    9900012    2    1    2    0    0  0.25706439056E+02 -0.27605878047E+02 -0.21464342896E+02  0.47787268121E+02  0.19999986670E+02 0.  0.
        -12    1    1    2    0    0 -0.25706439056E+02  0.27605878047E+02  0.21464342896E+02  0.43400731879E+02  0.00000000000E+00 0.  1.
         11    1    3    3    0    0  0.36963171571E+01 -0.83586454013E+01 -0.73309057222E+01  0.11716308823E+02  0.51100000000E-03 0. -1.
        -11    1    3    3    0    0  0.64053099644E+01  0.61719032805E+00  0.11638946154E+01  0.65393861010E+01  0.51100000000E-03 0.  1.
        -12    1    3    3    0    0  0.15604811935E+02 -0.19864422974E+02 -0.15297331789E+02  0.29531573197E+02  0.00000000000E+00 0.  1.
</event>
<event>
 7    1  0.1714203E-010  0.4778728E+02  0.7816164E-02  0.1312668E+00
        -11   -1    0    0    0    0  0.00000000000E+00  0.00000000000E+00  0.45593999997E+02  0.45594000000E+02  0.51100000000E-03 0.  1.
         11   -1    0    0    0    0 -0.00000000000E+00 -0.00000000000E+00 -0.45593999997E+02  0.45594000000E+02  0.51100000000E-03 0. -1.
    9900012    2    1    2    0    0  0.25952242314E+02 -0.16491368484E+02 -0.30629047268E+02  0.47787278207E+02  0.20000032659E+02 0.  0.
        -12    1    1    2    0    0 -0.25952242314E+02  0.16491368484E+02  0.30629047268E+02  0.43400721793E+02  0.00000000000E+00 0.  1.
         11    1    3    3    0    0  0.20082448373E+01 -0.22413952624E+01  0.25699173587E+01  0.39574455828E+01  0.51100000000E-03 0.  1.
        -11    1    3    3    0    0  0.95994099307E+01 -0.92245655154E+01 -0.17367692761E+02  0.21883282022E+02  0.51100000000E-03 0. -1.
        -12    1    3    3    0    0  0.14344587546E+02 -0.50254077060E+01 -0.15831271866E+02  0.21946550603E+02  0.00000000000E+00 0.  1.
</event>
<event>
 7    1  0.1714203E-010  0.4778727E+02  0.7816164E-02  0.1312668E+00
        -11   -1    0    0    0    0  0.00000000000E+00  0.00000000000E+00  0.45593999997E+02  0.45594000000E+02  0.51100000000E-03 0.  1.
         11   -1    0    0    0    0 -0.00000000000E+00 -0.00000000000E+00 -0.45593999997E+02  0.45594000000E+02  0.51100000000E-03 0. -1.
    9900012    2    1    2    0    0 -0.85880758746E+01  0.42398105974E+02 -0.35026925646E+01  0.47787270829E+02  0.19999999017E+02 0.  0.
        -12    1    1    2    0    0  0.85880758746E+01 -0.42398105974E+02  0.35026925646E+01  0.43400729171E+02  0.00000000000E+00 0.  1.
         11    1    3    3    0    0  0.54166426999E+00  0.11754244703E+02  0.91191563190E+00  0.11802002335E+02  0.51100000000E-03 0. -1.
        -11    1    3    3    0    0 -0.14235867729E+01  0.33615091437E+01 -0.66095047303E+01  0.75506222302E+01  0.51100000000E-03 0.  1.
        -12    1    3    3    0    0 -0.77061533717E+01  0.27282352127E+02  0.21948965338E+01  0.28434646264E+02  0.00000000000E+00 0.  1.
</event>
<event>
 7    1  0.1714203E-010  0.4778729E+02  0.7816164E-02  0.1312668E+00
        -11   -1    0    0    0    0  0.00000000000E+00  0.00000000000E+00  0.45593999997E+02  0.45594000000E+02  0.51100000000E-03 0. -1.
         11   -1    0    0    0    0 -0.00000000000E+00 -0.00000000000E+00 -0.45593999997E+02  0.45594000000E+02  0.51100000000E-03 0.  1.
    9900012    2    1    2    0    0 -0.30805656463E+02 -0.18743112930E+02  0.24152205995E+02  0.47787287946E+02  0.20000077059E+02 0.  0.
        -12    1    1    2    0    0  0.30805656463E+02  0.18743112930E+02 -0.24152205995E+02  0.43400712054E+02  0.00000000000E+00 0.  1.
         11    1    3    3    0    0 -0.41341886363E+01 -0.47098490903E+01  0.26247359500E+01  0.67943677559E+01  0.51100000000E-03 0. -1.
        -11    1    3    3    0    0 -0.47024115919E+01 -0.78591145681E+01 -0.63695843476E+00  0.91806357560E+01  0.51100000000E-03 0.  1.
         12    1    3    3    0    0 -0.21969056235E+02 -0.61741492720E+01  0.22164428479E+02  0.31812284434E+02  0.00000000000E+00 0. -1.
</event>
<event>
 7    1  0.2622719E-010  0.4778727E+02  0.7816164E-02  0.1312668E+00
        -11   -1    0    0    0    0  0.00000000000E+00  0.00000000000E+00  0.45593999997E+02  0.45594000000E+02  0.51100000000E-03 0.  1.
         11   -1    0    0    0    0 -0.00000000000E+00 -0.00000000000E+00 -0.45593999997E+02  0.45594000000E+02  0.51100000000E-03 0. -1.
    9900012    2    1    2    0    0 -0.18120561153E+02  0.37548987057E+02  0.12055790234E+02  0.47787271392E+02  0.20000001584E+02 0.  0.
        -12    1    1    2    0    0  0.18120561153E+02 -0.37548987057E+02 -0.12055790234E+02  0.43400728608E+02  0.00000000000E+00 0.  1.
         11    1    3    3    0    0 -0.48837768879E+01  0.10401739117E+02  0.57670199906E+01  0.12857137052E+02  0.51100000000E-03 0. -1.
        -11    1    3    3    0    0 -0.73696798113E+01  0.60689596805E+01 -0.44778695561E+01  0.10544940405E+02  0.51100000000E-03 0.  1.
        -12    1    3    3    0    0 -0.58671044542E+01  0.21078288260E+02  0.10766639800E+02  0.24385193934E+02  0.00000000000E+00 0.  1.
</event>
<event>
 7    1  0.1714203E-010  0.4778727E+02  0.7816164E-02  0.1312668E+00
        -11   -1    0    0    0    0  0.00000000000E+00  0.00000000000E+00  0.45593999997E+02  0.45594000000E+02  0.51100000000E-03 0. -1.
         11   -1    0    0    0    0 -0.00000000000E+00 -0.00000000000E+00 -0.45593999997E+02  0.45594000000E+02  0.51100000000E-03 0.  1.
    9900012    2    1    2    0    0  0.37927555015E+02 -0.18790080244E+02  0.95946435338E+01  0.47787265795E+02  0.19999976067E+02 0.  0.
        -12    1    1    2    0    0 -0.37927555015E+02  0.18790080244E+02 -0.95946435338E+01  0.43400734205E+02  0.00000000000E+00 0.  1.
         11    1    3    3    0    0  0.88931861459E+01  0.11073096400E+00 -0.26460134747E+01  0.92791383620E+01  0.51100000000E-03 0. -1.
        -11    1    3    3    0    0  0.13376997058E+01 -0.28014126461E+01 -0.17351949779E+01  0.35564385541E+01  0.51100000000E-03 0.  1.
         12    1    3    3    0    0  0.27696669163E+02 -0.16099398562E+02  0.13975851986E+02  0.34951688879E+02  0.00000000000E+00 0. -1.
</event>
<event>
 7    1  0.1714203E-010  0.4778727E+02  0.7816164E-02  0.1312668E+00
        -11   -1    0    0    0    0  0.00000000000E+00  0.00000000000E+00  0.45593999997E+02  0.45594000000E+02  0.51100000000E-03 0.  1.
         11   -1    0    0    0    0 -0.00000000000E+00 -0.00000000000E+00 -0.45593999997E+02  0.45594000000E+02  0.51100000000E-03 0. -1.
    9900012    2    1    2    0    0 -0.12174956237E+02  0.16664522899E+02 -0.38179672218E+02  0.47787271279E+02  0.20000001069E+02 0.  0.
        -12    1    1    2    0    0  0.12174956237E+02 -0.16664522899E+02  0.38179672218E+02  0.43400728721E+02  0.00000000000E+00 0.  1.
         11    1    3    3    0    0  0.18712081887E+01  0.47898858684E+01 -0.10892408354E+02  0.12045288985E+02  0.51100000000E-03 0. -1.
        -11    1    3    3    0    0 -0.13898198450E+02  0.63684062892E+01 -0.25877900808E+02  0.30056318293E+02  0.51100000000E-03 0.  1.
        -12    1    3    3    0    0 -0.14796597608E+00  0.55062307416E+01 -0.14093630558E+01  0.56856640011E+01  0.00000000000E+00 0.  1.
</event>
<event>
 7    1  0.1714203E-010  0.4778727E+02  0.7816164E-02  0.1312668E+00
        -11   -1    0    0    0    0  0.00000000000E+00  0.00000000000E+00  0.45593999997E+02  0.45594000000E+02  0.51100000000E-03 0.  1.
         11   -1    0    0    0    0 -0.00000000000E+00 -0.00000000000E+00 -0.45593999997E+02  0.45594000000E+02  0.51100000000E-03 0. -1.
    9900012    2    1    2    0    0  0.95868149362E+00  0.23535469018E+01 -0.43326258716E+02  0.47787274804E+02  0.20000017142E+02 0.  0.
        -12    1    1    2    0    0 -0.95868149362E+00 -0.23535469018E+01  0.43326258716E+02  0.43400725196E+02  0.00000000000E+00 0.  1.
         11    1    3    3    0    0  0.84306941361E+01  0.30676399135E+01 -0.33420253435E+02  0.34603473210E+02  0.51100000000E-03 0. -1.
        -11    1    3    3    0    0 -0.13109460798E+01 -0.20720509158E+00  0.19478256325E+00  0.13414373195E+01  0.51100000000E-03 0.  1.
         12    1    3    3    0    0 -0.61610665627E+01 -0.50688792008E+00 -0.10100787844E+02  0.11842364275E+02  0.00000000000E+00 0. -1.
</event>
<event>
 7    1  0.1714203E-010  0.4778731E+02  0.7816164E-02  0.1312668E+00
        -11   -1    0    0    0    0  0.00000000000E+00  0.00000000000E+00  0.45593999997E+02  0.45594000000E+02  0.51100000000E-03 0.  1.
         11   -1    0    0    0    0 -0.00000000000E+00 -0.00000000000E+00 -0.45593999997E+02  0.45594000000E+02  0.51100000000E-03 0. -1.
    9900012    2    1    2    0    0  0.19492163557E+02  0.21750424617E+02 -0.32102878278E+02  0.47787306401E+02  0.20000161202E+02 0.  0.
        -12    1    1    2    0    0 -0.19492163557E+02 -0.21750424617E+02  0.32102878278E+02  0.43400693599E+02  0.00000000000E+00 0.  1.
         11    1    3    3    0    0 -0.86601323140E+00 -0.10329336521E+01 -0.13483426748E+01  0.19065568642E+01  0.51100000000E-03 0.  1.
        -11    1    3    3    0    0  0.80893994098E+01  0.10508483266E+01 -0.12637668703E+02  0.15041719833E+02  0.51100000000E-03 0. -1.
         12    1    3    3    0    0  0.12268777379E+02  0.21732509942E+02 -0.18116866900E+02  0.30839029704E+02  0.00000000000E+00 0. -1.
</event>
<event>
 7    1  0.1714203E-010  0.4778727E+02  0.7816164E-02  0.1312668E+00
        -11   -1    0    0    0    0  0.00000000000E+00  0.00000000000E+00  0.45593999997E+02  0.45594000000E+02  0.51100000000E-03 0.  1.
         11   -1    0    0    0    0 -0.00000000000E+00 -0.00000000000E+00 -0.45593999997E+02  0.45594000000E+02  0.51100000000E-03 0. -1.
    9900012    2    1    2    0    0  0.32043443465E+02  0.17932850747E+02 -0.23135549282E+02  0.47787273675E+02  0.20000011992E+02 0.  0.
        -12    1    1    2    0    0 -0.32043443465E+02 -0.17932850747E+02  0.23135549282E+02  0.43400726325E+02  0.00000000000E+00 0.  1.
         11    1    3    3    0    0  0.15498218467E+01  0.19117040022E+01 -0.65418494880E+01  0.69894459676E+01  0.51100000000E-03 0. -1.
        -11    1    3    3    0    0  0.14538873796E+02  0.95776027410E+01 -0.77912249038E+00  0.17427459874E+02  0.51100000000E-03 0.  1.
        -12    1    3    3    0    0  0.15954747821E+02  0.64435440037E+01 -0.15814577304E+02  0.23370367833E+02  0.00000000000E+00 0.  1.
</event>
<event>
 7    1  0.1714203E-010  0.4778727E+02  0.7816164E-02  0.1312668E+00
        -11   -1    0    0    0    0  0.00000000000E+00  0.00000000000E+00  0.45593999997E+02  0.45594000000E+02  0.51100000000E-03 0.  1.
         11   -1    0    0    0    0 -0.00000000000E+00 -0.00000000000E+00 -0.45593999997E+02  0.45594000000E+02  0.51100000000E-03 0. -1.
    9900012    2    1    2    0    0 -0.23412144750E+02  0.22703574764E+02 -0.28636382036E+02  0.47787271838E+02  0.20000003618E+02 0.  0.
        -12    1    1    2    0    0  0.23412144750E+02 -0.22703574764E+02  0.28636382036E+02  0.43400728162E+02  0.00000000000E+00 0.  1.
         11    1    3    3    0    0 -0.24884742542E+02  0.19090383347E+02 -0.23073515139E+02  0.38936875181E+02  0.51100000000E-03 0.  1.
        -11    1    3    3    0    0 -0.15012983383E+01  0.19528828342E+01 -0.47470214575E+01  0.53480707777E+01  0.51100000000E-03 0. -1.
        -12    1    3    3    0    0  0.29738961303E+01  0.16603085830E+01 -0.81584543984E+00  0.35023258795E+01  0.00000000000E+00 0.  1.
</event>
<event>
 7    1  0.1714203E-010  0.4778727E+02  0.7816164E-02  0.1312668E+00
        -11   -1    0    0    0    0  0.00000000000E+00  0.00000000000E+00  0.45593999997E+02  0.45594000000E+02  0.51100000000E-03 0.  1.
         11   -1    0    0    0    0 -0.00000000000E+00 -0.00000000000E+00 -0.45593999997E+02  0.45594000000E+02  0.51100000000E-03 0. -1.
    9900012    2    1    2    0    0 -0.19203942442E+02 -0.14419271599E+02 -0.36151300630E+02  0.47787270329E+02  0.19999996737E+02 0.  0.
        -12    1    1    2    0    0  0.19203942442E+02  0.14419271599E+02  0.36151300630E+02  0.43400729671E+02  0.00000000000E+00 0.  1.
         11    1    3    3    0    0  0.25465927866E+01  0.14294779474E+01 -0.89448099961E+00  0.30542820012E+01  0.51100000000E-03 0.  1.
        -11    1    3    3    0    0 -0.23515873232E+01 -0.35905419409E+01 -0.34198858562E+01  0.54879480591E+01  0.51100000000E-03 0. -1.
         12    1    3    3    0    0 -0.19398947905E+02 -0.12258207605E+02 -0.31836933774E+02  0.39245040268E+02  0.00000000000E+00 0. -1.
</event>
<event>
 7    1  0.1714203E-010  0.4778727E+02  0.7816164E-02  0.1312668E+00
        -11   -1    0    0    0    0  0.00000000000E+00  0.00000000000E+00  0.45593999997E+02  0.45594000000E+02  0.51100000000E-03 0.  1.
         11   -1    0    0    0    0 -0.00000000000E+00 -0.00000000000E+00 -0.45593999997E+02  0.45594000000E+02  0.51100000000E-03 0. -1.
    9900012    2    1    2    0    0  0.19281227002E+02  0.28715760599E+02 -0.26215693396E+02  0.47787271876E+02  0.20000003792E+02 0.  0.
        -12    1    1    2    0    0 -0.19281227002E+02 -0.28715760599E+02  0.26215693396E+02  0.43400728124E+02  0.00000000000E+00 0.  1.
         11    1    3    3    0    0  0.74131228191E+01  0.62603244983E+01 -0.13187878716E+02  0.16372727264E+02  0.51100000000E-03 0. -1.
        -11    1    3    3    0    0 -0.20153504269E+01  0.52766660846E+01 -0.59892496442E+01  0.82326152511E+01  0.51100000000E-03 0.  1.
         12    1    3    3    0    0  0.13883454609E+02  0.17178770016E+02 -0.70385650353E+01  0.23181929361E+02  0.00000000000E+00 0. -1.
</event>
<event>
 7    1  0.1714203E-010  0.4778727E+02  0.7816164E-02  0.1312668E+00
        -11   -1    0    0    0    0  0.00000000000E+00  0.00000000000E+00  0.45593999997E+02  0.45594000000E+02  0.51100000000E-03 0. -1.
         11   -1    0    0    0    0 -0.00000000000E+00 -0.00000000000E+00 -0.45593999997E+02  0.45594000000E+02  0.51100000000E-03 0.  1.
    9900012    2    1    2    0    0 -0.32088459486E+02  0.91376187917E+00  0.29208202365E+02  0.47787270993E+02  0.19999999768E+02 0.  0.
        -12    1    1    2    0    0  0.32088459486E+02 -0.91376187917E+00 -0.29208202365E+02  0.43400729007E+02  0.00000000000E+00 0.  1.
         11    1    3    3    0    0 -0.34754486634E+01 -0.88538629878E-01  0.87283317618E+01  0.93952306042E+01  0.51100000000E-03 0. -1.
        -11    1    3    3    0    0 -0.13426399641E+02  0.75188496467E+01  0.63420076407E+01  0.16643988960E+02  0.51100000000E-03 0.  1.
        -12    1    3    3    0    0 -0.15186611181E+02 -0.65165491376E+01  0.14137862962E+02  0.21748051429E+02  0.00000000000E+00 0.  1.
</event>
<event>
 7    1  0.1714203E-010  0.4778728E+02  0.7816164E-02  0.1312668E+00
        -11   -1    0    0    0    0  0.00000000000E+00  0.00000000000E+00  0.45593999997E+02  0.45594000000E+02  0.51100000000E-03 0.  1.
         11   -1    0    0    0    0 -0.00000000000E+00 -0.00000000000E+00 -0.45593999997E+02  0.45594000000E+02  0.51100000000E-03 0. -1.
    9900012    2    1    2    0    0 -0.24856107190E+02  0.14681491536E+02 -0.32407564862E+02  0.47787279745E+02  0.20000039670E+02 0.  0.
        -12    1    1    2    0    0  0.24856107190E+02 -0.14681491536E+02  0.32407564862E+02  0.43400720255E+02  0.00000000000E+00 0.  1.
         11    1    3    3    0    0 -0.16103349531E+01  0.49324732789E+00 -0.98869946706E+01  0.10029413516E+02  0.51100000000E-03 0. -1.
        -11    1    3    3    0    0 -0.23503158494E+02  0.10476812944E+02 -0.22266598058E+02  0.34028862133E+02  0.51100000000E-03 0.  1.
         12    1    3    3    0    0  0.25738625758E+00  0.37114312639E+01 -0.25397213287E+00  0.37290040971E+01  0.00000000000E+00 0. -1.
</event>
<event>
 7    1  0.1714203E-010  0.4778727E+02  0.7816164E-02  0.1312668E+00
        -11   -1    0    0    0    0  0.00000000000E+00  0.00000000000E+00  0.45593999997E+02  0.45594000000E+02  0.51100000000E-03 0.  1.
         11   -1    0    0    0    0 -0.00000000000E+00 -0.00000000000E+00 -0.45593999997E+02  0.45594000000E+02  0.51100000000E-03 0. -1.
    9900012    2    1    2    0    0 -0.36817738205E+02  0.15633840742E+02 -0.16842220417E+02  0.47787271764E+02  0.20000003280E+02 0.  0.
        -12    1    1    2    0    0  0.36817738205E+02 -0.15633840742E+02  0.16842220417E+02  0.43400728236E+02  0.00000000000E+00 0.  1.
         11    1    3    3    0    0 -0.94423872977E+01  0.77500127821E+01 -0.90828822454E+01  0.15222356130E+02  0.51100000000E-03 0. -1.
        -11    1    3    3    0    0 -0.28437864282E+02  0.90017409024E+01 -0.82465098460E+01  0.30947510224E+02  0.51100000000E-03 0.  1.
         12    1    3    3    0    0  0.10625133746E+01 -0.11179129427E+01  0.48717167451E+00  0.16174054096E+01  0.00000000000E+00 0. -1.
</event>
<event>
 7    1  0.1714203E-010  0.4778727E+02  0.7816164E-02  0.1312668E+00
        -11   -1    0    0    0    0  0.00000000000E+00  0.00000000000E+00  0.45593999997E+02  0.45594000000E+02  0.51100000000E-03 0. -1.
         11   -1    0    0    0    0 -0.00000000000E+00 -0.00000000000E+00 -0.45593999997E+02  0.45594000000E+02  0.51100000000E-03 0.  1.
    9900012    2    1    2    0    0 -0.11096181812E+02  0.21204683763E+02  0.36205792902E+02  0.47787270698E+02  0.19999998421E+02 0.  0.
        -12    1    1    2    0    0  0.11096181812E+02 -0.21204683763E+02 -0.36205792902E+02  0.43400729302E+02  0.00000000000E+00 0.  1.
         11    1    3    3    0    0 -0.97028437882E+01  0.15416540974E+02  0.21733247224E+02  0.28357520137E+02  0.51100000000E-03 0. -1.
        -11    1    3    3    0    0 -0.33672426366E+01 -0.66759677265E+00 -0.30069277347E-01  0.34329160851E+01  0.51100000000E-03 0.  1.
         12    1    3    3    0    0  0.19739046132E+01  0.64557395619E+01  0.14502614955E+02  0.15996834476E+02  0.00000000000E+00 0. -1.
</event>
<event>
 7    1  0.1714203E-010  0.4778727E+02  0.7816164E-02  0.1312668E+00
        -11   -1    0    0    0    0  0.00000000000E+00  0.00000000000E+00  0.45593999997E+02  0.45594000000E+02  0.51100000000E-03 0. -1.
         11   -1    0    0    0    0 -0.00000000000E+00 -0.00000000000E+00 -0.45593999997E+02  0.45594000000E+02  0.51100000000E-03 0.  1.
    9900012    2    1    2    0    0 -0.24887689136E+02 -0.35338461848E+02 -0.39267431307E+01  0.47787271113E+02  0.20000000312E+02 0.  0.
        -12    1    1    2    0    0  0.24887689136E+02  0.35338461848E+02  0.39267431307E+01  0.43400728887E+02  0.00000000000E+00 0.  1.
         11    1    3    3    0    0 -0.82114747061E+01 -0.12503021668E+02 -0.66891639996E+01  0.16385932471E+02  0.51100000000E-03 0. -1.
        -11    1    3    3    0    0 -0.12505271134E+02 -0.13446644450E+02 -0.43936133834E+01  0.18881151763E+02  0.51100000000E-03 0.  1.
        -12    1    3    3    0    0 -0.41709432965E+01 -0.93887957305E+01  0.71560342523E+01  0.12520186878E+02  0.00000000000E+00 0.  1.
</event>
<event>
 7    1  0.1714203E-010  0.4778726E+02  0.7816164E-02  0.1312668E+00
        -11   -1    0    0    0    0  0.00000000000E+00  0.00000000000E+00  0.45593999997E+02  0.45594000000E+02  0.51100000000E-03 0.  1.
         11   -1    0    0    0    0 -0.00000000000E+00 -0.00000000000E+00 -0.45593999997E+02  0.45594000000E+02  0.51100000000E-03 0. -1.
    9900012    2    1    2    0    0 -0.35550314035E+02  0.22245626730E+02 -0.11177261176E+02  0.47787263785E+02  0.19999966902E+02 0.  0.
        -12    1    1    2    0    0  0.35550314035E+02 -0.22245626730E+02  0.11177261176E+02  0.43400736215E+02  0.00000000000E+00 0.  1.
         11    1    3    3    0    0 -0.21413219825E+02  0.96173077384E+01 -0.16505670903E+01  0.23531743739E+02  0.51100000000E-03 0. -1.
        -11    1    3    3    0    0 -0.98280150870E+01  0.26327711726E+01 -0.86162299889E+01  0.13332696054E+02  0.51100000000E-03 0.  1.
        -12    1    3    3    0    0 -0.43090791232E+01  0.99955478186E+01 -0.91046409696E+00  0.10922823992E+02  0.00000000000E+00 0.  1.
</event>
<event>
 7    1  0.1714203E-010  0.4778727E+02  0.7816164E-02  0.1312668E+00
        -11   -1    0    0    0    0  0.00000000000E+00  0.00000000000E+00  0.45593999997E+02  0.45594000000E+02  0.51100000000E-03 0.  1.
         11   -1    0    0    0    0 -0.00000000000E+00 -0.00000000000E+00 -0.45593999997E+02  0.45594000000E+02  0.51100000000E-03 0. -1.
    9900012    2    1    2    0    0 -0.17579306270E+01 -0.30190713327E+02  0.31129629294E+02  0.47787270613E+02  0.19999998035E+02 0.  0.
        -12    1    1    2    0    0  0.17579306270E+01  0.30190713327E+02 -0.31129629294E+02  0.43400729387E+02  0.00000000000E+00 0.  1.
         11    1    3    3    0    0 -0.23681558535E+01 -0.82034240212E+01  0.40329957872E+01  0.94429541510E+01  0.51100000000E-03 0. -1.
        -11    1    3    3    0    0 -0.40042439209E+01 -0.46677140283E+01  0.36618475554E+00  0.61608128655E+01  0.51100000000E-03 0.  1.
        -12    1    3    3    0    0  0.46144691474E+01 -0.17319575278E+02  0.26730448751E+02  0.32183503597E+02  0.00000000000E+00 0.  1.
</event>
<event>
 7    1  0.1714203E-010  0.4778727E+02  0.7816164E-02  0.1312668E+00
        -11   -1    0    0    0    0  0.00000000000E+00  0.00000000000E+00  0.45593999997E+02  0.45594000000E+02  0.51100000000E-03 0.  1.
         11   -1    0    0    0    0 -0.00000000000E+00 -0.00000000000E+00 -0.45593999997E+02  0.45594000000E+02  0.51100000000E-03 0. -1.
    9900012    2    1    2    0    0  0.58052584806E+01 -0.32925333993E+02 -0.27673899299E+02  0.47787270202E+02  0.19999996159E+02 0.  0.
        -12    1    1    2    0    0 -0.58052584806E+01  0.32925333993E+02  0.27673899299E+02  0.43400729798E+02  0.00000000000E+00 0.  1.
         11    1    3    3    0    0 -0.65125321513E+00 -0.53469753449E+01 -0.38203286156E+01  0.66037252427E+01  0.51100000000E-03 0. -1.
        -11    1    3    3    0    0 -0.43056597757E+01 -0.18864379804E+01 -0.30886027866E+00  0.47109180942E+01  0.51100000000E-03 0.  1.
         12    1    3    3    0    0  0.10762171471E+02 -0.25691920668E+02 -0.23544710405E+02  0.36472626865E+02  0.00000000000E+00 0. -1.
</event>
<event>
 7    1  0.1714203E-010  0.4778727E+02  0.7816164E-02  0.1312668E+00
        -11   -1    0    0    0    0  0.00000000000E+00  0.00000000000E+00  0.45593999997E+02  0.45594000000E+02  0.51100000000E-03 0.  1.
         11   -1    0    0    0    0 -0.00000000000E+00 -0.00000000000E+00 -0.45593999997E+02  0.45594000000E+02  0.51100000000E-03 0. -1.
    9900012    2    1    2    0    0  0.23505083082E+01  0.27454453690E+02 -0.33531350167E+02  0.47787270043E+02  0.19999995435E+02 0.  0.
        -12    1    1    2    0    0 -0.23505083082E+01 -0.27454453690E+02  0.33531350167E+02  0.43400729957E+02  0.00000000000E+00 0.  1.
         11    1    3    3    0    0  0.86014991712E-01  0.13278237800E+02 -0.66213447056E+01  0.14837830152E+02  0.51100000000E-03 0. -1.
        -11    1    3    3    0    0 -0.82483027669E+00 -0.21979363815E+01 -0.31349448339E+01  0.39165225258E+01  0.51100000000E-03 0.  1.
         12    1    3    3    0    0  0.30893235932E+01  0.16374152271E+02 -0.23775060628E+02  0.29032917365E+02  0.00000000000E+00 0. -1.
</event>
<event>
 7    1  0.1714203E-010  0.4778728E+02  0.7816164E-02  0.1312668E+00
        -11   -1    0    0    0    0  0.00000000000E+00  0.00000000000E+00  0.45593999997E+02  0.45594000000E+02  0.51100000000E-03 0.  1.
         11   -1    0    0    0    0 -0.00000000000E+00 -0.00000000000E+00 -0.45593999997E+02  0.45594000000E+02  0.51100000000E-03 0. -1.
    9900012    2    1    2    0    0  0.21164763996E+02 -0.37698525649E+02  0.38074342275E+01  0.47787278502E+02  0.20000034001E+02 0.  0.
        -12    1    1    2    0    0 -0.21164763996E+02  0.37698525649E+02 -0.38074342275E+01  0.43400721498E+02  0.00000000000E+00 0.  1.
         11    1    3    3    0    0  0.11427467909E+02 -0.23536699432E+02 -0.35111920056E+01  0.26398706645E+02  0.51100000000E-03 0. -1.
        -11    1    3    3    0    0 -0.53126909144E+00  0.94319829502E+00 -0.85381888311E+00  0.13787228937E+01  0.51100000000E-03 0.  1.
        -12    1    3    3    0    0  0.10268565179E+02 -0.15105024512E+02  0.81724451162E+01  0.20009848963E+02  0.00000000000E+00 0.  1.
</event>
<event>
 7    1  0.1714203E-010  0.4778727E+02  0.7816164E-02  0.1312668E+00
        -11   -1    0    0    0    0  0.00000000000E+00  0.00000000000E+00  0.45593999997E+02  0.45594000000E+02  0.51100000000E-03 0. -1.
         11   -1    0    0    0    0 -0.00000000000E+00 -0.00000000000E+00 -0.45593999997E+02  0.45594000000E+02  0.51100000000E-03 0.  1.
    9900012    2    1    2    0    0 -0.39248007509E+02  0.16683703405E+02 -0.80542844374E+01  0.47787267857E+02  0.19999985469E+02 0.  0.
        -12    1    1    2    0    0  0.39248007509E+02 -0.16683703405E+02  0.80542844374E+01  0.43400732143E+02  0.00000000000E+00 0.  1.
         11    1    3    3    0    0 -0.13666234570E+02  0.12886127901E+02 -0.59138876312E+01  0.19692443393E+02  0.51100000000E-03 0. -1.
        -11    1    3    3    0    0 -0.17222039318E+02  0.50748627749E+01  0.29930464672E+01  0.18201955880E+02  0.51100000000E-03 0.  1.
        -12    1    3    3    0    0 -0.83597336213E+01 -0.12772872706E+01 -0.51334432734E+01  0.98928685846E+01  0.00000000000E+00 0.  1.
</event>
<event>
 7    1  0.1714203E-010  0.4778727E+02  0.7816164E-02  0.1312668E+00
        -11   -1    0    0    0    0  0.00000000000E+00  0.00000000000E+00  0.45593999997E+02  0.45594000000E+02  0.51100000000E-03 0.  1.
         11   -1    0    0    0    0 -0.00000000000E+00 -0.00000000000E+00 -0.45593999997E+02  0.45594000000E+02  0.51100000000E-03 0. -1.
    9900012    2    1    2    0    0  0.26272882408E+02  0.78078912633E+01 -0.33651088509E+02  0.47787271045E+02  0.20000000001E+02 0.  0.
        -12    1    1    2    0    0 -0.26272882408E+02 -0.78078912633E+01  0.33651088509E+02  0.43400728955E+02  0.00000000000E+00 0.  1.
         11    1    3    3    0    0  0.84224714489E+01  0.54781698174E+01 -0.20918738875E+02  0.23206507843E+02  0.51100000000E-03 0. -1.
        -11    1    3    3    0    0  0.31247102032E+01 -0.37629603189E+01 -0.16193296597E+01  0.51522726076E+01  0.51100000000E-03 0.  1.
         12    1    3    3    0    0  0.14725700756E+02  0.60926817647E+01 -0.11113019974E+02  0.19428490595E+02  0.00000000000E+00 0. -1.
</event>
<event>
 7    1  0.1714203E-010  0.4778728E+02  0.7816164E-02  0.1312668E+00
        -11   -1    0    0    0    0  0.00000000000E+00  0.00000000000E+00  0.45593999997E+02  0.45594000000E+02  0.51100000000E-03 0.  1.
         11   -1    0    0    0    0 -0.00000000000E+00 -0.00000000000E+00 -0.45593999997E+02  0.45594000000E+02  0.51100000000E-03 0. -1.
    9900012    2    1    2    0    0 -0.10705173923E+01 -0.39675887763E+02 -0.17558495019E+02  0.47787276221E+02  0.20000023600E+02 0.  0.
        -12    1    1    2    0    0  0.10705173923E+01  0.39675887763E+02  0.17558495019E+02  0.43400723779E+02  0.00000000000E+00 0.  1.
         11    1    3    3    0    0  0.11551636915E+01 -0.17327004922E+01  0.21554179404E+01  0.29970787292E+01  0.51100000000E-03 0. -1.
        -11    1    3    3    0    0 -0.29236542401E+01 -0.18050100838E+02 -0.24642891416E+01  0.18450653529E+02  0.51100000000E-03 0.  1.
         12    1    3    3    0    0  0.69797315638E+00 -0.19893086432E+02 -0.17249623818E+02  0.26339543963E+02  0.00000000000E+00 0. -1.
</event>
<event>
 7    1  0.1714203E-010  0.4778727E+02  0.7816164E-02  0.1312668E+00
        -11   -1    0    0    0    0  0.00000000000E+00  0.00000000000E+00  0.45593999997E+02  0.45594000000E+02  0.51100000000E-03 0. -1.
         11   -1    0    0    0    0 -0.00000000000E+00 -0.00000000000E+00 -0.45593999997E+02  0.45594000000E+02  0.51100000000E-03 0.  1.
    9900012    2    1    2    0    0  0.22878166462E+02 -0.36145054497E+02 -0.73312904035E+01  0.47787270925E+02  0.19999999455E+02 0.  0.
        -12    1    1    2    0    0 -0.22878166462E+02  0.36145054497E+02  0.73312904035E+01  0.43400729075E+02  0.00000000000E+00 0.  1.
         11    1    3    3    0    0 -0.38000221463E+00 -0.54432881621E+01 -0.27966276684E+01  0.61314691776E+01  0.51100000000E-03 0. -1.
        -11    1    3    3    0    0  0.55200353334E+00 -0.79888472238E+01  0.31963735667E+01  0.86222498285E+01  0.51100000000E-03 0.  1.
         12    1    3    3    0    0  0.22706165143E+02 -0.22712919112E+02 -0.77310363018E+01  0.33033551919E+02  0.00000000000E+00 0. -1.
</event>
<event>
 7    1  0.1714203E-010  0.4778731E+02  0.7816164E-02  0.1312668E+00
        -11   -1    0    0    0    0  0.00000000000E+00  0.00000000000E+00  0.45593999997E+02  0.45594000000E+02  0.51100000000E-03 0.  1.
         11   -1    0    0    0    0 -0.00000000000E+00 -0.00000000000E+00 -0.45593999997E+02  0.45594000000E+02  0.51100000000E-03 0. -1.
    9900012    2    1    2    0    0 -0.26394646583E+02  0.28146955188E+02 -0.19866843652E+02  0.47787309553E+02  0.20000175575E+02 0.  0.
        -12    1    1    2    0    0  0.26394646583E+02 -0.28146955188E+02  0.19866843652E+02  0.43400690447E+02  0.00000000000E+00 0.  1.
         11    1    3    3    0    0  0.81959459378E+00  0.29795858749E+00 -0.27050236069E+01  0.28421237821E+01  0.51100000000E-03 0. -1.
        -11    1    3    3    0    0 -0.25130447934E+02  0.21366895681E+02 -0.18765141968E+02  0.37950154120E+02  0.51100000000E-03 0.  1.
        -12    1    3    3    0    0 -0.20837932430E+01  0.64821009196E+01  0.16033219230E+01  0.69950316511E+01  0.00000000000E+00 0.  1.
</event>
<event>
 7    1  0.1714203E-010  0.4778726E+02  0.7816164E-02  0.1312668E+00
        -11   -1    0    0    0    0  0.00000000000E+00  0.00000000000E+00  0.45593999997E+02  0.45594000000E+02  0.51100000000E-03 0.  1.
         11   -1    0    0    0    0 -0.00000000000E+00 -0.00000000000E+00 -0.45593999997E+02  0.45594000000E+02  0.51100000000E-03 0. -1.
    9900012    2    1    2    0    0 -0.54826050299E+01  0.24058858564E+02 -0.35703447722E+02  0.47787264839E+02  0.19999971705E+02 0.  0.
        -12    1    1    2    0    0  0.54826050299E+01 -0.24058858564E+02  0.35703447722E+02  0.43400735161E+02  0.00000000000E+00 0.  1.
         11    1    3    3    0    0  0.29228762685E+01  0.44474079613E+00 -0.33712720835E+01  0.44840245069E+01  0.51100000000E-03 0. -1.
        -11    1    3    3    0    0 -0.79051776727E+01  0.17377251431E+02 -0.13294682317E+02  0.23263905078E+02  0.51100000000E-03 0.  1.
         12    1    3    3    0    0 -0.50030362574E+00  0.62368663368E+01 -0.19037493322E+02  0.20039335253E+02  0.00000000000E+00 0. -1.
</event>
<event>
 7    1  0.1714203E-010  0.4778727E+02  0.7816164E-02  0.1312668E+00
        -11   -1    0    0    0    0  0.00000000000E+00  0.00000000000E+00  0.45593999997E+02  0.45594000000E+02  0.51100000000E-03 0. -1.
         11   -1    0    0    0    0 -0.00000000000E+00 -0.00000000000E+00 -0.45593999997E+02  0.45594000000E+02  0.51100000000E-03 0.  1.
    9900012    2    1    2    0    0  0.42338950902E+02  0.94417580447E+01  0.13746099589E+01  0.47787272921E+02  0.20000008556E+02 0.  0.
        -12    1    1    2    0    0 -0.42338950902E+02 -0.94417580447E+01 -0.13746099589E+01  0.43400727079E+02  0.00000000000E+00 0.  1.
         11    1    3    3    0    0  0.97838350724E+01  0.79121951766E+01  0.51257682158E+01  0.13586749475E+02  0.51100000000E-03 0. -1.
        -11    1    3    3    0    0  0.17278742263E+02  0.51376407967E+01  0.14726724707E+00  0.18026979088E+02  0.51100000000E-03 0.  1.
         12    1    3    3    0    0  0.15276373566E+02 -0.36080779286E+01 -0.38984255040E+01  0.16173544358E+02  0.00000000000E+00 0. -1.
</event>
<event>
 7    1  0.1714203E-010  0.4778727E+02  0.7816164E-02  0.1312668E+00
        -11   -1    0    0    0    0  0.00000000000E+00  0.00000000000E+00  0.45593999997E+02  0.45594000000E+02  0.51100000000E-03 0.  1.
         11   -1    0    0    0    0 -0.00000000000E+00 -0.00000000000E+00 -0.45593999997E+02  0.45594000000E+02  0.51100000000E-03 0. -1.
    9900012    2    1    2    0    0 -0.29970521992E+02  0.25868025598E+02 -0.17783033530E+02  0.47787271684E+02  0.20000002916E+02 0.  0.
        -12    1    1    2    0    0  0.29970521992E+02 -0.25868025598E+02  0.17783033530E+02  0.43400728316E+02  0.00000000000E+00 0.  1.
         11    1    3    3    0    0 -0.13406586484E+02  0.53933959443E+01 -0.72776385555E+01  0.16179904331E+02  0.51100000000E-03 0. -1.
        -11    1    3    3    0    0 -0.15571967264E+02  0.14684696985E+02 -0.13197489082E+02  0.25145580294E+02  0.51100000000E-03 0.  1.
        -12    1    3    3    0    0 -0.99196824455E+00  0.57899326693E+01  0.26920941073E+01  0.64617870590E+01  0.00000000000E+00 0.  1.
</event>
<event>
 7    1  0.1714203E-010  0.4778727E+02  0.7816164E-02  0.1312668E+00
        -11   -1    0    0    0    0  0.00000000000E+00  0.00000000000E+00  0.45593999997E+02  0.45594000000E+02  0.51100000000E-03 0.  1.
         11   -1    0    0    0    0 -0.00000000000E+00 -0.00000000000E+00 -0.45593999997E+02  0.45594000000E+02  0.51100000000E-03 0. -1.
    9900012    2    1    2    0    0  0.31127918496E+02 -0.27922257374E+02 -0.11619950254E+02  0.47787274077E+02  0.20000013825E+02 0.  0.
        -12    1    1    2    0    0 -0.31127918496E+02  0.27922257374E+02  0.11619950254E+02  0.43400725923E+02  0.00000000000E+00 0.  1.
         11    1    3    3    0    0  0.18889202340E+02 -0.22622616892E+02 -0.13609868292E+02  0.32462490282E+02  0.51100000000E-03 0. -1.
        -11    1    3    3    0    0  0.61999369898E+01  0.56050911311E+00 -0.11738366731E+01  0.63349255670E+01  0.51100000000E-03 0.  1.
        -12    1    3    3    0    0  0.60387791662E+01 -0.58601495945E+01  0.31637547105E+01  0.89898582278E+01  0.00000000000E+00 0.  1.
</event>
<event>
 7    1  0.1714203E-010  0.4778727E+02  0.7816164E-02  0.1312668E+00
        -11   -1    0    0    0    0  0.00000000000E+00  0.00000000000E+00  0.45593999997E+02  0.45594000000E+02  0.51100000000E-03 0.  1.
         11   -1    0    0    0    0 -0.00000000000E+00 -0.00000000000E+00 -0.45593999997E+02  0.45594000000E+02  0.51100000000E-03 0. -1.
    9900012    2    1    2    0    0  0.69411187237E+01  0.30291917073E+02 -0.30295936043E+02  0.47787272934E+02  0.20000008616E+02 0.  0.
        -12    1    1    2    0    0 -0.69411187237E+01 -0.30291917073E+02  0.30295936043E+02  0.43400727066E+02  0.00000000000E+00 0.  1.
         11    1    3    3    0    0  0.92293647879E+01  0.21102031472E+02 -0.10542782817E+02  0.25330360764E+02  0.51100000000E-03 0.  1.
        -11    1    3    3    0    0 -0.88295545608E+00  0.36469836715E+01 -0.31586389535E+01  0.49048038225E+01  0.51100000000E-03 0. -1.
        -12    1    3    3    0    0 -0.14052906081E+01  0.55429019297E+01 -0.16594514273E+02  0.17552108348E+02  0.00000000000E+00 0.  1.
</event>
<event>
 7    1  0.1714203E-010  0.4778727E+02  0.7816164E-02  0.1312668E+00
        -11   -1    0    0    0    0  0.00000000000E+00  0.00000000000E+00  0.45593999997E+02  0.45594000000E+02  0.51100000000E-03 0. -1.
         11   -1    0    0    0    0 -0.00000000000E+00 -0.00000000000E+00 -0.45593999997E+02  0.45594000000E+02  0.51100000000E-03 0.  1.
    9900012    2    1    2    0    0 -0.23133770515E+02 -0.17165154441E+02  0.32462430914E+02  0.47787270904E+02  0.19999999361E+02 0.  0.
        -12    1    1    2    0    0  0.23133770515E+02  0.17165154441E+02 -0.32462430914E+02  0.43400729096E+02  0.00000000000E+00 0.  1.
         11    1    3    3    0    0 -0.11176162864E+02 -0.69800836627E+01  0.12119357586E+02  0.17902709652E+02  0.51100000000E-03 0. -1.
        -11    1    3    3    0    0  0.24015827197E+01 -0.59321353253E+01  0.92484227926E+01  0.11246828597E+02  0.51100000000E-03 0.  1.
        -12    1    3    3    0    0 -0.14359190370E+02 -0.42529354535E+01  0.11094650535E+02  0.18637732656E+02  0.00000000000E+00 0.  1.
</event>
<event>
 7    1  0.1714203E-010  0.4778727E+02  0.7816164E-02  0.1312668E+00
        -11   -1    0    0    0    0  0.00000000000E+00  0.00000000000E+00  0.45593999997E+02  0.45594000000E+02  0.51100000000E-03 0. -1.
         11   -1    0    0    0    0 -0.00000000000E+00 -0.00000000000E+00 -0.45593999997E+02  0.45594000000E+02  0.51100000000E-03 0.  1.
    9900012    2    1    2    0    0  0.14354464081E+01  0.22879048122E+02  0.36852571704E+02  0.47787269700E+02  0.19999993869E+02 0.  0.
        -12    1    1    2    0    0 -0.14354464081E+01 -0.22879048122E+02 -0.36852571704E+02  0.43400730300E+02  0.00000000000E+00 0.  1.
         11    1    3    3    0    0 -0.13363999846E+01  0.51597086219E+01  0.12738237313E+02  0.13808376012E+02  0.51100000000E-03 0. -1.
        -11    1    3    3    0    0  0.76562417806E-01  0.64754547976E+01 -0.78752755536E+00  0.65236168305E+01  0.51100000000E-03 0.  1.
        -12    1    3    3    0    0  0.26952839749E+01  0.11243884703E+02  0.24901861947E+02  0.27455276857E+02  0.00000000000E+00 0.  1.
</event>
<event>
 7    1  0.1714203E-010  0.4778727E+02  0.7816164E-02  0.1312668E+00
        -11   -1    0    0    0    0  0.00000000000E+00  0.00000000000E+00  0.45593999997E+02  0.45594000000E+02  0.51100000000E-03 0.  1.
         11   -1    0    0    0    0 -0.00000000000E+00 -0.00000000000E+00 -0.45593999997E+02  0.45594000000E+02  0.51100000000E-03 0. -1.
    9900012    2    1    2    0    0  0.34434173856E+02 -0.26165442984E+02 -0.36442331590E+01  0.47787272230E+02  0.20000005404E+02 0.  0.
        -12    1    1    2    0    0 -0.34434173856E+02  0.26165442984E+02  0.36442331590E+01  0.43400727770E+02  0.00000000000E+00 0.  1.
         11    1    3    3    0    0  0.32886962259E+02 -0.15172504501E+02 -0.73809524774E+00  0.36225708610E+02  0.51100000000E-03 0. -1.
        -11    1    3    3    0    0  0.63652351130E+00 -0.60401387392E+01 -0.89579921856E+00  0.61392910560E+01  0.51100000000E-03 0.  1.
         12    1    3    3    0    0  0.91068808548E+00 -0.49527997436E+01 -0.20103386927E+01  0.54222725631E+01  0.00000000000E+00 0. -1.
</event>
<event>
 7    1  0.1714203E-010  0.4778727E+02  0.7816164E-02  0.1312668E+00
        -11   -1    0    0    0    0  0.00000000000E+00  0.00000000000E+00  0.45593999997E+02  0.45594000000E+02  0.51100000000E-03 0. -1.
         11   -1    0    0    0    0 -0.00000000000E+00 -0.00000000000E+00 -0.45593999997E+02  0.45594000000E+02  0.51100000000E-03 0.  1.
    9900012    2    1    2    0    0  0.34664026231E+02  0.26029724859E+02 -0.21170795954E+01  0.47787270550E+02  0.19999997745E+02 0.  0.
        -12    1    1    2    0    0 -0.34664026231E+02 -0.26029724859E+02  0.21170795954E+01  0.43400729450E+02  0.00000000000E+00 0.  1.
         11    1    3    3    0    0 -0.24240266170E+00  0.97181782659E+00  0.45076299390E+00  0.10983517088E+01  0.51100000000E-03 0.  1.
        -11    1    3    3    0    0  0.30948824242E+02  0.27953687617E+02 -0.19977542947E+01  0.41751998705E+02  0.51100000000E-03 0. -1.
         12    1    3    3    0    0  0.39576046509E+01 -0.28957805849E+01 -0.57008829462E+00  0.49369201363E+01  0.00000000000E+00 0. -1.
</event>
<event>
 7    1  0.1714203E-010  0.4778727E+02  0.7816164E-02  0.1312668E+00
        -11   -1    0    0    0    0  0.00000000000E+00  0.00000000000E+00  0.45593999997E+02  0.45594000000E+02  0.51100000000E-03 0. -1.
         11   -1    0    0    0    0 -0.00000000000E+00 -0.00000000000E+00 -0.45593999997E+02  0.45594000000E+02  0.51100000000E-03 0.  1.
    9900012    2    1    2    0    0 -0.34140535144E+02  0.26550190656E+02  0.36241442033E+01  0.47787272068E+02  0.20000004668E+02 0.  0.
        -12    1    1    2    0    0  0.34140535144E+02 -0.26550190656E+02 -0.36241442033E+01  0.43400727932E+02  0.00000000000E+00 0.  1.
         11    1    3    3    0    0 -0.35421617989E+01 -0.13681968727E+01 -0.14191747532E+01  0.40537550658E+01  0.51100000000E-03 0. -1.
        -11    1    3    3    0    0 -0.46373282195E+01 -0.68330908729E+00  0.16023605997E+01  0.49537141698E+01  0.51100000000E-03 0.  1.
         12    1    3    3    0    0 -0.25961045126E+02  0.28601696616E+02  0.34409583568E+01  0.38779802833E+02  0.00000000000E+00 0. -1.
</event>
<event>
 7    1  0.1714203E-010  0.4778727E+02  0.7816164E-02  0.1312668E+00
        -11   -1    0    0    0    0  0.00000000000E+00  0.00000000000E+00  0.45593999997E+02  0.45594000000E+02  0.51100000000E-03 0. -1.
         11   -1    0    0    0    0 -0.00000000000E+00 -0.00000000000E+00 -0.45593999997E+02  0.45594000000E+02  0.51100000000E-03 0.  1.
    9900012    2    1    2    0    0 -0.28483109959E+02 -0.32562397358E+02 -0.34678870466E+01  0.47787268264E+02  0.19999987323E+02 0.  0.
        -12    1    1    2    0    0  0.28483109959E+02  0.32562397358E+02  0.34678870466E+01  0.43400731736E+02  0.00000000000E+00 0.  1.
         11    1    3    3    0    0 -0.17141711776E+02 -0.17511505355E+02 -0.72265381089E+01  0.25548267176E+02  0.51100000000E-03 0. -1.
        -11    1    3    3    0    0 -0.12387064037E+02 -0.83572584094E+01  0.39694423858E+01  0.15460905430E+02  0.51100000000E-03 0.  1.
        -12    1    3    3    0    0  0.10456658544E+01 -0.66936335940E+01 -0.21079132352E+00  0.67780956582E+01  0.00000000000E+00 0.  1.
</event>
<event>
 7    1  0.1719454E-010  0.4778727E+02  0.7816164E-02  0.1312668E+00
        -11   -1    0    0    0    0  0.00000000000E+00  0.00000000000E+00  0.45593999997E+02  0.45594000000E+02  0.51100000000E-03 0.  1.
         11   -1    0    0    0    0 -0.00000000000E+00 -0.00000000000E+00 -0.45593999997E+02  0.45594000000E+02  0.51100000000E-03 0. -1.
    9900012    2    1    2    0    0 -0.76442302730E+01  0.40565422916E+02  0.13402822782E+02  0.47787268999E+02  0.19999990676E+02 0.  0.
        -12    1    1    2    0    0  0.76442302730E+01 -0.40565422916E+02 -0.13402822782E+02  0.43400731001E+02  0.00000000000E+00 0.  1.
         11    1    3    3    0    0 -0.35564263718E+01  0.31497432627E+02  0.43194287902E+01  0.31990528222E+02  0.51100000000E-03 0. -1.
        -11    1    3    3    0    0  0.18082872118E+01 -0.29780328755E+00  0.96484580689E+00  0.20711149487E+01  0.51100000000E-03 0.  1.
        -12    1    3    3    0    0 -0.58960911130E+01  0.93657935772E+01  0.81185481852E+01  0.13725625828E+02  0.00000000000E+00 0.  1.
</event>
<event>
 7    1  0.2095161E-010  0.4778727E+02  0.7816164E-02  0.1312668E+00
        -11   -1    0    0    0    0  0.00000000000E+00  0.00000000000E+00  0.45593999997E+02  0.45594000000E+02  0.51100000000E-03 0. -1.
         11   -1    0    0    0    0 -0.00000000000E+00 -0.00000000000E+00 -0.45593999997E+02  0.45594000000E+02  0.51100000000E-03 0.  1.
    9900012    2    1    2    0    0  0.24166555470E+02 -0.32769331578E+02  0.15025708243E+02  0.47787269551E+02  0.19999993191E+02 0.  0.
        -12    1    1    2    0    0 -0.24166555470E+02  0.32769331578E+02 -0.15025708243E+02  0.43400730449E+02  0.00000000000E+00 0.  1.
         11    1    3    3    0    0  0.13771388534E+01 -0.49910940398E+01  0.58275042436E+01  0.77953407306E+01  0.51100000000E-03 0. -1.
        -11    1    3    3    0    0  0.18178474752E+02 -0.10432369007E+02  0.54543874601E+01  0.21657368497E+02  0.51100000000E-03 0.  1.
        -12    1    3    3    0    0  0.46109418647E+01 -0.17345868531E+02  0.37438165390E+01  0.18334560323E+02  0.00000000000E+00 0.  1.
</event>
<event>
 7    1  0.1714203E-010  0.4778727E+02  0.7816164E-02  0.1312668E+00
        -11   -1    0    0    0    0  0.00000000000E+00  0.00000000000E+00  0.45593999997E+02  0.45594000000E+02  0.51100000000E-03 0. -1.
         11   -1    0    0    0    0 -0.00000000000E+00 -0.00000000000E+00 -0.45593999997E+02  0.45594000000E+02  0.51100000000E-03 0.  1.
    9900012    2    1    2    0    0 -0.45701528113E+01 -0.38629789174E+02  0.19247761241E+02  0.47787271652E+02  0.20000002770E+02 0.  0.
        -12    1    1    2    0    0  0.45701528113E+01  0.38629789174E+02 -0.19247761241E+02  0.43400728348E+02  0.00000000000E+00 0.  1.
         11    1    3    3    0    0 -0.12195551956E+01 -0.29243821829E+02  0.12687828791E+02  0.31900931487E+02  0.51100000000E-03 0. -1.
        -11    1    3    3    0    0  0.26847157081E+01 -0.22895608215E+01 -0.12362491997E+01  0.37387296684E+01  0.51100000000E-03 0.  1.
        -12    1    3    3    0    0 -0.60353133238E+01 -0.70964065236E+01  0.77961816496E+01  0.12147610497E+02  0.00000000000E+00 0.  1.
</event>
<event>
 7    1  0.1714203E-010  0.4778727E+02  0.7816164E-02  0.1312668E+00
        -11   -1    0    0    0    0  0.00000000000E+00  0.00000000000E+00  0.45593999997E+02  0.45594000000E+02  0.51100000000E-03 0.  1.
         11   -1    0    0    0    0 -0.00000000000E+00 -0.00000000000E+00 -0.45593999997E+02  0.45594000000E+02  0.51100000000E-03 0. -1.
    9900012    2    1    2    0    0 -0.24884439503E+02 -0.34473016050E+02 -0.87177407996E+01  0.47787272246E+02  0.20000005477E+02 0.  0.
        -12    1    1    2    0    0  0.24884439503E+02  0.34473016050E+02  0.87177407996E+01  0.43400727754E+02  0.00000000000E+00 0.  1.
         11    1    3    3    0    0 -0.38580008960E+01  0.36939269812E+00 -0.30164973232E+01  0.49111992670E+01  0.51100000000E-03 0. -1.
        -11    1    3    3    0    0 -0.11517274804E+02 -0.27387035834E+02 -0.75439827175E+01  0.30653042691E+02  0.51100000000E-03 0.  1.
         12    1    3    3    0    0 -0.95091638027E+01 -0.74553729141E+01  0.18427392411E+01  0.12223030288E+02  0.00000000000E+00 0. -1.
</event>
<event>
 7    1  0.1714203E-010  0.4778727E+02  0.7816164E-02  0.1312668E+00
        -11   -1    0    0    0    0  0.00000000000E+00  0.00000000000E+00  0.45593999997E+02  0.45594000000E+02  0.51100000000E-03 0.  1.
         11   -1    0    0    0    0 -0.00000000000E+00 -0.00000000000E+00 -0.45593999997E+02  0.45594000000E+02  0.51100000000E-03 0. -1.
    9900012    2    1    2    0    0 -0.30027320901E+02  0.23799805589E+02 -0.20385106880E+02  0.47787270409E+02  0.19999997102E+02 0.  0.
        -12    1    1    2    0    0  0.30027320901E+02 -0.23799805589E+02  0.20385106880E+02  0.43400729591E+02  0.00000000000E+00 0.  1.
         11    1    3    3    0    0 -0.12189488510E+02  0.72153300485E+01 -0.81440935206E+01  0.16339243477E+02  0.51100000000E-03 0. -1.
        -11    1    3    3    0    0 -0.35203810456E+00  0.37876095697E+01  0.30931418198E+01  0.49027995735E+01  0.51100000000E-03 0.  1.
        -12    1    3    3    0    0 -0.17485794286E+02  0.12796865970E+02 -0.15334155179E+02  0.26545227359E+02  0.00000000000E+00 0.  1.
</event>
<event>
 7    1  0.1714203E-010  0.4778728E+02  0.7816164E-02  0.1312668E+00
        -11   -1    0    0    0    0  0.00000000000E+00  0.00000000000E+00  0.45593999997E+02  0.45594000000E+02  0.51100000000E-03 0. -1.
         11   -1    0    0    0    0 -0.00000000000E+00 -0.00000000000E+00 -0.45593999997E+02  0.45594000000E+02  0.51100000000E-03 0.  1.
    9900012    2    1    2    0    0 -0.24109158223E+02  0.16656197185E+02  0.32014723317E+02  0.47787275075E+02  0.20000018379E+02 0.  0.
        -12    1    1    2    0    0  0.24109158223E+02 -0.16656197185E+02 -0.32014723317E+02  0.43400724925E+02  0.00000000000E+00 0.  1.
         11    1    3    3    0    0 -0.10847214395E+01  0.39489290293E+01  0.82083816522E+01  0.91732322924E+01  0.51100000000E-03 0. -1.
        -11    1    3    3    0    0 -0.19942747194E+02  0.35040748724E+01  0.19069560609E+02  0.27814382043E+02  0.51100000000E-03 0.  1.
        -12    1    3    3    0    0 -0.30816895899E+01  0.92031932828E+01  0.47367810562E+01  0.10799660740E+02  0.00000000000E+00 0.  1.
</event>
<event>
 7    1  0.1714203E-010  0.4778727E+02  0.7816164E-02  0.1312668E+00
        -11   -1    0    0    0    0  0.00000000000E+00  0.00000000000E+00  0.45593999997E+02  0.45594000000E+02  0.51100000000E-03 0.  1.
         11   -1    0    0    0    0 -0.00000000000E+00 -0.00000000000E+00 -0.45593999997E+02  0.45594000000E+02  0.51100000000E-03 0. -1.
    9900012    2    1    2    0    0  0.11332266614E+02 -0.27124574978E+02 -0.31928987288E+02  0.47787273467E+02  0.20000011046E+02 0.  0.
        -12    1    1    2    0    0 -0.11332266614E+02  0.27124574978E+02  0.31928987288E+02  0.43400726533E+02  0.00000000000E+00 0.  1.
         11    1    3    3    0    0  0.13523514198E+01 -0.44784152297E+01  0.72819334156E+00  0.47344823515E+01  0.51100000000E-03 0.  1.
        -11    1    3    3    0    0 -0.67307559840E+00 -0.14277588681E+02 -0.19413003006E+02  0.24107410796E+02  0.51100000000E-03 0. -1.
         12    1    3    3    0    0  0.10652990793E+02 -0.83685710673E+01 -0.13244177623E+02  0.18945380320E+02  0.00000000000E+00 0. -1.
</event>
<event>
 7    1  0.1714203E-010  0.4778727E+02  0.7816164E-02  0.1312668E+00
        -11   -1    0    0    0    0  0.00000000000E+00  0.00000000000E+00  0.45593999997E+02  0.45594000000E+02  0.51100000000E-03 0.  1.
         11   -1    0    0    0    0 -0.00000000000E+00 -0.00000000000E+00 -0.45593999997E+02  0.45594000000E+02  0.51100000000E-03 0. -1.
    9900012    2    1    2    0    0  0.99662222538E+01 -0.42208709333E+02  0.16500163575E+01  0.47787270933E+02  0.19999999490E+02 0.  0.
        -12    1    1    2    0    0 -0.99662222538E+01  0.42208709333E+02 -0.16500163575E+01  0.43400729067E+02  0.00000000000E+00 0.  1.
         11    1    3    3    0    0  0.66508198661E+01 -0.11130265237E+02  0.66770141054E+00  0.12983144249E+02  0.51100000000E-03 0. -1.
        -11    1    3    3    0    0  0.89986035312E+01 -0.24188521274E+02 -0.92493770459E-01  0.25808292898E+02  0.51100000000E-03 0.  1.
        -12    1    3    3    0    0 -0.56832011436E+01 -0.68899228220E+01  0.10748087174E+01  0.89958337863E+01  0.00000000000E+00 0.  1.
</event>
<event>
 7    1  0.1714203E-010  0.4778728E+02  0.7816164E-02  0.1312668E+00
        -11   -1    0    0    0    0  0.00000000000E+00  0.00000000000E+00  0.45593999997E+02  0.45594000000E+02  0.51100000000E-03 0. -1.
         11   -1    0    0    0    0 -0.00000000000E+00 -0.00000000000E+00 -0.45593999997E+02  0.45594000000E+02  0.51100000000E-03 0.  1.
    9900012    2    1    2    0    0  0.29308584350E+02  0.31502580170E+02  0.56760237643E+01  0.47787275124E+02  0.20000018601E+02 0.  0.
        -12    1    1    2    0    0 -0.29308584350E+02 -0.31502580170E+02 -0.56760237643E+01  0.43400724876E+02  0.00000000000E+00 0.  1.
         11    1    3    3    0    0  0.68360010753E+01  0.10065471828E+02  0.75907368063E+01  0.14340987391E+02  0.51100000000E-03 0. -1.
        -11    1    3    3    0    0  0.26969676005E+01  0.31069028836E+01  0.41119329257E+01  0.58167407036E+01  0.51100000000E-03 0.  1.
        -12    1    3    3    0    0  0.19775615674E+02  0.18330205458E+02 -0.60266459678E+01  0.27629547029E+02  0.00000000000E+00 0.  1.
</event>
<event>
 7    1  0.1714203E-010  0.4778727E+02  0.7816164E-02  0.1312668E+00
        -11   -1    0    0    0    0  0.00000000000E+00  0.00000000000E+00  0.45593999997E+02  0.45594000000E+02  0.51100000000E-03 0. -1.
         11   -1    0    0    0    0 -0.00000000000E+00 -0.00000000000E+00 -0.45593999997E+02  0.45594000000E+02  0.51100000000E-03 0.  1.
    9900012    2    1    2    0    0 -0.39493261206E+02 -0.81989536347E+01  0.16021321492E+02  0.47787271162E+02  0.20000000535E+02 0.  0.
        -12    1    1    2    0    0  0.39493261206E+02  0.81989536347E+01 -0.16021321492E+02  0.43400728838E+02  0.00000000000E+00 0.  1.
         11    1    3    3    0    0 -0.13505750139E+02 -0.70826522932E+01  0.55251171939E+01  0.16220239536E+02  0.51100000000E-03 0. -1.
        -11    1    3    3    0    0 -0.18969992241E+02  0.37395812053E+01  0.12203475907E+02  0.22864161863E+02  0.51100000000E-03 0.  1.
        -12    1    3    3    0    0 -0.70175188257E+01 -0.48558825469E+01 -0.17072716089E+01  0.87028697637E+01  0.00000000000E+00 0.  1.
</event>
<event>
 7    1  0.1714203E-010  0.4778727E+02  0.7816164E-02  0.1312668E+00
        -11   -1    0    0    0    0  0.00000000000E+00  0.00000000000E+00  0.45593999997E+02  0.45594000000E+02  0.51100000000E-03 0.  1.
         11   -1    0    0    0    0 -0.00000000000E+00 -0.00000000000E+00 -0.45593999997E+02  0.45594000000E+02  0.51100000000E-03 0. -1.
    9900012    2    1    2    0    0 -0.64886429838E+01  0.21313346948E+02 -0.37245971421E+02  0.47787266908E+02  0.19999981139E+02 0.  0.
        -12    1    1    2    0    0  0.64886429838E+01 -0.21313346948E+02  0.37245971421E+02  0.43400733092E+02  0.00000000000E+00 0.  1.
         11    1    3    3    0    0 -0.11063977171E+01 -0.12975048973E+01 -0.46721565466E+01  0.49735984884E+01  0.51100000000E-03 0. -1.
        -11    1    3    3    0    0 -0.32665065008E+01  0.21810541463E+02 -0.33709331858E+02  0.40282612107E+02  0.51100000000E-03 0.  1.
        -12    1    3    3    0    0 -0.21157387659E+01  0.80031038205E+00  0.11355169839E+01  0.25310563119E+01  0.00000000000E+00 0.  1.
</event>
<event>
 7    1  0.1714203E-010  0.4778727E+02  0.7816164E-02  0.1312668E+00
        -11   -1    0    0    0    0  0.00000000000E+00  0.00000000000E+00  0.45593999997E+02  0.45594000000E+02  0.51100000000E-03 0.  1.
         11   -1    0    0    0    0 -0.00000000000E+00 -0.00000000000E+00 -0.45593999997E+02  0.45594000000E+02  0.51100000000E-03 0. -1.
    9900012    2    1    2    0    0  0.35897777578E+02 -0.20808196505E+02  0.12727594291E+02  0.47787272664E+02  0.20000007384E+02 0.  0.
        -12    1    1    2    0    0 -0.35897777578E+02  0.20808196505E+02 -0.12727594291E+02  0.43400727336E+02  0.00000000000E+00 0.  1.
         11    1    3    3    0    0  0.24042749729E+02 -0.62316820604E+01  0.10815803504E+02  0.27090021807E+02  0.51100000000E-03 0. -1.
        -11    1    3    3    0    0  0.42544457169E+01 -0.20682482646E+01  0.36265620446E+01  0.59606972550E+01  0.51100000000E-03 0.  1.
        -12    1    3    3    0    0  0.76005821327E+01 -0.12508266180E+02 -0.17147712578E+01  0.14736553602E+02  0.00000000000E+00 0.  1.
</event>
<event>
 7    1  0.1714203E-010  0.4778727E+02  0.7816164E-02  0.1312668E+00
        -11   -1    0    0    0    0  0.00000000000E+00  0.00000000000E+00  0.45593999997E+02  0.45594000000E+02  0.51100000000E-03 0.  1.
         11   -1    0    0    0    0 -0.00000000000E+00 -0.00000000000E+00 -0.45593999997E+02  0.45594000000E+02  0.51100000000E-03 0. -1.
    9900012    2    1    2    0    0  0.33607733874E+02 -0.27382263223E+02 -0.20868377569E+01  0.47787274116E+02  0.20000014006E+02 0.  0.
        -12    1    1    2    0    0 -0.33607733874E+02  0.27382263223E+02  0.20868377569E+01  0.43400725884E+02  0.00000000000E+00 0.  1.
         11    1    3    3    0    0  0.22783755892E+02 -0.19782933608E+02  0.14305445937E+01  0.30207787949E+02  0.51100000000E-03 0. -1.
        -11    1    3    3    0    0 -0.18119851776E+00 -0.59442117151E+01 -0.13726499167E+00  0.59485567792E+01  0.51100000000E-03 0.  1.
         12    1    3    3    0    0  0.11005176501E+02 -0.16551179004E+01 -0.33801173590E+01  0.11630929388E+02  0.00000000000E+00 0. -1.
</event>
<event>
 7    1  0.1714203E-010  0.4778727E+02  0.7816164E-02  0.1312668E+00
        -11   -1    0    0    0    0  0.00000000000E+00  0.00000000000E+00  0.45593999997E+02  0.45594000000E+02  0.51100000000E-03 0.  1.
         11   -1    0    0    0    0 -0.00000000000E+00 -0.00000000000E+00 -0.45593999997E+02  0.45594000000E+02  0.51100000000E-03 0. -1.
    9900012    2    1    2    0    0 -0.16507207462E+02  0.31281785923E+02 -0.25151250065E+02  0.47787269493E+02  0.19999992926E+02 0.  0.
        -12    1    1    2    0    0  0.16507207462E+02 -0.31281785923E+02  0.25151250065E+02  0.43400730507E+02  0.00000000000E+00 0.  1.
         11    1    3    3    0    0 -0.30806540068E+01 -0.28321885625E+00 -0.16957345626E+01  0.35279112798E+01  0.51100000000E-03 0. -1.
        -11    1    3    3    0    0  0.31551124508E+01  0.27222258427E+01 -0.36587002403E+01  0.55453886993E+01  0.51100000000E-03 0.  1.
         12    1    3    3    0    0 -0.16581665906E+02  0.28842778937E+02 -0.19796815262E+02  0.38713969514E+02  0.00000000000E+00 0. -1.
</event>
<event>
 7    1  0.1714203E-010  0.4778723E+02  0.7816164E-02  0.1312668E+00
        -11   -1    0    0    0    0  0.00000000000E+00  0.00000000000E+00  0.45593999997E+02  0.45594000000E+02  0.51100000000E-03 0.  1.
         11   -1    0    0    0    0 -0.00000000000E+00 -0.00000000000E+00 -0.45593999997E+02  0.45594000000E+02  0.51100000000E-03 0. -1.
    9900012    2    1    2    0    0 -0.20260189146E+02 -0.31692462494E+02 -0.21650385050E+02  0.47787232542E+02  0.19999824452E+02 0.  0.
        -12    1    1    2    0    0  0.20260189146E+02  0.31692462494E+02  0.21650385050E+02  0.43400767458E+02  0.00000000000E+00 0.  1.
         11    1    3    3    0    0  0.89380395601E+00 -0.20329943872E+01  0.47535342023E+00  0.22711038782E+01  0.51100000000E-03 0. -1.
        -11    1    3    3    0    0 -0.82615039796E+01 -0.10181237108E+01 -0.37855823521E+01  0.91443784864E+01  0.51100000000E-03 0.  1.
         12    1    3    3    0    0 -0.12892489122E+02 -0.28641344396E+02 -0.18340156118E+02  0.36371750178E+02  0.00000000000E+00 0. -1.
</event>
<event>
 7    1  0.1714203E-010  0.4778728E+02  0.7816164E-02  0.1312668E+00
        -11   -1    0    0    0    0  0.00000000000E+00  0.00000000000E+00  0.45593999997E+02  0.45594000000E+02  0.51100000000E-03 0.  1.
         11   -1    0    0    0    0 -0.00000000000E+00 -0.00000000000E+00 -0.45593999997E+02  0.45594000000E+02  0.51100000000E-03 0. -1.
    9900012    2    1    2    0    0 -0.15382607316E+02  0.31660011534E+02 -0.25389799028E+02  0.47787276125E+02  0.20000023164E+02 0.  0.
        -12    1    1    2    0    0  0.15382607316E+02 -0.31660011534E+02  0.25389799028E+02  0.43400723875E+02  0.00000000000E+00 0.  1.
         11    1    3    3    0    0  0.66267150052E+00  0.15611084575E+02 -0.79254116029E+01  0.17520195332E+02  0.51100000000E-03 0. -1.
        -11    1    3    3    0    0 -0.19160390180E+01  0.44257425531E+01  0.21176566594E+00  0.48273437441E+01  0.51100000000E-03 0.  1.
         12    1    3    3    0    0 -0.14129239798E+02  0.11623184406E+02 -0.17676153091E+02  0.25439737049E+02  0.00000000000E+00 0. -1.
</event>
<event>
 7    1  0.1714203E-010  0.4778728E+02  0.7816164E-02  0.1312668E+00
        -11   -1    0    0    0    0  0.00000000000E+00  0.00000000000E+00  0.45593999997E+02  0.45594000000E+02  0.51100000000E-03 0.  1.
         11   -1    0    0    0    0 -0.00000000000E+00 -0.00000000000E+00 -0.45593999997E+02  0.45594000000E+02  0.51100000000E-03 0. -1.
    9900012    2    1    2    0    0 -0.35695591227E+02 -0.16315072544E+02 -0.18527437250E+02  0.47787277009E+02  0.20000027193E+02 0.  0.
        -12    1    1    2    0    0  0.35695591227E+02  0.16315072544E+02  0.18527437250E+02  0.43400722991E+02  0.00000000000E+00 0.  1.
         11    1    3    3    0    0 -0.23665427303E+02 -0.38279371322E+01 -0.11913938345E+02  0.26770272304E+02  0.51100000000E-03 0. -1.
        -11    1    3    3    0    0  0.20339757226E+00 -0.18490016385E+01 -0.42426675348E+01  0.46325377175E+01  0.51100000000E-03 0.  1.
         12    1    3    3    0    0 -0.12233561496E+02 -0.10638133773E+02 -0.23708313699E+01  0.16384466987E+02  0.00000000000E+00 0. -1.
</event>
<event>
 7    1  0.1714203E-010  0.4778727E+02  0.7816164E-02  0.1312668E+00
        -11   -1    0    0    0    0  0.00000000000E+00  0.00000000000E+00  0.45593999997E+02  0.45594000000E+02  0.51100000000E-03 0.  1.
         11   -1    0    0    0    0 -0.00000000000E+00 -0.00000000000E+00 -0.45593999997E+02  0.45594000000E+02  0.51100000000E-03 0. -1.
    9900012    2    1    2    0    0  0.12142317337E+02 -0.26189311016E+02 -0.32408449246E+02  0.47787268850E+02  0.19999989996E+02 0.  0.
        -12    1    1    2    0    0 -0.12142317337E+02  0.26189311016E+02  0.32408449246E+02  0.43400731150E+02  0.00000000000E+00 0.  1.
         11    1    3    3    0    0 -0.43222574679E+00 -0.19493263334E+02 -0.13842888954E+02  0.23912333834E+02  0.51100000000E-03 0. -1.
        -11    1    3    3    0    0  0.20099360224E+01 -0.33075924290E+01 -0.56472785747E+01  0.68462957905E+01  0.51100000000E-03 0.  1.
        -12    1    3    3    0    0  0.10564607062E+02 -0.33884552529E+01 -0.12918281717E+02  0.17028639226E+02  0.00000000000E+00 0.  1.
</event>
<event>
 7    1  0.1714203E-010  0.4778727E+02  0.7816164E-02  0.1312668E+00
        -11   -1    0    0    0    0  0.00000000000E+00  0.00000000000E+00  0.45593999997E+02  0.45594000000E+02  0.51100000000E-03 0.  1.
         11   -1    0    0    0    0 -0.00000000000E+00 -0.00000000000E+00 -0.45593999997E+02  0.45594000000E+02  0.51100000000E-03 0. -1.
    9900012    2    1    2    0    0 -0.25248406949E+02 -0.27432366864E+02 -0.22217258345E+02  0.47787269896E+02  0.19999994762E+02 0.  0.
        -12    1    1    2    0    0  0.25248406949E+02  0.27432366864E+02  0.22217258345E+02  0.43400730104E+02  0.00000000000E+00 0.  1.
         11    1    3    3    0    0 -0.14882454165E+02 -0.13751700032E+02 -0.62596135192E+01  0.21208004560E+02  0.51100000000E-03 0. -1.
        -11    1    3    3    0    0 -0.90059480724E+00 -0.11422665566E+02 -0.75760377819E+01  0.13736255253E+02  0.51100000000E-03 0.  1.
         12    1    3    3    0    0 -0.94653579766E+01 -0.22580012661E+01 -0.83816070436E+01  0.12843010082E+02  0.00000000000E+00 0. -1.
</event>
<event>
 7    1  0.1714203E-010  0.4778728E+02  0.7816164E-02  0.1312668E+00
        -11   -1    0    0    0    0  0.00000000000E+00  0.00000000000E+00  0.45593999997E+02  0.45594000000E+02  0.51100000000E-03 0. -1.
         11   -1    0    0    0    0 -0.00000000000E+00 -0.00000000000E+00 -0.45593999997E+02  0.45594000000E+02  0.51100000000E-03 0.  1.
    9900012    2    1    2    0    0 -0.30853272747E+02  0.21130358110E+02 -0.22027400101E+02  0.47787276177E+02  0.20000023404E+02 0.  0.
        -12    1    1    2    0    0  0.30853272747E+02 -0.21130358110E+02  0.22027400101E+02  0.43400723823E+02  0.00000000000E+00 0.  1.
         11    1    3    3    0    0 -0.36245372827E+01 -0.11330646046E+01 -0.16016080048E+01  0.41214383866E+01  0.51100000000E-03 0. -1.
        -11    1    3    3    0    0 -0.22686383249E+02  0.22413192697E+02 -0.11964676466E+02  0.34061366311E+02  0.51100000000E-03 0.  1.
        -12    1    3    3    0    0 -0.45423522159E+01 -0.14976998194E+00 -0.84611156299E+01  0.96044714796E+01  0.00000000000E+00 0.  1.
</event>
<event>
 7    1  0.1714203E-010  0.4778728E+02  0.7816164E-02  0.1312668E+00
        -11   -1    0    0    0    0  0.00000000000E+00  0.00000000000E+00  0.45593999997E+02  0.45594000000E+02  0.51100000000E-03 0.  1.
         11   -1    0    0    0    0 -0.00000000000E+00 -0.00000000000E+00 -0.45593999997E+02  0.45594000000E+02  0.51100000000E-03 0. -1.
    9900012    2    1    2    0    0  0.33263062735E+02  0.23211582782E+02 -0.15440653358E+02  0.47787277726E+02  0.20000030465E+02 0.  0.
        -12    1    1    2    0    0 -0.33263062735E+02 -0.23211582782E+02  0.15440653358E+02  0.43400722274E+02  0.00000000000E+00 0.  1.
         11    1    3    3    0    0  0.53429952107E+01  0.56061619183E+00 -0.60890274490E+01  0.81202305307E+01  0.51100000000E-03 0. -1.
        -11    1    3    3    0    0 -0.80503001975E+00  0.35839351517E+01 -0.26880179351E+01  0.45517145325E+01  0.51100000000E-03 0.  1.
         12    1    3    3    0    0  0.28725097544E+02  0.19067031438E+02 -0.66636079735E+01  0.35115332663E+02  0.00000000000E+00 0. -1.
</event>
<event>
 7    1  0.1714203E-010  0.4778728E+02  0.7816164E-02  0.1312668E+00
        -11   -1    0    0    0    0  0.00000000000E+00  0.00000000000E+00  0.45593999997E+02  0.45594000000E+02  0.51100000000E-03 0.  1.
         11   -1    0    0    0    0 -0.00000000000E+00 -0.00000000000E+00 -0.45593999997E+02  0.45594000000E+02  0.51100000000E-03 0. -1.
    9900012    2    1    2    0    0  0.13117488644E+02  0.26627601466E+01 -0.41285152674E+02  0.47787278448E+02  0.20000033755E+02 0.  0.
        -12    1    1    2    0    0 -0.13117488644E+02 -0.26627601466E+01  0.41285152674E+02  0.43400721552E+02  0.00000000000E+00 0.  1.
         11    1    3    3    0    0 -0.15456368428E+01  0.35305791115E+01 -0.61945683977E+01  0.72956603544E+01  0.51100000000E-03 0. -1.
        -11    1    3    3    0    0  0.44029115963E+01  0.19870361024E+01 -0.12144452878E+01  0.49808453715E+01  0.51100000000E-03 0.  1.
        -12    1    3    3    0    0  0.10260213891E+02 -0.28548550674E+01 -0.33876138989E+02  0.35510772722E+02  0.00000000000E+00 0.  1.
</event>
<event>
 7    1  0.1714203E-010  0.4778727E+02  0.7816164E-02  0.1312668E+00
        -11   -1    0    0    0    0  0.00000000000E+00  0.00000000000E+00  0.45593999997E+02  0.45594000000E+02  0.51100000000E-03 0. -1.
         11   -1    0    0    0    0 -0.00000000000E+00 -0.00000000000E+00 -0.45593999997E+02  0.45594000000E+02  0.51100000000E-03 0.  1.
    9900012    2    1    2    0    0 -0.36025859671E+01  0.42143215228E+02 -0.97259339192E+01  0.47787274131E+02  0.20000014072E+02 0.  0.
        -12    1    1    2    0    0  0.36025859671E+01 -0.42143215228E+02  0.97259339192E+01  0.43400725869E+02  0.00000000000E+00 0.  1.
         11    1    3    3    0    0 -0.37549677106E+01  0.12885334907E+02 -0.53090736441E+01  0.14433222142E+02  0.51100000000E-03 0. -1.
        -11    1    3    3    0    0 -0.66437256265E+01  0.15446820590E+02 -0.60607866868E+01  0.17873905339E+02  0.51100000000E-03 0.  1.
        -12    1    3    3    0    0  0.67961073700E+01  0.13811059731E+02  0.16439264116E+01  0.15480146650E+02  0.00000000000E+00 0.  1.
</event>
<event>
 7    1  0.1714203E-010  0.4778727E+02  0.7816164E-02  0.1312668E+00
        -11   -1    0    0    0    0  0.00000000000E+00  0.00000000000E+00  0.45593999997E+02  0.45594000000E+02  0.51100000000E-03 0.  1.
         11   -1    0    0    0    0 -0.00000000000E+00 -0.00000000000E+00 -0.45593999997E+02  0.45594000000E+02  0.51100000000E-03 0. -1.
    9900012    2    1    2    0    0  0.31899777840E+02  0.22256266329E+02 -0.19253209030E+02  0.47787271030E+02  0.19999999935E+02 0.  0.
        -12    1    1    2    0    0 -0.31899777840E+02 -0.22256266329E+02  0.19253209030E+02  0.43400728970E+02  0.00000000000E+00 0.  1.
         11    1    3    3    0    0  0.13994740008E+02  0.88548871107E+01 -0.68372460893E+01  0.17916743789E+02  0.51100000000E-03 0. -1.
        -11    1    3    3    0    0  0.12768044439E+02  0.43199026756E+01  0.22358429368E+00  0.13480894189E+02  0.51100000000E-03 0.  1.
         12    1    3    3    0    0  0.51369933923E+01  0.90814765424E+01 -0.12639547235E+02  0.16389633053E+02  0.00000000000E+00 0. -1.
</event>
<event>
 7    1  0.1714203E-010  0.4778727E+02  0.7816164E-02  0.1312668E+00
        -11   -1    0    0    0    0  0.00000000000E+00  0.00000000000E+00  0.45593999997E+02  0.45594000000E+02  0.51100000000E-03 0.  1.
         11   -1    0    0    0    0 -0.00000000000E+00 -0.00000000000E+00 -0.45593999997E+02  0.45594000000E+02  0.51100000000E-03 0. -1.
    9900012    2    1    2    0    0  0.26896160937E+02 -0.17501189582E+02 -0.29222050535E+02  0.47787270198E+02  0.19999996139E+02 0.  0.
        -12    1    1    2    0    0 -0.26896160937E+02  0.17501189582E+02  0.29222050535E+02  0.43400729802E+02  0.00000000000E+00 0.  1.
         11    1    3    3    0    0  0.26269999031E+01  0.85063328630E+00 -0.38802513950E+01  0.47624632942E+01  0.51100000000E-03 0. -1.
        -11    1    3    3    0    0  0.12523141232E+01 -0.52672968963E+01 -0.12451330635E+02  0.13577493955E+02  0.51100000000E-03 0.  1.
         12    1    3    3    0    0  0.23016846910E+02 -0.13084525972E+02 -0.12890468505E+02  0.29447312948E+02  0.00000000000E+00 0. -1.
</event>
<event>
 7    1  0.1714203E-010  0.4778728E+02  0.7816164E-02  0.1312668E+00
        -11   -1    0    0    0    0  0.00000000000E+00  0.00000000000E+00  0.45593999997E+02  0.45594000000E+02  0.51100000000E-03 0.  1.
         11   -1    0    0    0    0 -0.00000000000E+00 -0.00000000000E+00 -0.45593999997E+02  0.45594000000E+02  0.51100000000E-03 0. -1.
    9900012    2    1    2    0    0 -0.15033212239E+02  0.11990451801E+02 -0.38908274286E+02  0.47787283272E+02  0.20000055749E+02 0.  0.
        -12    1    1    2    0    0  0.15033212239E+02 -0.11990451801E+02  0.38908274286E+02  0.43400716728E+02  0.00000000000E+00 0.  1.
         11    1    3    3    0    0 -0.12426206434E+02  0.68567224836E+01 -0.31035822147E+02  0.34126932270E+02  0.51100000000E-03 0. -1.
        -11    1    3    3    0    0 -0.42536308340E+01  0.41275926262E+01 -0.94587389379E+01  0.11162353637E+02  0.51100000000E-03 0.  1.
        -12    1    3    3    0    0  0.16466250286E+01  0.10061366907E+01  0.15862867990E+01  0.24979973647E+01  0.00000000000E+00 0.  1.
</event>
<event>
 7    1  0.1784079E-010  0.4778727E+02  0.7816164E-02  0.1312668E+00
        -11   -1    0    0    0    0  0.00000000000E+00  0.00000000000E+00  0.45593999997E+02  0.45594000000E+02  0.51100000000E-03 0. -1.
         11   -1    0    0    0    0 -0.00000000000E+00 -0.00000000000E+00 -0.45593999997E+02  0.45594000000E+02  0.51100000000E-03 0.  1.
    9900012    2    1    2    0    0  0.26375006082E+02  0.12607491917E+01  0.34444054598E+02  0.47787270381E+02  0.19999996974E+02 0.  0.
        -12    1    1    2    0    0 -0.26375006082E+02 -0.12607491917E+01 -0.34444054598E+02  0.43400729619E+02  0.00000000000E+00 0.  1.
         11    1    3    3    0    0  0.14290480887E+02  0.80244984549E+00  0.12529760441E+02  0.19022530503E+02  0.51100000000E-03 0. -1.
        -11    1    3    3    0    0  0.26638276919E+01 -0.50809357799E+01  0.20490549701E+01  0.60918398619E+01  0.51100000000E-03 0.  1.
         12    1    3    3    0    0  0.94206975027E+01  0.55392351261E+01  0.19865239186E+02  0.22672900016E+02  0.00000000000E+00 0. -1.
</event>
<event>
 7    1  0.1714203E-010  0.4778727E+02  0.7816164E-02  0.1312668E+00
        -11   -1    0    0    0    0  0.00000000000E+00  0.00000000000E+00  0.45593999997E+02  0.45594000000E+02  0.51100000000E-03 0.  1.
         11   -1    0    0    0    0 -0.00000000000E+00 -0.00000000000E+00 -0.45593999997E+02  0.45594000000E+02  0.51100000000E-03 0. -1.
    9900012    2    1    2    0    0  0.30023647313E+02  0.46908246713E+01 -0.30987095916E+02  0.47787270197E+02  0.19999996136E+02 0.  0.
        -12    1    1    2    0    0 -0.30023647313E+02 -0.46908246713E+01  0.30987095916E+02  0.43400729803E+02  0.00000000000E+00 0.  1.
         11    1    3    3    0    0  0.11794666390E+02  0.41943419046E+01 -0.46242145562E+01  0.13345037272E+02  0.51100000000E-03 0. -1.
        -11    1    3    3    0    0  0.78637978661E+01 -0.19559001056E+01 -0.27824743769E+01  0.85677900313E+01  0.51100000000E-03 0.  1.
         12    1    3    3    0    0  0.10365183057E+02  0.24523828722E+01 -0.23580406983E+02  0.25874442894E+02  0.00000000000E+00 0. -1.
</event>
<event>
 7    1  0.1714203E-010  0.4778727E+02  0.7816164E-02  0.1312668E+00
        -11   -1    0    0    0    0  0.00000000000E+00  0.00000000000E+00  0.45593999997E+02  0.45594000000E+02  0.51100000000E-03 0.  1.
         11   -1    0    0    0    0 -0.00000000000E+00 -0.00000000000E+00 -0.45593999997E+02  0.45594000000E+02  0.51100000000E-03 0. -1.
    9900012    2    1    2    0    0  0.55601158981E+01 -0.72524899622E+01 -0.42427701811E+02  0.47787269817E+02  0.19999994405E+02 0.  0.
        -12    1    1    2    0    0 -0.55601158981E+01  0.72524899622E+01  0.42427701811E+02  0.43400730183E+02  0.00000000000E+00 0.  1.
         11    1    3    3    0    0  0.25986816507E+01 -0.37741528903E+01 -0.49966328775E+01  0.67796546176E+01  0.51100000000E-03 0. -1.
        -11    1    3    3    0    0  0.23364083048E+01 -0.59702455638E+00  0.89209891653E+00  0.25712026030E+01  0.51100000000E-03 0.  1.
         12    1    3    3    0    0  0.62502594263E+00 -0.28813125155E+01 -0.38323167850E+02  0.38436412597E+02  0.00000000000E+00 0. -1.
</event>
<event>
 7    1  0.1714203E-010  0.4778727E+02  0.7816164E-02  0.1312668E+00
        -11   -1    0    0    0    0  0.00000000000E+00  0.00000000000E+00  0.45593999997E+02  0.45594000000E+02  0.51100000000E-03 0.  1.
         11   -1    0    0    0    0 -0.00000000000E+00 -0.00000000000E+00 -0.45593999997E+02  0.45594000000E+02  0.51100000000E-03 0. -1.
    9900012    2    1    2    0    0 -0.27833213050E+02  0.17011776653E+02 -0.28627520332E+02  0.47787271735E+02  0.20000003148E+02 0.  0.
        -12    1    1    2    0    0  0.27833213050E+02 -0.17011776653E+02  0.28627520332E+02  0.43400728265E+02  0.00000000000E+00 0.  1.
         11    1    3    3    0    0 -0.46426848882E+01 -0.21585978395E+01 -0.41765247876E+01  0.66073767235E+01  0.51100000000E-03 0. -1.
        -11    1    3    3    0    0 -0.21698542184E+02  0.13424814499E+02 -0.13855695149E+02  0.29035024807E+02  0.51100000000E-03 0.  1.
        -12    1    3    3    0    0 -0.14919859780E+01  0.57455599938E+01 -0.10595300396E+02  0.12144870204E+02  0.00000000000E+00 0.  1.
</event>
<event>
 7    1  0.1714203E-010  0.4778727E+02  0.7816164E-02  0.1312668E+00
        -11   -1    0    0    0    0  0.00000000000E+00  0.00000000000E+00  0.45593999997E+02  0.45594000000E+02  0.51100000000E-03 0.  1.
         11   -1    0    0    0    0 -0.00000000000E+00 -0.00000000000E+00 -0.45593999997E+02  0.45594000000E+02  0.51100000000E-03 0. -1.
    9900012    2    1    2    0    0  0.29931301361E+02 -0.16686012948E+02 -0.26633017607E+02  0.47787268944E+02  0.19999990425E+02 0.  0.
        -12    1    1    2    0    0 -0.29931301361E+02  0.16686012948E+02  0.26633017607E+02  0.43400731056E+02  0.00000000000E+00 0.  1.
         11    1    3    3    0    0  0.11172401016E+02 -0.10965354919E+02 -0.39574652252E+01  0.16146921819E+02  0.51100000000E-03 0. -1.
        -11    1    3    3    0    0  0.27862971726E-01 -0.12499130681E+01 -0.61156231081E+01  0.62421074393E+01  0.51100000000E-03 0.  1.
        -12    1    3    3    0    0  0.18731037374E+02 -0.44707449616E+01 -0.16559929274E+02  0.25398239686E+02  0.00000000000E+00 0.  1.
</event>
<event>
 7    1  0.1714203E-010  0.4778727E+02  0.7816164E-02  0.1312668E+00
        -11   -1    0    0    0    0  0.00000000000E+00  0.00000000000E+00  0.45593999997E+02  0.45594000000E+02  0.51100000000E-03 0.  1.
         11   -1    0    0    0    0 -0.00000000000E+00 -0.00000000000E+00 -0.45593999997E+02  0.45594000000E+02  0.51100000000E-03 0. -1.
    9900012    2    1    2    0    0  0.33974909399E+02  0.24344428557E+02 -0.11690916770E+02  0.47787271834E+02  0.20000003598E+02 0.  0.
        -12    1    1    2    0    0 -0.33974909399E+02 -0.24344428557E+02  0.11690916770E+02  0.43400728166E+02  0.00000000000E+00 0.  1.
         11    1    3    3    0    0  0.13138695547E+02  0.12588749571E+01 -0.29945760033E+01  0.13534310937E+02  0.51100000000E-03 0. -1.
        -11    1    3    3    0    0  0.14455246919E+02  0.20494490586E+02 -0.10412988888E+02  0.27155269207E+02  0.51100000000E-03 0.  1.
         12    1    3    3    0    0  0.63809669331E+01  0.25910630140E+01  0.17166481219E+01  0.70976916894E+01  0.00000000000E+00 0. -1.
</event>
<event>
 7    1  0.1714203E-010  0.4778727E+02  0.7816164E-02  0.1312668E+00
        -11   -1    0    0    0    0  0.00000000000E+00  0.00000000000E+00  0.45593999997E+02  0.45594000000E+02  0.51100000000E-03 0.  1.
         11   -1    0    0    0    0 -0.00000000000E+00 -0.00000000000E+00 -0.45593999997E+02  0.45594000000E+02  0.51100000000E-03 0. -1.
    9900012    2    1    2    0    0 -0.56681009724E+01 -0.10257280746E+02 -0.41788563184E+02  0.47787272011E+02  0.20000004409E+02 0.  0.
        -12    1    1    2    0    0  0.56681009724E+01  0.10257280746E+02  0.41788563184E+02  0.43400727989E+02  0.00000000000E+00 0.  1.
         11    1    3    3    0    0 -0.83547653261E+01 -0.52250284436E+01 -0.35246130438E+02  0.36597714915E+02  0.51100000000E-03 0. -1.
        -11    1    3    3    0    0  0.32580102062E+01 -0.73304346925E+00 -0.59352871788E+01  0.68102582468E+01  0.51100000000E-03 0.  1.
        -12    1    3    3    0    0 -0.57134585252E+00 -0.42992088335E+01 -0.60714556775E+00  0.43792988500E+01  0.00000000000E+00 0.  1.
</event>
<event>
 7    1  0.1714203E-010  0.4778727E+02  0.7816164E-02  0.1312668E+00
        -11   -1    0    0    0    0  0.00000000000E+00  0.00000000000E+00  0.45593999997E+02  0.45594000000E+02  0.51100000000E-03 0. -1.
         11   -1    0    0    0    0 -0.00000000000E+00 -0.00000000000E+00 -0.45593999997E+02  0.45594000000E+02  0.51100000000E-03 0.  1.
    9900012    2    1    2    0    0 -0.37398959675E+02  0.14041602121E+02  0.16963924349E+02  0.47787268391E+02  0.19999987903E+02 0.  0.
        -12    1    1    2    0    0  0.37398959675E+02 -0.14041602121E+02 -0.16963924349E+02  0.43400731609E+02  0.00000000000E+00 0.  1.
         11    1    3    3    0    0 -0.55027040006E+01 -0.25679081347E+01  0.61905586774E+01  0.86716157955E+01  0.51100000000E-03 0. -1.
        -11    1    3    3    0    0 -0.12412569746E+02  0.29808466244E+01 -0.55540746993E+00  0.12777551096E+02  0.51100000000E-03 0.  1.
         12    1    3    3    0    0 -0.19483685929E+02  0.13628663631E+02  0.11328773141E+02  0.26338101500E+02  0.00000000000E+00 0. -1.
</event>
<event>
 7    1  0.1714203E-010  0.4778727E+02  0.7816164E-02  0.1312668E+00
        -11   -1    0    0    0    0  0.00000000000E+00  0.00000000000E+00  0.45593999997E+02  0.45594000000E+02  0.51100000000E-03 0. -1.
         11   -1    0    0    0    0 -0.00000000000E+00 -0.00000000000E+00 -0.45593999997E+02  0.45594000000E+02  0.51100000000E-03 0.  1.
    9900012    2    1    2    0    0 -0.31386900687E+02  0.19758925544E+02  0.22540421414E+02  0.47787271078E+02  0.20000000154E+02 0.  0.
        -12    1    1    2    0    0  0.31386900687E+02 -0.19758925544E+02 -0.22540421414E+02  0.43400728922E+02  0.00000000000E+00 0.  1.
         11    1    3    3    0    0 -0.12191324506E+02  0.33599097167E+01  0.40369369197E+00  0.12652286566E+02  0.51100000000E-03 0. -1.
        -11    1    3    3    0    0 -0.69870760044E-01  0.46425714030E+01  0.54678137758E+01  0.71732376862E+01  0.51100000000E-03 0.  1.
         12    1    3    3    0    0 -0.19125705422E+02  0.11756444424E+02  0.16668913946E+02  0.27961746826E+02  0.00000000000E+00 0. -1.
</event>
<event>
 7    1  0.1714203E-010  0.4778727E+02  0.7816164E-02  0.1312668E+00
        -11   -1    0    0    0    0  0.00000000000E+00  0.00000000000E+00  0.45593999997E+02  0.45594000000E+02  0.51100000000E-03 0.  1.
         11   -1    0    0    0    0 -0.00000000000E+00 -0.00000000000E+00 -0.45593999997E+02  0.45594000000E+02  0.51100000000E-03 0. -1.
    9900012    2    1    2    0    0  0.26021178985E+02 -0.30720912676E+02 -0.16209465911E+02  0.47787274009E+02  0.20000013516E+02 0.  0.
        -12    1    1    2    0    0 -0.26021178985E+02  0.30720912676E+02  0.16209465911E+02  0.43400725991E+02  0.00000000000E+00 0.  1.
         11    1    3    3    0    0  0.94412903539E+01 -0.43333810148E+01 -0.33263501365E+01  0.10907830218E+02  0.51100000000E-03 0. -1.
        -11    1    3    3    0    0  0.11298693385E+02 -0.24118294629E+02 -0.49611522203E+01  0.27091800229E+02  0.51100000000E-03 0.  1.
        -12    1    3    3    0    0  0.52811952462E+01 -0.22692370318E+01 -0.79219635546E+01  0.97876435620E+01  0.00000000000E+00 0.  1.
</event>
<event>
 7    1  0.1714203E-010  0.4778727E+02  0.7816164E-02  0.1312668E+00
        -11   -1    0    0    0    0  0.00000000000E+00  0.00000000000E+00  0.45593999997E+02  0.45594000000E+02  0.51100000000E-03 0.  1.
         11   -1    0    0    0    0 -0.00000000000E+00 -0.00000000000E+00 -0.45593999997E+02  0.45594000000E+02  0.51100000000E-03 0. -1.
    9900012    2    1    2    0    0 -0.30165135630E+01  0.17799945411E+02 -0.39467528932E+02  0.47787271311E+02  0.20000001218E+02 0.  0.
        -12    1    1    2    0    0  0.30165135630E+01 -0.17799945411E+02  0.39467528932E+02  0.43400728689E+02  0.00000000000E+00 0.  1.
         11    1    3    3    0    0 -0.74787792145E+01  0.20237764275E+01 -0.60326146497E+01  0.98193813115E+01  0.51100000000E-03 0.  1.
        -11    1    3    3    0    0  0.23794122497E+01  0.69625584176E+01 -0.23014022003E+02  0.24161623111E+02  0.51100000000E-03 0. -1.
        -12    1    3    3    0    0  0.20828534017E+01  0.88136105662E+01 -0.10420892279E+02  0.13806266889E+02  0.00000000000E+00 0.  1.
</event>
<event>
 7    1  0.1714203E-010  0.4778727E+02  0.7816164E-02  0.1312668E+00
        -11   -1    0    0    0    0  0.00000000000E+00  0.00000000000E+00  0.45593999997E+02  0.45594000000E+02  0.51100000000E-03 0. -1.
         11   -1    0    0    0    0 -0.00000000000E+00 -0.00000000000E+00 -0.45593999997E+02  0.45594000000E+02  0.51100000000E-03 0.  1.
    9900012    2    1    2    0    0 -0.24406193385E+02  0.86520999442E+01  0.34829614874E+02  0.47787272111E+02  0.20000004864E+02 0.  0.
        -12    1    1    2    0    0  0.24406193385E+02 -0.86520999442E+01 -0.34829614874E+02  0.43400727889E+02  0.00000000000E+00 0.  1.
         11    1    3    3    0    0 -0.14066258118E+02 -0.34514433674E+01  0.21286764784E+02  0.25746814055E+02  0.51100000000E-03 0. -1.
        -11    1    3    3    0    0 -0.97369459777E+01  0.63974310385E+01  0.91479637608E+01  0.14812848548E+02  0.51100000000E-03 0.  1.
         12    1    3    3    0    0 -0.60298928931E+00  0.57061122730E+01  0.43948863292E+01  0.72276095081E+01  0.00000000000E+00 0. -1.
</event>
<event>
 7    1  0.1714203E-010  0.4778727E+02  0.7816164E-02  0.1312668E+00
        -11   -1    0    0    0    0  0.00000000000E+00  0.00000000000E+00  0.45593999997E+02  0.45594000000E+02  0.51100000000E-03 0.  1.
         11   -1    0    0    0    0 -0.00000000000E+00 -0.00000000000E+00 -0.45593999997E+02  0.45594000000E+02  0.51100000000E-03 0. -1.
    9900012    2    1    2    0    0 -0.37570853685E+02  0.20827257752E+02 -0.61870379078E+01  0.47787272470E+02  0.20000006499E+02 0.  0.
        -12    1    1    2    0    0  0.37570853685E+02 -0.20827257752E+02  0.61870379078E+01  0.43400727530E+02  0.00000000000E+00 0.  1.
         11    1    3    3    0    0 -0.21961060681E+02  0.18174985936E+02  0.32344205063E+00  0.28508295548E+02  0.51100000000E-03 0. -1.
        -11    1    3    3    0    0  0.89587042360E+00 -0.28508293437E+00 -0.15195297485E+01  0.17868483464E+01  0.51100000000E-03 0.  1.
        -12    1    3    3    0    0 -0.16505663428E+02  0.29373547500E+01 -0.49909502099E+01  0.17492128576E+02  0.00000000000E+00 0.  1.
</event>
<event>
 7    1  0.1714203E-010  0.4778728E+02  0.7816164E-02  0.1312668E+00
        -11   -1    0    0    0    0  0.00000000000E+00  0.00000000000E+00  0.45593999997E+02  0.45594000000E+02  0.51100000000E-03 0.  1.
         11   -1    0    0    0    0 -0.00000000000E+00 -0.00000000000E+00 -0.45593999997E+02  0.45594000000E+02  0.51100000000E-03 0. -1.
    9900012    2    1    2    0    0  0.83428335634E+01 -0.17533629623E+01 -0.42555208373E+02  0.47787275200E+02  0.20000018945E+02 0.  0.
        -12    1    1    2    0    0 -0.83428335634E+01  0.17533629623E+01  0.42555208373E+02  0.43400724800E+02  0.00000000000E+00 0.  1.
         11    1    3    3    0    0 -0.17506868532E+01 -0.12964897942E+01 -0.53515662604E+01  0.57779799190E+01  0.51100000000E-03 0. -1.
        -11    1    3    3    0    0  0.13426692013E+02  0.38289524671E+01 -0.24600656691E+02  0.28286555911E+02  0.51100000000E-03 0.  1.
        -12    1    3    3    0    0 -0.33331715967E+01 -0.42858256351E+01 -0.12602985422E+02  0.13722739370E+02  0.00000000000E+00 0.  1.
</event>
<event>
 7    1  0.1714203E-010  0.4778727E+02  0.7816164E-02  0.1312668E+00
        -11   -1    0    0    0    0  0.00000000000E+00  0.00000000000E+00  0.45593999997E+02  0.45594000000E+02  0.51100000000E-03 0. -1.
         11   -1    0    0    0    0 -0.00000000000E+00 -0.00000000000E+00 -0.45593999997E+02  0.45594000000E+02  0.51100000000E-03 0.  1.
    9900012    2    1    2    0    0  0.30712918084E+02 -0.11261371607E+02  0.28522299468E+02  0.47787269653E+02  0.19999993657E+02 0.  0.
        -12    1    1    2    0    0 -0.30712918084E+02  0.11261371607E+02 -0.28522299468E+02  0.43400730347E+02  0.00000000000E+00 0.  1.
         11    1    3    3    0    0  0.29385891428E+01 -0.51388602974E+01  0.25901666092E+01  0.64615907198E+01  0.51100000000E-03 0.  1.
        -11    1    3    3    0    0  0.25823454460E+02 -0.80711813104E+01  0.27134003487E+02  0.38317736278E+02  0.51100000000E-03 0. -1.
        -12    1    3    3    0    0  0.19508744809E+01  0.19486700002E+01 -0.12018706281E+01  0.30079426552E+01  0.00000000000E+00 0.  1.
</event>
<event>
 7    1  0.1714203E-010  0.4778727E+02  0.7816164E-02  0.1312668E+00
        -11   -1    0    0    0    0  0.00000000000E+00  0.00000000000E+00  0.45593999997E+02  0.45594000000E+02  0.51100000000E-03 0.  1.
         11   -1    0    0    0    0 -0.00000000000E+00 -0.00000000000E+00 -0.45593999997E+02  0.45594000000E+02  0.51100000000E-03 0. -1.
    9900012    2    1    2    0    0  0.20021393820E+02 -0.12890387175E+02 -0.36285052610E+02  0.47787270342E+02  0.19999996795E+02 0.  0.
        -12    1    1    2    0    0 -0.20021393820E+02  0.12890387175E+02  0.36285052610E+02  0.43400729658E+02  0.00000000000E+00 0.  1.
         11    1    3    3    0    0  0.21869553605E+02 -0.10685070931E+02 -0.35464021753E+02  0.43013311368E+02  0.51100000000E-03 0. -1.
        -11    1    3    3    0    0  0.73303576687E-01  0.49902054923E+00  0.90372232326E+00  0.10349440669E+01  0.51100000000E-03 0.  1.
         12    1    3    3    0    0 -0.19214633621E+01 -0.27043367927E+01 -0.17247531802E+01  0.37390149067E+01  0.00000000000E+00 0. -1.
</event>
<event>
 7    1  0.1714203E-010  0.4778727E+02  0.7816164E-02  0.1312668E+00
        -11   -1    0    0    0    0  0.00000000000E+00  0.00000000000E+00  0.45593999997E+02  0.45594000000E+02  0.51100000000E-03 0.  1.
         11   -1    0    0    0    0 -0.00000000000E+00 -0.00000000000E+00 -0.45593999997E+02  0.45594000000E+02  0.51100000000E-03 0. -1.
    9900012    2    1    2    0    0 -0.39092710066E+02 -0.15087099627E+02 -0.11303218132E+02  0.47787270795E+02  0.19999998861E+02 0.  0.
        -12    1    1    2    0    0  0.39092710066E+02  0.15087099627E+02  0.11303218132E+02  0.43400729205E+02  0.00000000000E+00 0.  1.
         11    1    3    3    0    0 -0.70288684102E+01 -0.84845190510E+01 -0.54926903754E+00  0.11031489083E+02  0.51100000000E-03 0. -1.
        -11    1    3    3    0    0 -0.18427685923E+02 -0.10089658714E+02 -0.75173680810E+01  0.22313485711E+02  0.51100000000E-03 0.  1.
        -12    1    3    3    0    0 -0.13636155732E+02  0.34870781387E+01 -0.32365810134E+01  0.14442296000E+02  0.00000000000E+00 0.  1.
</event>
<event>
 7    1  0.1714203E-010  0.4778727E+02  0.7816164E-02  0.1312668E+00
        -11   -1    0    0    0    0  0.00000000000E+00  0.00000000000E+00  0.45593999997E+02  0.45594000000E+02  0.51100000000E-03 0.  1.
         11   -1    0    0    0    0 -0.00000000000E+00 -0.00000000000E+00 -0.45593999997E+02  0.45594000000E+02  0.51100000000E-03 0. -1.
    9900012    2    1    2    0    0  0.25588572651E+02  0.12418266582E+02 -0.32781624362E+02  0.47787270847E+02  0.19999999100E+02 0.  0.
        -12    1    1    2    0    0 -0.25588572651E+02 -0.12418266582E+02  0.32781624362E+02  0.43400729153E+02  0.00000000000E+00 0.  1.
         11    1    3    3    0    0  0.11628066646E+02  0.65392393656E+01 -0.55545441540E+01  0.14450832032E+02  0.51100000000E-03 0.  1.
        -11    1    3    3    0    0  0.12448069055E+02 -0.65871403001E+00 -0.16422860006E+02  0.20617920808E+02  0.51100000000E-03 0. -1.
         12    1    3    3    0    0  0.15124369490E+01  0.65377412465E+01 -0.10804220202E+02  0.12718518007E+02  0.00000000000E+00 0. -1.
</event>
<event>
 7    1  0.1714203E-010  0.4778727E+02  0.7816164E-02  0.1312668E+00
        -11   -1    0    0    0    0  0.00000000000E+00  0.00000000000E+00  0.45593999997E+02  0.45594000000E+02  0.51100000000E-03 0.  1.
         11   -1    0    0    0    0 -0.00000000000E+00 -0.00000000000E+00 -0.45593999997E+02  0.45594000000E+02  0.51100000000E-03 0. -1.
    9900012    2    1    2    0    0 -0.35300936479E+02  0.19174178220E+02 -0.16426135362E+02  0.47787272476E+02  0.20000006526E+02 0.  0.
        -12    1    1    2    0    0  0.35300936479E+02 -0.19174178220E+02  0.16426135362E+02  0.43400727524E+02  0.00000000000E+00 0.  1.
         11    1    3    3    0    0 -0.10316638561E+02 -0.31683900639E+01 -0.64134403893E+01  0.12554040970E+02  0.51100000000E-03 0. -1.
        -11    1    3    3    0    0 -0.68846752947E+01  0.82236559498E+01 -0.44638010884E+01  0.11616918331E+02  0.51100000000E-03 0.  1.
         12    1    3    3    0    0 -0.18099622623E+02  0.14118912334E+02 -0.55488938842E+01  0.23616313174E+02  0.00000000000E+00 0. -1.
</event>
<event>
 7    1  0.1714203E-010  0.4778725E+02  0.7816164E-02  0.1312668E+00
        -11   -1    0    0    0    0  0.00000000000E+00  0.00000000000E+00  0.45593999997E+02  0.45594000000E+02  0.51100000000E-03 0.  1.
         11   -1    0    0    0    0 -0.00000000000E+00 -0.00000000000E+00 -0.45593999997E+02  0.45594000000E+02  0.51100000000E-03 0. -1.
    9900012    2    1    2    0    0  0.53927895168E+01  0.40102488954E+02 -0.15695008885E+02  0.47787249972E+02  0.19999903921E+02 0.  0.
        -12    1    1    2    0    0 -0.53927895168E+01 -0.40102488954E+02  0.15695008885E+02  0.43400750028E+02  0.00000000000E+00 0.  1.
         11    1    3    3    0    0  0.10972210590E+01 -0.10174333227E+00 -0.37618301994E-01  0.11025702498E+01  0.51100000000E-03 0. -1.
        -11    1    3    3    0    0  0.10589105404E+02  0.18757477002E+02 -0.91737713522E+01  0.23412180117E+02  0.51100000000E-03 0.  1.
         12    1    3    3    0    0 -0.62935369465E+01  0.21446755285E+02 -0.64836192309E+01  0.23272499605E+02  0.00000000000E+00 0. -1.
</event>
<event>
 7    1  0.3732308E-010  0.4778729E+02  0.7816164E-02  0.1312668E+00
        -11   -1    0    0    0    0  0.00000000000E+00  0.00000000000E+00  0.45593999997E+02  0.45594000000E+02  0.51100000000E-03 0. -1.
         11   -1    0    0    0    0 -0.00000000000E+00 -0.00000000000E+00 -0.45593999997E+02  0.45594000000E+02  0.51100000000E-03 0.  1.
    9900012    2    1    2    0    0  0.12090332341E+02  0.48072987331E+00  0.41679907888E+02  0.47787286194E+02  0.20000069071E+02 0.  0.
        -12    1    1    2    0    0 -0.12090332341E+02 -0.48072987331E+00 -0.41679907888E+02  0.43400713806E+02  0.00000000000E+00 0.  1.
         11    1    3    3    0    0  0.96089322664E+01 -0.65633531703E+00  0.18321732277E+02  0.20698991020E+02  0.51100000000E-03 0. -1.
        -11    1    3    3    0    0  0.42696214017E+00 -0.58854953490E+00 -0.17198083849E+01  0.18671979986E+01  0.51100000000E-03 0.  1.
         12    1    3    3    0    0  0.20544379346E+01  0.17256147252E+01  0.25077983996E+02  0.25221097175E+02  0.00000000000E+00 0. -1.
</event>
<event>
 7    1  0.1714203E-010  0.4778728E+02  0.7816164E-02  0.1312668E+00
        -11   -1    0    0    0    0  0.00000000000E+00  0.00000000000E+00  0.45593999997E+02  0.45594000000E+02  0.51100000000E-03 0. -1.
         11   -1    0    0    0    0 -0.00000000000E+00 -0.00000000000E+00 -0.45593999997E+02  0.45594000000E+02  0.51100000000E-03 0.  1.
    9900012    2    1    2    0    0  0.42963449541E+02  0.21946719797E+01  0.57400583205E+01  0.47787275916E+02  0.20000022210E+02 0.  0.
        -12    1    1    2    0    0 -0.42963449541E+02 -0.21946719797E+01 -0.57400583205E+01  0.43400724084E+02  0.00000000000E+00 0.  1.
         11    1    3    3    0    0  0.65261655066E+01  0.46861653385E+01  0.15859623055E+01  0.81893991534E+01  0.51100000000E-03 0. -1.
        -11    1    3    3    0    0  0.93304452897E+01 -0.36332150466E+01 -0.46968914367E+01  0.11059758149E+02  0.51100000000E-03 0.  1.
         12    1    3    3    0    0  0.27106838744E+02  0.11417216878E+01  0.88509874518E+01  0.28538118613E+02  0.00000000000E+00 0. -1.
</event>
<event>
 7    1  0.1714203E-010  0.4778729E+02  0.7816164E-02  0.1312668E+00
        -11   -1    0    0    0    0  0.00000000000E+00  0.00000000000E+00  0.45593999997E+02  0.45594000000E+02  0.51100000000E-03 0.  1.
         11   -1    0    0    0    0 -0.00000000000E+00 -0.00000000000E+00 -0.45593999997E+02  0.45594000000E+02  0.51100000000E-03 0. -1.
    9900012    2    1    2    0    0  0.37392422593E+02 -0.75794218698E+01 -0.20687702074E+02  0.47787286637E+02  0.20000071094E+02 0.  0.
        -12    1    1    2    0    0 -0.37392422593E+02  0.75794218698E+01  0.20687702074E+02  0.43400713363E+02  0.00000000000E+00 0.  1.
         11    1    3    3    0    0  0.65082061379E+01  0.33518812697E+01 -0.29315001688E+01  0.78857814248E+01  0.51100000000E-03 0. -1.
        -11    1    3    3    0    0  0.10897607311E+01 -0.88995436690E+00  0.22365491212E+01  0.26423000320E+01  0.51100000000E-03 0.  1.
         12    1    3    3    0    0  0.29794455724E+02 -0.10041348773E+02 -0.19992751027E+02  0.37259205181E+02  0.00000000000E+00 0. -1.
</event>
<event>
 7    1  0.1714203E-010  0.4778722E+02  0.7816164E-02  0.1312668E+00
        -11   -1    0    0    0    0  0.00000000000E+00  0.00000000000E+00  0.45593999997E+02  0.45594000000E+02  0.51100000000E-03 0.  1.
         11   -1    0    0    0    0 -0.00000000000E+00 -0.00000000000E+00 -0.45593999997E+02  0.45594000000E+02  0.51100000000E-03 0. -1.
    9900012    2    1    2    0    0  0.14963843360E+02  0.26391738673E+02 -0.31035262904E+02  0.47787216346E+02  0.19999750607E+02 0.  0.
        -12    1    1    2    0    0 -0.14963843360E+02 -0.26391738673E+02  0.31035262904E+02  0.43400783654E+02  0.00000000000E+00 0.  1.
         11    1    3    3    0    0  0.33735477306E+01  0.17286511711E+02 -0.73688346667E+01  0.19091988792E+02  0.51100000000E-03 0. -1.
        -11    1    3    3    0    0  0.33433068464E+01 -0.39013429509E+00 -0.30327783199E+01  0.45307449759E+01  0.51100000000E-03 0.  1.
        -12    1    3    3    0    0  0.82469887830E+01  0.94953612570E+01 -0.20633649917E+02  0.24164482579E+02  0.00000000000E+00 0.  1.
</event>
<event>
 7    1  0.1714203E-010  0.4778729E+02  0.7816164E-02  0.1312668E+00
        -11   -1    0    0    0    0  0.00000000000E+00  0.00000000000E+00  0.45593999997E+02  0.45594000000E+02  0.51100000000E-03 0.  1.
         11   -1    0    0    0    0 -0.00000000000E+00 -0.00000000000E+00 -0.45593999997E+02  0.45594000000E+02  0.51100000000E-03 0. -1.
    9900012    2    1    2    0    0  0.28350142130E+02 -0.22916308429E+02 -0.23552795022E+02  0.47787286824E+02  0.20000071946E+02 0.  0.
        -12    1    1    2    0    0 -0.28350142130E+02  0.22916308429E+02  0.23552795022E+02  0.43400713176E+02  0.00000000000E+00 0.  1.
         11    1    3    3    0    0  0.17334177732E+02 -0.20854646834E+02 -0.19520605399E+02  0.33413231625E+02  0.51100000000E-03 0. -1.
        -11    1    3    3    0    0  0.96379116699E+01 -0.45642312567E+01 -0.19548024424E+01  0.10841715785E+02  0.51100000000E-03 0.  1.
         12    1    3    3    0    0  0.13780527282E+01  0.25025696618E+01 -0.20773871806E+01  0.35323394134E+01  0.00000000000E+00 0. -1.
</event>
<event>
 7    1  0.1714203E-010  0.4778727E+02  0.7816164E-02  0.1312668E+00
        -11   -1    0    0    0    0  0.00000000000E+00  0.00000000000E+00  0.45593999997E+02  0.45594000000E+02  0.51100000000E-03 0.  1.
         11   -1    0    0    0    0 -0.00000000000E+00 -0.00000000000E+00 -0.45593999997E+02  0.45594000000E+02  0.51100000000E-03 0. -1.
    9900012    2    1    2    0    0 -0.94760076329E+01 -0.42659677464E+01 -0.42138226616E+02  0.47787270239E+02  0.19999996326E+02 0.  0.
        -12    1    1    2    0    0  0.94760076329E+01  0.42659677464E+01  0.42138226616E+02  0.43400729761E+02  0.00000000000E+00 0.  1.
         11    1    3    3    0    0  0.25439226949E+01  0.12935690144E+01 -0.96245269159E+01  0.10038744049E+02  0.51100000000E-03 0. -1.
        -11    1    3    3    0    0 -0.85807323563E+01 -0.94858961852E+01 -0.28242679931E+02  0.31004195912E+02  0.51100000000E-03 0.  1.
         12    1    3    3    0    0 -0.34391979715E+01  0.39263594244E+01 -0.42710197688E+01  0.67443302768E+01  0.00000000000E+00 0. -1.
</event>
<event>
 7    1  0.1714203E-010  0.4778727E+02  0.7816164E-02  0.1312668E+00
        -11   -1    0    0    0    0  0.00000000000E+00  0.00000000000E+00  0.45593999997E+02  0.45594000000E+02  0.51100000000E-03 0.  1.
         11   -1    0    0    0    0 -0.00000000000E+00 -0.00000000000E+00 -0.45593999997E+02  0.45594000000E+02  0.51100000000E-03 0. -1.
    9900012    2    1    2    0    0 -0.18958896739E+02  0.22733672161E+02 -0.31738999672E+02  0.47787265955E+02  0.19999976795E+02 0.  0.
        -12    1    1    2    0    0  0.18958896739E+02 -0.22733672161E+02  0.31738999672E+02  0.43400734045E+02  0.00000000000E+00 0.  1.
         11    1    3    3    0    0 -0.56941056602E+01 -0.20270142426E+01 -0.27333017122E+01  0.66334428859E+01  0.51100000000E-03 0.  1.
        -11    1    3    3    0    0 -0.44662506246E+01  0.70680570436E+01 -0.14138926605E+02  0.16426018106E+02  0.51100000000E-03 0. -1.
        -12    1    3    3    0    0 -0.87985404544E+01  0.17692629359E+02 -0.14866771355E+02  0.24727804963E+02  0.00000000000E+00 0.  1.
</event>
<event>
 7    1  0.1714203E-010  0.4778727E+02  0.7816164E-02  0.1312668E+00
        -11   -1    0    0    0    0  0.00000000000E+00  0.00000000000E+00  0.45593999997E+02  0.45594000000E+02  0.51100000000E-03 0.  1.
         11   -1    0    0    0    0 -0.00000000000E+00 -0.00000000000E+00 -0.45593999997E+02  0.45594000000E+02  0.51100000000E-03 0. -1.
    9900012    2    1    2    0    0  0.39868736912E+02 -0.16341600680E+01 -0.17071522894E+02  0.47787267795E+02  0.19999985183E+02 0.  0.
        -12    1    1    2    0    0 -0.39868736912E+02  0.16341600680E+01  0.17071522894E+02  0.43400732205E+02  0.00000000000E+00 0.  1.
         11    1    3    3    0    0  0.20508641036E+02 -0.24123431434E+01 -0.10392089182E+02  0.23117510126E+02  0.51100000000E-03 0. -1.
        -11    1    3    3    0    0  0.10822010804E+02  0.24075901125E+01  0.31724052262E+01  0.11531546434E+02  0.51100000000E-03 0.  1.
         12    1    3    3    0    0  0.85380850712E+01 -0.16294070370E+01 -0.98518389380E+01  0.13138211234E+02  0.00000000000E+00 0. -1.
</event>
<event>
 7    1  0.1714203E-010  0.4778727E+02  0.7816164E-02  0.1312668E+00
        -11   -1    0    0    0    0  0.00000000000E+00  0.00000000000E+00  0.45593999997E+02  0.45594000000E+02  0.51100000000E-03 0.  1.
         11   -1    0    0    0    0 -0.00000000000E+00 -0.00000000000E+00 -0.45593999997E+02  0.45594000000E+02  0.51100000000E-03 0. -1.
    9900012    2    1    2    0    0  0.42198353899E+02 -0.73759604341E+01 -0.69654383449E+01  0.47787271948E+02  0.20000004118E+02 0.  0.
        -12    1    1    2    0    0 -0.42198353899E+02  0.73759604341E+01  0.69654383449E+01  0.43400728052E+02  0.00000000000E+00 0.  1.
         11    1    3    3    0    0  0.23903599430E+02 -0.16679568402E+00  0.11454718697E+01  0.23931610739E+02  0.51100000000E-03 0. -1.
        -11    1    3    3    0    0  0.13397161679E+02 -0.18347631238E+01 -0.94034795922E+01  0.16470450069E+02  0.51100000000E-03 0.  1.
         12    1    3    3    0    0  0.48975927908E+01 -0.53744016263E+01  0.12925693777E+01  0.73852111399E+01  0.00000000000E+00 0. -1.
</event>
<event>
 7    1  0.1714203E-010  0.4778727E+02  0.7816164E-02  0.1312668E+00
        -11   -1    0    0    0    0  0.00000000000E+00  0.00000000000E+00  0.45593999997E+02  0.45594000000E+02  0.51100000000E-03 0.  1.
         11   -1    0    0    0    0 -0.00000000000E+00 -0.00000000000E+00 -0.45593999997E+02  0.45594000000E+02  0.51100000000E-03 0. -1.
    9900012    2    1    2    0    0 -0.11179522313E+02 -0.38761973227E+02 -0.16004720853E+02  0.47787269855E+02  0.19999994575E+02 0.  0.
        -12    1    1    2    0    0  0.11179522313E+02  0.38761973227E+02  0.16004720853E+02  0.43400730145E+02  0.00000000000E+00 0.  1.
         11    1    3    3    0    0 -0.24902321516E+01 -0.11954786386E+02 -0.28755073929E+01  0.12545386272E+02  0.51100000000E-03 0. -1.
        -11    1    3    3    0    0 -0.23434533584E+01 -0.37878614559E+01 -0.10268742998E+02  0.11193156439E+02  0.51100000000E-03 0.  1.
        -12    1    3    3    0    0 -0.63458368032E+01 -0.23019325385E+02 -0.28604704616E+01  0.24048727143E+02  0.00000000000E+00 0.  1.
</event>
<event>
 7    1  0.1714203E-010  0.4778727E+02  0.7816164E-02  0.1312668E+00
        -11   -1    0    0    0    0  0.00000000000E+00  0.00000000000E+00  0.45593999997E+02  0.45594000000E+02  0.51100000000E-03 0.  1.
         11   -1    0    0    0    0 -0.00000000000E+00 -0.00000000000E+00 -0.45593999997E+02  0.45594000000E+02  0.51100000000E-03 0. -1.
    9900012    2    1    2    0    0  0.29910182368E+02  0.80779044126E+01 -0.30393284540E+02  0.47787270811E+02  0.19999998937E+02 0.  0.
        -12    1    1    2    0    0 -0.29910182368E+02 -0.80779044126E+01  0.30393284540E+02  0.43400729189E+02  0.00000000000E+00 0.  1.
         11    1    3    3    0    0  0.98678309950E+01  0.26367620981E+01 -0.64289571108E+01  0.12068889456E+02  0.51100000000E-03 0. -1.
        -11    1    3    3    0    0 -0.43002402545E+00 -0.39262138918E+01 -0.30634150420E+01  0.49984585791E+01  0.51100000000E-03 0.  1.
        -12    1    3    3    0    0  0.20472375399E+02  0.93673562063E+01 -0.20900912387E+02  0.30719922776E+02  0.00000000000E+00 0.  1.
</event>
<event>
 7    1  0.1714203E-010  0.4778727E+02  0.7816164E-02  0.1312668E+00
        -11   -1    0    0    0    0  0.00000000000E+00  0.00000000000E+00  0.45593999997E+02  0.45594000000E+02  0.51100000000E-03 0. -1.
         11   -1    0    0    0    0 -0.00000000000E+00 -0.00000000000E+00 -0.45593999997E+02  0.45594000000E+02  0.51100000000E-03 0.  1.
    9900012    2    1    2    0    0  0.39402839944E+02 -0.17211779220E+02 -0.58986555588E+01  0.47787271009E+02  0.19999999839E+02 0.  0.
        -12    1    1    2    0    0 -0.39402839944E+02  0.17211779220E+02  0.58986555588E+01  0.43400728991E+02  0.00000000000E+00 0.  1.
         11    1    3    3    0    0  0.18555256727E+02  0.92594665889E+00 -0.53228013497E+01  0.19325815478E+02  0.51100000000E-03 0. -1.
        -11    1    3    3    0    0  0.14779545826E+02 -0.88188360959E+01 -0.16486861408E+01  0.17289447971E+02  0.51100000000E-03 0.  1.
        -12    1    3    3    0    0  0.60680373905E+01 -0.93188897827E+01  0.10728319317E+01  0.11172007559E+02  0.00000000000E+00 0.  1.
</event>
<event>
 7    1  0.1714203E-010  0.4778723E+02  0.7816164E-02  0.1312668E+00
        -11   -1    0    0    0    0  0.00000000000E+00  0.00000000000E+00  0.45593999997E+02  0.45594000000E+02  0.51100000000E-03 0. -1.
         11   -1    0    0    0    0 -0.00000000000E+00 -0.00000000000E+00 -0.45593999997E+02  0.45594000000E+02  0.51100000000E-03 0.  1.
    9900012    2    1    2    0    0  0.71236065872E+01  0.61729890249E+01  0.42364786482E+02  0.47787231597E+02  0.19999820143E+02 0.  0.
        -12    1    1    2    0    0 -0.71236065872E+01 -0.61729890249E+01 -0.42364786482E+02  0.43400768403E+02  0.00000000000E+00 0.  1.
         11    1    3    3    0    0  0.61056108502E+00 -0.39455988803E+01  0.14941299640E+01  0.42629754835E+01  0.51100000000E-03 0. -1.
        -11    1    3    3    0    0  0.18195024067E+01  0.21642502772E+01  0.17434389944E+01  0.33217688148E+01  0.51100000000E-03 0.  1.
        -12    1    3    3    0    0  0.46935430955E+01  0.79543376280E+01  0.39127217523E+02  0.40202487299E+02  0.00000000000E+00 0.  1.
</event>
<event>
 7    1  0.1714203E-010  0.4778727E+02  0.7816164E-02  0.1312668E+00
        -11   -1    0    0    0    0  0.00000000000E+00  0.00000000000E+00  0.45593999997E+02  0.45594000000E+02  0.51100000000E-03 0.  1.
         11   -1    0    0    0    0 -0.00000000000E+00 -0.00000000000E+00 -0.45593999997E+02  0.45594000000E+02  0.51100000000E-03 0. -1.
    9900012    2    1    2    0    0 -0.25542717878E+01 -0.32328597924E+02 -0.28843730836E+02  0.47787270091E+02  0.19999995653E+02 0.  0.
        -12    1    1    2    0    0  0.25542717878E+01  0.32328597924E+02  0.28843730836E+02  0.43400729909E+02  0.00000000000E+00 0.  1.
         11    1    3    3    0    0  0.50867825048E+01 -0.59639778470E+01 -0.14844140601E+02  0.16786688132E+02  0.51100000000E-03 0. -1.
        -11    1    3    3    0    0 -0.14742382263E+01 -0.77023190474E+01 -0.25106320749E+01  0.82342194975E+01  0.51100000000E-03 0.  1.
         12    1    3    3    0    0 -0.61668160663E+01 -0.18662301029E+02 -0.11488958161E+02  0.22766362461E+02  0.00000000000E+00 0. -1.
</event>
<event>
 7    1  0.1714203E-010  0.4778727E+02  0.7816164E-02  0.1312668E+00
        -11   -1    0    0    0    0  0.00000000000E+00  0.00000000000E+00  0.45593999997E+02  0.45594000000E+02  0.51100000000E-03 0.  1.
         11   -1    0    0    0    0 -0.00000000000E+00 -0.00000000000E+00 -0.45593999997E+02  0.45594000000E+02  0.51100000000E-03 0. -1.
    9900012    2    1    2    0    0  0.35071206573E+02 -0.45572780304E+01  0.25156810158E+02  0.47787269466E+02  0.19999992802E+02 0.  0.
        -12    1    1    2    0    0 -0.35071206573E+02  0.45572780304E+01 -0.25156810158E+02  0.43400730534E+02  0.00000000000E+00 0.  1.
         11    1    3    3    0    0  0.12347498672E+02  0.32496287920E+00  0.16299445901E+02  0.20450874340E+02  0.51100000000E-03 0. -1.
        -11    1    3    3    0    0  0.82168507283E+01 -0.72391964480E+01  0.55273185686E+01  0.12266778384E+02  0.51100000000E-03 0.  1.
        -12    1    3    3    0    0  0.14506857173E+02  0.23569555385E+01  0.33300456889E+01  0.15069616742E+02  0.00000000000E+00 0.  1.
</event>
<event>
 7    1  0.1714203E-010  0.4778726E+02  0.7816164E-02  0.1312668E+00
        -11   -1    0    0    0    0  0.00000000000E+00  0.00000000000E+00  0.45593999997E+02  0.45594000000E+02  0.51100000000E-03 0.  1.
         11   -1    0    0    0    0 -0.00000000000E+00 -0.00000000000E+00 -0.45593999997E+02  0.45594000000E+02  0.51100000000E-03 0. -1.
    9900012    2    1    2    0    0 -0.31841319943E+02 -0.14947178247E+02 -0.25423142905E+02  0.47787262812E+02  0.19999962466E+02 0.  0.
        -12    1    1    2    0    0  0.31841319943E+02  0.14947178247E+02  0.25423142905E+02  0.43400737188E+02  0.00000000000E+00 0.  1.
         11    1    3    3    0    0 -0.94691991252E+00 -0.12406462728E+01 -0.31104277022E+01  0.34800317882E+01  0.51100000000E-03 0.  1.
        -11    1    3    3    0    0 -0.16415203750E+02 -0.11697001825E+02 -0.21785514454E+02  0.29679747407E+02  0.51100000000E-03 0. -1.
         12    1    3    3    0    0 -0.14479196280E+02 -0.20095301488E+01 -0.52720074924E+00  0.14627483617E+02  0.00000000000E+00 0. -1.
</event>
<event>
 7    1  0.2316776E-010  0.4778727E+02  0.7816164E-02  0.1312668E+00
        -11   -1    0    0    0    0  0.00000000000E+00  0.00000000000E+00  0.45593999997E+02  0.45594000000E+02  0.51100000000E-03 0.  1.
         11   -1    0    0    0    0 -0.00000000000E+00 -0.00000000000E+00 -0.45593999997E+02  0.45594000000E+02  0.51100000000E-03 0. -1.
    9900012    2    1    2    0    0 -0.22093222792E+02  0.32795459007E+02 -0.17887728437E+02  0.47787268975E+02  0.19999990566E+02 0.  0.
        -12    1    1    2    0    0  0.22093222792E+02 -0.32795459007E+02  0.17887728437E+02  0.43400731025E+02  0.00000000000E+00 0.  1.
         11    1    3    3    0    0 -0.16179556708E+02  0.21474425645E+02 -0.13287431672E+02  0.29991412984E+02  0.51100000000E-03 0. -1.
        -11    1    3    3    0    0 -0.62959516857E+01  0.62421698895E+01  0.23566931833E+01  0.91737503552E+01  0.51100000000E-03 0.  1.
        -12    1    3    3    0    0  0.38228560217E+00  0.50788634726E+01 -0.69569899485E+01  0.86221056360E+01  0.00000000000E+00 0.  1.
</event>
<event>
 7    1  0.1714203E-010  0.4778728E+02  0.7816164E-02  0.1312668E+00
        -11   -1    0    0    0    0  0.00000000000E+00  0.00000000000E+00  0.45593999997E+02  0.45594000000E+02  0.51100000000E-03 0.  1.
         11   -1    0    0    0    0 -0.00000000000E+00 -0.00000000000E+00 -0.45593999997E+02  0.45594000000E+02  0.51100000000E-03 0. -1.
    9900012    2    1    2    0    0 -0.41457457247E+01  0.25089326032E+01 -0.43129351628E+02  0.47787275095E+02  0.20000018467E+02 0.  0.
        -12    1    1    2    0    0  0.41457457247E+01 -0.25089326032E+01  0.43129351628E+02  0.43400724905E+02  0.00000000000E+00 0.  1.
         11    1    3    3    0    0  0.89647936869E+00 -0.18744840882E+00  0.16625150670E+01  0.18980960918E+01  0.51100000000E-03 0. -1.
        -11    1    3    3    0    0 -0.16171699422E+01 -0.18698190747E+00 -0.10913302588E+01  0.19598986837E+01  0.51100000000E-03 0.  1.
         12    1    3    3    0    0 -0.34250551513E+01  0.28833629195E+01 -0.43700536437E+02  0.43929280319E+02  0.00000000000E+00 0. -1.
</event>
<event>
 7    1  0.1714203E-010  0.4778727E+02  0.7816164E-02  0.1312668E+00
        -11   -1    0    0    0    0  0.00000000000E+00  0.00000000000E+00  0.45593999997E+02  0.45594000000E+02  0.51100000000E-03 0.  1.
         11   -1    0    0    0    0 -0.00000000000E+00 -0.00000000000E+00 -0.45593999997E+02  0.45594000000E+02  0.51100000000E-03 0. -1.
    9900012    2    1    2    0    0  0.95022988179E+01 -0.42344050725E+02  0.55752537725E+00  0.47787272481E+02  0.20000006551E+02 0.  0.
        -12    1    1    2    0    0 -0.95022988179E+01  0.42344050725E+02 -0.55752537725E+00  0.43400727519E+02  0.00000000000E+00 0.  1.
         11    1    3    3    0    0  0.94006929634E+01 -0.12882871738E+02  0.10204004083E-01  0.15948088186E+02  0.51100000000E-03 0. -1.
        -11    1    3    3    0    0  0.30440300470E+01 -0.26473878674E+02 -0.23359007097E+01  0.26750491647E+02  0.51100000000E-03 0.  1.
        -12    1    3    3    0    0 -0.29424241925E+01 -0.29873003129E+01  0.28832220829E+01  0.50886926481E+01  0.00000000000E+00 0.  1.
</event>
<event>
 7    1  0.2126637E-010  0.4778727E+02  0.7816164E-02  0.1312668E+00
        -11   -1    0    0    0    0  0.00000000000E+00  0.00000000000E+00  0.45593999997E+02  0.45594000000E+02  0.51100000000E-03 0.  1.
         11   -1    0    0    0    0 -0.00000000000E+00 -0.00000000000E+00 -0.45593999997E+02  0.45594000000E+02  0.51100000000E-03 0. -1.
    9900012    2    1    2    0    0  0.27387827765E+02  0.26007400598E+02 -0.21380954063E+02  0.47787271986E+02  0.20000004292E+02 0.  0.
        -12    1    1    2    0    0 -0.27387827765E+02 -0.26007400598E+02  0.21380954063E+02  0.43400728014E+02  0.00000000000E+00 0.  1.
         11    1    3    3    0    0  0.14091887595E+02  0.12332660131E+02 -0.99725743860E+01  0.21216221201E+02  0.51100000000E-03 0. -1.
        -11    1    3    3    0    0  0.87684177546E+01  0.15710212854E+02 -0.11918064258E+02  0.21580921986E+02  0.51100000000E-03 0.  1.
        -12    1    3    3    0    0  0.45275224154E+01 -0.20354723867E+01  0.50968458196E+00  0.49901287991E+01  0.00000000000E+00 0.  1.
</event>
<event>
 7    1  0.1714203E-010  0.4778729E+02  0.7816164E-02  0.1312668E+00
        -11   -1    0    0    0    0  0.00000000000E+00  0.00000000000E+00  0.45593999997E+02  0.45594000000E+02  0.51100000000E-03 0.  1.
         11   -1    0    0    0    0 -0.00000000000E+00 -0.00000000000E+00 -0.45593999997E+02  0.45594000000E+02  0.51100000000E-03 0. -1.
    9900012    2    1    2    0    0  0.12031393857E+02  0.39393276377E+02 -0.13676145742E+02  0.47787290050E+02  0.20000086653E+02 0.  0.
        -12    1    1    2    0    0 -0.12031393857E+02 -0.39393276377E+02  0.13676145742E+02  0.43400709950E+02  0.00000000000E+00 0.  1.
         11    1    3    3    0    0  0.13547410407E+02  0.28849125662E+02 -0.93956719147E+01  0.33227744901E+02  0.51100000000E-03 0. -1.
        -11    1    3    3    0    0  0.10555563296E+01 -0.13640809373E+01 -0.70141907144E+00  0.18619626590E+01  0.51100000000E-03 0.  1.
        -12    1    3    3    0    0 -0.25715728793E+01  0.11908231652E+02 -0.35790547555E+01  0.12697582490E+02  0.00000000000E+00 0.  1.
</event>
<event>
 7    1  0.1714203E-010  0.4778727E+02  0.7816164E-02  0.1312668E+00
        -11   -1    0    0    0    0  0.00000000000E+00  0.00000000000E+00  0.45593999997E+02  0.45594000000E+02  0.51100000000E-03 0.  1.
         11   -1    0    0    0    0 -0.00000000000E+00 -0.00000000000E+00 -0.45593999997E+02  0.45594000000E+02  0.51100000000E-03 0. -1.
    9900012    2    1    2    0    0 -0.11357315873E+02  0.38780933041E+02 -0.15832688591E+02  0.47787269368E+02  0.19999992358E+02 0.  0.
        -12    1    1    2    0    0  0.11357315873E+02 -0.38780933041E+02  0.15832688591E+02  0.43400730632E+02  0.00000000000E+00 0.  1.
         11    1    3    3    0    0  0.24195035224E+01  0.29409723663E+01 -0.53264097125E+01  0.65478207399E+01  0.51100000000E-03 0. -1.
        -11    1    3    3    0    0 -0.51557329893E+01  0.19373854872E+02 -0.33284333244E+00  0.20050900733E+02  0.51100000000E-03 0.  1.
         12    1    3    3    0    0 -0.86210864065E+01  0.16466105802E+02 -0.10173435546E+02  0.21188547895E+02  0.00000000000E+00 0. -1.
</event>
<event>
 7    1  0.1714203E-010  0.4778727E+02  0.7816164E-02  0.1312668E+00
        -11   -1    0    0    0    0  0.00000000000E+00  0.00000000000E+00  0.45593999997E+02  0.45594000000E+02  0.51100000000E-03 0.  1.
         11   -1    0    0    0    0 -0.00000000000E+00 -0.00000000000E+00 -0.45593999997E+02  0.45594000000E+02  0.51100000000E-03 0. -1.
    9900012    2    1    2    0    0 -0.24924871992E+02  0.10841650850E+02 -0.33835375498E+02  0.47787271065E+02  0.20000000094E+02 0.  0.
        -12    1    1    2    0    0  0.24924871992E+02 -0.10841650850E+02  0.33835375498E+02  0.43400728935E+02  0.00000000000E+00 0.  1.
         11    1    3    3    0    0 -0.57940932735E+01 -0.10707592830E+01 -0.18353862522E+01  0.61714411007E+01  0.51100000000E-03 0. -1.
        -11    1    3    3    0    0 -0.30905034035E+01  0.13776708963E+01 -0.16793437019E+02  0.17130928625E+02  0.51100000000E-03 0.  1.
         12    1    3    3    0    0 -0.16040275315E+02  0.10534739236E+02 -0.15206552227E+02  0.24484901339E+02  0.00000000000E+00 0. -1.
</event>
<event>
 7    1  0.1714203E-010  0.4778727E+02  0.7816164E-02  0.1312668E+00
        -11   -1    0    0    0    0  0.00000000000E+00  0.00000000000E+00  0.45593999997E+02  0.45594000000E+02  0.51100000000E-03 0.  1.
         11   -1    0    0    0    0 -0.00000000000E+00 -0.00000000000E+00 -0.45593999997E+02  0.45594000000E+02  0.51100000000E-03 0. -1.
    9900012    2    1    2    0    0 -0.68067770583E+01  0.69864773393E+01 -0.42290424938E+02  0.47787272806E+02  0.20000008030E+02 0.  0.
        -12    1    1    2    0    0  0.68067770583E+01 -0.69864773393E+01  0.42290424938E+02  0.43400727194E+02  0.00000000000E+00 0.  1.
         11    1    3    3    0    0 -0.67412422743E+01  0.48897969086E+01 -0.29995402087E+02  0.31130027431E+02  0.51100000000E-03 0. -1.
        -11    1    3    3    0    0 -0.42932627850E+01 -0.13464212920E+01 -0.18306498862E+01  0.48575955887E+01  0.51100000000E-03 0.  1.
        -12    1    3    3    0    0  0.42277280010E+01  0.34431017227E+01 -0.10464372965E+02  0.11799649786E+02  0.00000000000E+00 0.  1.
</event>
<event>
 7    1  0.1714203E-010  0.4778727E+02  0.7816164E-02  0.1312668E+00
        -11   -1    0    0    0    0  0.00000000000E+00  0.00000000000E+00  0.45593999997E+02  0.45594000000E+02  0.51100000000E-03 0.  1.
         11   -1    0    0    0    0 -0.00000000000E+00 -0.00000000000E+00 -0.45593999997E+02  0.45594000000E+02  0.51100000000E-03 0. -1.
    9900012    2    1    2    0    0 -0.19684723945E+02  0.35477957866E+02 -0.15409389612E+02  0.47787272595E+02  0.20000007068E+02 0.  0.
        -12    1    1    2    0    0  0.19684723945E+02 -0.35477957866E+02  0.15409389612E+02  0.43400727405E+02  0.00000000000E+00 0.  1.
         11    1    3    3    0    0 -0.60912432653E+01  0.11201872881E+02 -0.71613514044E+00  0.12770984706E+02  0.51100000000E-03 0. -1.
        -11    1    3    3    0    0 -0.14199787813E+02  0.17347755619E+02 -0.16493939294E+02  0.27832151060E+02  0.51100000000E-03 0.  1.
         12    1    3    3    0    0  0.60630713362E+00  0.69283293659E+01  0.18006848225E+01  0.71841368286E+01  0.00000000000E+00 0. -1.
</event>
<event>
 7    1  0.1714203E-010  0.4778727E+02  0.7816164E-02  0.1312668E+00
        -11   -1    0    0    0    0  0.00000000000E+00  0.00000000000E+00  0.45593999997E+02  0.45594000000E+02  0.51100000000E-03 0.  1.
         11   -1    0    0    0    0 -0.00000000000E+00 -0.00000000000E+00 -0.45593999997E+02  0.45594000000E+02  0.51100000000E-03 0. -1.
    9900012    2    1    2    0    0 -0.84503863962E+01 -0.32310008721E+02 -0.27717821077E+02  0.47787270754E+02  0.19999998676E+02 0.  0.
        -12    1    1    2    0    0  0.84503863962E+01  0.32310008721E+02  0.27717821077E+02  0.43400729246E+02  0.00000000000E+00 0.  1.
         11    1    3    3    0    0 -0.31228781021E+01 -0.73766105175E+00 -0.56831133444E+01  0.65264300360E+01  0.51100000000E-03 0. -1.
        -11    1    3    3    0    0  0.10921348035E+01 -0.18681394991E+02 -0.18748842587E+02  0.26489740955E+02  0.51100000000E-03 0.  1.
         12    1    3    3    0    0 -0.64196430976E+01 -0.12890952679E+02 -0.32858651459E+01  0.14771099763E+02  0.00000000000E+00 0. -1.
</event>
<event>
 7    1  0.2064666E-010  0.4778725E+02  0.7816164E-02  0.1312668E+00
        -11   -1    0    0    0    0  0.00000000000E+00  0.00000000000E+00  0.45593999997E+02  0.45594000000E+02  0.51100000000E-03 0. -1.
         11   -1    0    0    0    0 -0.00000000000E+00 -0.00000000000E+00 -0.45593999997E+02  0.45594000000E+02  0.51100000000E-03 0.  1.
    9900012    2    1    2    0    0 -0.13726572000E+01  0.25825141280E+02  0.34854019961E+02  0.47787253263E+02  0.19999918927E+02 0.  0.
        -12    1    1    2    0    0  0.13726572000E+01 -0.25825141280E+02 -0.34854019961E+02  0.43400746737E+02  0.00000000000E+00 0.  1.
         11    1    3    3    0    0  0.19049797043E+01  0.15383955105E+02  0.17509324104E+02  0.23385282833E+02  0.51100000000E-03 0. -1.
        -11    1    3    3    0    0 -0.22328084405E+01  0.54325672127E+01 -0.44575071575E+00  0.58904086457E+01  0.51100000000E-03 0.  1.
        -12    1    3    3    0    0 -0.10448284638E+01  0.50086189619E+01  0.17790446573E+02  0.18511561784E+02  0.00000000000E+00 0.  1.
</event>
<event>
 7    1  0.1714203E-010  0.4778727E+02  0.7816164E-02  0.1312668E+00
        -11   -1    0    0    0    0  0.00000000000E+00  0.00000000000E+00  0.45593999997E+02  0.45594000000E+02  0.51100000000E-03 0.  1.
         11   -1    0    0    0    0 -0.00000000000E+00 -0.00000000000E+00 -0.45593999997E+02  0.45594000000E+02  0.51100000000E-03 0. -1.
    9900012    2    1    2    0    0 -0.50839404798E+01  0.24781367687E+02 -0.35265576702E+02  0.47787268032E+02  0.19999986266E+02 0.  0.
        -12    1    1    2    0    0  0.50839404798E+01 -0.24781367687E+02  0.35265576702E+02  0.43400731968E+02  0.00000000000E+00 0.  1.
         11    1    3    3    0    0 -0.24729614103E+01  0.89599102768E+01 -0.56071260249E+01  0.10855201188E+02  0.51100000000E-03 0. -1.
        -11    1    3    3    0    0 -0.19632299153E+01 -0.23845110103E+01 -0.83202348855E+01  0.88750477897E+01  0.51100000000E-03 0.  1.
        -12    1    3    3    0    0 -0.64774915412E+00  0.18205968420E+02 -0.21338215791E+02  0.28057019055E+02  0.00000000000E+00 0.  1.
</event>
<event>
 7    1  0.1714203E-010  0.4778727E+02  0.7816164E-02  0.1312668E+00
        -11   -1    0    0    0    0  0.00000000000E+00  0.00000000000E+00  0.45593999997E+02  0.45594000000E+02  0.51100000000E-03 0.  1.
         11   -1    0    0    0    0 -0.00000000000E+00 -0.00000000000E+00 -0.45593999997E+02  0.45594000000E+02  0.51100000000E-03 0. -1.
    9900012    2    1    2    0    0 -0.12451592893E+02 -0.28978572764E+02 -0.29813145485E+02  0.47787268570E+02  0.19999988716E+02 0.  0.
        -12    1    1    2    0    0  0.12451592893E+02  0.28978572764E+02  0.29813145485E+02  0.43400731430E+02  0.00000000000E+00 0.  1.
         11    1    3    3    0    0 -0.15384254809E+01 -0.85591905204E+00 -0.84884106410E+00  0.19544517894E+01  0.51100000000E-03 0. -1.
        -11    1    3    3    0    0 -0.72043774366E+01 -0.10039083616E+02 -0.10960676555E+01  0.12405144847E+02  0.51100000000E-03 0.  1.
         12    1    3    3    0    0 -0.37087899755E+01 -0.18083570096E+02 -0.27868236765E+02  0.33427671933E+02  0.00000000000E+00 0. -1.
</event>
<event>
 7    1  0.1714203E-010  0.4778727E+02  0.7816164E-02  0.1312668E+00
        -11   -1    0    0    0    0  0.00000000000E+00  0.00000000000E+00  0.45593999997E+02  0.45594000000E+02  0.51100000000E-03 0.  1.
         11   -1    0    0    0    0 -0.00000000000E+00 -0.00000000000E+00 -0.45593999997E+02  0.45594000000E+02  0.51100000000E-03 0. -1.
    9900012    2    1    2    0    0 -0.28067682345E+02 -0.31639142051E+02 -0.97361787259E+01  0.47787270995E+02  0.19999999775E+02 0.  0.
        -12    1    1    2    0    0  0.28067682345E+02  0.31639142051E+02  0.97361787259E+01  0.43400729005E+02  0.00000000000E+00 0.  1.
         11    1    3    3    0    0 -0.37820397473E+01 -0.72064936813E+01 -0.64934797724E+01  0.10411659601E+02  0.51100000000E-03 0.  1.
        -11    1    3    3    0    0 -0.94804507803E+01 -0.14008323040E+02  0.47706816356E+01  0.17574739398E+02  0.51100000000E-03 0. -1.
         12    1    3    3    0    0 -0.14805191817E+02 -0.10424325330E+02 -0.80133805891E+01  0.19800871996E+02  0.00000000000E+00 0. -1.
</event>
<event>
 7    1  0.1714203E-010  0.4778727E+02  0.7816164E-02  0.1312668E+00
        -11   -1    0    0    0    0  0.00000000000E+00  0.00000000000E+00  0.45593999997E+02  0.45594000000E+02  0.51100000000E-03 0.  1.
         11   -1    0    0    0    0 -0.00000000000E+00 -0.00000000000E+00 -0.45593999997E+02  0.45594000000E+02  0.51100000000E-03 0. -1.
    9900012    2    1    2    0    0 -0.15406868547E+02 -0.94923286248E+01 -0.39448031157E+02  0.47787273470E+02  0.20000011059E+02 0.  0.
        -12    1    1    2    0    0  0.15406868547E+02  0.94923286248E+01  0.39448031157E+02  0.43400726530E+02  0.00000000000E+00 0.  1.
         11    1    3    3    0    0 -0.12293592448E+02 -0.93039256964E+01 -0.16886733119E+02  0.22866071030E+02  0.51100000000E-03 0. -1.
        -11    1    3    3    0    0 -0.47396468750E+01  0.39262130406E+01 -0.12690698438E+02  0.14104369126E+02  0.51100000000E-03 0.  1.
         12    1    3    3    0    0  0.16263707762E+01 -0.41146159691E+01 -0.98705996000E+01  0.10816833314E+02  0.00000000000E+00 0. -1.
</event>
<event>
 7    1  0.1714203E-010  0.4778727E+02  0.7816164E-02  0.1312668E+00
        -11   -1    0    0    0    0  0.00000000000E+00  0.00000000000E+00  0.45593999997E+02  0.45594000000E+02  0.51100000000E-03 0. -1.
         11   -1    0    0    0    0 -0.00000000000E+00 -0.00000000000E+00 -0.45593999997E+02  0.45594000000E+02  0.51100000000E-03 0.  1.
    9900012    2    1    2    0    0  0.30428825805E+02 -0.30945655211E+02  0.27630326876E+00  0.47787270054E+02  0.19999995484E+02 0.  0.
        -12    1    1    2    0    0 -0.30428825805E+02  0.30945655211E+02 -0.27630326876E+00  0.43400729946E+02  0.00000000000E+00 0.  1.
         11    1    3    3    0    0  0.18027432117E+02 -0.63690747243E+01  0.20013636454E+00  0.19120498853E+02  0.51100000000E-03 0. -1.
        -11    1    3    3    0    0  0.38993717208E+01 -0.10157196731E+02 -0.37275146932E+01  0.11500787420E+02  0.51100000000E-03 0.  1.
        -12    1    3    3    0    0  0.85020219677E+01 -0.14419383756E+02  0.38036815974E+01  0.17165983780E+02  0.00000000000E+00 0.  1.
</event>
<event>
 7    1  0.1714203E-010  0.4778727E+02  0.7816164E-02  0.1312668E+00
        -11   -1    0    0    0    0  0.00000000000E+00  0.00000000000E+00  0.45593999997E+02  0.45594000000E+02  0.51100000000E-03 0.  1.
         11   -1    0    0    0    0 -0.00000000000E+00 -0.00000000000E+00 -0.45593999997E+02  0.45594000000E+02  0.51100000000E-03 0. -1.
    9900012    2    1    2    0    0  0.30031906534E+02 -0.26281924875E+02 -0.17057800324E+02  0.47787268012E+02  0.19999986174E+02 0.  0.
        -12    1    1    2    0    0 -0.30031906534E+02  0.26281924875E+02  0.17057800324E+02  0.43400731988E+02  0.00000000000E+00 0.  1.
         11    1    3    3    0    0  0.26713067843E+02 -0.17381951467E+02 -0.74344572304E+01  0.32726004720E+02  0.51100000000E-03 0. -1.
        -11    1    3    3    0    0 -0.12010519618E+01 -0.22871831651E+01 -0.56508717536E-01  0.25839748726E+01  0.51100000000E-03 0.  1.
         12    1    3    3    0    0  0.45198906528E+01 -0.66127902426E+01 -0.95668343765E+01  0.12477288419E+02  0.00000000000E+00 0. -1.
</event>
<event>
 7    1  0.1714203E-010  0.4778727E+02  0.7816164E-02  0.1312668E+00
        -11   -1    0    0    0    0  0.00000000000E+00  0.00000000000E+00  0.45593999997E+02  0.45594000000E+02  0.51100000000E-03 0.  1.
         11   -1    0    0    0    0 -0.00000000000E+00 -0.00000000000E+00 -0.45593999997E+02  0.45594000000E+02  0.51100000000E-03 0. -1.
    9900012    2    1    2    0    0  0.38928444380E+02  0.61897419794E+01 -0.18162779468E+02  0.47787271370E+02  0.20000001484E+02 0.  0.
        -12    1    1    2    0    0 -0.38928444380E+02 -0.61897419794E+01  0.18162779468E+02  0.43400728630E+02  0.00000000000E+00 0.  1.
         11    1    3    3    0    0  0.58876589536E+01 -0.43990224916E+01 -0.54523155718E+01  0.91511568773E+01  0.51100000000E-03 0. -1.
        -11    1    3    3    0    0  0.44911083503E+01  0.52608994222E+01  0.41550949746E-01  0.69172858613E+01  0.51100000000E-03 0.  1.
        -12    1    3    3    0    0  0.28549677076E+02  0.53278650489E+01 -0.12752014846E+02  0.31718828631E+02  0.00000000000E+00 0.  1.
</event>
<event>
 7    1  0.1714203E-010  0.4778727E+02  0.7816164E-02  0.1312668E+00
        -11   -1    0    0    0    0  0.00000000000E+00  0.00000000000E+00  0.45593999997E+02  0.45594000000E+02  0.51100000000E-03 0.  1.
         11   -1    0    0    0    0 -0.00000000000E+00 -0.00000000000E+00 -0.45593999997E+02  0.45594000000E+02  0.51100000000E-03 0. -1.
    9900012    2    1    2    0    0 -0.23508555275E+01  0.41767253765E+02 -0.11558255405E+02  0.47787271010E+02  0.19999999845E+02 0.  0.
        -12    1    1    2    0    0  0.23508555275E+01 -0.41767253765E+02  0.11558255405E+02  0.43400728990E+02  0.00000000000E+00 0.  1.
         11    1    3    3    0    0 -0.70899964348E+01  0.21288903612E+02 -0.33014768348E+01  0.22680062081E+02  0.51100000000E-03 0. -1.
        -11    1    3    3    0    0  0.56360606507E+00 -0.13548993468E+01 -0.72634892707E+00  0.16373719985E+01  0.51100000000E-03 0.  1.
         12    1    3    3    0    0  0.41755348422E+01  0.21833249500E+02 -0.75304296432E+01  0.23469836931E+02  0.00000000000E+00 0. -1.
</event>
<event>
 7    1  0.1714203E-010  0.4778725E+02  0.7816164E-02  0.1312668E+00
        -11   -1    0    0    0    0  0.00000000000E+00  0.00000000000E+00  0.45593999997E+02  0.45594000000E+02  0.51100000000E-03 0.  1.
         11   -1    0    0    0    0 -0.00000000000E+00 -0.00000000000E+00 -0.45593999997E+02  0.45594000000E+02  0.51100000000E-03 0. -1.
    9900012    2    1    2    0    0 -0.10190128591E+02  0.34200000871E+02 -0.24701146087E+02  0.47787246570E+02  0.19999888411E+02 0.  0.
        -12    1    1    2    0    0  0.10190128591E+02 -0.34200000871E+02  0.24701146087E+02  0.43400753430E+02  0.00000000000E+00 0.  1.
         11    1    3    3    0    0 -0.35296366134E+01  0.24571307274E+02 -0.17260647473E+02  0.30234705674E+02  0.51100000000E-03 0.  1.
        -11    1    3    3    0    0 -0.56585804027E+01  0.60756634670E+01 -0.10046908461E+02  0.13033556254E+02  0.51100000000E-03 0. -1.
        -12    1    3    3    0    0 -0.10019115751E+01  0.35530301300E+01  0.26064098465E+01  0.45189846422E+01  0.00000000000E+00 0.  1.
</event>
<event>
 7    1  0.1714203E-010  0.4778727E+02  0.7816164E-02  0.1312668E+00
        -11   -1    0    0    0    0  0.00000000000E+00  0.00000000000E+00  0.45593999997E+02  0.45594000000E+02  0.51100000000E-03 0. -1.
         11   -1    0    0    0    0 -0.00000000000E+00 -0.00000000000E+00 -0.45593999997E+02  0.45594000000E+02  0.51100000000E-03 0.  1.
    9900012    2    1    2    0    0  0.62268574275E+01  0.42435039061E+02 -0.66420660952E+01  0.47787270334E+02  0.19999996761E+02 0.  0.
        -12    1    1    2    0    0 -0.62268574275E+01 -0.42435039061E+02  0.66420660952E+01  0.43400729666E+02  0.00000000000E+00 0.  1.
         11    1    3    3    0    0 -0.58130730650E+00  0.35297784308E+01 -0.43437142893E+01  0.56271758497E+01  0.51100000000E-03 0. -1.
        -11    1    3    3    0    0  0.97073707669E+01  0.16299046359E+02  0.15982767727E+01  0.19038026377E+02  0.51100000000E-03 0.  1.
         12    1    3    3    0    0 -0.28992060329E+01  0.22606214271E+02 -0.38966285786E+01  0.23122068107E+02  0.00000000000E+00 0. -1.
</event>
<event>
 7    1  0.1714203E-010  0.4778727E+02  0.7816164E-02  0.1312668E+00
        -11   -1    0    0    0    0  0.00000000000E+00  0.00000000000E+00  0.45593999997E+02  0.45594000000E+02  0.51100000000E-03 0. -1.
         11   -1    0    0    0    0 -0.00000000000E+00 -0.00000000000E+00 -0.45593999997E+02  0.45594000000E+02  0.51100000000E-03 0.  1.
    9900012    2    1    2    0    0 -0.39711938053E+02  0.83122041277E+01 -0.15410802449E+02  0.47787267362E+02  0.19999983210E+02 0.  0.
        -12    1    1    2    0    0  0.39711938053E+02 -0.83122041277E+01  0.15410802449E+02  0.43400732638E+02  0.00000000000E+00 0.  1.
         11    1    3    3    0    0 -0.14863208977E+01 -0.20708948305E+01 -0.13729992266E+00  0.25527645288E+01  0.51100000000E-03 0. -1.
        -11    1    3    3    0    0 -0.10535405726E+02 -0.40697653046E+01 -0.31091288630E+01  0.11714283844E+02  0.51100000000E-03 0.  1.
         12    1    3    3    0    0 -0.27690211430E+02  0.14452864263E+02 -0.12164373663E+02  0.33520218989E+02  0.00000000000E+00 0. -1.
</event>
<event>
 7    1  0.1714203E-010  0.4778727E+02  0.7816164E-02  0.1312668E+00
        -11   -1    0    0    0    0  0.00000000000E+00  0.00000000000E+00  0.45593999997E+02  0.45594000000E+02  0.51100000000E-03 0.  1.
         11   -1    0    0    0    0 -0.00000000000E+00 -0.00000000000E+00 -0.45593999997E+02  0.45594000000E+02  0.51100000000E-03 0. -1.
    9900012    2    1    2    0    0 -0.30888094892E+02  0.27222270094E+02 -0.13729412410E+02  0.47787272354E+02  0.20000005969E+02 0.  0.
        -12    1    1    2    0    0  0.30888094892E+02 -0.27222270094E+02  0.13729412410E+02  0.43400727646E+02  0.00000000000E+00 0.  1.
         11    1    3    3    0    0 -0.17061376095E+02  0.76196867062E+01 -0.79108878322E+01  0.20291188391E+02  0.51100000000E-03 0.  1.
        -11    1    3    3    0    0 -0.71275704229E+01  0.33850429243E+01 -0.60577811381E+01  0.99477378489E+01  0.51100000000E-03 0. -1.
        -12    1    3    3    0    0 -0.66991483734E+01  0.16217540464E+02  0.23925656080E+00  0.17548346114E+02  0.00000000000E+00 0.  1.
</event>
<event>
 7    1  0.1714203E-010  0.4778727E+02  0.7816164E-02  0.1312668E+00
        -11   -1    0    0    0    0  0.00000000000E+00  0.00000000000E+00  0.45593999997E+02  0.45594000000E+02  0.51100000000E-03 0.  1.
         11   -1    0    0    0    0 -0.00000000000E+00 -0.00000000000E+00 -0.45593999997E+02  0.45594000000E+02  0.51100000000E-03 0. -1.
    9900012    2    1    2    0    0 -0.18203641511E+02 -0.16097475000E+02 -0.35960003419E+02  0.47787272915E+02  0.20000008528E+02 0.  0.
        -12    1    1    2    0    0  0.18203641511E+02  0.16097475000E+02  0.35960003419E+02  0.43400727085E+02  0.00000000000E+00 0.  1.
         11    1    3    3    0    0 -0.64328324033E+01 -0.56599334071E+01 -0.15658064995E+02  0.17849122627E+02  0.51100000000E-03 0. -1.
        -11    1    3    3    0    0  0.25827399816E+01 -0.57396445169E-01  0.48399019038E+00  0.26283239774E+01  0.51100000000E-03 0.  1.
        -12    1    3    3    0    0 -0.14353549089E+02 -0.10380145147E+02 -0.20785928614E+02  0.27309826310E+02  0.00000000000E+00 0.  1.
</event>
<event>
 7    1  0.1714203E-010  0.4778727E+02  0.7816164E-02  0.1312668E+00
        -11   -1    0    0    0    0  0.00000000000E+00  0.00000000000E+00  0.45593999997E+02  0.45594000000E+02  0.51100000000E-03 0. -1.
         11   -1    0    0    0    0 -0.00000000000E+00 -0.00000000000E+00 -0.45593999997E+02  0.45594000000E+02  0.51100000000E-03 0.  1.
    9900012    2    1    2    0    0  0.34885847947E+02  0.22074026662E+02  0.13391718482E+02  0.47787272311E+02  0.20000005775E+02 0.  0.
        -12    1    1    2    0    0 -0.34885847947E+02 -0.22074026662E+02 -0.13391718482E+02  0.43400727689E+02  0.00000000000E+00 0.  1.
         11    1    3    3    0    0  0.61101988273E+01  0.63889395261E+01  0.20966028277E+01  0.90856382085E+01  0.51100000000E-03 0. -1.
        -11    1    3    3    0    0  0.49705331559E+01  0.98679387205E+01  0.86919746949E+01  0.14058194721E+02  0.51100000000E-03 0.  1.
         12    1    3    3    0    0  0.23805115963E+02  0.58171484152E+01  0.26031409595E+01  0.24643439382E+02  0.00000000000E+00 0. -1.
</event>
<event>
 7    1  0.1714203E-010  0.4778727E+02  0.7816164E-02  0.1312668E+00
        -11   -1    0    0    0    0  0.00000000000E+00  0.00000000000E+00  0.45593999997E+02  0.45594000000E+02  0.51100000000E-03 0.  1.
         11   -1    0    0    0    0 -0.00000000000E+00 -0.00000000000E+00 -0.45593999997E+02  0.45594000000E+02  0.51100000000E-03 0. -1.
    9900012    2    1    2    0    0  0.16463275254E+02 -0.35266759366E+02 -0.19205193966E+02  0.47787271624E+02  0.20000002643E+02 0.  0.
        -12    1    1    2    0    0 -0.16463275254E+02  0.35266759366E+02  0.19205193966E+02  0.43400728376E+02  0.00000000000E+00 0.  1.
         11    1    3    3    0    0 -0.18360788628E+01 -0.48348083502E+01 -0.18996817398E+01  0.55095687986E+01  0.51100000000E-03 0.  1.
        -11    1    3    3    0    0  0.97021520588E+01 -0.58064951940E+01 -0.10239921629E+02  0.15254610327E+02  0.51100000000E-03 0. -1.
        -12    1    3    3    0    0  0.85972020578E+01 -0.24625455822E+02 -0.70655905969E+01  0.27023092498E+02  0.00000000000E+00 0.  1.
</event>
<event>
 7    1  0.1714203E-010  0.4778727E+02  0.7816164E-02  0.1312668E+00
        -11   -1    0    0    0    0  0.00000000000E+00  0.00000000000E+00  0.45593999997E+02  0.45594000000E+02  0.51100000000E-03 0.  1.
         11   -1    0    0    0    0 -0.00000000000E+00 -0.00000000000E+00 -0.45593999997E+02  0.45594000000E+02  0.51100000000E-03 0. -1.
    9900012    2    1    2    0    0  0.92073853888E+01 -0.40189999034E+02 -0.13550340141E+02  0.47787266297E+02  0.19999978353E+02 0.  0.
        -12    1    1    2    0    0 -0.92073853888E+01  0.40189999034E+02  0.13550340141E+02  0.43400733703E+02  0.00000000000E+00 0.  1.
         11    1    3    3    0    0  0.67200553934E+01 -0.22250710747E+02 -0.58368734247E-01  0.23243422304E+02  0.51100000000E-03 0. -1.
        -11    1    3    3    0    0 -0.15548961968E+01 -0.14552512691E+02 -0.71280420941E+01  0.16278891614E+02  0.51100000000E-03 0.  1.
         12    1    3    3    0    0  0.40422261922E+01 -0.33867755952E+01 -0.63639293127E+01  0.82649523785E+01  0.00000000000E+00 0. -1.
</event>
<event>
 7    1  0.1714203E-010  0.4778727E+02  0.7816164E-02  0.1312668E+00
        -11   -1    0    0    0    0  0.00000000000E+00  0.00000000000E+00  0.45593999997E+02  0.45594000000E+02  0.51100000000E-03 0. -1.
         11   -1    0    0    0    0 -0.00000000000E+00 -0.00000000000E+00 -0.45593999997E+02  0.45594000000E+02  0.51100000000E-03 0.  1.
    9900012    2    1    2    0    0 -0.32854412705E+02  0.21288481642E+02  0.18735298707E+02  0.47787270715E+02  0.19999998500E+02 0.  0.
        -12    1    1    2    0    0  0.32854412705E+02 -0.21288481642E+02 -0.18735298707E+02  0.43400729285E+02  0.00000000000E+00 0.  1.
         11    1    3    3    0    0 -0.26634215838E+01  0.42265766114E+01  0.67164737977E+01  0.83707099413E+01  0.51100000000E-03 0. -1.
        -11    1    3    3    0    0 -0.25962457972E+02  0.75174053465E+01  0.97495856691E+01  0.28733517503E+02  0.51100000000E-03 0.  1.
        -12    1    3    3    0    0 -0.42285331488E+01  0.95444996839E+01  0.22692392402E+01  0.10683043271E+02  0.00000000000E+00 0.  1.
</event>
<event>
 7    1  0.1714203E-010  0.4778728E+02  0.7816164E-02  0.1312668E+00
        -11   -1    0    0    0    0  0.00000000000E+00  0.00000000000E+00  0.45593999997E+02  0.45594000000E+02  0.51100000000E-03 0.  1.
         11   -1    0    0    0    0 -0.00000000000E+00 -0.00000000000E+00 -0.45593999997E+02  0.45594000000E+02  0.51100000000E-03 0. -1.
    9900012    2    1    2    0    0 -0.12205202803E+02  0.18515814056E+02 -0.37307111661E+02  0.47787275051E+02  0.20000018268E+02 0.  0.
        -12    1    1    2    0    0  0.12205202803E+02 -0.18515814056E+02  0.37307111661E+02  0.43400724949E+02  0.00000000000E+00 0.  1.
         11    1    3    3    0    0 -0.63895648100E+00 -0.85593807779E-01  0.92685982142E+00  0.11290088902E+01  0.51100000000E-03 0. -1.
        -11    1    3    3    0    0 -0.47690727250E+01 -0.43974434543E+00 -0.20513814551E+01  0.52101435566E+01  0.51100000000E-03 0.  1.
         12    1    3    3    0    0 -0.67971735972E+01  0.19041152209E+02 -0.36182590027E+02  0.41448122604E+02  0.00000000000E+00 0. -1.
</event>
<event>
 7    1  0.1714203E-010  0.4778727E+02  0.7816164E-02  0.1312668E+00
        -11   -1    0    0    0    0  0.00000000000E+00  0.00000000000E+00  0.45593999997E+02  0.45594000000E+02  0.51100000000E-03 0.  1.
         11   -1    0    0    0    0 -0.00000000000E+00 -0.00000000000E+00 -0.45593999997E+02  0.45594000000E+02  0.51100000000E-03 0. -1.
    9900012    2    1    2    0    0  0.26973459732E+02 -0.11385708446E+01 -0.33981751952E+02  0.47787270292E+02  0.19999996568E+02 0.  0.
        -12    1    1    2    0    0 -0.26973459732E+02  0.11385708446E+01  0.33981751952E+02  0.43400729708E+02  0.00000000000E+00 0.  1.
         11    1    3    3    0    0  0.25265114911E+01  0.48076222979E+01 -0.13015011746E+02  0.14102731065E+02  0.51100000000E-03 0. -1.
        -11    1    3    3    0    0  0.55361630304E+01 -0.48814772278E+01 -0.67484574341E+01  0.10000979903E+02  0.51100000000E-03 0.  1.
         12    1    3    3    0    0  0.18910785210E+02 -0.10647159147E+01 -0.14218282772E+02  0.23683559324E+02  0.00000000000E+00 0. -1.
</event>
<event>
 7    1  0.1714203E-010  0.4778727E+02  0.7816164E-02  0.1312668E+00
        -11   -1    0    0    0    0  0.00000000000E+00  0.00000000000E+00  0.45593999997E+02  0.45594000000E+02  0.51100000000E-03 0.  1.
         11   -1    0    0    0    0 -0.00000000000E+00 -0.00000000000E+00 -0.45593999997E+02  0.45594000000E+02  0.51100000000E-03 0. -1.
    9900012    2    1    2    0    0 -0.10526595523E+02 -0.40130789568E+01 -0.41913116339E+02  0.47787270314E+02  0.19999996669E+02 0.  0.
        -12    1    1    2    0    0  0.10526595523E+02  0.40130789568E+01  0.41913116339E+02  0.43400729686E+02  0.00000000000E+00 0.  1.
         11    1    3    3    0    0  0.36503153139E+00  0.44363554917E+01 -0.12834577149E+02  0.13584582030E+02  0.51100000000E-03 0. -1.
        -11    1    3    3    0    0 -0.76210047515E+00 -0.71577221411E+01 -0.16494321798E+02  0.17996567317E+02  0.51100000000E-03 0.  1.
         12    1    3    3    0    0 -0.10129526580E+02 -0.12917123074E+01 -0.12584217393E+02  0.16206120967E+02  0.00000000000E+00 0. -1.
</event>
<event>
 7    1  0.1714203E-010  0.4778727E+02  0.7816164E-02  0.1312668E+00
        -11   -1    0    0    0    0  0.00000000000E+00  0.00000000000E+00  0.45593999997E+02  0.45594000000E+02  0.51100000000E-03 0. -1.
         11   -1    0    0    0    0 -0.00000000000E+00 -0.00000000000E+00 -0.45593999997E+02  0.45594000000E+02  0.51100000000E-03 0.  1.
    9900012    2    1    2    0    0 -0.42831880921E+02  0.70014586501E+01  0.18036058103E+00  0.47787274472E+02  0.20000015626E+02 0.  0.
        -12    1    1    2    0    0  0.42831880921E+02 -0.70014586501E+01 -0.18036058103E+00  0.43400725528E+02  0.00000000000E+00 0.  1.
         11    1    3    3    0    0 -0.10852690610E+02  0.38814589726E+01  0.30407034621E+01  0.11920255661E+02  0.51100000000E-03 0. -1.
        -11    1    3    3    0    0 -0.15494184760E+02 -0.24024477303E+01 -0.81814449315E+01  0.17685518310E+02  0.51100000000E-03 0.  1.
        -12    1    3    3    0    0 -0.16485005551E+02  0.55224474078E+01  0.53211020505E+01  0.18181500500E+02  0.00000000000E+00 0.  1.
</event>
<event>
 7    1  0.1714203E-010  0.4778727E+02  0.7816164E-02  0.1312668E+00
        -11   -1    0    0    0    0  0.00000000000E+00  0.00000000000E+00  0.45593999997E+02  0.45594000000E+02  0.51100000000E-03 0.  1.
         11   -1    0    0    0    0 -0.00000000000E+00 -0.00000000000E+00 -0.45593999997E+02  0.45594000000E+02  0.51100000000E-03 0. -1.
    9900012    2    1    2    0    0  0.36490810757E+01 -0.23369775732E+02 -0.36389024498E+02  0.47787270578E+02  0.19999997873E+02 0.  0.
        -12    1    1    2    0    0 -0.36490810757E+01  0.23369775732E+02  0.36389024498E+02  0.43400729422E+02  0.00000000000E+00 0.  1.
         11    1    3    3    0    0 -0.15383983543E+01 -0.32998726928E+01 -0.27099852162E+01  0.45387056986E+01  0.51100000000E-03 0. -1.
        -11    1    3    3    0    0  0.65107352925E+01 -0.63857496511E+01 -0.29509183123E+01  0.95851651943E+01  0.51100000000E-03 0.  1.
         12    1    3    3    0    0 -0.13232558624E+01 -0.13684153388E+02 -0.30728120970E+02  0.33663399685E+02  0.00000000000E+00 0. -1.
</event>
<event>
 7    1  0.1714203E-010  0.4778727E+02  0.7816164E-02  0.1312668E+00
        -11   -1    0    0    0    0  0.00000000000E+00  0.00000000000E+00  0.45593999997E+02  0.45594000000E+02  0.51100000000E-03 0. -1.
         11   -1    0    0    0    0 -0.00000000000E+00 -0.00000000000E+00 -0.45593999997E+02  0.45594000000E+02  0.51100000000E-03 0.  1.
    9900012    2    1    2    0    0 -0.24888771917E+01 -0.22017698860E+02  0.37318227107E+02  0.47787266743E+02  0.19999980390E+02 0.  0.
        -12    1    1    2    0    0  0.24888771917E+01  0.22017698860E+02 -0.37318227107E+02  0.43400733257E+02  0.00000000000E+00 0.  1.
         11    1    3    3    0    0  0.25986312753E+01  0.54470476111E+00  0.67564065371E+00  0.27397223100E+01  0.51100000000E-03 0. -1.
        -11    1    3    3    0    0  0.37910284118E+01 -0.45589733873E+01  0.61678976924E+01  0.85556470807E+01  0.51100000000E-03 0.  1.
         12    1    3    3    0    0 -0.88785368788E+01 -0.18003430234E+02  0.30474688761E+02  0.36491897353E+02  0.00000000000E+00 0. -1.
</event>
<event>
 7    1  0.1714203E-010  0.4778727E+02  0.7816164E-02  0.1312668E+00
        -11   -1    0    0    0    0  0.00000000000E+00  0.00000000000E+00  0.45593999997E+02  0.45594000000E+02  0.51100000000E-03 0. -1.
         11   -1    0    0    0    0 -0.00000000000E+00 -0.00000000000E+00 -0.45593999997E+02  0.45594000000E+02  0.51100000000E-03 0.  1.
    9900012    2    1    2    0    0  0.30966376206E+01  0.43084906627E+02 -0.42100909415E+01  0.47787271788E+02  0.20000003391E+02 0.  0.
        -12    1    1    2    0    0 -0.30966376206E+01 -0.43084906627E+02  0.42100909415E+01  0.43400728212E+02  0.00000000000E+00 0.  1.
         11    1    3    3    0    0 -0.44605907397E+01  0.11366574187E+02  0.14441940614E+01  0.12295591699E+02  0.51100000000E-03 0. -1.
        -11    1    3    3    0    0  0.30656403370E+01  0.29691063908E+02 -0.63443399993E+01  0.30515702138E+02  0.51100000000E-03 0.  1.
        -12    1    3    3    0    0  0.44915880234E+01  0.20272685316E+01  0.69005499642E+00  0.49759779510E+01  0.00000000000E+00 0.  1.
</event>
<event>
 7    1  0.1714203E-010  0.4778727E+02  0.7816164E-02  0.1312668E+00
        -11   -1    0    0    0    0  0.00000000000E+00  0.00000000000E+00  0.45593999997E+02  0.45594000000E+02  0.51100000000E-03 0.  1.
         11   -1    0    0    0    0 -0.00000000000E+00 -0.00000000000E+00 -0.45593999997E+02  0.45594000000E+02  0.51100000000E-03 0. -1.
    9900012    2    1    2    0    0 -0.43372760630E+02 -0.12722134908E+01 -0.89896766130E+00  0.47787273800E+02  0.20000012564E+02 0.  0.
        -12    1    1    2    0    0  0.43372760630E+02  0.12722134908E+01  0.89896766130E+00  0.43400726200E+02  0.00000000000E+00 0.  1.
         11    1    3    3    0    0 -0.90254274702E+01  0.19986268085E+00 -0.50720107636E+00  0.90418769790E+01  0.51100000000E-03 0. -1.
        -11    1    3    3    0    0 -0.23785717427E+02  0.53719340046E+01  0.52659682507E+01  0.24946912642E+02  0.51100000000E-03 0.  1.
        -12    1    3    3    0    0 -0.10561615733E+02 -0.68440101763E+01 -0.56577348356E+01  0.13798484179E+02  0.00000000000E+00 0.  1.
</event>
<event>
 7    1  0.1714203E-010  0.4778727E+02  0.7816164E-02  0.1312668E+00
        -11   -1    0    0    0    0  0.00000000000E+00  0.00000000000E+00  0.45593999997E+02  0.45594000000E+02  0.51100000000E-03 0.  1.
         11   -1    0    0    0    0 -0.00000000000E+00 -0.00000000000E+00 -0.45593999997E+02  0.45594000000E+02  0.51100000000E-03 0. -1.
    9900012    2    1    2    0    0 -0.15716071503E+02 -0.99117546620E+01 -0.39222260349E+02  0.47787268544E+02  0.19999988601E+02 0.  0.
        -12    1    1    2    0    0  0.15716071503E+02  0.99117546620E+01  0.39222260349E+02  0.43400731456E+02  0.00000000000E+00 0.  1.
         11    1    3    3    0    0 -0.41733069530E-01 -0.56355576510E+01 -0.14951129395E+02  0.15978032486E+02  0.51100000000E-03 0. -1.
        -11    1    3    3    0    0 -0.42320485235E+01  0.40801406863E+01 -0.10596309814E+02  0.12117737605E+02  0.51100000000E-03 0.  1.
         12    1    3    3    0    0 -0.11442289910E+02 -0.83563376973E+01 -0.13674821140E+02  0.19691498453E+02  0.00000000000E+00 0. -1.
</event>
<event>
 7    1  0.1714203E-010  0.4778727E+02  0.7816164E-02  0.1312668E+00
        -11   -1    0    0    0    0  0.00000000000E+00  0.00000000000E+00  0.45593999997E+02  0.45594000000E+02  0.51100000000E-03 0. -1.
         11   -1    0    0    0    0 -0.00000000000E+00 -0.00000000000E+00 -0.45593999997E+02  0.45594000000E+02  0.51100000000E-03 0.  1.
    9900012    2    1    2    0    0  0.33507144864E+02 -0.22931538284E+02 -0.15330976679E+02  0.47787273613E+02  0.20000011710E+02 0.  0.
        -12    1    1    2    0    0 -0.33507144864E+02  0.22931538284E+02  0.15330976679E+02  0.43400726387E+02  0.00000000000E+00 0.  1.
         11    1    3    3    0    0  0.63579528615E+01 -0.10400322678E+02 -0.49592179003E+01  0.13159943725E+02  0.51100000000E-03 0.  1.
        -11    1    3    3    0    0  0.21154284463E+02 -0.89565516819E+01 -0.13854734278E+02  0.26826800617E+02  0.51100000000E-03 0. -1.
         12    1    3    3    0    0  0.59949075394E+01 -0.35746639237E+01  0.34829754990E+01  0.78005292705E+01  0.00000000000E+00 0. -1.
</event>
<event>
 7    1  0.1714203E-010  0.4778727E+02  0.7816164E-02  0.1312668E+00
        -11   -1    0    0    0    0  0.00000000000E+00  0.00000000000E+00  0.45593999997E+02  0.45594000000E+02  0.51100000000E-03 0.  1.
         11   -1    0    0    0    0 -0.00000000000E+00 -0.00000000000E+00 -0.45593999997E+02  0.45594000000E+02  0.51100000000E-03 0. -1.
    9900012    2    1    2    0    0 -0.16094170381E+02  0.15679087240E-01 -0.40306335654E+02  0.47787271205E+02  0.20000000732E+02 0.  0.
        -12    1    1    2    0    0  0.16094170381E+02 -0.15679087240E-01  0.40306335654E+02  0.43400728795E+02  0.00000000000E+00 0.  1.
         11    1    3    3    0    0 -0.47852494128E+01  0.53106273088E+01 -0.69538911334E+01  0.99728620020E+01  0.51100000000E-03 0. -1.
        -11    1    3    3    0    0 -0.39364326657E+01 -0.63186848020E+00 -0.26289796583E+02  0.26590377293E+02  0.51100000000E-03 0.  1.
        -12    1    3    3    0    0 -0.73724883020E+01 -0.46630797414E+01 -0.70626479374E+01  0.11224031910E+02  0.00000000000E+00 0.  1.
</event>
<event>
 7    1  0.1714203E-010  0.4778728E+02  0.7816164E-02  0.1312668E+00
        -11   -1    0    0    0    0  0.00000000000E+00  0.00000000000E+00  0.45593999997E+02  0.45594000000E+02  0.51100000000E-03 0.  1.
         11   -1    0    0    0    0 -0.00000000000E+00 -0.00000000000E+00 -0.45593999997E+02  0.45594000000E+02  0.51100000000E-03 0. -1.
    9900012    2    1    2    0    0 -0.30036226768E+02  0.32968746688E+01 -0.31154110399E+02  0.47787275400E+02  0.20000019860E+02 0.  0.
        -12    1    1    2    0    0  0.30036226768E+02 -0.32968746688E+01  0.31154110399E+02  0.43400724600E+02  0.00000000000E+00 0.  1.
         11    1    3    3    0    0 -0.95393793352E+01 -0.73225004743E+01 -0.16184147807E+02  0.20162971304E+02  0.51100000000E-03 0. -1.
        -11    1    3    3    0    0 -0.53082431858E+01  0.33512925279E+01 -0.29501988255E+01  0.69363016586E+01  0.51100000000E-03 0.  1.
         12    1    3    3    0    0 -0.15188604247E+02  0.72680826152E+01 -0.12019763767E+02  0.20688002438E+02  0.00000000000E+00 0. -1.
</event>
<event>
 7    1  0.1714203E-010  0.4778726E+02  0.7816164E-02  0.1312668E+00
        -11   -1    0    0    0    0  0.00000000000E+00  0.00000000000E+00  0.45593999997E+02  0.45594000000E+02  0.51100000000E-03 0.  1.
         11   -1    0    0    0    0 -0.00000000000E+00 -0.00000000000E+00 -0.45593999997E+02  0.45594000000E+02  0.51100000000E-03 0. -1.
    9900012    2    1    2    0    0 -0.23682807433E+02 -0.15156772885E+02 -0.33060870780E+02  0.47787259121E+02  0.19999945634E+02 0.  0.
        -12    1    1    2    0    0  0.23682807433E+02  0.15156772885E+02  0.33060870780E+02  0.43400740879E+02  0.00000000000E+00 0.  1.
         11    1    3    3    0    0 -0.18796896758E+01 -0.19629794868E+01  0.16427987796E+01  0.31757376835E+01  0.51100000000E-03 0. -1.
        -11    1    3    3    0    0 -0.20289469432E+01 -0.30449268795E+01 -0.13153901149E+02  0.13653326375E+02  0.51100000000E-03 0.  1.
         12    1    3    3    0    0 -0.19774170814E+02 -0.10148866518E+02 -0.21549768411E+02  0.30958195062E+02  0.00000000000E+00 0. -1.
</event>
<event>
 7    1  0.1714203E-010  0.4778727E+02  0.7816164E-02  0.1312668E+00
        -11   -1    0    0    0    0  0.00000000000E+00  0.00000000000E+00  0.45593999997E+02  0.45594000000E+02  0.51100000000E-03 0.  1.
         11   -1    0    0    0    0 -0.00000000000E+00 -0.00000000000E+00 -0.45593999997E+02  0.45594000000E+02  0.51100000000E-03 0. -1.
    9900012    2    1    2    0    0 -0.25382430909E+02  0.35179598017E+02  0.13232830761E+01  0.47787274274E+02  0.20000014725E+02 0.  0.
        -12    1    1    2    0    0  0.25382430909E+02 -0.35179598017E+02 -0.13232830761E+01  0.43400725726E+02  0.00000000000E+00 0.  1.
         11    1    3    3    0    0 -0.11043943001E+02  0.11662844752E+02 -0.54984756109E+01  0.16977156977E+02  0.51100000000E-03 0. -1.
        -11    1    3    3    0    0 -0.11041033824E+01  0.72247218937E+00  0.41060950245E+01  0.43128907886E+01  0.51100000000E-03 0.  1.
        -12    1    3    3    0    0 -0.13234384526E+02  0.22794281075E+02  0.27156636626E+01  0.26497226508E+02  0.00000000000E+00 0.  1.
</event>
<event>
 7    1  0.1714203E-010  0.4778725E+02  0.7816164E-02  0.1312668E+00
        -11   -1    0    0    0    0  0.00000000000E+00  0.00000000000E+00  0.45593999997E+02  0.45594000000E+02  0.51100000000E-03 0.  1.
         11   -1    0    0    0    0 -0.00000000000E+00 -0.00000000000E+00 -0.45593999997E+02  0.45594000000E+02  0.51100000000E-03 0. -1.
    9900012    2    1    2    0    0  0.95563732850E+01  0.27560218191E+02 -0.32136194730E+02  0.47787252209E+02  0.19999914124E+02 0.  0.
        -12    1    1    2    0    0 -0.95563732850E+01 -0.27560218191E+02  0.32136194730E+02  0.43400747791E+02  0.00000000000E+00 0.  1.
         11    1    3    3    0    0  0.66524706130E+01  0.11690910841E+02 -0.10444629551E+02  0.17030063073E+02  0.51100000000E-03 0. -1.
        -11    1    3    3    0    0  0.88548521323E+01  0.79562254845E+01 -0.11764791356E+02  0.16736793186E+02  0.51100000000E-03 0.  1.
         12    1    3    3    0    0 -0.59509494602E+01  0.79130818652E+01 -0.99267738222E+01  0.14020395950E+02  0.00000000000E+00 0. -1.
</event>
<event>
 7    1  0.1714203E-010  0.4778727E+02  0.7816164E-02  0.1312668E+00
        -11   -1    0    0    0    0  0.00000000000E+00  0.00000000000E+00  0.45593999997E+02  0.45594000000E+02  0.51100000000E-03 0. -1.
         11   -1    0    0    0    0 -0.00000000000E+00 -0.00000000000E+00 -0.45593999997E+02  0.45594000000E+02  0.51100000000E-03 0.  1.
    9900012    2    1    2    0    0  0.92267403907E-02 -0.36156431145E+02  0.24006996739E+02  0.47787268547E+02  0.19999988612E+02 0.  0.
        -12    1    1    2    0    0 -0.92267403907E-02  0.36156431145E+02 -0.24006996739E+02  0.43400731453E+02  0.00000000000E+00 0.  1.
         11    1    3    3    0    0 -0.21154552668E+01 -0.17082167734E+02  0.11637813344E+02  0.20777735805E+02  0.51100000000E-03 0. -1.
        -11    1    3    3    0    0  0.51871548249E+00 -0.85061342743E+01 -0.23298287946E+01  0.88346753487E+01  0.51100000000E-03 0.  1.
        -12    1    3    3    0    0  0.16059665247E+01 -0.10568129137E+02  0.14699012189E+02  0.18174857393E+02  0.00000000000E+00 0.  1.
</event>
<event>
 7    1  0.1714203E-010  0.4778727E+02  0.7816164E-02  0.1312668E+00
        -11   -1    0    0    0    0  0.00000000000E+00  0.00000000000E+00  0.45593999997E+02  0.45594000000E+02  0.51100000000E-03 0.  1.
         11   -1    0    0    0    0 -0.00000000000E+00 -0.00000000000E+00 -0.45593999997E+02  0.45594000000E+02  0.51100000000E-03 0. -1.
    9900012    2    1    2    0    0 -0.23617751497E+02  0.27813544639E+02 -0.23499613990E+02  0.47787270642E+02  0.19999998164E+02 0.  0.
        -12    1    1    2    0    0  0.23617751497E+02 -0.27813544639E+02  0.23499613990E+02  0.43400729358E+02  0.00000000000E+00 0.  1.
         11    1    3    3    0    0 -0.74602637615E+00 -0.68847116708E+00 -0.26450703730E+01  0.28331864466E+01  0.51100000000E-03 0. -1.
        -11    1    3    3    0    0 -0.32850902382E+01  0.81789080351E+00  0.21179837791E+01  0.39933217738E+01  0.51100000000E-03 0.  1.
         12    1    3    3    0    0 -0.19586634882E+02  0.27684125003E+02 -0.22972527396E+02  0.40960762421E+02  0.00000000000E+00 0. -1.
</event>
<event>
 7    1  0.1714203E-010  0.4778727E+02  0.7816164E-02  0.1312668E+00
        -11   -1    0    0    0    0  0.00000000000E+00  0.00000000000E+00  0.45593999997E+02  0.45594000000E+02  0.51100000000E-03 0.  1.
         11   -1    0    0    0    0 -0.00000000000E+00 -0.00000000000E+00 -0.45593999997E+02  0.45594000000E+02  0.51100000000E-03 0. -1.
    9900012    2    1    2    0    0  0.20685666556E+01  0.89884431600E+01 -0.42409340417E+02  0.47787271515E+02  0.20000002143E+02 0.  0.
        -12    1    1    2    0    0 -0.20685666556E+01 -0.89884431600E+01  0.42409340417E+02  0.43400728485E+02  0.00000000000E+00 0.  1.
         11    1    3    3    0    0  0.18337934798E+01  0.54319714324E+01 -0.99610756683E+01  0.11493134512E+02  0.51100000000E-03 0. -1.
        -11    1    3    3    0    0 -0.49143671043E+01 -0.16124627505E+01 -0.26147264712E+02  0.26653902010E+02  0.51100000000E-03 0.  1.
        -12    1    3    3    0    0  0.51491402802E+01  0.51689344780E+01 -0.63010000369E+01  0.96402349934E+01  0.00000000000E+00 0.  1.
</event>
<event>
 7    1  0.1714203E-010  0.4778727E+02  0.7816164E-02  0.1312668E+00
        -11   -1    0    0    0    0  0.00000000000E+00  0.00000000000E+00  0.45593999997E+02  0.45594000000E+02  0.51100000000E-03 0.  1.
         11   -1    0    0    0    0 -0.00000000000E+00 -0.00000000000E+00 -0.45593999997E+02  0.45594000000E+02  0.51100000000E-03 0. -1.
    9900012    2    1    2    0    0 -0.31362253746E+02  0.99313774114E+01 -0.28309010833E+02  0.47787270609E+02  0.19999998014E+02 0.  0.
        -12    1    1    2    0    0  0.31362253746E+02 -0.99313774114E+01  0.28309010833E+02  0.43400729391E+02  0.00000000000E+00 0.  1.
         11    1    3    3    0    0  0.82594850196E+00  0.11613895091E+01 -0.32303034789E+01  0.35307049362E+01  0.51100000000E-03 0. -1.
        -11    1    3    3    0    0 -0.18588038512E+02 -0.19365709927E+01 -0.94778352094E+01  0.20954590033E+02  0.51100000000E-03 0.  1.
         12    1    3    3    0    0 -0.13600163736E+02  0.10706558895E+02 -0.15600872145E+02  0.23301975639E+02  0.00000000000E+00 0. -1.
</event>
<event>
 7    1  0.1714203E-010  0.4778727E+02  0.7816164E-02  0.1312668E+00
        -11   -1    0    0    0    0  0.00000000000E+00  0.00000000000E+00  0.45593999997E+02  0.45594000000E+02  0.51100000000E-03 0.  1.
         11   -1    0    0    0    0 -0.00000000000E+00 -0.00000000000E+00 -0.45593999997E+02  0.45594000000E+02  0.51100000000E-03 0. -1.
    9900012    2    1    2    0    0 -0.42092393473E+02  0.25923185507E+01  0.10253458937E+02  0.47787272772E+02  0.20000007875E+02 0.  0.
        -12    1    1    2    0    0  0.42092393473E+02 -0.25923185507E+01 -0.10253458937E+02  0.43400727228E+02  0.00000000000E+00 0.  1.
         11    1    3    3    0    0 -0.93782729273E+01  0.25062180008E+01 -0.24422474181E+01  0.10009880343E+02  0.51100000000E-03 0. -1.
        -11    1    3    3    0    0 -0.80318737725E+01  0.55475894728E+01  0.67269605469E+00  0.97846443726E+01  0.51100000000E-03 0.  1.
        -12    1    3    3    0    0 -0.24682246773E+02 -0.54614889229E+01  0.12023010301E+02  0.27992748056E+02  0.00000000000E+00 0.  1.
</event>
<event>
 7    1  0.1714203E-010  0.4778727E+02  0.7816164E-02  0.1312668E+00
        -11   -1    0    0    0    0  0.00000000000E+00  0.00000000000E+00  0.45593999997E+02  0.45594000000E+02  0.51100000000E-03 0.  1.
         11   -1    0    0    0    0 -0.00000000000E+00 -0.00000000000E+00 -0.45593999997E+02  0.45594000000E+02  0.51100000000E-03 0. -1.
    9900012    2    1    2    0    0 -0.24307511619E+02 -0.31290563687E+02 -0.17710695962E+02  0.47787271338E+02  0.20000001337E+02 0.  0.
        -12    1    1    2    0    0  0.24307511619E+02  0.31290563687E+02  0.17710695962E+02  0.43400728662E+02  0.00000000000E+00 0.  1.
         11    1    3    3    0    0 -0.39785390376E+01 -0.14135179131E+02 -0.52187401507E+01  0.15584200684E+02  0.51100000000E-03 0. -1.
        -11    1    3    3    0    0 -0.89670585689E+01 -0.11139757955E+02 -0.33133493319E-01  0.14300470089E+02  0.51100000000E-03 0.  1.
         12    1    3    3    0    0 -0.11361914013E+02 -0.60156266009E+01 -0.12458822318E+02  0.17902600565E+02  0.00000000000E+00 0. -1.
</event>
<event>
 7    1  0.1714203E-010  0.4778727E+02  0.7816164E-02  0.1312668E+00
        -11   -1    0    0    0    0  0.00000000000E+00  0.00000000000E+00  0.45593999997E+02  0.45594000000E+02  0.51100000000E-03 0.  1.
         11   -1    0    0    0    0 -0.00000000000E+00 -0.00000000000E+00 -0.45593999997E+02  0.45594000000E+02  0.51100000000E-03 0. -1.
    9900012    2    1    2    0    0 -0.15633192475E+02 -0.31024885479E+02 -0.26013141303E+02  0.47787265600E+02  0.19999975178E+02 0.  0.
        -12    1    1    2    0    0  0.15633192475E+02  0.31024885479E+02  0.26013141303E+02  0.43400734400E+02  0.00000000000E+00 0.  1.
         11    1    3    3    0    0  0.68392915107E-01 -0.78127009338E+00 -0.21284122222E+01  0.22683031980E+01  0.51100000000E-03 0. -1.
        -11    1    3    3    0    0  0.17154213878E+01 -0.10937463003E+01  0.19758333571E+01  0.28359952792E+01  0.51100000000E-03 0.  1.
         12    1    3    3    0    0 -0.17417006777E+02 -0.29149869086E+02 -0.25860562438E+02  0.42682967123E+02  0.00000000000E+00 0. -1.
</event>
<event>
 7    1  0.1714203E-010  0.4778727E+02  0.7816164E-02  0.1312668E+00
        -11   -1    0    0    0    0  0.00000000000E+00  0.00000000000E+00  0.45593999997E+02  0.45594000000E+02  0.51100000000E-03 0.  1.
         11   -1    0    0    0    0 -0.00000000000E+00 -0.00000000000E+00 -0.45593999997E+02  0.45594000000E+02  0.51100000000E-03 0. -1.
    9900012    2    1    2    0    0  0.90555838497E+01  0.42093453181E+02  0.54553603504E+01  0.47787270097E+02  0.19999995682E+02 0.  0.
        -12    1    1    2    0    0 -0.90555838497E+01 -0.42093453181E+02 -0.54553603504E+01  0.43400729903E+02  0.00000000000E+00 0.  1.
         11    1    3    3    0    0  0.80977186624E+01  0.77559753248E+01  0.69416480885E+01  0.13187671486E+02  0.51100000000E-03 0. -1.
        -11    1    3    3    0    0  0.60895529545E+00  0.12806602156E+02  0.12981323945E+01  0.12886622262E+02  0.51100000000E-03 0.  1.
         12    1    3    3    0    0  0.34890989189E+00  0.21530875699E+02 -0.27844201326E+01  0.21712976350E+02  0.00000000000E+00 0. -1.
</event>
<event>
 7    1  0.1714203E-010  0.4778727E+02  0.7816164E-02  0.1312668E+00
        -11   -1    0    0    0    0  0.00000000000E+00  0.00000000000E+00  0.45593999997E+02  0.45594000000E+02  0.51100000000E-03 0.  1.
         11   -1    0    0    0    0 -0.00000000000E+00 -0.00000000000E+00 -0.45593999997E+02  0.45594000000E+02  0.51100000000E-03 0. -1.
    9900012    2    1    2    0    0 -0.31205715737E+01  0.43477684747E+01 -0.43069503860E+02  0.47787271661E+02  0.20000002810E+02 0.  0.
        -12    1    1    2    0    0  0.31205715737E+01 -0.43477684747E+01  0.43069503860E+02  0.43400728339E+02  0.00000000000E+00 0.  1.
         11    1    3    3    0    0 -0.48095071098E+01  0.10305305561E+02 -0.20321032843E+02  0.23286800068E+02  0.51100000000E-03 0. -1.
        -11    1    3    3    0    0 -0.21487463579E+01 -0.43484094212E+01 -0.13909060383E+02  0.14730503603E+02  0.51100000000E-03 0.  1.
        -12    1    3    3    0    0  0.38376818940E+01 -0.16091276650E+01 -0.88394106335E+01  0.97699679892E+01  0.00000000000E+00 0.  1.
</event>
<event>
 7    1  0.1714203E-010  0.4778725E+02  0.7816164E-02  0.1312668E+00
        -11   -1    0    0    0    0  0.00000000000E+00  0.00000000000E+00  0.45593999997E+02  0.45594000000E+02  0.51100000000E-03 0.  1.
         11   -1    0    0    0    0 -0.00000000000E+00 -0.00000000000E+00 -0.45593999997E+02  0.45594000000E+02  0.51100000000E-03 0. -1.
    9900012    2    1    2    0    0  0.29178241288E+01 -0.39126572019E+02 -0.18553241432E+02  0.47787249970E+02  0.19999903912E+02 0.  0.
        -12    1    1    2    0    0 -0.29178241288E+01  0.39126572019E+02  0.18553241432E+02  0.43400750030E+02  0.00000000000E+00 0.  1.
         11    1    3    3    0    0  0.27199291474E+01 -0.25007193433E+02 -0.82682529815E+01  0.26478703624E+02  0.51100000000E-03 0. -1.
        -11    1    3    3    0    0  0.30610039126E+00 -0.15634385686E+02 -0.59771546938E+01  0.16740791252E+02  0.51100000000E-03 0.  1.
         12    1    3    3    0    0 -0.10820540982E+00  0.15150071011E+01 -0.43078337564E+01  0.45677550942E+01  0.00000000000E+00 0. -1.
</event>
<event>
 7    1  0.1714203E-010  0.4778728E+02  0.7816164E-02  0.1312668E+00
        -11   -1    0    0    0    0  0.00000000000E+00  0.00000000000E+00  0.45593999997E+02  0.45594000000E+02  0.51100000000E-03 0.  1.
         11   -1    0    0    0    0 -0.00000000000E+00 -0.00000000000E+00 -0.45593999997E+02  0.45594000000E+02  0.51100000000E-03 0. -1.
    9900012    2    1    2    0    0 -0.41807933603E+02 -0.28618610124E+01 -0.11292878967E+02  0.47787277933E+02  0.20000031406E+02 0.  0.
        -12    1    1    2    0    0  0.41807933603E+02  0.28618610124E+01  0.11292878967E+02  0.43400722067E+02  0.00000000000E+00 0.  1.
         11    1    3    3    0    0 -0.30220491513E+02  0.42109476603E+01 -0.12482588428E+02  0.32967032041E+02  0.51100000000E-03 0. -1.
        -11    1    3    3    0    0 -0.11237771091E+02 -0.56382287210E+01 -0.49174331569E+00  0.12582485205E+02  0.51100000000E-03 0.  1.
        -12    1    3    3    0    0 -0.34967099969E+00 -0.14345799517E+01  0.16814527771E+01  0.22377606859E+01  0.00000000000E+00 0.  1.
</event>
<event>
 7    1  0.1714203E-010  0.4778727E+02  0.7816164E-02  0.1312668E+00
        -11   -1    0    0    0    0  0.00000000000E+00  0.00000000000E+00  0.45593999997E+02  0.45594000000E+02  0.51100000000E-03 0.  1.
         11   -1    0    0    0    0 -0.00000000000E+00 -0.00000000000E+00 -0.45593999997E+02  0.45594000000E+02  0.51100000000E-03 0. -1.
    9900012    2    1    2    0    0 -0.59198691580E+01 -0.56316597832E+01 -0.42624676994E+02  0.47787268075E+02  0.19999986461E+02 0.  0.
        -12    1    1    2    0    0  0.59198691580E+01  0.56316597832E+01  0.42624676994E+02  0.43400731925E+02  0.00000000000E+00 0.  1.
         11    1    3    3    0    0 -0.61964857604E+01 -0.74505874102E+01 -0.13258624944E+02  0.16422509681E+02  0.51100000000E-03 0. -1.
        -11    1    3    3    0    0  0.38161614891E+01 -0.31262719306E+01 -0.13503669296E+02  0.14376569459E+02  0.51100000000E-03 0.  1.
         12    1    3    3    0    0 -0.35395448867E+01  0.49451995576E+01 -0.15862382754E+02  0.16988188935E+02  0.00000000000E+00 0. -1.
</event>
<event>
 7    1  0.1714203E-010  0.4778727E+02  0.7816164E-02  0.1312668E+00
        -11   -1    0    0    0    0  0.00000000000E+00  0.00000000000E+00  0.45593999997E+02  0.45594000000E+02  0.51100000000E-03 0.  1.
         11   -1    0    0    0    0 -0.00000000000E+00 -0.00000000000E+00 -0.45593999997E+02  0.45594000000E+02  0.51100000000E-03 0. -1.
    9900012    2    1    2    0    0  0.36886205801E+02  0.13675815624E+02 -0.18330388898E+02  0.47787271106E+02  0.20000000282E+02 0.  0.
        -12    1    1    2    0    0 -0.36886205801E+02 -0.13675815624E+02  0.18330388898E+02  0.43400728894E+02  0.00000000000E+00 0.  1.
         11    1    3    3    0    0  0.98800793095E+00  0.22937786628E+01 -0.16744172322E+01  0.30068677314E+01  0.51100000000E-03 0. -1.
        -11    1    3    3    0    0 -0.16583444711E+01  0.17688583679E+01 -0.25701840823E+01  0.35333854571E+01  0.51100000000E-03 0.  1.
         12    1    3    3    0    0  0.37556542341E+02  0.96131785935E+01 -0.14085787583E+02  0.41247017918E+02  0.00000000000E+00 0. -1.
</event>
<event>
 7    1  0.1714203E-010  0.4778727E+02  0.7816164E-02  0.1312668E+00
        -11   -1    0    0    0    0  0.00000000000E+00  0.00000000000E+00  0.45593999997E+02  0.45594000000E+02  0.51100000000E-03 0.  1.
         11   -1    0    0    0    0 -0.00000000000E+00 -0.00000000000E+00 -0.45593999997E+02  0.45594000000E+02  0.51100000000E-03 0. -1.
    9900012    2    1    2    0    0 -0.25281894374E+02 -0.30274286178E+02 -0.18108461338E+02  0.47787274675E+02  0.20000016552E+02 0.  0.
        -12    1    1    2    0    0  0.25281894374E+02  0.30274286178E+02  0.18108461338E+02  0.43400725325E+02  0.00000000000E+00 0.  1.
         11    1    3    3    0    0 -0.25838938704E+02 -0.25145785012E+02 -0.11253320845E+02  0.37770338727E+02  0.51100000000E-03 0. -1.
        -11    1    3    3    0    0 -0.50706206086E+00 -0.58541494579E+01 -0.62982572647E+01  0.86137229258E+01  0.51100000000E-03 0.  1.
        -12    1    3    3    0    0  0.10641063915E+01  0.72564829149E+00 -0.55688322866E+00  0.14032130222E+01  0.00000000000E+00 0.  1.
</event>
<event>
 7    1  0.1714203E-010  0.4778727E+02  0.7816164E-02  0.1312668E+00
        -11   -1    0    0    0    0  0.00000000000E+00  0.00000000000E+00  0.45593999997E+02  0.45594000000E+02  0.51100000000E-03 0.  1.
         11   -1    0    0    0    0 -0.00000000000E+00 -0.00000000000E+00 -0.45593999997E+02  0.45594000000E+02  0.51100000000E-03 0. -1.
    9900012    2    1    2    0    0  0.19454437649E+02 -0.15723702461E+02 -0.35467071482E+02  0.47787272784E+02  0.20000007933E+02 0.  0.
        -12    1    1    2    0    0 -0.19454437649E+02  0.15723702461E+02  0.35467071482E+02  0.43400727216E+02  0.00000000000E+00 0.  1.
         11    1    3    3    0    0  0.45896984795E+01 -0.13952691230E+01 -0.14245339998E+02  0.15031361215E+02  0.51100000000E-03 0. -1.
        -11    1    3    3    0    0  0.27518753010E+01 -0.78468669333E+01 -0.10945133529E+01  0.83871388495E+01  0.51100000000E-03 0.  1.
         12    1    3    3    0    0  0.12112863869E+02 -0.64815664050E+01 -0.20127218131E+02  0.24368772720E+02  0.00000000000E+00 0. -1.
</event>
<event>
 7    1  0.1714203E-010  0.4778727E+02  0.7816164E-02  0.1312668E+00
        -11   -1    0    0    0    0  0.00000000000E+00  0.00000000000E+00  0.45593999997E+02  0.45594000000E+02  0.51100000000E-03 0.  1.
         11   -1    0    0    0    0 -0.00000000000E+00 -0.00000000000E+00 -0.45593999997E+02  0.45594000000E+02  0.51100000000E-03 0. -1.
    9900012    2    1    2    0    0 -0.74697634180E+01 -0.42579159785E+02 -0.38524074344E+01  0.47787271244E+02  0.20000000911E+02 0.  0.
        -12    1    1    2    0    0  0.74697634180E+01  0.42579159785E+02  0.38524074344E+01  0.43400728756E+02  0.00000000000E+00 0.  1.
         11    1    3    3    0    0 -0.15509553576E+01 -0.20876236580E+02 -0.48019218961E+01  0.21477457262E+02  0.51100000000E-03 0. -1.
        -11    1    3    3    0    0 -0.41293910591E+01 -0.20226071753E+02 -0.38312285317E+01  0.20995812949E+02  0.51100000000E-03 0.  1.
        -12    1    3    3    0    0 -0.17894170014E+01 -0.14768514520E+01  0.47807429934E+01  0.53140010336E+01  0.00000000000E+00 0.  1.
</event>
<event>
 7    1  0.1714203E-010  0.4778727E+02  0.7816164E-02  0.1312668E+00
        -11   -1    0    0    0    0  0.00000000000E+00  0.00000000000E+00  0.45593999997E+02  0.45594000000E+02  0.51100000000E-03 0.  1.
         11   -1    0    0    0    0 -0.00000000000E+00 -0.00000000000E+00 -0.45593999997E+02  0.45594000000E+02  0.51100000000E-03 0. -1.
    9900012    2    1    2    0    0 -0.70174504893E+01  0.29542946602E+02 -0.31009566269E+02  0.47787268376E+02  0.19999987832E+02 0.  0.
        -12    1    1    2    0    0  0.70174504893E+01 -0.29542946602E+02  0.31009566269E+02  0.43400731624E+02  0.00000000000E+00 0.  1.
         11    1    3    3    0    0  0.18852124564E+01  0.70079713432E+01 -0.14951700819E+02  0.16619838928E+02  0.51100000000E-03 0. -1.
        -11    1    3    3    0    0  0.12023034894E+01 -0.52054613814E+00 -0.18343500050E+01  0.22541832588E+01  0.51100000000E-03 0.  1.
         12    1    3    3    0    0 -0.10104966435E+02  0.23055521397E+02 -0.14223515445E+02  0.28913246189E+02  0.00000000000E+00 0. -1.
</event>
<event>
 7    1  0.1714203E-010  0.4778728E+02  0.7816164E-02  0.1312668E+00
        -11   -1    0    0    0    0  0.00000000000E+00  0.00000000000E+00  0.45593999997E+02  0.45594000000E+02  0.51100000000E-03 0. -1.
         11   -1    0    0    0    0 -0.00000000000E+00 -0.00000000000E+00 -0.45593999997E+02  0.45594000000E+02  0.51100000000E-03 0.  1.
    9900012    2    1    2    0    0 -0.23783590587E+02  0.28805510691E+02  0.22095388997E+02  0.47787276016E+02  0.20000022669E+02 0.  0.
        -12    1    1    2    0    0  0.23783590587E+02 -0.28805510691E+02 -0.22095388997E+02  0.43400723984E+02  0.00000000000E+00 0.  1.
         11    1    3    3    0    0 -0.12401332820E+02  0.76839623641E+01  0.40798104782E+01  0.15148636477E+02  0.51100000000E-03 0.  1.
        -11    1    3    3    0    0 -0.11172253994E+02  0.22073042543E+02  0.13833165874E+02  0.28344222423E+02  0.51100000000E-03 0. -1.
         12    1    3    3    0    0 -0.21000377349E+00 -0.95149421688E+00  0.41824126449E+01  0.42944171155E+01  0.00000000000E+00 0. -1.
</event>
<event>
 7    1  0.1714203E-010  0.4778727E+02  0.7816164E-02  0.1312668E+00
        -11   -1    0    0    0    0  0.00000000000E+00  0.00000000000E+00  0.45593999997E+02  0.45594000000E+02  0.51100000000E-03 0.  1.
         11   -1    0    0    0    0 -0.00000000000E+00 -0.00000000000E+00 -0.45593999997E+02  0.45594000000E+02  0.51100000000E-03 0. -1.
    9900012    2    1    2    0    0 -0.21837062775E+02  0.28190747620E+02 -0.24739595571E+02  0.47787272460E+02  0.20000006454E+02 0.  0.
        -12    1    1    2    0    0  0.21837062775E+02 -0.28190747620E+02  0.24739595571E+02  0.43400727540E+02  0.00000000000E+00 0.  1.
         11    1    3    3    0    0 -0.11380580009E+02  0.10076763131E+02 -0.68663163211E+01  0.16679480107E+02  0.51100000000E-03 0. -1.
        -11    1    3    3    0    0  0.38661287969E+00 -0.22950681187E+01 -0.12704149283E+01  0.26515583229E+01  0.51100000000E-03 0.  1.
         12    1    3    3    0    0 -0.10843095645E+02  0.20409052607E+02 -0.16602864322E+02  0.28456234030E+02  0.00000000000E+00 0. -1.
</event>
<event>
 7    1  0.1714203E-010  0.4778727E+02  0.7816164E-02  0.1312668E+00
        -11   -1    0    0    0    0  0.00000000000E+00  0.00000000000E+00  0.45593999997E+02  0.45594000000E+02  0.51100000000E-03 0.  1.
         11   -1    0    0    0    0 -0.00000000000E+00 -0.00000000000E+00 -0.45593999997E+02  0.45594000000E+02  0.51100000000E-03 0. -1.
    9900012    2    1    2    0    0 -0.66563539963E+00  0.19154592401E+02 -0.38939464588E+02  0.47787269788E+02  0.19999994270E+02 0.  0.
        -12    1    1    2    0    0  0.66563539963E+00 -0.19154592401E+02  0.38939464588E+02  0.43400730212E+02  0.00000000000E+00 0.  1.
         11    1    3    3    0    0 -0.48268636841E+01  0.90100004105E+01 -0.15486591773E+02  0.18555679600E+02  0.51100000000E-03 0. -1.
        -11    1    3    3    0    0 -0.39406309687E+01  0.35349472036E+01 -0.25861041548E+01  0.58917195388E+01  0.51100000000E-03 0.  1.
         12    1    3    3    0    0  0.81018592531E+01  0.66096447866E+01 -0.20866768661E+02  0.23339870649E+02  0.00000000000E+00 0. -1.
</event>
<event>
 7    1  0.1714203E-010  0.4778728E+02  0.7816164E-02  0.1312668E+00
        -11   -1    0    0    0    0  0.00000000000E+00  0.00000000000E+00  0.45593999997E+02  0.45594000000E+02  0.51100000000E-03 0.  1.
         11   -1    0    0    0    0 -0.00000000000E+00 -0.00000000000E+00 -0.45593999997E+02  0.45594000000E+02  0.51100000000E-03 0. -1.
    9900012    2    1    2    0    0 -0.18744788667E+02  0.26091081549E+02 -0.29180663188E+02  0.47787277165E+02  0.20000027904E+02 0.  0.
        -12    1    1    2    0    0  0.18744788667E+02 -0.26091081549E+02  0.29180663188E+02  0.43400722835E+02  0.00000000000E+00 0.  1.
         11    1    3    3    0    0  0.62605866905E-01  0.56147293045E+01 -0.11171911516E+02  0.12503627947E+02  0.51100000000E-03 0. -1.
        -11    1    3    3    0    0 -0.60884716050E+01  0.14904263902E+02 -0.69666868595E+01  0.17542556684E+02  0.51100000000E-03 0.  1.
         12    1    3    3    0    0 -0.12718922929E+02  0.55720883423E+01 -0.11042064813E+02  0.17741092534E+02  0.00000000000E+00 0. -1.
</event>
<event>
 7    1  0.1714203E-010  0.4778727E+02  0.7816164E-02  0.1312668E+00
        -11   -1    0    0    0    0  0.00000000000E+00  0.00000000000E+00  0.45593999997E+02  0.45594000000E+02  0.51100000000E-03 0.  1.
         11   -1    0    0    0    0 -0.00000000000E+00 -0.00000000000E+00 -0.45593999997E+02  0.45594000000E+02  0.51100000000E-03 0. -1.
    9900012    2    1    2    0    0  0.29387674785E+02  0.30239629504E+02  0.10273879656E+02  0.47787271607E+02  0.20000002564E+02 0.  0.
        -12    1    1    2    0    0 -0.29387674785E+02 -0.30239629504E+02 -0.10273879656E+02  0.43400728393E+02  0.00000000000E+00 0.  1.
         11    1    3    3    0    0  0.16235714559E+02  0.85536964204E+01  0.69444406285E+01  0.19621146898E+02  0.51100000000E-03 0. -1.
        -11    1    3    3    0    0  0.14490567989E+01  0.91126787672E+00 -0.30374091486E+01  0.34865497768E+01  0.51100000000E-03 0.  1.
         12    1    3    3    0    0  0.11702903427E+02  0.20774665207E+02  0.63668481765E+01  0.24679574932E+02  0.00000000000E+00 0. -1.
</event>
<event>
 7    1  0.1714203E-010  0.4778728E+02  0.7816164E-02  0.1312668E+00
        -11   -1    0    0    0    0  0.00000000000E+00  0.00000000000E+00  0.45593999997E+02  0.45594000000E+02  0.51100000000E-03 0. -1.
         11   -1    0    0    0    0 -0.00000000000E+00 -0.00000000000E+00 -0.45593999997E+02  0.45594000000E+02  0.51100000000E-03 0.  1.
    9900012    2    1    2    0    0 -0.37835902225E+02  0.90105666177E+01  0.19258168762E+02  0.47787275674E+02  0.20000021107E+02 0.  0.
        -12    1    1    2    0    0  0.37835902225E+02 -0.90105666177E+01 -0.19258168762E+02  0.43400724326E+02  0.00000000000E+00 0.  1.
         11    1    3    3    0    0 -0.98216794780E+00 -0.36353322972E+01  0.92600403752E+00  0.38778574661E+01  0.51100000000E-03 0. -1.
        -11    1    3    3    0    0 -0.11473817408E+02  0.53350094226E+01  0.18797260706E+01  0.12792348565E+02  0.51100000000E-03 0.  1.
         12    1    3    3    0    0 -0.25379916869E+02  0.73108894923E+01  0.16452438654E+02  0.31117069642E+02  0.00000000000E+00 0. -1.
</event>
<event>
 7    1  0.1714203E-010  0.4778727E+02  0.7816164E-02  0.1312668E+00
        -11   -1    0    0    0    0  0.00000000000E+00  0.00000000000E+00  0.45593999997E+02  0.45594000000E+02  0.51100000000E-03 0.  1.
         11   -1    0    0    0    0 -0.00000000000E+00 -0.00000000000E+00 -0.45593999997E+02  0.45594000000E+02  0.51100000000E-03 0. -1.
    9900012    2    1    2    0    0 -0.17724129446E+02 -0.49659789792E+00 -0.39613533051E+02  0.47787269881E+02  0.19999994693E+02 0.  0.
        -12    1    1    2    0    0  0.17724129446E+02  0.49659789792E+00  0.39613533051E+02  0.43400730119E+02  0.00000000000E+00 0.  1.
         11    1    3    3    0    0  0.17171222013E+00 -0.33860092816E+01 -0.43118128649E+01  0.54850956587E+01  0.51100000000E-03 0.  1.
        -11    1    3    3    0    0 -0.18069763789E+02 -0.17405707541E+01 -0.31284122820E+02  0.36169632163E+02  0.51100000000E-03 0. -1.
         12    1    3    3    0    0  0.17392212303E+00  0.46299821378E+01 -0.40175973665E+01  0.61325420586E+01  0.00000000000E+00 0. -1.
</event>
<event>
 7    1  0.1714203E-010  0.4778727E+02  0.7816164E-02  0.1312668E+00
        -11   -1    0    0    0    0  0.00000000000E+00  0.00000000000E+00  0.45593999997E+02  0.45594000000E+02  0.51100000000E-03 0.  1.
         11   -1    0    0    0    0 -0.00000000000E+00 -0.00000000000E+00 -0.45593999997E+02  0.45594000000E+02  0.51100000000E-03 0. -1.
    9900012    2    1    2    0    0 -0.39848405700E+02  0.75693383634E+01 -0.15441277484E+02  0.47787269932E+02  0.19999994929E+02 0.  0.
        -12    1    1    2    0    0  0.39848405700E+02 -0.75693383634E+01  0.15441277484E+02  0.43400730068E+02  0.00000000000E+00 0.  1.
         11    1    3    3    0    0 -0.82163613661E+01  0.10481792672E+01 -0.10263396687E+02  0.13188805317E+02  0.51100000000E-03 0.  1.
        -11    1    3    3    0    0 -0.27294111688E+02  0.71150525334E+01 -0.80858605428E+01  0.29342352434E+02  0.51100000000E-03 0. -1.
        -12    1    3    3    0    0 -0.43379326461E+01 -0.59389343723E+00  0.29079797462E+01  0.52561121812E+01  0.00000000000E+00 0.  1.
</event>
<event>
 7    1  0.1714203E-010  0.4778727E+02  0.7816164E-02  0.1312668E+00
        -11   -1    0    0    0    0  0.00000000000E+00  0.00000000000E+00  0.45593999997E+02  0.45594000000E+02  0.51100000000E-03 0.  1.
         11   -1    0    0    0    0 -0.00000000000E+00 -0.00000000000E+00 -0.45593999997E+02  0.45594000000E+02  0.51100000000E-03 0. -1.
    9900012    2    1    2    0    0  0.53742468245E+01  0.15014836308E+02 -0.40364533066E+02  0.47787269961E+02  0.19999995062E+02 0.  0.
        -12    1    1    2    0    0 -0.53742468245E+01 -0.15014836308E+02  0.40364533066E+02  0.43400730039E+02  0.00000000000E+00 0.  1.
         11    1    3    3    0    0  0.38160669885E+01  0.17384974722E+01 -0.18998229458E+02  0.19455525270E+02  0.51100000000E-03 0. -1.
        -11    1    3    3    0    0 -0.40563129453E+01  0.37486504525E+00 -0.24402821231E+01  0.47485972259E+01  0.51100000000E-03 0.  1.
        -12    1    3    3    0    0  0.56144927814E+01  0.12901473791E+02 -0.18926021485E+02  0.23583147466E+02  0.00000000000E+00 0.  1.
</event>
<event>
 7    1  0.1714203E-010  0.4778727E+02  0.7816164E-02  0.1312668E+00
        -11   -1    0    0    0    0  0.00000000000E+00  0.00000000000E+00  0.45593999997E+02  0.45594000000E+02  0.51100000000E-03 0.  1.
         11   -1    0    0    0    0 -0.00000000000E+00 -0.00000000000E+00 -0.45593999997E+02  0.45594000000E+02  0.51100000000E-03 0. -1.
    9900012    2    1    2    0    0  0.11170488109E+02 -0.22310351027E+02 -0.35511853374E+02  0.47787270771E+02  0.19999998753E+02 0.  0.
        -12    1    1    2    0    0 -0.11170488109E+02  0.22310351027E+02  0.35511853374E+02  0.43400729229E+02  0.00000000000E+00 0.  1.
         11    1    3    3    0    0  0.28577608655E+01 -0.13818380735E+02 -0.24013758147E+02  0.27852738176E+02  0.51100000000E-03 0. -1.
        -11    1    3    3    0    0  0.33973301657E+01 -0.95942935575E+01 -0.40748589077E+01  0.10963429961E+02  0.51100000000E-03 0.  1.
        -12    1    3    3    0    0  0.49153970781E+01  0.11023232655E+01 -0.74232363197E+01  0.89711026343E+01  0.00000000000E+00 0.  1.
</event>
<event>
 7    1  0.1714203E-010  0.4778727E+02  0.7816164E-02  0.1312668E+00
        -11   -1    0    0    0    0  0.00000000000E+00  0.00000000000E+00  0.45593999997E+02  0.45594000000E+02  0.51100000000E-03 0.  1.
         11   -1    0    0    0    0 -0.00000000000E+00 -0.00000000000E+00 -0.45593999997E+02  0.45594000000E+02  0.51100000000E-03 0. -1.
    9900012    2    1    2    0    0  0.51027926832E+01 -0.16933871393E+02 -0.39633688466E+02  0.47787265502E+02  0.19999974730E+02 0.  0.
        -12    1    1    2    0    0 -0.51027926832E+01  0.16933871393E+02  0.39633688466E+02  0.43400734498E+02  0.00000000000E+00 0.  1.
         11    1    3    3    0    0 -0.33007381111E+01 -0.11494131630E+01 -0.73182024723E+01  0.81100006402E+01  0.51100000000E-03 0.  1.
        -11    1    3    3    0    0  0.89642307784E+01 -0.19639515501E+01 -0.13542509703E+02  0.16358915259E+02  0.51100000000E-03 0. -1.
         12    1    3    3    0    0 -0.56069998401E+00 -0.13820506680E+02 -0.18772976291E+02  0.23318349603E+02  0.00000000000E+00 0. -1.
</event>
<event>
 7    1  0.1714203E-010  0.4778732E+02  0.7816164E-02  0.1312668E+00
        -11   -1    0    0    0    0  0.00000000000E+00  0.00000000000E+00  0.45593999997E+02  0.45594000000E+02  0.51100000000E-03 0. -1.
         11   -1    0    0    0    0 -0.00000000000E+00 -0.00000000000E+00 -0.45593999997E+02  0.45594000000E+02  0.51100000000E-03 0.  1.
    9900012    2    1    2    0    0  0.16927500755E+02 -0.39526462668E+02  0.58938762539E+01  0.47787316709E+02  0.20000208203E+02 0.  0.
        -12    1    1    2    0    0 -0.16927500755E+02  0.39526462668E+02 -0.58938762539E+01  0.43400683291E+02  0.00000000000E+00 0.  1.
         11    1    3    3    0    0  0.12045807380E+02 -0.13960706040E+02  0.91093250522E+01  0.20566540588E+02  0.51100000000E-03 0. -1.
        -11    1    3    3    0    0 -0.10078063011E+01 -0.10148217762E+01 -0.12455813442E+01  0.18965784783E+01  0.51100000000E-03 0.  1.
         12    1    3    3    0    0  0.58894996761E+01 -0.24550934851E+02 -0.19698674541E+01  0.25324197643E+02  0.00000000000E+00 0. -1.
</event>
<event>
 7    1  0.1714203E-010  0.4778731E+02  0.7816164E-02  0.1312668E+00
        -11   -1    0    0    0    0  0.00000000000E+00  0.00000000000E+00  0.45593999997E+02  0.45594000000E+02  0.51100000000E-03 0.  1.
         11   -1    0    0    0    0 -0.00000000000E+00 -0.00000000000E+00 -0.45593999997E+02  0.45594000000E+02  0.51100000000E-03 0. -1.
    9900012    2    1    2    0    0  0.14763488450E+02  0.25753318599E+02  0.31661113734E+02  0.47787307230E+02  0.20000164984E+02 0.  0.
        -12    1    1    2    0    0 -0.14763488450E+02 -0.25753318599E+02 -0.31661113734E+02  0.43400692770E+02  0.00000000000E+00 0.  1.
         11    1    3    3    0    0  0.25417399099E+01  0.59424728873E-01  0.22462786846E+01  0.33926009577E+01  0.51100000000E-03 0. -1.
        -11    1    3    3    0    0  0.86566528129E+00  0.14492990972E+02  0.23007054687E+02  0.27205159976E+02  0.51100000000E-03 0.  1.
         12    1    3    3    0    0  0.11356083259E+02  0.11200902898E+02  0.64077803621E+01  0.17189546296E+02  0.00000000000E+00 0. -1.
</event>
<event>
 7    1  0.1714203E-010  0.4778727E+02  0.7816164E-02  0.1312668E+00
        -11   -1    0    0    0    0  0.00000000000E+00  0.00000000000E+00  0.45593999997E+02  0.45594000000E+02  0.51100000000E-03 0.  1.
         11   -1    0    0    0    0 -0.00000000000E+00 -0.00000000000E+00 -0.45593999997E+02  0.45594000000E+02  0.51100000000E-03 0. -1.
    9900012    2    1    2    0    0 -0.21816256576E+02  0.12928291255E+02 -0.35221213831E+02  0.47787266486E+02  0.19999979218E+02 0.  0.
        -12    1    1    2    0    0  0.21816256576E+02 -0.12928291255E+02  0.35221213831E+02  0.43400733514E+02  0.00000000000E+00 0.  1.
         11    1    3    3    0    0 -0.78033793162E+00  0.78906943709E+01 -0.10901876168E+02  0.13480463241E+02  0.51100000000E-03 0. -1.
        -11    1    3    3    0    0 -0.13971882577E+02  0.80708837289E+01 -0.13522154099E+02  0.21052347105E+02  0.51100000000E-03 0.  1.
        -12    1    3    3    0    0 -0.70640360680E+01 -0.30332868450E+01 -0.10797183564E+02  0.13254456140E+02  0.00000000000E+00 0.  1.
</event>
<event>
 7    1  0.1714203E-010  0.4778727E+02  0.7816164E-02  0.1312668E+00
        -11   -1    0    0    0    0  0.00000000000E+00  0.00000000000E+00  0.45593999997E+02  0.45594000000E+02  0.51100000000E-03 0. -1.
         11   -1    0    0    0    0 -0.00000000000E+00 -0.00000000000E+00 -0.45593999997E+02  0.45594000000E+02  0.51100000000E-03 0.  1.
    9900012    2    1    2    0    0  0.18675372092E+02  0.38814804718E+02 -0.53164335877E+01  0.47787273576E+02  0.20000011542E+02 0.  0.
        -12    1    1    2    0    0 -0.18675372092E+02 -0.38814804718E+02  0.53164335877E+01  0.43400726424E+02  0.00000000000E+00 0.  1.
         11    1    3    3    0    0  0.11180287993E+02  0.19810714220E+02 -0.68535969827E+01  0.23757841429E+02  0.51100000000E-03 0. -1.
        -11    1    3    3    0    0  0.10443008035E+02  0.16587632279E+02  0.32179267013E+01  0.19863559951E+02  0.51100000000E-03 0.  1.
        -12    1    3    3    0    0 -0.29479239358E+01  0.24164582190E+01 -0.16807633063E+01  0.41658721952E+01  0.00000000000E+00 0.  1.
</event>
<event>
 7    1  0.1888216E-010  0.4778727E+02  0.7816164E-02  0.1312668E+00
        -11   -1    0    0    0    0  0.00000000000E+00  0.00000000000E+00  0.45593999997E+02  0.45594000000E+02  0.51100000000E-03 0.  1.
         11   -1    0    0    0    0 -0.00000000000E+00 -0.00000000000E+00 -0.45593999997E+02  0.45594000000E+02  0.51100000000E-03 0. -1.
    9900012    2    1    2    0    0  0.53294116506E+01 -0.24347366428E+02 -0.35530639990E+02  0.47787271221E+02  0.20000000803E+02 0.  0.
        -12    1    1    2    0    0 -0.53294116506E+01  0.24347366428E+02  0.35530639990E+02  0.43400728779E+02  0.00000000000E+00 0.  1.
         11    1    3    3    0    0  0.51550658696E+01 -0.16008983310E+02 -0.21652664215E+02  0.27417150082E+02  0.51100000000E-03 0. -1.
        -11    1    3    3    0    0 -0.48268867239E+01 -0.59903735621E+01 -0.12497108182E+02  0.14675187360E+02  0.51100000000E-03 0.  1.
        -12    1    3    3    0    0  0.50012325049E+01 -0.23480095555E+01 -0.13808675928E+01  0.56949337792E+01  0.00000000000E+00 0.  1.
</event>
<event>
 7    1  0.1714203E-010  0.4778727E+02  0.7816164E-02  0.1312668E+00
        -11   -1    0    0    0    0  0.00000000000E+00  0.00000000000E+00  0.45593999997E+02  0.45594000000E+02  0.51100000000E-03 0. -1.
         11   -1    0    0    0    0 -0.00000000000E+00 -0.00000000000E+00 -0.45593999997E+02  0.45594000000E+02  0.51100000000E-03 0.  1.
    9900012    2    1    2    0    0  0.17331257056E+02  0.14327426225E+01  0.39764281737E+02  0.47787270460E+02  0.19999997334E+02 0.  0.
        -12    1    1    2    0    0 -0.17331257056E+02 -0.14327426225E+01 -0.39764281737E+02  0.43400729540E+02  0.00000000000E+00 0.  1.
         11    1    3    3    0    0  0.38392336540E+00 -0.28142858060E+01  0.55924735170E+01  0.62724287200E+01  0.51100000000E-03 0. -1.
        -11    1    3    3    0    0  0.14159018500E+02  0.89620236942E+01  0.18738059644E+02  0.25137831113E+02  0.51100000000E-03 0.  1.
        -12    1    3    3    0    0  0.27883151902E+01 -0.47149952657E+01  0.15433748576E+02  0.16377010626E+02  0.00000000000E+00 0.  1.
</event>
<event>
 7    1  0.1739983E-010  0.4778727E+02  0.7816164E-02  0.1312668E+00
        -11   -1    0    0    0    0  0.00000000000E+00  0.00000000000E+00  0.45593999997E+02  0.45594000000E+02  0.51100000000E-03 0. -1.
         11   -1    0    0    0    0 -0.00000000000E+00 -0.00000000000E+00 -0.45593999997E+02  0.45594000000E+02  0.51100000000E-03 0.  1.
    9900012    2    1    2    0    0  0.18200330912E+02  0.15286021897E+02  0.36314032357E+02  0.47787268937E+02  0.19999990391E+02 0.  0.
        -12    1    1    2    0    0 -0.18200330912E+02 -0.15286021897E+02 -0.36314032357E+02  0.43400731063E+02  0.00000000000E+00 0.  1.
         11    1    3    3    0    0  0.10196366403E+02  0.59237736776E+01  0.20150605925E+02  0.23347460286E+02  0.51100000000E-03 0. -1.
        -11    1    3    3    0    0  0.98913251172E+01  0.20388040558E+01  0.12400239152E+02  0.15992528438E+02  0.51100000000E-03 0.  1.
        -12    1    3    3    0    0 -0.18873606078E+01  0.73234441640E+01  0.37631872803E+01  0.84472802128E+01  0.00000000000E+00 0.  1.
</event>
<event>
 7    1  0.1714203E-010  0.4778722E+02  0.7816164E-02  0.1312668E+00
        -11   -1    0    0    0    0  0.00000000000E+00  0.00000000000E+00  0.45593999997E+02  0.45594000000E+02  0.51100000000E-03 0.  1.
         11   -1    0    0    0    0 -0.00000000000E+00 -0.00000000000E+00 -0.45593999997E+02  0.45594000000E+02  0.51100000000E-03 0. -1.
    9900012    2    1    2    0    0 -0.31234807041E+02 -0.24833431619E+02 -0.17067965292E+02  0.47787217333E+02  0.19999755108E+02 0.  0.
        -12    1    1    2    0    0  0.31234807041E+02  0.24833431619E+02  0.17067965292E+02  0.43400782667E+02  0.00000000000E+00 0.  1.
         11    1    3    3    0    0 -0.20403718509E+02 -0.14572219438E+02 -0.12829123160E+02  0.28164653551E+02  0.51100000000E-03 0. -1.
        -11    1    3    3    0    0 -0.96190521323E+01 -0.11500364633E+02  0.54073502704E-01  0.14992914154E+02  0.51100000000E-03 0.  1.
         12    1    3    3    0    0 -0.12120364006E+01  0.12391524524E+01 -0.42929156346E+01  0.46296496284E+01  0.00000000000E+00 0. -1.
</event>
<event>
 7    1  0.1714203E-010  0.4778728E+02  0.7816164E-02  0.1312668E+00
        -11   -1    0    0    0    0  0.00000000000E+00  0.00000000000E+00  0.45593999997E+02  0.45594000000E+02  0.51100000000E-03 0. -1.
         11   -1    0    0    0    0 -0.00000000000E+00 -0.00000000000E+00 -0.45593999997E+02  0.45594000000E+02  0.51100000000E-03 0.  1.
    9900012    2    1    2    0    0 -0.25362055019E+02 -0.26321854249E+02  0.23399758467E+02  0.47787279474E+02  0.20000038433E+02 0.  0.
        -12    1    1    2    0    0  0.25362055019E+02  0.26321854249E+02 -0.23399758467E+02  0.43400720526E+02  0.00000000000E+00 0.  1.
         11    1    3    3    0    0 -0.23409739423E+02 -0.11743724474E+02  0.13399988233E+02  0.29419222445E+02  0.51100000000E-03 0. -1.
        -11    1    3    3    0    0  0.81046653759E+00 -0.10338123165E+01  0.20121235694E+01  0.24029701276E+01  0.51100000000E-03 0.  1.
         12    1    3    3    0    0 -0.27627821342E+01 -0.13544317459E+02  0.79876466637E+01  0.15965086901E+02  0.00000000000E+00 0. -1.
</event>
<event>
 7    1  0.1714203E-010  0.4778727E+02  0.7816164E-02  0.1312668E+00
        -11   -1    0    0    0    0  0.00000000000E+00  0.00000000000E+00  0.45593999997E+02  0.45594000000E+02  0.51100000000E-03 0. -1.
         11   -1    0    0    0    0 -0.00000000000E+00 -0.00000000000E+00 -0.45593999997E+02  0.45594000000E+02  0.51100000000E-03 0.  1.
    9900012    2    1    2    0    0  0.30671779211E+02  0.25827991145E+02  0.16606629674E+02  0.47787270562E+02  0.19999997801E+02 0.  0.
        -12    1    1    2    0    0 -0.30671779211E+02 -0.25827991145E+02 -0.16606629674E+02  0.43400729438E+02  0.00000000000E+00 0.  1.
         11    1    3    3    0    0  0.89275267974E+01  0.15049249541E+01  0.16589153916E+01  0.92042128601E+01  0.51100000000E-03 0. -1.
        -11    1    3    3    0    0  0.26955563076E+01 -0.48447327508E-01  0.56875004984E+01  0.62941268760E+01  0.51100000000E-03 0.  1.
         12    1    3    3    0    0  0.19048696106E+02  0.24371513519E+02  0.92602137845E+01  0.32288930826E+02  0.00000000000E+00 0. -1.
</event>
<event>
 7    1  0.1714203E-010  0.4778727E+02  0.7816164E-02  0.1312668E+00
        -11   -1    0    0    0    0  0.00000000000E+00  0.00000000000E+00  0.45593999997E+02  0.45594000000E+02  0.51100000000E-03 0.  1.
         11   -1    0    0    0    0 -0.00000000000E+00 -0.00000000000E+00 -0.45593999997E+02  0.45594000000E+02  0.51100000000E-03 0. -1.
    9900012    2    1    2    0    0  0.21639641957E+01  0.33561479601E+02 -0.27432965581E+02  0.47787271267E+02  0.20000001013E+02 0.  0.
        -12    1    1    2    0    0 -0.21639641957E+01 -0.33561479601E+02  0.27432965581E+02  0.43400728733E+02  0.00000000000E+00 0.  1.
         11    1    3    3    0    0 -0.40362899395E+01  0.36894311854E+01 -0.12498983316E+01  0.56094371418E+01  0.51100000000E-03 0.  1.
        -11    1    3    3    0    0 -0.29280579012E+01  0.13081463263E+02 -0.70963801527E+01  0.15167623931E+02  0.51100000000E-03 0. -1.
         12    1    3    3    0    0  0.91283120363E+01  0.16790585152E+02 -0.19086687097E+02  0.27010210194E+02  0.00000000000E+00 0. -1.
</event>
<event>
 7    1  0.1714203E-010  0.4778727E+02  0.7816164E-02  0.1312668E+00
        -11   -1    0    0    0    0  0.00000000000E+00  0.00000000000E+00  0.45593999997E+02  0.45594000000E+02  0.51100000000E-03 0.  1.
         11   -1    0    0    0    0 -0.00000000000E+00 -0.00000000000E+00 -0.45593999997E+02  0.45594000000E+02  0.51100000000E-03 0. -1.
    9900012    2    1    2    0    0  0.58995996912E+01 -0.53972460376E+01 -0.42657802085E+02  0.47787267057E+02  0.19999981818E+02 0.  0.
        -12    1    1    2    0    0 -0.58995996912E+01  0.53972460376E+01  0.42657802085E+02  0.43400732943E+02  0.00000000000E+00 0.  1.
         11    1    3    3    0    0  0.41070460484E+00  0.65824921079E+01 -0.18111659503E+02  0.19275115845E+02  0.51100000000E-03 0. -1.
        -11    1    3    3    0    0 -0.18591024375E+00 -0.67680303779E+01 -0.10558877757E+02  0.12543153414E+02  0.51100000000E-03 0.  1.
        -12    1    3    3    0    0  0.56748053301E+01 -0.52117077676E+01 -0.13987264825E+02  0.15968997798E+02  0.00000000000E+00 0.  1.
</event>
<event>
 7    1  0.1714203E-010  0.4778726E+02  0.7816164E-02  0.1312668E+00
        -11   -1    0    0    0    0  0.00000000000E+00  0.00000000000E+00  0.45593999997E+02  0.45594000000E+02  0.51100000000E-03 0.  1.
         11   -1    0    0    0    0 -0.00000000000E+00 -0.00000000000E+00 -0.45593999997E+02  0.45594000000E+02  0.51100000000E-03 0. -1.
    9900012    2    1    2    0    0 -0.43207780982E+02 -0.37421768458E+01  0.16455472515E+01  0.47787262095E+02  0.19999959198E+02 0.  0.
        -12    1    1    2    0    0  0.43207780982E+02  0.37421768458E+01 -0.16455472515E+01  0.43400737905E+02  0.00000000000E+00 0.  1.
         11    1    3    3    0    0 -0.23329619658E+02 -0.46711165690E+01 -0.15659028612E+01  0.23844129999E+02  0.51100000000E-03 0. -1.
        -11    1    3    3    0    0 -0.18469701777E+02  0.52272870212E+01  0.28485143610E+01  0.19405371619E+02  0.51100000000E-03 0.  1.
        -12    1    3    3    0    0 -0.14084595463E+01 -0.42983472980E+01  0.36293575162E+00  0.45377604771E+01  0.00000000000E+00 0.  1.
</event>
<event>
 7    1  0.1714203E-010  0.4778727E+02  0.7816164E-02  0.1312668E+00
        -11   -1    0    0    0    0  0.00000000000E+00  0.00000000000E+00  0.45593999997E+02  0.45594000000E+02  0.51100000000E-03 0. -1.
         11   -1    0    0    0    0 -0.00000000000E+00 -0.00000000000E+00 -0.45593999997E+02  0.45594000000E+02  0.51100000000E-03 0.  1.
    9900012    2    1    2    0    0 -0.15744151251E+02  0.32003168862E-01  0.40444337991E+02  0.47787265002E+02  0.19999972450E+02 0.  0.
        -12    1    1    2    0    0  0.15744151251E+02 -0.32003168862E-01 -0.40444337991E+02  0.43400734998E+02  0.00000000000E+00 0.  1.
         11    1    3    3    0    0 -0.10264763421E+02  0.24883559609E+01  0.19643317712E+02  0.22302852160E+02  0.51100000000E-03 0. -1.
        -11    1    3    3    0    0 -0.79503844041E+01 -0.54677769827E+01  0.18737826115E+02  0.21076321431E+02  0.51100000000E-03 0.  1.
        -12    1    3    3    0    0  0.24709965740E+01  0.30114241907E+01  0.20631941642E+01  0.44080914106E+01  0.00000000000E+00 0.  1.
</event>
<event>
 7    1  0.1714203E-010  0.4778727E+02  0.7816164E-02  0.1312668E+00
        -11   -1    0    0    0    0  0.00000000000E+00  0.00000000000E+00  0.45593999997E+02  0.45594000000E+02  0.51100000000E-03 0. -1.
         11   -1    0    0    0    0 -0.00000000000E+00 -0.00000000000E+00 -0.45593999997E+02  0.45594000000E+02  0.51100000000E-03 0.  1.
    9900012    2    1    2    0    0 -0.27389110140E+02  0.18033630677E+02  0.28429708221E+02  0.47787268448E+02  0.19999988162E+02 0.  0.
        -12    1    1    2    0    0  0.27389110140E+02 -0.18033630677E+02 -0.28429708221E+02  0.43400731552E+02  0.00000000000E+00 0.  1.
         11    1    3    3    0    0  0.13191827706E+01  0.17165800832E+01  0.82791121921E+01  0.85574873249E+01  0.51100000000E-03 0. -1.
        -11    1    3    3    0    0 -0.11031740531E+02  0.96954273685E+01  0.10295155416E+02  0.17935741866E+02  0.51100000000E-03 0.  1.
         12    1    3    3    0    0 -0.17676552380E+02  0.66216232254E+01  0.98554406131E+01  0.21294039257E+02  0.00000000000E+00 0. -1.
</event>
<event>
 7    1  0.1714203E-010  0.4778727E+02  0.7816164E-02  0.1312668E+00
        -11   -1    0    0    0    0  0.00000000000E+00  0.00000000000E+00  0.45593999997E+02  0.45594000000E+02  0.51100000000E-03 0. -1.
         11   -1    0    0    0    0 -0.00000000000E+00 -0.00000000000E+00 -0.45593999997E+02  0.45594000000E+02  0.51100000000E-03 0.  1.
    9900012    2    1    2    0    0  0.31023777052E+02 -0.26387744946E+02  0.14994510562E+02  0.47787272208E+02  0.20000005303E+02 0.  0.
        -12    1    1    2    0    0 -0.31023777052E+02  0.26387744946E+02 -0.14994510562E+02  0.43400727792E+02  0.00000000000E+00 0.  1.
         11    1    3    3    0    0 -0.55258222513E+00 -0.32045492345E+01 -0.10181891217E+01  0.34075199575E+01  0.51100000000E-03 0. -1.
        -11    1    3    3    0    0  0.18891244062E+02 -0.59084898872E+01  0.96666744150E+01  0.22028026454E+02  0.51100000000E-03 0.  1.
         12    1    3    3    0    0  0.12685115215E+02 -0.17274705824E+02  0.63460252690E+01  0.22351725796E+02  0.00000000000E+00 0. -1.
</event>
<event>
 7    1  0.1714203E-010  0.4778727E+02  0.7816164E-02  0.1312668E+00
        -11   -1    0    0    0    0  0.00000000000E+00  0.00000000000E+00  0.45593999997E+02  0.45594000000E+02  0.51100000000E-03 0. -1.
         11   -1    0    0    0    0 -0.00000000000E+00 -0.00000000000E+00 -0.45593999997E+02  0.45594000000E+02  0.51100000000E-03 0.  1.
    9900012    2    1    2    0    0  0.22582076414E+02  0.31379867712E+02 -0.19722492106E+02  0.47787274572E+02  0.20000016085E+02 0.  0.
        -12    1    1    2    0    0 -0.22582076414E+02 -0.31379867712E+02  0.19722492106E+02  0.43400725428E+02  0.00000000000E+00 0.  1.
         11    1    3    3    0    0  0.32563327975E+01  0.96552676551E+01  0.16192026535E+01  0.10317447081E+02  0.51100000000E-03 0. -1.
        -11    1    3    3    0    0  0.19250992629E+01  0.30217436511E+01 -0.77393584794E+01  0.85284589345E+01  0.51100000000E-03 0.  1.
         12    1    3    3    0    0  0.17400644353E+02  0.18702856405E+02 -0.13602336280E+02  0.28941368557E+02  0.00000000000E+00 0. -1.
</event>
<event>
 7    1  0.1714203E-010  0.4778727E+02  0.7816164E-02  0.1312668E+00
        -11   -1    0    0    0    0  0.00000000000E+00  0.00000000000E+00  0.45593999997E+02  0.45594000000E+02  0.51100000000E-03 0.  1.
         11   -1    0    0    0    0 -0.00000000000E+00 -0.00000000000E+00 -0.45593999997E+02  0.45594000000E+02  0.51100000000E-03 0. -1.
    9900012    2    1    2    0    0 -0.18077886940E+02 -0.25859515803E+02 -0.29800986921E+02  0.47787269876E+02  0.19999994673E+02 0.  0.
        -12    1    1    2    0    0  0.18077886940E+02  0.25859515803E+02  0.29800986921E+02  0.43400730124E+02  0.00000000000E+00 0.  1.
         11    1    3    3    0    0 -0.87017682679E+01 -0.21089354941E+02 -0.20548960536E+02  0.30704094877E+02  0.51100000000E-03 0. -1.
        -11    1    3    3    0    0  0.11696675848E+00 -0.21641123286E+01  0.13989883022E+01  0.25795797960E+01  0.51100000000E-03 0.  1.
         12    1    3    3    0    0 -0.94930854308E+01 -0.26060485339E+01 -0.10651014687E+02  0.14503595203E+02  0.00000000000E+00 0. -1.
</event>
<event>
 7    1  0.1714203E-010  0.4778727E+02  0.7816164E-02  0.1312668E+00
        -11   -1    0    0    0    0  0.00000000000E+00  0.00000000000E+00  0.45593999997E+02  0.45594000000E+02  0.51100000000E-03 0.  1.
         11   -1    0    0    0    0 -0.00000000000E+00 -0.00000000000E+00 -0.45593999997E+02  0.45594000000E+02  0.51100000000E-03 0. -1.
    9900012    2    1    2    0    0  0.10794891224E+02 -0.39100337307E+02 -0.15435584058E+02  0.47787270637E+02  0.19999998142E+02 0.  0.
        -12    1    1    2    0    0 -0.10794891224E+02  0.39100337307E+02  0.15435584058E+02  0.43400729363E+02  0.00000000000E+00 0.  1.
         11    1    3    3    0    0  0.11882210874E+01 -0.28484078635E+02 -0.59373926335E+01  0.29120563810E+02  0.51100000000E-03 0. -1.
        -11    1    3    3    0    0  0.29633151450E+01  0.63840659253E-01 -0.10015422146E+00  0.29656944225E+01  0.51100000000E-03 0.  1.
        -12    1    3    3    0    0  0.66433549917E+01 -0.10680099331E+02 -0.93980372032E+01  0.15701012405E+02  0.00000000000E+00 0.  1.
</event>
<event>
 7    1  0.1714203E-010  0.4778727E+02  0.7816164E-02  0.1312668E+00
        -11   -1    0    0    0    0  0.00000000000E+00  0.00000000000E+00  0.45593999997E+02  0.45594000000E+02  0.51100000000E-03 0.  1.
         11   -1    0    0    0    0 -0.00000000000E+00 -0.00000000000E+00 -0.45593999997E+02  0.45594000000E+02  0.51100000000E-03 0. -1.
    9900012    2    1    2    0    0  0.16682803023E+02 -0.23380847856E+02 -0.32536802869E+02  0.47787268392E+02  0.19999987905E+02 0.  0.
        -12    1    1    2    0    0 -0.16682803023E+02  0.23380847856E+02  0.32536802869E+02  0.43400731608E+02  0.00000000000E+00 0.  1.
         11    1    3    3    0    0  0.88153696534E+01 -0.13160027456E+02 -0.19919380236E+02  0.25449533866E+02  0.51100000000E-03 0. -1.
        -11    1    3    3    0    0  0.95582903765E+01 -0.16634205670E+01 -0.69760217549E+01  0.11949592574E+02  0.51100000000E-03 0.  1.
        -12    1    3    3    0    0 -0.16908570065E+01 -0.85573998337E+01 -0.56414008784E+01  0.10388141951E+02  0.00000000000E+00 0.  1.
</event>
<event>
 7    1  0.1714203E-010  0.4778726E+02  0.7816164E-02  0.1312668E+00
        -11   -1    0    0    0    0  0.00000000000E+00  0.00000000000E+00  0.45593999997E+02  0.45594000000E+02  0.51100000000E-03 0.  1.
         11   -1    0    0    0    0 -0.00000000000E+00 -0.00000000000E+00 -0.45593999997E+02  0.45594000000E+02  0.51100000000E-03 0. -1.
    9900012    2    1    2    0    0 -0.33721411649E+02  0.25210798799E+02  0.10531201081E+02  0.47787260653E+02  0.19999952621E+02 0.  0.
        -12    1    1    2    0    0  0.33721411649E+02 -0.25210798799E+02 -0.10531201081E+02  0.43400739347E+02  0.00000000000E+00 0.  1.
         11    1    3    3    0    0  0.54637667207E+00  0.12083920701E+01 -0.17146968136E+01  0.21677002299E+01  0.51100000000E-03 0. -1.
        -11    1    3    3    0    0 -0.20078426694E+02  0.21661903148E+02  0.74686996916E+01  0.30465763438E+02  0.51100000000E-03 0.  1.
         12    1    3    3    0    0 -0.14189361627E+02  0.23405035801E+01  0.47771982028E+01  0.15153796985E+02  0.00000000000E+00 0. -1.
</event>
<event>
 7    1  0.1714203E-010  0.4778727E+02  0.7816164E-02  0.1312668E+00
        -11   -1    0    0    0    0  0.00000000000E+00  0.00000000000E+00  0.45593999997E+02  0.45594000000E+02  0.51100000000E-03 0. -1.
         11   -1    0    0    0    0 -0.00000000000E+00 -0.00000000000E+00 -0.45593999997E+02  0.45594000000E+02  0.51100000000E-03 0.  1.
    9900012    2    1    2    0    0 -0.10652230430E+02 -0.32483546955E+02  0.26738971714E+02  0.47787269081E+02  0.19999991049E+02 0.  0.
        -12    1    1    2    0    0  0.10652230430E+02  0.32483546955E+02 -0.26738971714E+02  0.43400730919E+02  0.00000000000E+00 0.  1.
         11    1    3    3    0    0 -0.30060913378E+01 -0.23803637690E+02  0.18487309509E+02  0.30289112987E+02  0.51100000000E-03 0. -1.
        -11    1    3    3    0    0 -0.55626093355E+01 -0.10844349256E+02  0.77741310465E+01  0.14456128361E+02  0.51100000000E-03 0.  1.
         12    1    3    3    0    0 -0.20835297571E+01  0.21644399904E+01  0.47753115887E+00  0.30420277330E+01  0.00000000000E+00 0. -1.
</event>
<event>
 7    1  0.1714203E-010  0.4778727E+02  0.7816164E-02  0.1312668E+00
        -11   -1    0    0    0    0  0.00000000000E+00  0.00000000000E+00  0.45593999997E+02  0.45594000000E+02  0.51100000000E-03 0.  1.
         11   -1    0    0    0    0 -0.00000000000E+00 -0.00000000000E+00 -0.45593999997E+02  0.45594000000E+02  0.51100000000E-03 0. -1.
    9900012    2    1    2    0    0  0.42265781645E+01 -0.28335679845E+02 -0.32601355683E+02  0.47787272960E+02  0.20000008734E+02 0.  0.
        -12    1    1    2    0    0 -0.42265781645E+01  0.28335679845E+02  0.32601355683E+02  0.43400727040E+02  0.00000000000E+00 0.  1.
         11    1    3    3    0    0  0.46212562704E+01 -0.54718748193E+01 -0.12985491662E+02  0.14829714006E+02  0.51100000000E-03 0. -1.
        -11    1    3    3    0    0  0.57390159810E+01 -0.96944766312E+01 -0.49208432076E+01  0.12293652009E+02  0.51100000000E-03 0.  1.
         12    1    3    3    0    0 -0.61336940869E+01 -0.13169328395E+02 -0.14695020813E+02  0.20663906945E+02  0.00000000000E+00 0. -1.
</event>
<event>
 7    1  0.1714203E-010  0.4778727E+02  0.7816164E-02  0.1312668E+00
        -11   -1    0    0    0    0  0.00000000000E+00  0.00000000000E+00  0.45593999997E+02  0.45594000000E+02  0.51100000000E-03 0.  1.
         11   -1    0    0    0    0 -0.00000000000E+00 -0.00000000000E+00 -0.45593999997E+02  0.45594000000E+02  0.51100000000E-03 0. -1.
    9900012    2    1    2    0    0 -0.29954559689E+02 -0.23636373616E+02 -0.20680178142E+02  0.47787267612E+02  0.19999984348E+02 0.  0.
        -12    1    1    2    0    0  0.29954559689E+02  0.23636373616E+02  0.20680178142E+02  0.43400732388E+02  0.00000000000E+00 0.  1.
         11    1    3    3    0    0 -0.58404782690E+00  0.80205155362E+00 -0.90524551998E+00  0.13430816324E+01  0.51100000000E-03 0. -1.
        -11    1    3    3    0    0 -0.12572221789E+02 -0.20181489369E+02 -0.16140349919E+02  0.28737852558E+02  0.51100000000E-03 0.  1.
         12    1    3    3    0    0 -0.16798290073E+02 -0.42569357999E+01 -0.36345827031E+01  0.17706333421E+02  0.00000000000E+00 0. -1.
</event>
<event>
 7    1  0.1714203E-010  0.4778727E+02  0.7816164E-02  0.1312668E+00
        -11   -1    0    0    0    0  0.00000000000E+00  0.00000000000E+00  0.45593999997E+02  0.45594000000E+02  0.51100000000E-03 0.  1.
         11   -1    0    0    0    0 -0.00000000000E+00 -0.00000000000E+00 -0.45593999997E+02  0.45594000000E+02  0.51100000000E-03 0. -1.
    9900012    2    1    2    0    0  0.51489053014E+01  0.30679241957E+02 -0.30263775207E+02  0.47787271865E+02  0.20000003741E+02 0.  0.
        -12    1    1    2    0    0 -0.51489053014E+01 -0.30679241957E+02  0.30263775207E+02  0.43400728135E+02  0.00000000000E+00 0.  1.
         11    1    3    3    0    0  0.25200222938E+00  0.14190213270E+02 -0.23363014599E+01  0.14383461424E+02  0.51100000000E-03 0. -1.
        -11    1    3    3    0    0 -0.11079958058E+01  0.59329539539E+01 -0.11334927370E+02  0.12841657840E+02  0.51100000000E-03 0.  1.
        -12    1    3    3    0    0  0.60048988778E+01  0.10556074733E+02 -0.16592546377E+02  0.20562152601E+02  0.00000000000E+00 0.  1.
</event>
<event>
 7    1  0.1714203E-010  0.4778727E+02  0.7816164E-02  0.1312668E+00
        -11   -1    0    0    0    0  0.00000000000E+00  0.00000000000E+00  0.45593999997E+02  0.45594000000E+02  0.51100000000E-03 0.  1.
         11   -1    0    0    0    0 -0.00000000000E+00 -0.00000000000E+00 -0.45593999997E+02  0.45594000000E+02  0.51100000000E-03 0. -1.
    9900012    2    1    2    0    0 -0.20329191206E+02 -0.25510529320E+01 -0.38260155647E+02  0.47787269634E+02  0.19999993569E+02 0.  0.
        -12    1    1    2    0    0  0.20329191206E+02  0.25510529320E+01  0.38260155647E+02  0.43400730366E+02  0.00000000000E+00 0.  1.
         11    1    3    3    0    0 -0.15968500029E+02 -0.37249775951E+01 -0.35877633823E+02  0.39447091911E+02  0.51100000000E-03 0. -1.
        -11    1    3    3    0    0 -0.11884442491E+01 -0.27194893305E+01 -0.98927360242E+00  0.31283677012E+01  0.51100000000E-03 0.  1.
         12    1    3    3    0    0 -0.31722469274E+01  0.38934139937E+01 -0.13932482225E+01  0.52118100218E+01  0.00000000000E+00 0. -1.
</event>
<event>
 7    1  0.1714203E-010  0.4778726E+02  0.7816164E-02  0.1312668E+00
        -11   -1    0    0    0    0  0.00000000000E+00  0.00000000000E+00  0.45593999997E+02  0.45594000000E+02  0.51100000000E-03 0.  1.
         11   -1    0    0    0    0 -0.00000000000E+00 -0.00000000000E+00 -0.45593999997E+02  0.45594000000E+02  0.51100000000E-03 0. -1.
    9900012    2    1    2    0    0 -0.12496739779E+01  0.34947066764E+02 -0.25705347106E+02  0.47787262329E+02  0.19999960265E+02 0.  0.
        -12    1    1    2    0    0  0.12496739779E+01 -0.34947066764E+02  0.25705347106E+02  0.43400737671E+02  0.00000000000E+00 0.  1.
         11    1    3    3    0    0  0.81838258176E+01  0.11701838224E+02 -0.10151665789E+02  0.17520397866E+02  0.51100000000E-03 0. -1.
        -11    1    3    3    0    0 -0.28570894851E+01  0.22152304108E+01 -0.39838153418E+01  0.53796831726E+01  0.51100000000E-03 0.  1.
         12    1    3    3    0    0 -0.65764103104E+01  0.21029998130E+02 -0.11569865976E+02  0.24887181291E+02  0.00000000000E+00 0. -1.
</event>
<event>
 7    1  0.1714203E-010  0.4778727E+02  0.7816164E-02  0.1312668E+00
        -11   -1    0    0    0    0  0.00000000000E+00  0.00000000000E+00  0.45593999997E+02  0.45594000000E+02  0.51100000000E-03 0. -1.
         11   -1    0    0    0    0 -0.00000000000E+00 -0.00000000000E+00 -0.45593999997E+02  0.45594000000E+02  0.51100000000E-03 0.  1.
    9900012    2    1    2    0    0  0.29128333957E+02 -0.29752319429E+02 -0.12245951739E+02  0.47787266314E+02  0.19999978433E+02 0.  0.
        -12    1    1    2    0    0 -0.29128333957E+02  0.29752319429E+02  0.12245951739E+02  0.43400733686E+02  0.00000000000E+00 0.  1.
         11    1    3    3    0    0  0.19624610809E+02 -0.20801547432E+02 -0.52225979735E+01  0.29070694090E+02  0.51100000000E-03 0. -1.
        -11    1    3    3    0    0  0.10524609941E+02 -0.29179173124E+01 -0.61551841112E+01  0.12536664132E+02  0.51100000000E-03 0.  1.
         12    1    3    3    0    0 -0.10208867935E+01 -0.60328546844E+01 -0.86816965376E+00  0.61799080928E+01  0.00000000000E+00 0. -1.
</event>
<event>
 7    1  0.1714203E-010  0.4778727E+02  0.7816164E-02  0.1312668E+00
        -11   -1    0    0    0    0  0.00000000000E+00  0.00000000000E+00  0.45593999997E+02  0.45594000000E+02  0.51100000000E-03 0. -1.
         11   -1    0    0    0    0 -0.00000000000E+00 -0.00000000000E+00 -0.45593999997E+02  0.45594000000E+02  0.51100000000E-03 0.  1.
    9900012    2    1    2    0    0  0.39776130812E+02  0.47932811842E+01  0.16688529265E+02  0.47787272634E+02  0.20000007246E+02 0.  0.
        -12    1    1    2    0    0 -0.39776130812E+02 -0.47932811842E+01 -0.16688529265E+02  0.43400727366E+02  0.00000000000E+00 0.  1.
         11    1    3    3    0    0  0.11068126206E+02  0.43386329246E+01  0.50134612306E+01  0.12902013298E+02  0.51100000000E-03 0. -1.
        -11    1    3    3    0    0  0.43556347266E+01 -0.30635601356E+01 -0.31225904963E+01  0.61731293721E+01  0.51100000000E-03 0.  1.
        -12    1    3    3    0    0  0.24352369879E+02  0.35182083952E+01  0.14797658531E+02  0.28712129964E+02  0.00000000000E+00 0.  1.
</event>
<event>
 7    1  0.1714203E-010  0.4778727E+02  0.7816164E-02  0.1312668E+00
        -11   -1    0    0    0    0  0.00000000000E+00  0.00000000000E+00  0.45593999997E+02  0.45594000000E+02  0.51100000000E-03 0.  1.
         11   -1    0    0    0    0 -0.00000000000E+00 -0.00000000000E+00 -0.45593999997E+02  0.45594000000E+02  0.51100000000E-03 0. -1.
    9900012    2    1    2    0    0 -0.20254157913E+02 -0.26735424315E+02 -0.27542870589E+02  0.47787267905E+02  0.19999985687E+02 0.  0.
        -12    1    1    2    0    0  0.20254157913E+02  0.26735424315E+02  0.27542870589E+02  0.43400732095E+02  0.00000000000E+00 0.  1.
         11    1    3    3    0    0 -0.15954542219E+02 -0.95648668244E+01 -0.13748158168E+02  0.23131060245E+02  0.51100000000E-03 0. -1.
        -11    1    3    3    0    0 -0.21611267684E+01 -0.74870860718E+01 -0.12394975367E+02  0.14641118174E+02  0.51100000000E-03 0.  1.
         12    1    3    3    0    0 -0.21384889257E+01 -0.96834714193E+01 -0.13997370541E+01  0.10015089487E+02  0.00000000000E+00 0. -1.
</event>
<event>
 7    1  0.1714203E-010  0.4778727E+02  0.7816164E-02  0.1312668E+00
        -11   -1    0    0    0    0  0.00000000000E+00  0.00000000000E+00  0.45593999997E+02  0.45594000000E+02  0.51100000000E-03 0.  1.
         11   -1    0    0    0    0 -0.00000000000E+00 -0.00000000000E+00 -0.45593999997E+02  0.45594000000E+02  0.51100000000E-03 0. -1.
    9900012    2    1    2    0    0  0.58715307571E+01 -0.64353736050E+01 -0.42517458879E+02  0.47787271707E+02  0.20000003019E+02 0.  0.
        -12    1    1    2    0    0 -0.58715307571E+01  0.64353736050E+01  0.42517458879E+02  0.43400728293E+02  0.00000000000E+00 0.  1.
         11    1    3    3    0    0  0.50031911943E+01 -0.36197016600E+01 -0.85085109833E+01  0.10513273593E+02  0.51100000000E-03 0. -1.
        -11    1    3    3    0    0  0.46100136688E+01 -0.32103655684E+00 -0.21458047484E+01  0.50950729904E+01  0.51100000000E-03 0.  1.
        -12    1    3    3    0    0 -0.37416741061E+01 -0.24946353881E+01 -0.31863143147E+02  0.32178925123E+02  0.00000000000E+00 0.  1.
</event>
<event>
 7    1  0.1714203E-010  0.4778726E+02  0.7816164E-02  0.1312668E+00
        -11   -1    0    0    0    0  0.00000000000E+00  0.00000000000E+00  0.45593999997E+02  0.45594000000E+02  0.51100000000E-03 0.  1.
         11   -1    0    0    0    0 -0.00000000000E+00 -0.00000000000E+00 -0.45593999997E+02  0.45594000000E+02  0.51100000000E-03 0. -1.
    9900012    2    1    2    0    0 -0.16558515869E+02  0.29109103866E+02 -0.27606159461E+02  0.47787257888E+02  0.19999940015E+02 0.  0.
        -12    1    1    2    0    0  0.16558515869E+02 -0.29109103866E+02  0.27606159461E+02  0.43400742112E+02  0.00000000000E+00 0.  1.
         11    1    3    3    0    0 -0.89235988244E+01  0.25693299698E+01 -0.85557216852E+01  0.12626656180E+02  0.51100000000E-03 0. -1.
        -11    1    3    3    0    0 -0.77681318075E+01  0.18762756589E+02 -0.18317395322E+02  0.27347977590E+02  0.51100000000E-03 0.  1.
        -12    1    3    3    0    0  0.13321476284E+00  0.77770173077E+01 -0.73304245338E+00  0.78126241184E+01  0.00000000000E+00 0.  1.
</event>
<event>
 7    1  0.1714203E-010  0.4778727E+02  0.7816164E-02  0.1312668E+00
        -11   -1    0    0    0    0  0.00000000000E+00  0.00000000000E+00  0.45593999997E+02  0.45594000000E+02  0.51100000000E-03 0.  1.
         11   -1    0    0    0    0 -0.00000000000E+00 -0.00000000000E+00 -0.45593999997E+02  0.45594000000E+02  0.51100000000E-03 0. -1.
    9900012    2    1    2    0    0  0.41139969104E+02  0.79238455929E+01 -0.11328686289E+02  0.47787268210E+02  0.19999987076E+02 0.  0.
        -12    1    1    2    0    0 -0.41139969104E+02 -0.79238455929E+01  0.11328686289E+02  0.43400731790E+02  0.00000000000E+00 0.  1.
         11    1    3    3    0    0  0.27315036962E+02 -0.59764985633E+00 -0.27524046607E+01  0.27459864553E+02  0.51100000000E-03 0. -1.
        -11    1    3    3    0    0  0.13379537991E+02  0.72623921526E+01 -0.42586448409E+01  0.15807923101E+02  0.51100000000E-03 0.  1.
        -12    1    3    3    0    0  0.44539415137E+00  0.12591032966E+01 -0.43176367878E+01  0.45194805557E+01  0.00000000000E+00 0.  1.
</event>
<event>
 7    1  0.1714203E-010  0.4778727E+02  0.7816164E-02  0.1312668E+00
        -11   -1    0    0    0    0  0.00000000000E+00  0.00000000000E+00  0.45593999997E+02  0.45594000000E+02  0.51100000000E-03 0.  1.
         11   -1    0    0    0    0 -0.00000000000E+00 -0.00000000000E+00 -0.45593999997E+02  0.45594000000E+02  0.51100000000E-03 0. -1.
    9900012    2    1    2    0    0 -0.27732568579E+02  0.43247314366E+01 -0.33103244441E+02  0.47787268964E+02  0.19999990512E+02 0.  0.
        -12    1    1    2    0    0  0.27732568579E+02 -0.43247314366E+01  0.33103244441E+02  0.43400731036E+02  0.00000000000E+00 0.  1.
         11    1    3    3    0    0 -0.40121694627E+01 -0.53394212938E+01 -0.13688152869E+02  0.15230641903E+02  0.51100000000E-03 0. -1.
        -11    1    3    3    0    0 -0.47146804522E+01  0.42547179996E+00 -0.54892916978E+01  0.72485558302E+01  0.51100000000E-03 0.  1.
        -12    1    3    3    0    0 -0.19005718664E+02  0.92386809305E+01 -0.13925799874E+02  0.25308071231E+02  0.00000000000E+00 0.  1.
</event>
<event>
 7    1  0.1714203E-010  0.4778727E+02  0.7816164E-02  0.1312668E+00
        -11   -1    0    0    0    0  0.00000000000E+00  0.00000000000E+00  0.45593999997E+02  0.45594000000E+02  0.51100000000E-03 0. -1.
         11   -1    0    0    0    0 -0.00000000000E+00 -0.00000000000E+00 -0.45593999997E+02  0.45594000000E+02  0.51100000000E-03 0.  1.
    9900012    2    1    2    0    0  0.11103823502E+02 -0.41137793824E+02  0.82468520293E+01  0.47787267915E+02  0.19999985733E+02 0.  0.
        -12    1    1    2    0    0 -0.11103823502E+02  0.41137793824E+02 -0.82468520293E+01  0.43400732085E+02  0.00000000000E+00 0.  1.
         11    1    3    3    0    0  0.91198042287E+01 -0.13545624898E+02  0.82132825604E+01  0.18278752521E+02  0.51100000000E-03 0. -1.
        -11    1    3    3    0    0  0.49164291713E+01 -0.25257510597E+02 -0.40433303626E+00  0.25734735336E+02  0.51100000000E-03 0.  1.
        -12    1    3    3    0    0 -0.29324098976E+01 -0.23346583290E+01  0.43790250513E+00  0.37737800578E+01  0.00000000000E+00 0.  1.
</event>
<event>
 7    1  0.1714203E-010  0.4778727E+02  0.7816164E-02  0.1312668E+00
        -11   -1    0    0    0    0  0.00000000000E+00  0.00000000000E+00  0.45593999997E+02  0.45594000000E+02  0.51100000000E-03 0. -1.
         11   -1    0    0    0    0 -0.00000000000E+00 -0.00000000000E+00 -0.45593999997E+02  0.45594000000E+02  0.51100000000E-03 0.  1.
    9900012    2    1    2    0    0 -0.25538504889E+02 -0.26186758297E+02  0.23359405413E+02  0.47787270013E+02  0.19999995298E+02 0.  0.
        -12    1    1    2    0    0  0.25538504889E+02  0.26186758297E+02 -0.23359405413E+02  0.43400729987E+02  0.00000000000E+00 0.  1.
         11    1    3    3    0    0 -0.22812624249E+02 -0.17622756034E+02  0.10006544768E+02  0.30514067146E+02  0.51100000000E-03 0. -1.
        -11    1    3    3    0    0  0.12858318484E+01  0.16144583991E+00  0.10628211752E+01  0.16760123547E+01  0.51100000000E-03 0.  1.
         12    1    3    3    0    0 -0.40117124889E+01 -0.87254481033E+01  0.12290039470E+02  0.15597190512E+02  0.00000000000E+00 0. -1.
</event>
<event>
 7    1  0.1714203E-010  0.4778727E+02  0.7816164E-02  0.1312668E+00
        -11   -1    0    0    0    0  0.00000000000E+00  0.00000000000E+00  0.45593999997E+02  0.45594000000E+02  0.51100000000E-03 0. -1.
         11   -1    0    0    0    0 -0.00000000000E+00 -0.00000000000E+00 -0.45593999997E+02  0.45594000000E+02  0.51100000000E-03 0.  1.
    9900012    2    1    2    0    0  0.29722533477E+02  0.22901673494E+02  0.21810718997E+02  0.47787272952E+02  0.20000008698E+02 0.  0.
        -12    1    1    2    0    0 -0.29722533477E+02 -0.22901673494E+02 -0.21810718997E+02  0.43400727048E+02  0.00000000000E+00 0.  1.
         11    1    3    3    0    0  0.40835757024E+01  0.62478130083E+01  0.52264340875E+00  0.74822399252E+01  0.51100000000E-03 0.  1.
        -11    1    3    3    0    0  0.14825117559E+02  0.11203286774E+02  0.21205091403E+02  0.28194922359E+02  0.51100000000E-03 0. -1.
         12    1    3    3    0    0  0.10813840216E+02  0.54505737124E+01  0.82984184889E-01  0.12110110668E+02  0.00000000000E+00 0. -1.
</event>
<event>
 7    1  0.1714203E-010  0.4778727E+02  0.7816164E-02  0.1312668E+00
        -11   -1    0    0    0    0  0.00000000000E+00  0.00000000000E+00  0.45593999997E+02  0.45594000000E+02  0.51100000000E-03 0.  1.
         11   -1    0    0    0    0 -0.00000000000E+00 -0.00000000000E+00 -0.45593999997E+02  0.45594000000E+02  0.51100000000E-03 0. -1.
    9900012    2    1    2    0    0  0.86262996135E+01 -0.29558749652E+02 -0.30585788797E+02  0.47787271868E+02  0.20000003756E+02 0.  0.
        -12    1    1    2    0    0 -0.86262996135E+01  0.29558749652E+02  0.30585788797E+02  0.43400728132E+02  0.00000000000E+00 0.  1.
         11    1    3    3    0    0 -0.12400415600E+01 -0.11476034167E+02 -0.50380476161E+01  0.12594403015E+02  0.51100000000E-03 0. -1.
        -11    1    3    3    0    0 -0.33447463304E+00 -0.24064321162E+01 -0.11626304339E+02  0.11877446765E+02  0.51100000000E-03 0.  1.
         12    1    3    3    0    0  0.10200815807E+02 -0.15676283369E+02 -0.13921436843E+02  0.23315422088E+02  0.00000000000E+00 0. -1.
</event>
<event>
 7    1  0.1714203E-010  0.4778727E+02  0.7816164E-02  0.1312668E+00
        -11   -1    0    0    0    0  0.00000000000E+00  0.00000000000E+00  0.45593999997E+02  0.45594000000E+02  0.51100000000E-03 0.  1.
         11   -1    0    0    0    0 -0.00000000000E+00 -0.00000000000E+00 -0.45593999997E+02  0.45594000000E+02  0.51100000000E-03 0. -1.
    9900012    2    1    2    0    0 -0.35020055697E+02  0.11794807205E+02 -0.22761850204E+02  0.47787267256E+02  0.19999982727E+02 0.  0.
        -12    1    1    2    0    0  0.35020055697E+02 -0.11794807205E+02  0.22761850204E+02  0.43400732744E+02  0.00000000000E+00 0.  1.
         11    1    3    3    0    0 -0.11245406418E+02  0.67130619492E+01 -0.10587603651E+02  0.16841072340E+02  0.51100000000E-03 0. -1.
        -11    1    3    3    0    0 -0.65382861380E+01 -0.49905990009E+01 -0.16901918313E+01  0.83971431272E+01  0.51100000000E-03 0.  1.
        -12    1    3    3    0    0 -0.17236363141E+02  0.10072344257E+02 -0.10484054722E+02  0.22549051789E+02  0.00000000000E+00 0.  1.
</event>
<event>
 7    1  0.1714203E-010  0.4778728E+02  0.7816164E-02  0.1312668E+00
        -11   -1    0    0    0    0  0.00000000000E+00  0.00000000000E+00  0.45593999997E+02  0.45594000000E+02  0.51100000000E-03 0.  1.
         11   -1    0    0    0    0 -0.00000000000E+00 -0.00000000000E+00 -0.45593999997E+02  0.45594000000E+02  0.51100000000E-03 0. -1.
    9900012    2    1    2    0    0  0.10401732419E+02  0.17994185447E+01 -0.42097373864E+02  0.47787276150E+02  0.20000023280E+02 0.  0.
        -12    1    1    2    0    0 -0.10401732419E+02 -0.17994185447E+01  0.42097373864E+02  0.43400723850E+02  0.00000000000E+00 0.  1.
         11    1    3    3    0    0 -0.17374735658E+01  0.43312808582E+01 -0.19842708612E+02  0.20384108849E+02  0.51100000000E-03 0. -1.
        -11    1    3    3    0    0 -0.11015700292E+01 -0.22495691264E+01 -0.55219670125E+01  0.60635086981E+01  0.51100000000E-03 0.  1.
         12    1    3    3    0    0  0.13240776014E+02 -0.28229318708E+00 -0.16732698240E+02  0.21339658603E+02  0.00000000000E+00 0. -1.
</event>
<event>
 7    1  0.1714203E-010  0.4778727E+02  0.7816164E-02  0.1312668E+00
        -11   -1    0    0    0    0  0.00000000000E+00  0.00000000000E+00  0.45593999997E+02  0.45594000000E+02  0.51100000000E-03 0. -1.
         11   -1    0    0    0    0 -0.00000000000E+00 -0.00000000000E+00 -0.45593999997E+02  0.45594000000E+02  0.51100000000E-03 0.  1.
    9900012    2    1    2    0    0 -0.39591666533E+02  0.12131934433E+02  0.12997672389E+02  0.47787269827E+02  0.19999994451E+02 0.  0.
        -12    1    1    2    0    0  0.39591666533E+02 -0.12131934433E+02 -0.12997672389E+02  0.43400730173E+02  0.00000000000E+00 0.  1.
         11    1    3    3    0    0 -0.25199567268E+02 -0.13267255335E+01  0.82626033217E+01  0.26552758897E+02  0.51100000000E-03 0. -1.
        -11    1    3    3    0    0 -0.23188880334E+00  0.28239424632E+01  0.15878299379E+01  0.32480190310E+01  0.51100000000E-03 0.  1.
         12    1    3    3    0    0 -0.14160210462E+02  0.10634717503E+02  0.31472391294E+01  0.17986491899E+02  0.00000000000E+00 0. -1.
</event>
<event>
 7    1  0.1771397E-010  0.4778728E+02  0.7816164E-02  0.1312668E+00
        -11   -1    0    0    0    0  0.00000000000E+00  0.00000000000E+00  0.45593999997E+02  0.45594000000E+02  0.51100000000E-03 0.  1.
         11   -1    0    0    0    0 -0.00000000000E+00 -0.00000000000E+00 -0.45593999997E+02  0.45594000000E+02  0.51100000000E-03 0. -1.
    9900012    2    1    2    0    0 -0.70019887244E+01  0.42455775965E+02 -0.56658705300E+01  0.47787275954E+02  0.20000022384E+02 0.  0.
        -12    1    1    2    0    0  0.70019887244E+01 -0.42455775965E+02  0.56658705300E+01  0.43400724046E+02  0.00000000000E+00 0.  1.
         11    1    3    3    0    0 -0.10499654702E+02  0.21572873255E+02 -0.71637578944E+00  0.24003016558E+02  0.51100000000E-03 0. -1.
        -11    1    3    3    0    0 -0.36627763269E-01  0.84318785684E+01 -0.66384746065E+01  0.10731601146E+02  0.51100000000E-03 0.  1.
        -12    1    3    3    0    0  0.35342937408E+01  0.12451024141E+02  0.16889798659E+01  0.13052658250E+02  0.00000000000E+00 0.  1.
</event>
<event>
 7    1  0.1714203E-010  0.4778727E+02  0.7816164E-02  0.1312668E+00
        -11   -1    0    0    0    0  0.00000000000E+00  0.00000000000E+00  0.45593999997E+02  0.45594000000E+02  0.51100000000E-03 0.  1.
         11   -1    0    0    0    0 -0.00000000000E+00 -0.00000000000E+00 -0.45593999997E+02  0.45594000000E+02  0.51100000000E-03 0. -1.
    9900012    2    1    2    0    0  0.33255196258E+02 -0.14949467532E+02 -0.23542062506E+02  0.47787269998E+02  0.19999995230E+02 0.  0.
        -12    1    1    2    0    0 -0.33255196258E+02  0.14949467532E+02  0.23542062506E+02  0.43400730002E+02  0.00000000000E+00 0.  1.
         11    1    3    3    0    0  0.12127401245E+02 -0.54249840261E+00 -0.11150394790E+02  0.16483308821E+02  0.51100000000E-03 0. -1.
        -11    1    3    3    0    0  0.17719258297E+02 -0.97107918105E+01 -0.32344374456E+01  0.20462970900E+02  0.51100000000E-03 0.  1.
         12    1    3    3    0    0  0.34085367156E+01 -0.46961773192E+01 -0.91572302708E+01  0.10840990277E+02  0.00000000000E+00 0. -1.
</event>
<event>
 7    1  0.1714203E-010  0.4778727E+02  0.7816164E-02  0.1312668E+00
        -11   -1    0    0    0    0  0.00000000000E+00  0.00000000000E+00  0.45593999997E+02  0.45594000000E+02  0.51100000000E-03 0. -1.
         11   -1    0    0    0    0 -0.00000000000E+00 -0.00000000000E+00 -0.45593999997E+02  0.45594000000E+02  0.51100000000E-03 0.  1.
    9900012    2    1    2    0    0 -0.24074981714E+02  0.35929460189E+02  0.36183490026E+01  0.47787270703E+02  0.19999998443E+02 0.  0.
        -12    1    1    2    0    0  0.24074981714E+02 -0.35929460189E+02 -0.36183490026E+01  0.43400729297E+02  0.00000000000E+00 0.  1.
         11    1    3    3    0    0 -0.20153245126E+02  0.35221776340E+02  0.35228628727E+01  0.40732510120E+02  0.51100000000E-03 0. -1.
        -11    1    3    3    0    0 -0.41136389235E+01  0.16390270399E+01 -0.19198031528E+01  0.48263940201E+01  0.51100000000E-03 0.  1.
        -12    1    3    3    0    0  0.19190233474E+00 -0.93134319039E+00  0.20152892827E+01  0.22283665626E+01  0.00000000000E+00 0.  1.
</event>
<event>
 7    1  0.1714203E-010  0.4778729E+02  0.7816164E-02  0.1312668E+00
        -11   -1    0    0    0    0  0.00000000000E+00  0.00000000000E+00  0.45593999997E+02  0.45594000000E+02  0.51100000000E-03 0.  1.
         11   -1    0    0    0    0 -0.00000000000E+00 -0.00000000000E+00 -0.45593999997E+02  0.45594000000E+02  0.51100000000E-03 0. -1.
    9900012    2    1    2    0    0  0.15314051602E+02 -0.39768383233E+02  0.82205440874E+01  0.47787287718E+02  0.20000076023E+02 0.  0.
        -12    1    1    2    0    0 -0.15314051602E+02  0.39768383233E+02 -0.82205440874E+01  0.43400712282E+02  0.00000000000E+00 0.  1.
         11    1    3    3    0    0 -0.26954852461E+01 -0.65675277254E+01  0.17621629667E+01  0.73145936127E+01  0.51100000000E-03 0. -1.
        -11    1    3    3    0    0  0.83384435760E+01 -0.51100733386E+01  0.43065250627E+01  0.10685908907E+02  0.51100000000E-03 0.  1.
         12    1    3    3    0    0  0.96710932721E+01 -0.28090782169E+02  0.21518560580E+01  0.29786785198E+02  0.00000000000E+00 0. -1.
</event>
<event>
 7    1  0.1714203E-010  0.4778728E+02  0.7816164E-02  0.1312668E+00
        -11   -1    0    0    0    0  0.00000000000E+00  0.00000000000E+00  0.45593999997E+02  0.45594000000E+02  0.51100000000E-03 0.  1.
         11   -1    0    0    0    0 -0.00000000000E+00 -0.00000000000E+00 -0.45593999997E+02  0.45594000000E+02  0.51100000000E-03 0. -1.
    9900012    2    1    2    0    0 -0.68658368467E+01  0.26222039650E+02 -0.33895247069E+02  0.47787275895E+02  0.20000022114E+02 0.  0.
        -12    1    1    2    0    0  0.68658368467E+01 -0.26222039650E+02  0.33895247069E+02  0.43400724105E+02  0.00000000000E+00 0.  1.
         11    1    3    3    0    0 -0.17191767545E+01  0.22622273773E+02 -0.25358897782E+02  0.34026409396E+02  0.51100000000E-03 0. -1.
        -11    1    3    3    0    0  0.24921805562E+01  0.68968981362E+00 -0.16054981509E+01  0.30437247802E+01  0.51100000000E-03 0.  1.
        -12    1    3    3    0    0 -0.76388406484E+01  0.29100760627E+01 -0.69308511363E+01  0.10717141719E+02  0.00000000000E+00 0.  1.
</event>
<event>
 7    1  0.1714203E-010  0.4778728E+02  0.7816164E-02  0.1312668E+00
        -11   -1    0    0    0    0  0.00000000000E+00  0.00000000000E+00  0.45593999997E+02  0.45594000000E+02  0.51100000000E-03 0.  1.
         11   -1    0    0    0    0 -0.00000000000E+00 -0.00000000000E+00 -0.45593999997E+02  0.45594000000E+02  0.51100000000E-03 0. -1.
    9900012    2    1    2    0    0  0.34757917011E+02  0.38487742430E+01 -0.25704025902E+02  0.47787276439E+02  0.20000024594E+02 0.  0.
        -12    1    1    2    0    0 -0.34757917011E+02 -0.38487742430E+01  0.25704025902E+02  0.43400723561E+02  0.00000000000E+00 0.  1.
         11    1    3    3    0    0 -0.13510306406E+01  0.44734886494E+00 -0.46993845460E+00  0.14987485483E+01  0.51100000000E-03 0. -1.
        -11    1    3    3    0    0  0.20693999515E+02  0.83664704732E+01 -0.11808086317E+02  0.25252135491E+02  0.51100000000E-03 0.  1.
        -12    1    3    3    0    0  0.15414948136E+02 -0.49650450951E+01 -0.13426001130E+02  0.21036392399E+02  0.00000000000E+00 0.  1.
</event>
<event>
 7    1  0.1714203E-010  0.4778727E+02  0.7816164E-02  0.1312668E+00
        -11   -1    0    0    0    0  0.00000000000E+00  0.00000000000E+00  0.45593999997E+02  0.45594000000E+02  0.51100000000E-03 0. -1.
         11   -1    0    0    0    0 -0.00000000000E+00 -0.00000000000E+00 -0.45593999997E+02  0.45594000000E+02  0.51100000000E-03 0.  1.
    9900012    2    1    2    0    0 -0.14991627445E+02  0.40466913889E+02  0.46155366513E+01  0.47787271991E+02  0.20000004316E+02 0.  0.
        -12    1    1    2    0    0  0.14991627445E+02 -0.40466913889E+02 -0.46155366513E+01  0.43400728009E+02  0.00000000000E+00 0.  1.
         11    1    3    3    0    0 -0.10232943636E+01  0.11614287366E+02  0.10410460616E+01  0.11705664421E+02  0.51100000000E-03 0. -1.
        -11    1    3    3    0    0  0.63986075523E+00  0.15151111302E+02  0.50901205903E+01  0.15996090877E+02  0.51100000000E-03 0.  1.
         12    1    3    3    0    0 -0.14608193837E+02  0.13701515220E+02 -0.15156300006E+01  0.20085516692E+02  0.00000000000E+00 0. -1.
</event>
<event>
 7    1  0.1714203E-010  0.4778727E+02  0.7816164E-02  0.1312668E+00
        -11   -1    0    0    0    0  0.00000000000E+00  0.00000000000E+00  0.45593999997E+02  0.45594000000E+02  0.51100000000E-03 0.  1.
         11   -1    0    0    0    0 -0.00000000000E+00 -0.00000000000E+00 -0.45593999997E+02  0.45594000000E+02  0.51100000000E-03 0. -1.
    9900012    2    1    2    0    0  0.48922830733E+01 -0.40898220343E+02  0.13675684842E+02  0.47787271702E+02  0.20000002999E+02 0.  0.
        -12    1    1    2    0    0 -0.48922830733E+01  0.40898220343E+02 -0.13675684842E+02  0.43400728298E+02  0.00000000000E+00 0.  1.
         11    1    3    3    0    0  0.27273614285E+01 -0.19900151019E+02  0.10372157699E+02  0.22606109054E+02  0.51100000000E-03 0.  1.
        -11    1    3    3    0    0  0.43452217304E+01 -0.17874756815E+02 -0.21591573173E+01  0.18521604781E+02  0.51100000000E-03 0. -1.
         12    1    3    3    0    0 -0.21803000856E+01 -0.31233125094E+01  0.54626844595E+01  0.66595578681E+01  0.00000000000E+00 0. -1.
</event>
<event>
 7    1  0.1714203E-010  0.4778727E+02  0.7816164E-02  0.1312668E+00
        -11   -1    0    0    0    0  0.00000000000E+00  0.00000000000E+00  0.45593999997E+02  0.45594000000E+02  0.51100000000E-03 0.  1.
         11   -1    0    0    0    0 -0.00000000000E+00 -0.00000000000E+00 -0.45593999997E+02  0.45594000000E+02  0.51100000000E-03 0. -1.
    9900012    2    1    2    0    0 -0.94695936489E+01 -0.24103398167E+02 -0.34827808804E+02  0.47787271053E+02  0.20000000037E+02 0.  0.
        -12    1    1    2    0    0  0.94695936489E+01  0.24103398167E+02  0.34827808804E+02  0.43400728947E+02  0.00000000000E+00 0.  1.
         11    1    3    3    0    0 -0.12886730807E+01 -0.95120286563E+01 -0.14137378099E+02  0.17088148737E+02  0.51100000000E-03 0. -1.
        -11    1    3    3    0    0 -0.10631457127E+02 -0.39056940316E+01 -0.76744763138E+01  0.13681371037E+02  0.51100000000E-03 0.  1.
         12    1    3    3    0    0  0.24505365585E+01 -0.10685675479E+02 -0.13015954391E+02  0.17017751279E+02  0.00000000000E+00 0. -1.
</event>
<event>
 7    1  0.1714203E-010  0.4778728E+02  0.7816164E-02  0.1312668E+00
        -11   -1    0    0    0    0  0.00000000000E+00  0.00000000000E+00  0.45593999997E+02  0.45594000000E+02  0.51100000000E-03 0.  1.
         11   -1    0    0    0    0 -0.00000000000E+00 -0.00000000000E+00 -0.45593999997E+02  0.45594000000E+02  0.51100000000E-03 0. -1.
    9900012    2    1    2    0    0 -0.30213644881E+02  0.54348272741E+01 -0.30679325191E+02  0.47787277902E+02  0.20000031265E+02 0.  0.
        -12    1    1    2    0    0  0.30213644881E+02 -0.54348272741E+01  0.30679325191E+02  0.43400722098E+02  0.00000000000E+00 0.  1.
         11    1    3    3    0    0 -0.20506382900E+02 -0.95154178659E-01 -0.25916916979E+02  0.33048560936E+02  0.51100000000E-03 0. -1.
        -11    1    3    3    0    0 -0.92888662753E+01  0.13401025977E+01 -0.17137771965E+01  0.95402276804E+01  0.51100000000E-03 0.  1.
        -12    1    3    3    0    0 -0.41839570566E+00  0.41898788551E+01 -0.30486310149E+01  0.51984892856E+01  0.00000000000E+00 0.  1.
</event>
<event>
 7    1  0.1714203E-010  0.4778727E+02  0.7816164E-02  0.1312668E+00
        -11   -1    0    0    0    0  0.00000000000E+00  0.00000000000E+00  0.45593999997E+02  0.45594000000E+02  0.51100000000E-03 0.  1.
         11   -1    0    0    0    0 -0.00000000000E+00 -0.00000000000E+00 -0.45593999997E+02  0.45594000000E+02  0.51100000000E-03 0. -1.
    9900012    2    1    2    0    0  0.10813472048E+02 -0.10235487748E+02 -0.40766741393E+02  0.47787267391E+02  0.19999983344E+02 0.  0.
        -12    1    1    2    0    0 -0.10813472048E+02  0.10235487748E+02  0.40766741393E+02  0.43400732609E+02  0.00000000000E+00 0.  1.
         11    1    3    3    0    0 -0.22153937304E+00  0.65906854069E+00  0.52696876981E+00  0.87243760843E+00  0.51100000000E-03 0. -1.
        -11    1    3    3    0    0  0.80044186525E+01  0.25983106388E+01 -0.16658583037E+02  0.18663609651E+02  0.51100000000E-03 0.  1.
         12    1    3    3    0    0  0.30305927687E+01 -0.13492866927E+02 -0.24635127126E+02  0.28251220132E+02  0.00000000000E+00 0. -1.
</event>
<event>
 7    1  0.1714203E-010  0.4778727E+02  0.7816164E-02  0.1312668E+00
        -11   -1    0    0    0    0  0.00000000000E+00  0.00000000000E+00  0.45593999997E+02  0.45594000000E+02  0.51100000000E-03 0.  1.
         11   -1    0    0    0    0 -0.00000000000E+00 -0.00000000000E+00 -0.45593999997E+02  0.45594000000E+02  0.51100000000E-03 0. -1.
    9900012    2    1    2    0    0 -0.11382862850E+02 -0.37626057840E+02 -0.18393849688E+02  0.47787268421E+02  0.19999988040E+02 0.  0.
        -12    1    1    2    0    0  0.11382862850E+02  0.37626057840E+02  0.18393849688E+02  0.43400731579E+02  0.00000000000E+00 0.  1.
         11    1    3    3    0    0 -0.11444979674E+01 -0.27425591036E+02 -0.87374209521E+01  0.28806517395E+02  0.51100000000E-03 0. -1.
        -11    1    3    3    0    0 -0.60338206655E+01 -0.10302418336E+02 -0.83759914393E+01  0.14584376855E+02  0.51100000000E-03 0.  1.
        -12    1    3    3    0    0 -0.42045442168E+01  0.10195153184E+00 -0.12804372965E+01  0.43963741716E+01  0.00000000000E+00 0.  1.
</event>
<event>
 7    1  0.1714203E-010  0.4778727E+02  0.7816164E-02  0.1312668E+00
        -11   -1    0    0    0    0  0.00000000000E+00  0.00000000000E+00  0.45593999997E+02  0.45594000000E+02  0.51100000000E-03 0.  1.
         11   -1    0    0    0    0 -0.00000000000E+00 -0.00000000000E+00 -0.45593999997E+02  0.45594000000E+02  0.51100000000E-03 0. -1.
    9900012    2    1    2    0    0 -0.14952846091E+02 -0.58971679103E+01 -0.40314505244E+02  0.47787268109E+02  0.19999986615E+02 0.  0.
        -12    1    1    2    0    0  0.14952846091E+02  0.58971679103E+01  0.40314505244E+02  0.43400731891E+02  0.00000000000E+00 0.  1.
         11    1    3    3    0    0 -0.68581474242E+00 -0.55298489367E+01 -0.57763075548E+01  0.80259143001E+01  0.51100000000E-03 0. -1.
        -11    1    3    3    0    0 -0.14736229915E+02 -0.44945736489E+01 -0.29001630875E+02  0.32839796864E+02  0.51100000000E-03 0.  1.
        -12    1    3    3    0    0  0.46919856585E+00  0.41272546754E+01 -0.55365668143E+01  0.69215569447E+01  0.00000000000E+00 0.  1.
</event>
<event>
 7    1  0.1714203E-010  0.4778726E+02  0.7816164E-02  0.1312668E+00
        -11   -1    0    0    0    0  0.00000000000E+00  0.00000000000E+00  0.45593999997E+02  0.45594000000E+02  0.51100000000E-03 0.  1.
         11   -1    0    0    0    0 -0.00000000000E+00 -0.00000000000E+00 -0.45593999997E+02  0.45594000000E+02  0.51100000000E-03 0. -1.
    9900012    2    1    2    0    0 -0.59367502853E+01 -0.12612252418E+02 -0.41101218122E+02  0.47787262148E+02  0.19999959437E+02 0.  0.
        -12    1    1    2    0    0  0.59367502853E+01  0.12612252418E+02  0.41101218122E+02  0.43400737852E+02  0.00000000000E+00 0.  1.
         11    1    3    3    0    0 -0.48576695137E+01 -0.90525530555E+00 -0.20268906586E+01  0.53408544518E+01  0.51100000000E-03 0.  1.
        -11    1    3    3    0    0  0.31251058901E+01 -0.11542712599E+02 -0.32610000232E+02  0.34733450971E+02  0.51100000000E-03 0. -1.
         12    1    3    3    0    0 -0.42041866617E+01 -0.16428451345E+00 -0.64643272316E+01  0.77129567252E+01  0.00000000000E+00 0. -1.
</event>
<event>
 7    1  0.1714203E-010  0.4778727E+02  0.7816164E-02  0.1312668E+00
        -11   -1    0    0    0    0  0.00000000000E+00  0.00000000000E+00  0.45593999997E+02  0.45594000000E+02  0.51100000000E-03 0. -1.
         11   -1    0    0    0    0 -0.00000000000E+00 -0.00000000000E+00 -0.45593999997E+02  0.45594000000E+02  0.51100000000E-03 0.  1.
    9900012    2    1    2    0    0  0.68493669802E+01  0.42744939010E+02  0.30951120853E+01  0.47787270077E+02  0.19999995591E+02 0.  0.
        -12    1    1    2    0    0 -0.68493669802E+01 -0.42744939010E+02 -0.30951120853E+01  0.43400729923E+02  0.00000000000E+00 0.  1.
         11    1    3    3    0    0  0.89026631432E+01  0.28194531370E+02  0.50130058354E+01  0.29988651820E+02  0.51100000000E-03 0. -1.
        -11    1    3    3    0    0 -0.26972906506E+01  0.15362721313E+02  0.23583163852E-01  0.15597728663E+02  0.51100000000E-03 0.  1.
        -12    1    3    3    0    0  0.64399448759E+00 -0.81231367300E+00 -0.19414769139E+01  0.22008895953E+01  0.00000000000E+00 0.  1.
</event>
<event>
 7    1  0.1714203E-010  0.4778727E+02  0.7816164E-02  0.1312668E+00
        -11   -1    0    0    0    0  0.00000000000E+00  0.00000000000E+00  0.45593999997E+02  0.45594000000E+02  0.51100000000E-03 0. -1.
         11   -1    0    0    0    0 -0.00000000000E+00 -0.00000000000E+00 -0.45593999997E+02  0.45594000000E+02  0.51100000000E-03 0.  1.
    9900012    2    1    2    0    0 -0.25835630589E+02  0.12196000008E+02  0.32671099801E+02  0.47787274358E+02  0.20000015106E+02 0.  0.
        -12    1    1    2    0    0  0.25835630589E+02 -0.12196000008E+02 -0.32671099801E+02  0.43400725642E+02  0.00000000000E+00 0.  1.
         11    1    3    3    0    0 -0.30170715695E+01 -0.46369218607E+00  0.78527933475E+01  0.84252059274E+01  0.51100000000E-03 0. -1.
        -11    1    3    3    0    0 -0.11093241480E+02 -0.24466662740E+01  0.79823722295E+01  0.13883963737E+02  0.51100000000E-03 0.  1.
         12    1    3    3    0    0 -0.11725317539E+02  0.15106358468E+02  0.16835934224E+02  0.25478104693E+02  0.00000000000E+00 0. -1.
</event>
<event>
 7    1  0.1714203E-010  0.4778727E+02  0.7816164E-02  0.1312668E+00
        -11   -1    0    0    0    0  0.00000000000E+00  0.00000000000E+00  0.45593999997E+02  0.45594000000E+02  0.51100000000E-03 0.  1.
         11   -1    0    0    0    0 -0.00000000000E+00 -0.00000000000E+00 -0.45593999997E+02  0.45594000000E+02  0.51100000000E-03 0. -1.
    9900012    2    1    2    0    0  0.38903122821E+02  0.95175305245E+01 -0.16720847008E+02  0.47787273310E+02  0.20000010332E+02 0.  0.
        -12    1    1    2    0    0 -0.38903122821E+02 -0.95175305245E+01  0.16720847008E+02  0.43400726690E+02  0.00000000000E+00 0.  1.
         11    1    3    3    0    0  0.22352946847E+02  0.13453309427E+02 -0.15147865263E+02  0.30167923189E+02  0.51100000000E-03 0. -1.
        -11    1    3    3    0    0  0.39708846404E+01 -0.25228190760E+01  0.70672252695E+00  0.47573099446E+01  0.51100000000E-03 0.  1.
        -12    1    3    3    0    0  0.12579291334E+02 -0.14129598264E+01 -0.22797042722E+01  0.12862040177E+02  0.00000000000E+00 0.  1.
</event>
<event>
 7    1  0.1714203E-010  0.4778727E+02  0.7816164E-02  0.1312668E+00
        -11   -1    0    0    0    0  0.00000000000E+00  0.00000000000E+00  0.45593999997E+02  0.45594000000E+02  0.51100000000E-03 0.  1.
         11   -1    0    0    0    0 -0.00000000000E+00 -0.00000000000E+00 -0.45593999997E+02  0.45594000000E+02  0.51100000000E-03 0. -1.
    9900012    2    1    2    0    0  0.14210448782E+02  0.20719777792E+02 -0.35388944706E+02  0.47787268973E+02  0.19999990553E+02 0.  0.
        -12    1    1    2    0    0 -0.14210448782E+02 -0.20719777792E+02  0.35388944706E+02  0.43400731027E+02  0.00000000000E+00 0.  1.
         11    1    3    3    0    0  0.30066846351E+01 -0.25921997240E+01 -0.83725989450E+01  0.92660706483E+01  0.51100000000E-03 0. -1.
        -11    1    3    3    0    0  0.85234290237E+01  0.82443928016E+01 -0.90301730335E+01  0.14905129327E+02  0.51100000000E-03 0.  1.
        -12    1    3    3    0    0  0.26803351236E+01  0.15067584714E+02 -0.17986172727E+02  0.23616068997E+02  0.00000000000E+00 0.  1.
</event>
<event>
 7    1  0.1714203E-010  0.4778727E+02  0.7816164E-02  0.1312668E+00
        -11   -1    0    0    0    0  0.00000000000E+00  0.00000000000E+00  0.45593999997E+02  0.45594000000E+02  0.51100000000E-03 0.  1.
         11   -1    0    0    0    0 -0.00000000000E+00 -0.00000000000E+00 -0.45593999997E+02  0.45594000000E+02  0.51100000000E-03 0. -1.
    9900012    2    1    2    0    0  0.19635819271E+02 -0.37390061207E+02 -0.10002067873E+02  0.47787269162E+02  0.19999991419E+02 0.  0.
        -12    1    1    2    0    0 -0.19635819271E+02  0.37390061207E+02  0.10002067873E+02  0.43400730838E+02  0.00000000000E+00 0.  1.
         11    1    3    3    0    0 -0.70499376547E+00  0.54569280416E+00 -0.20266938141E+01  0.22141104135E+01  0.51100000000E-03 0. -1.
        -11    1    3    3    0    0  0.15773696960E-01  0.89082384166E+00 -0.73354381658E+00  0.11540808977E+01  0.51100000000E-03 0.  1.
         12    1    3    3    0    0  0.20325039339E+02 -0.38826577853E+02 -0.72418302428E+01  0.44419077851E+02  0.00000000000E+00 0. -1.
</event>
<event>
 7    1  0.1714203E-010  0.4778727E+02  0.7816164E-02  0.1312668E+00
        -11   -1    0    0    0    0  0.00000000000E+00  0.00000000000E+00  0.45593999997E+02  0.45594000000E+02  0.51100000000E-03 0.  1.
         11   -1    0    0    0    0 -0.00000000000E+00 -0.00000000000E+00 -0.45593999997E+02  0.45594000000E+02  0.51100000000E-03 0. -1.
    9900012    2    1    2    0    0 -0.14777460341E+02  0.38967645082E+02 -0.12114970120E+02  0.47787271914E+02  0.20000003965E+02 0.  0.
        -12    1    1    2    0    0  0.14777460341E+02 -0.38967645082E+02  0.12114970120E+02  0.43400728086E+02  0.00000000000E+00 0.  1.
         11    1    3    3    0    0 -0.47294419713E+01  0.23043759916E+02 -0.38532404908E+01  0.23837574435E+02  0.51100000000E-03 0. -1.
        -11    1    3    3    0    0 -0.10437579494E+02  0.11765250852E+02 -0.12362017245E+01  0.15776323661E+02  0.51100000000E-03 0.  1.
        -12    1    3    3    0    0  0.38956112359E+00  0.41586343144E+01 -0.70255279044E+01  0.81733738178E+01  0.00000000000E+00 0.  1.
</event>
<event>
 7    1  0.1714203E-010  0.4778727E+02  0.7816164E-02  0.1312668E+00
        -11   -1    0    0    0    0  0.00000000000E+00  0.00000000000E+00  0.45593999997E+02  0.45594000000E+02  0.51100000000E-03 0.  1.
         11   -1    0    0    0    0 -0.00000000000E+00 -0.00000000000E+00 -0.45593999997E+02  0.45594000000E+02  0.51100000000E-03 0. -1.
    9900012    2    1    2    0    0  0.95943499987E+01  0.17034879844E+02 -0.38747705867E+02  0.47787269671E+02  0.19999993737E+02 0.  0.
        -12    1    1    2    0    0 -0.95943499987E+01 -0.17034879844E+02  0.38747705867E+02  0.43400730329E+02  0.00000000000E+00 0.  1.
         11    1    3    3    0    0  0.74491185729E+01  0.19049982973E+01 -0.11220617160E+02  0.13602229073E+02  0.51100000000E-03 0. -1.
        -11    1    3    3    0    0 -0.41629126209E+01  0.12917887790E+01 -0.10422514220E+02  0.11297228097E+02  0.51100000000E-03 0.  1.
        -12    1    3    3    0    0  0.63081440466E+01  0.13838092767E+02 -0.17104574486E+02  0.22887812502E+02  0.00000000000E+00 0.  1.
</event>
<event>
 7    1  0.1714203E-010  0.4778727E+02  0.7816164E-02  0.1312668E+00
        -11   -1    0    0    0    0  0.00000000000E+00  0.00000000000E+00  0.45593999997E+02  0.45594000000E+02  0.51100000000E-03 0. -1.
         11   -1    0    0    0    0 -0.00000000000E+00 -0.00000000000E+00 -0.45593999997E+02  0.45594000000E+02  0.51100000000E-03 0.  1.
    9900012    2    1    2    0    0 -0.33540065520E+02 -0.20645267406E+02 -0.18233499984E+02  0.47787267483E+02  0.19999983761E+02 0.  0.
        -12    1    1    2    0    0  0.33540065520E+02  0.20645267406E+02  0.18233499984E+02  0.43400732517E+02  0.00000000000E+00 0.  1.
         11    1    3    3    0    0 -0.35794381330E+00  0.31720058573E-02 -0.15447860023E+01  0.15857168376E+01  0.51100000000E-03 0. -1.
        -11    1    3    3    0    0 -0.32062847894E+01  0.12106179984E+01 -0.70985919291E+01  0.78826306349E+01  0.51100000000E-03 0.  1.
         12    1    3    3    0    0 -0.29975836917E+02 -0.21859057411E+02 -0.95901220526E+01  0.38318920010E+02  0.00000000000E+00 0. -1.
</event>
<event>
 7    1  0.1714203E-010  0.4778727E+02  0.7816164E-02  0.1312668E+00
        -11   -1    0    0    0    0  0.00000000000E+00  0.00000000000E+00  0.45593999997E+02  0.45594000000E+02  0.51100000000E-03 0.  1.
         11   -1    0    0    0    0 -0.00000000000E+00 -0.00000000000E+00 -0.45593999997E+02  0.45594000000E+02  0.51100000000E-03 0. -1.
    9900012    2    1    2    0    0  0.11141712298E+02 -0.12809758028E+02 -0.39942406084E+02  0.47787268929E+02  0.19999990356E+02 0.  0.
        -12    1    1    2    0    0 -0.11141712298E+02  0.12809758028E+02  0.39942406084E+02  0.43400731071E+02  0.00000000000E+00 0.  1.
         11    1    3    3    0    0  0.71963249819E+01 -0.97499715079E+01 -0.32142181116E+02  0.34350674590E+02  0.51100000000E-03 0. -1.
        -11    1    3    3    0    0  0.68920138350E+01 -0.83340563909E+00 -0.65309663834E+01  0.95314186680E+01  0.51100000000E-03 0.  1.
        -12    1    3    3    0    0 -0.29466265187E+01 -0.22263808810E+01 -0.12692585852E+01  0.39051756713E+01  0.00000000000E+00 0.  1.
</event>
<event>
 7    1  0.1714203E-010  0.4778727E+02  0.7816164E-02  0.1312668E+00
        -11   -1    0    0    0    0  0.00000000000E+00  0.00000000000E+00  0.45593999997E+02  0.45594000000E+02  0.51100000000E-03 0.  1.
         11   -1    0    0    0    0 -0.00000000000E+00 -0.00000000000E+00 -0.45593999997E+02  0.45594000000E+02  0.51100000000E-03 0. -1.
    9900012    2    1    2    0    0 -0.37975772894E+02  0.18277087869E+02 -0.10363975551E+02  0.47787271238E+02  0.20000000883E+02 0.  0.
        -12    1    1    2    0    0  0.37975772894E+02 -0.18277087869E+02  0.10363975551E+02  0.43400728762E+02  0.00000000000E+00 0.  1.
         11    1    3    3    0    0 -0.21767882361E+02  0.20820353911E+01 -0.73726526031E+01  0.23076645781E+02  0.51100000000E-03 0.  1.
        -11    1    3    3    0    0 -0.65458817891E+01  0.83927027328E+01 -0.55906508103E+01  0.12022537349E+02  0.51100000000E-03 0. -1.
        -12    1    3    3    0    0 -0.96620087437E+01  0.78023497446E+01  0.25993278626E+01  0.12688088108E+02  0.00000000000E+00 0.  1.
</event>
<event>
 7    1  0.1714203E-010  0.4778727E+02  0.7816164E-02  0.1312668E+00
        -11   -1    0    0    0    0  0.00000000000E+00  0.00000000000E+00  0.45593999997E+02  0.45594000000E+02  0.51100000000E-03 0.  1.
         11   -1    0    0    0    0 -0.00000000000E+00 -0.00000000000E+00 -0.45593999997E+02  0.45594000000E+02  0.51100000000E-03 0. -1.
    9900012    2    1    2    0    0 -0.26548149735E+02 -0.18014316205E+02 -0.29228465013E+02  0.47787274088E+02  0.20000013875E+02 0.  0.
        -12    1    1    2    0    0  0.26548149735E+02  0.18014316205E+02  0.29228465013E+02  0.43400725912E+02  0.00000000000E+00 0.  1.
         11    1    3    3    0    0 -0.54555108570E+01  0.81717138913E-01 -0.11496337577E+02  0.12725370499E+02  0.51100000000E-03 0. -1.
        -11    1    3    3    0    0 -0.16152808786E+02 -0.14505077455E+02 -0.18970643150E+02  0.28830466619E+02  0.51100000000E-03 0.  1.
        -12    1    3    3    0    0 -0.49398300920E+01 -0.35909558892E+01  0.12385157137E+01  0.62314369699E+01  0.00000000000E+00 0.  1.
</event>
<event>
 7    1  0.1714203E-010  0.4778727E+02  0.7816164E-02  0.1312668E+00
        -11   -1    0    0    0    0  0.00000000000E+00  0.00000000000E+00  0.45593999997E+02  0.45594000000E+02  0.51100000000E-03 0.  1.
         11   -1    0    0    0    0 -0.00000000000E+00 -0.00000000000E+00 -0.45593999997E+02  0.45594000000E+02  0.51100000000E-03 0. -1.
    9900012    2    1    2    0    0 -0.33007130961E+02  0.28148281583E+02  0.13515676556E+01  0.47787272062E+02  0.20000004642E+02 0.  0.
        -12    1    1    2    0    0  0.33007130961E+02 -0.28148281583E+02 -0.13515676556E+01  0.43400727938E+02  0.00000000000E+00 0.  1.
         11    1    3    3    0    0 -0.15298780107E+02  0.12591874240E+02  0.99370150999E+01  0.22166466543E+02  0.51100000000E-03 0.  1.
        -11    1    3    3    0    0 -0.11007536517E+02  0.85765223765E+01 -0.24609650496E+01  0.14169648743E+02  0.51100000000E-03 0. -1.
        -12    1    3    3    0    0 -0.67008143368E+01  0.69798849667E+01 -0.61244823947E+01  0.11451156777E+02  0.00000000000E+00 0.  1.
</event>
<event>
 7    1  0.1714203E-010  0.4778728E+02  0.7816164E-02  0.1312668E+00
        -11   -1    0    0    0    0  0.00000000000E+00  0.00000000000E+00  0.45593999997E+02  0.45594000000E+02  0.51100000000E-03 0. -1.
         11   -1    0    0    0    0 -0.00000000000E+00 -0.00000000000E+00 -0.45593999997E+02  0.45594000000E+02  0.51100000000E-03 0.  1.
    9900012    2    1    2    0    0 -0.15735698333E+02 -0.22128886227E+02  0.33857389487E+02  0.47787278456E+02  0.20000033793E+02 0.  0.
        -12    1    1    2    0    0  0.15735698333E+02  0.22128886227E+02 -0.33857389487E+02  0.43400721544E+02  0.00000000000E+00 0.  1.
         11    1    3    3    0    0 -0.53971996522E+01 -0.58519496452E+01  0.93322344395E+01  0.12266445232E+02  0.51100000000E-03 0. -1.
        -11    1    3    3    0    0 -0.14360063270E+02 -0.78903443376E+01  0.15183441243E+02  0.22338438601E+02  0.51100000000E-03 0.  1.
         12    1    3    3    0    0  0.40215645891E+01 -0.83865922437E+01  0.93417138039E+01  0.13182394623E+02  0.00000000000E+00 0. -1.
</event>
<event>
 7    1  0.1714203E-010  0.4778728E+02  0.7816164E-02  0.1312668E+00
        -11   -1    0    0    0    0  0.00000000000E+00  0.00000000000E+00  0.45593999997E+02  0.45594000000E+02  0.51100000000E-03 0.  1.
         11   -1    0    0    0    0 -0.00000000000E+00 -0.00000000000E+00 -0.45593999997E+02  0.45594000000E+02  0.51100000000E-03 0. -1.
    9900012    2    1    2    0    0  0.11130844256E+02 -0.37149218461E+02 -0.19484920114E+02  0.47787282979E+02  0.20000054414E+02 0.  0.
        -12    1    1    2    0    0 -0.11130844256E+02  0.37149218461E+02  0.19484920114E+02  0.43400717021E+02  0.00000000000E+00 0.  1.
         11    1    3    3    0    0  0.11275255762E+02 -0.29138973217E+02 -0.20997313488E+02  0.37644366466E+02  0.51100000000E-03 0. -1.
        -11    1    3    3    0    0 -0.29809577693E+01 -0.41429317990E+01 -0.33021542290E-01  0.51040262340E+01  0.51100000000E-03 0.  1.
        -12    1    3    3    0    0  0.28365462633E+01 -0.38673134443E+01  0.15454149162E+01  0.50388902790E+01  0.00000000000E+00 0.  1.
</event>
<event>
 7    1  0.1714203E-010  0.4778727E+02  0.7816164E-02  0.1312668E+00
        -11   -1    0    0    0    0  0.00000000000E+00  0.00000000000E+00  0.45593999997E+02  0.45594000000E+02  0.51100000000E-03 0.  1.
         11   -1    0    0    0    0 -0.00000000000E+00 -0.00000000000E+00 -0.45593999997E+02  0.45594000000E+02  0.51100000000E-03 0. -1.
    9900012    2    1    2    0    0 -0.27116562227E+02  0.11519168960E+02 -0.31868857997E+02  0.47787270621E+02  0.19999998071E+02 0.  0.
        -12    1    1    2    0    0  0.27116562227E+02 -0.11519168960E+02  0.31868857997E+02  0.43400729379E+02  0.00000000000E+00 0.  1.
         11    1    3    3    0    0 -0.99966186637E+00 -0.74448988498E+00 -0.25745851883E+01  0.28604332170E+01  0.51100000000E-03 0. -1.
        -11    1    3    3    0    0 -0.20348867296E+02  0.17065391816E+02 -0.22836363098E+02  0.35025754494E+02  0.51100000000E-03 0.  1.
        -12    1    3    3    0    0 -0.57680330649E+01 -0.48017329710E+01 -0.64579097109E+01  0.99010829103E+01  0.00000000000E+00 0.  1.
</event>
<event>
 7    1  0.1714203E-010  0.4778728E+02  0.7816164E-02  0.1312668E+00
        -11   -1    0    0    0    0  0.00000000000E+00  0.00000000000E+00  0.45593999997E+02  0.45594000000E+02  0.51100000000E-03 0.  1.
         11   -1    0    0    0    0 -0.00000000000E+00 -0.00000000000E+00 -0.45593999997E+02  0.45594000000E+02  0.51100000000E-03 0. -1.
    9900012    2    1    2    0    0 -0.33602923104E+01  0.33843035088E+02 -0.26962566781E+02  0.47787278856E+02  0.20000035617E+02 0.  0.
        -12    1    1    2    0    0  0.33602923104E+01 -0.33843035088E+02  0.26962566781E+02  0.43400721144E+02  0.00000000000E+00 0.  1.
         11    1    3    3    0    0 -0.28322641229E+01  0.12707198006E+02 -0.15304876373E+02  0.20093129231E+02  0.51100000000E-03 0. -1.
        -11    1    3    3    0    0  0.58483375846E+01  0.15427323747E+02 -0.86037339857E+01  0.18607246149E+02  0.51100000000E-03 0.  1.
         12    1    3    3    0    0 -0.63763657721E+01  0.57085133351E+01 -0.30539564219E+01  0.90869034760E+01  0.00000000000E+00 0. -1.
</event>
<event>
 7    1  0.1714203E-010  0.4778726E+02  0.7816164E-02  0.1312668E+00
        -11   -1    0    0    0    0  0.00000000000E+00  0.00000000000E+00  0.45593999997E+02  0.45594000000E+02  0.51100000000E-03 0. -1.
         11   -1    0    0    0    0 -0.00000000000E+00 -0.00000000000E+00 -0.45593999997E+02  0.45594000000E+02  0.51100000000E-03 0.  1.
    9900012    2    1    2    0    0  0.34492201373E+02  0.92931262561E+01  0.24648523314E+02  0.47787264376E+02  0.19999969596E+02 0.  0.
        -12    1    1    2    0    0 -0.34492201373E+02 -0.92931262561E+01 -0.24648523314E+02  0.43400735624E+02  0.00000000000E+00 0.  1.
         11    1    3    3    0    0  0.13310809560E+02 -0.12489623230E+01  0.53629595243E+01  0.14404821872E+02  0.51100000000E-03 0. -1.
        -11    1    3    3    0    0  0.96401056791E+01 -0.10400732871E+01  0.12144349475E+02  0.15540225686E+02  0.51100000000E-03 0.  1.
        -12    1    3    3    0    0  0.11541286133E+02  0.11582161866E+02  0.71412143150E+01  0.17842216819E+02  0.00000000000E+00 0.  1.
</event>
<event>
 7    1  0.1714203E-010  0.4778727E+02  0.7816164E-02  0.1312668E+00
        -11   -1    0    0    0    0  0.00000000000E+00  0.00000000000E+00  0.45593999997E+02  0.45594000000E+02  0.51100000000E-03 0.  1.
         11   -1    0    0    0    0 -0.00000000000E+00 -0.00000000000E+00 -0.45593999997E+02  0.45594000000E+02  0.51100000000E-03 0. -1.
    9900012    2    1    2    0    0  0.45738977719E+01 -0.41601816442E+02 -0.11488767178E+02  0.47787269092E+02  0.19999991097E+02 0.  0.
        -12    1    1    2    0    0 -0.45738977719E+01  0.41601816442E+02  0.11488767178E+02  0.43400730908E+02  0.00000000000E+00 0.  1.
         11    1    3    3    0    0  0.11137564483E+01 -0.18379299689E+02 -0.25622934069E+01  0.18590439969E+02  0.51100000000E-03 0. -1.
        -11    1    3    3    0    0 -0.11045830604E+01 -0.92601278024E+01 -0.10933749750E+02  0.14370697774E+02  0.51100000000E-03 0.  1.
        -12    1    3    3    0    0  0.45647243840E+01 -0.13962388951E+02  0.20072759793E+01  0.14826131349E+02  0.00000000000E+00 0.  1.
</event>
<event>
 7    1  0.1731793E-010  0.4778727E+02  0.7816164E-02  0.1312668E+00
        -11   -1    0    0    0    0  0.00000000000E+00  0.00000000000E+00  0.45593999997E+02  0.45594000000E+02  0.51100000000E-03 0.  1.
         11   -1    0    0    0    0 -0.00000000000E+00 -0.00000000000E+00 -0.45593999997E+02  0.45594000000E+02  0.51100000000E-03 0. -1.
    9900012    2    1    2    0    0 -0.43214326238E+02 -0.13690293953E+01  0.37776793307E+01  0.47787273107E+02  0.20000009405E+02 0.  0.
        -12    1    1    2    0    0  0.43214326238E+02  0.13690293953E+01 -0.37776793307E+01  0.43400726893E+02  0.00000000000E+00 0.  1.
         11    1    3    3    0    0 -0.12497735173E+02  0.41940936724E+01  0.44274900712E+01  0.13906346565E+02  0.51100000000E-03 0. -1.
        -11    1    3    3    0    0 -0.70860848181E+01  0.14403102914E+00 -0.56477087397E+01  0.90625579863E+01  0.51100000000E-03 0.  1.
         12    1    3    3    0    0 -0.23630506247E+02 -0.57071540968E+01  0.49978979992E+01  0.24818368556E+02  0.00000000000E+00 0. -1.
</event>
<event>
 7    1  0.1714203E-010  0.4778727E+02  0.7816164E-02  0.1312668E+00
        -11   -1    0    0    0    0  0.00000000000E+00  0.00000000000E+00  0.45593999997E+02  0.45594000000E+02  0.51100000000E-03 0.  1.
         11   -1    0    0    0    0 -0.00000000000E+00 -0.00000000000E+00 -0.45593999997E+02  0.45594000000E+02  0.51100000000E-03 0. -1.
    9900012    2    1    2    0    0 -0.11064623987E+02 -0.11783607480E+02 -0.40278329615E+02  0.47787272520E+02  0.20000006726E+02 0.  0.
        -12    1    1    2    0    0  0.11064623987E+02  0.11783607480E+02  0.40278329615E+02  0.43400727480E+02  0.00000000000E+00 0.  1.
         11    1    3    3    0    0  0.47445869253E-01  0.14818877126E+01  0.75099239437E+00  0.16619964322E+01  0.51100000000E-03 0. -1.
        -11    1    3    3    0    0 -0.10346306445E+02 -0.10273304470E+02 -0.19356442442E+02  0.24233421262E+02  0.51100000000E-03 0.  1.
         12    1    3    3    0    0 -0.76576341052E+00 -0.29921907231E+01 -0.21672879568E+02  0.21891854826E+02  0.00000000000E+00 0. -1.
</event>
<event>
 7    1  0.1714203E-010  0.4778727E+02  0.7816164E-02  0.1312668E+00
        -11   -1    0    0    0    0  0.00000000000E+00  0.00000000000E+00  0.45593999997E+02  0.45594000000E+02  0.51100000000E-03 0.  1.
         11   -1    0    0    0    0 -0.00000000000E+00 -0.00000000000E+00 -0.45593999997E+02  0.45594000000E+02  0.51100000000E-03 0. -1.
    9900012    2    1    2    0    0 -0.22314154760E+01 -0.37751313958E+02 -0.21295127229E+02  0.47787270003E+02  0.19999995253E+02 0.  0.
        -12    1    1    2    0    0  0.22314154760E+01  0.37751313958E+02  0.21295127229E+02  0.43400729997E+02  0.00000000000E+00 0.  1.
         11    1    3    3    0    0 -0.22895060325E+01 -0.32572733942E+01  0.16182499432E+01  0.42977204396E+01  0.51100000000E-03 0. -1.
        -11    1    3    3    0    0  0.57582793313E+01 -0.20434202277E+02 -0.95786271174E+01  0.23290867336E+02  0.51100000000E-03 0.  1.
        -12    1    3    3    0    0 -0.57001887747E+01 -0.14059838287E+02 -0.13334750055E+02  0.20198682228E+02  0.00000000000E+00 0.  1.
</event>
<event>
 7    1  0.1714203E-010  0.4778726E+02  0.7816164E-02  0.1312668E+00
        -11   -1    0    0    0    0  0.00000000000E+00  0.00000000000E+00  0.45593999997E+02  0.45594000000E+02  0.51100000000E-03 0. -1.
         11   -1    0    0    0    0 -0.00000000000E+00 -0.00000000000E+00 -0.45593999997E+02  0.45594000000E+02  0.51100000000E-03 0.  1.
    9900012    2    1    2    0    0 -0.19937938556E+02  0.11986778492E+02  0.36639052186E+02  0.47787258099E+02  0.19999940976E+02 0.  0.
        -12    1    1    2    0    0  0.19937938556E+02 -0.11986778492E+02 -0.36639052186E+02  0.43400741901E+02  0.00000000000E+00 0.  1.
         11    1    3    3    0    0 -0.91389114011E+01  0.10323102633E+02  0.25168546031E+02  0.28697419033E+02  0.51100000000E-03 0. -1.
        -11    1    3    3    0    0 -0.10043820420E+02  0.51438077432E+01  0.66549856550E+01  0.13100607660E+02  0.51100000000E-03 0.  1.
         12    1    3    3    0    0 -0.75520673462E+00 -0.34801318847E+01  0.48155205003E+01  0.59892314061E+01  0.00000000000E+00 0. -1.
</event>
