<event>
 7    1  0.3707147E-015  0.9000774E+02  0.7816164E-02  0.1186339E+00
        -11   -1    0    0    0    0  0.00000000000E+00  0.00000000000E+00  0.45593999997E+02  0.45594000000E+02  0.51100000000E-03 0.  1.
         11   -1    0    0    0    0 -0.00000000000E+00 -0.00000000000E+00 -0.45593999997E+02  0.45594000000E+02  0.51100000000E-03 0. -1.
    9900012    2    1    2    0    0 -0.11245619777E+01 -0.29705961838E+00  0.20031091163E+00  0.90007742181E+02  0.90000003578E+02 0.  0.
         12    1    1    2    0    0  0.11245619777E+01  0.29705961838E+00 -0.20031091163E+00  0.11802578192E+01  0.00000000000E+00 0. -1.
         11    1    3    3    0    0  0.12099101263E+02 -0.15569054807E+02  0.76104823381E+01  0.21135353336E+02  0.51100000000E-03 0. -1.
        -11    1    3    3    0    0  0.10041623439E+02 -0.19674542088E+02  0.89249391973E+01  0.23823860888E+02  0.51100000000E-03 0.  1.
        -12    1    3    3    0    0 -0.23265286681E+02  0.34946537277E+02 -0.16335110624E+02  0.45048527957E+02  0.00000000000E+00 0.  1.
</event>
<event>
 7    1  0.3707147E-015  0.9000884E+02  0.7816164E-02  0.1186337E+00
        -11   -1    0    0    0    0  0.00000000000E+00  0.00000000000E+00  0.45593999997E+02  0.45594000000E+02  0.51100000000E-03 0. -1.
         11   -1    0    0    0    0 -0.00000000000E+00 -0.00000000000E+00 -0.45593999997E+02  0.45594000000E+02  0.51100000000E-03 0.  1.
    9900012    2    1    2    0    0  0.86542104931E+00  0.29068083105E+00 -0.74630991418E+00  0.90008836133E+02  0.90001111963E+02 0.  0.
         12    1    1    2    0    0 -0.86542104931E+00 -0.29068083105E+00  0.74630991418E+00  0.11791638674E+01  0.00000000000E+00 0. -1.
         11    1    3    3    0    0  0.24694712262E+01 -0.98022912611E+01 -0.34187049404E+00  0.10114350093E+02  0.51100000000E-03 0. -1.
        -11    1    3    3    0    0 -0.30098047198E+01 -0.34715927917E+02  0.27378812670E+01  0.34953548742E+02  0.51100000000E-03 0.  1.
         12    1    3    3    0    0  0.14057545429E+01  0.44808900009E+02 -0.31423206872E+01  0.44940937297E+02  0.00000000000E+00 0. -1.
</event>
<event>
 7    1  0.3707147E-015  0.9000810E+02  0.7816164E-02  0.1186338E+00
        -11   -1    0    0    0    0  0.00000000000E+00  0.00000000000E+00  0.45593999997E+02  0.45594000000E+02  0.51100000000E-03 0.  1.
         11   -1    0    0    0    0 -0.00000000000E+00 -0.00000000000E+00 -0.45593999997E+02  0.45594000000E+02  0.51100000000E-03 0. -1.
    9900012    2    1    2    0    0  0.34561210654E+00 -0.10409205891E+01  0.43497481853E+00  0.90008098947E+02  0.90000365053E+02 0.  0.
         12    1    1    2    0    0 -0.34561210654E+00  0.10409205891E+01 -0.43497481853E+00  0.11799010525E+01  0.00000000000E+00 0. -1.
         11    1    3    3    0    0  0.76964538159E+01 -0.11256357746E+02 -0.34257709483E+02  0.36871827326E+02  0.51100000000E-03 0. -1.
        -11    1    3    3    0    0 -0.54758262271E+00  0.79217142726E-01 -0.83640821474E+01  0.83823619890E+01  0.51100000000E-03 0.  1.
        -12    1    3    3    0    0 -0.68032590867E+01  0.10136220014E+02  0.43056766449E+02  0.44753909633E+02  0.00000000000E+00 0.  1.
</event>
<event>
 7    1  0.3707147E-015  0.9000772E+02  0.7816164E-02  0.1186339E+00
        -11   -1    0    0    0    0  0.00000000000E+00  0.00000000000E+00  0.45593999997E+02  0.45594000000E+02  0.51100000000E-03 0. -1.
         11   -1    0    0    0    0 -0.00000000000E+00 -0.00000000000E+00 -0.45593999997E+02  0.45594000000E+02  0.51100000000E-03 0.  1.
    9900012    2    1    2    0    0 -0.37184949382E+00  0.12240249551E+00 -0.11134622601E+01  0.90007723498E+02  0.89999984648E+02 0.  0.
         12    1    1    2    0    0  0.37184949382E+00 -0.12240249551E+00  0.11134622601E+01  0.11802765022E+01  0.00000000000E+00 0. -1.
         11    1    3    3    0    0 -0.28200700122E+01 -0.11322726318E+02  0.35706504920E+02  0.37564763010E+02  0.51100000000E-03 0. -1.
        -11    1    3    3    0    0  0.37312779925E+01  0.16443496455E+01  0.66843546904E+01  0.78298735049E+01  0.51100000000E-03 0.  1.
        -12    1    3    3    0    0 -0.12830574742E+01  0.98007791683E+01 -0.43504321870E+02  0.44613086983E+02  0.00000000000E+00 0.  1.
</event>
<event>
 7    1  0.3707147E-015  0.9000770E+02  0.7816164E-02  0.1186339E+00
        -11   -1    0    0    0    0  0.00000000000E+00  0.00000000000E+00  0.45593999997E+02  0.45594000000E+02  0.51100000000E-03 0.  1.
         11   -1    0    0    0    0 -0.00000000000E+00 -0.00000000000E+00 -0.45593999997E+02  0.45594000000E+02  0.51100000000E-03 0. -1.
    9900012    2    1    2    0    0  0.72019617864E+00 -0.28901506836E-01  0.93465859044E+00  0.90007701515E+02  0.89999962375E+02 0.  0.
         12    1    1    2    0    0 -0.72019617864E+00  0.28901506836E-01 -0.93465859044E+00  0.11802984849E+01  0.00000000000E+00 0. -1.
         11    1    3    3    0    0 -0.82555318507E+01 -0.36869145946E+02 -0.83828144088E+01  0.38700895424E+02  0.51100000000E-03 0. -1.
        -11    1    3    3    0    0 -0.58681638589E+01 -0.18511710452E+01 -0.44996696484E+01  0.76229396245E+01  0.51100000000E-03 0.  1.
        -12    1    3    3    0    0  0.14843891888E+02  0.38691415484E+02  0.13817142648E+02  0.43683866467E+02  0.00000000000E+00 0.  1.
</event>
<event>
 7    1  0.3707147E-015  0.9000764E+02  0.7816164E-02  0.1186339E+00
        -11   -1    0    0    0    0  0.00000000000E+00  0.00000000000E+00  0.45593999997E+02  0.45594000000E+02  0.51100000000E-03 0. -1.
         11   -1    0    0    0    0 -0.00000000000E+00 -0.00000000000E+00 -0.45593999997E+02  0.45594000000E+02  0.51100000000E-03 0.  1.
    9900012    2    1    2    0    0 -0.92591583574E+00  0.16618255006E+00 -0.71296323090E+00  0.90007638469E+02  0.89999898497E+02 0.  0.
         12    1    1    2    0    0  0.92591583574E+00 -0.16618255006E+00  0.71296323090E+00  0.11803615308E+01  0.00000000000E+00 0. -1.
         11    1    3    3    0    0 -0.47931032012E+01  0.46167338161E+01  0.91931735842E+01  0.11349119360E+02  0.51100000000E-03 0. -1.
        -11    1    3    3    0    0  0.18575147816E+02  0.31091542808E+02 -0.16210889354E+02  0.39680134633E+02  0.51100000000E-03 0.  1.
         12    1    3    3    0    0 -0.14707960451E+02 -0.35542094074E+02  0.63047525385E+01  0.38978384476E+02  0.00000000000E+00 0. -1.
</event>
<event>
 7    1  0.3707147E-015  0.9000764E+02  0.7816164E-02  0.1186339E+00
        -11   -1    0    0    0    0  0.00000000000E+00  0.00000000000E+00  0.45593999997E+02  0.45594000000E+02  0.51100000000E-03 0.  1.
         11   -1    0    0    0    0 -0.00000000000E+00 -0.00000000000E+00 -0.45593999997E+02  0.45594000000E+02  0.51100000000E-03 0. -1.
    9900012    2    1    2    0    0 -0.39195980175E-01 -0.70384627430E+00  0.94674017694E+00  0.90007638672E+02  0.89999898702E+02 0.  0.
         12    1    1    2    0    0  0.39195980175E-01  0.70384627430E+00 -0.94674017694E+00  0.11803613283E+01  0.00000000000E+00 0. -1.
         11    1    3    3    0    0 -0.12669480324E+02  0.35686513676E+02  0.13920741744E+02  0.40346375810E+02  0.51100000000E-03 0. -1.
        -11    1    3    3    0    0  0.66758782340E+01  0.16603930993E+01  0.35630119051E+01  0.77472130173E+01  0.51100000000E-03 0.  1.
        -12    1    3    3    0    0  0.59544061099E+01 -0.38050753050E+02 -0.16537013472E+02  0.41914049844E+02  0.00000000000E+00 0.  1.
</event>
<event>
 7    1  0.3707147E-015  0.9000782E+02  0.7816164E-02  0.1186339E+00
        -11   -1    0    0    0    0  0.00000000000E+00  0.00000000000E+00  0.45593999997E+02  0.45594000000E+02  0.51100000000E-03 0. -1.
         11   -1    0    0    0    0 -0.00000000000E+00 -0.00000000000E+00 -0.45593999997E+02  0.45594000000E+02  0.51100000000E-03 0.  1.
    9900012    2    1    2    0    0  0.11275121421E+01 -0.30218872799E+00 -0.17387356854E+00  0.90007816253E+02  0.90000078628E+02 0.  0.
         12    1    1    2    0    0 -0.11275121421E+01  0.30218872799E+00  0.17387356854E+00  0.11801837466E+01  0.00000000000E+00 0. -1.
         11    1    3    3    0    0  0.52705474103E+01  0.10597987565E+02 -0.32451613411E+00  0.11840663892E+02  0.51100000000E-03 0. -1.
        -11    1    3    3    0    0  0.29380034439E+02  0.88669058731E+01 -0.17617081756E+02  0.35386014374E+02  0.51100000000E-03 0.  1.
         12    1    3    3    0    0 -0.33523069707E+02 -0.19767082166E+02  0.17767724322E+02  0.42781137988E+02  0.00000000000E+00 0. -1.
</event>
<event>
 7    1  0.3707147E-015  0.9000773E+02  0.7816164E-02  0.1186339E+00
        -11   -1    0    0    0    0  0.00000000000E+00  0.00000000000E+00  0.45593999997E+02  0.45594000000E+02  0.51100000000E-03 0.  1.
         11   -1    0    0    0    0 -0.00000000000E+00 -0.00000000000E+00 -0.45593999997E+02  0.45594000000E+02  0.51100000000E-03 0. -1.
    9900012    2    1    2    0    0 -0.22569935633E+00 -0.96388061825E+00  0.64266751411E+00  0.90007734106E+02  0.89999995397E+02 0.  0.
         12    1    1    2    0    0  0.22569935633E+00  0.96388061825E+00 -0.64266751411E+00  0.11802658935E+01  0.00000000000E+00 0. -1.
         11    1    3    3    0    0  0.40758357605E+01  0.35660050907E+02 -0.63290986070E+01  0.36445975872E+02  0.51100000000E-03 0. -1.
        -11    1    3    3    0    0  0.35265710997E+00  0.65777090857E+01  0.76624613176E+01  0.10104649304E+02  0.51100000000E-03 0.  1.
        -12    1    3    3    0    0 -0.46541922268E+01 -0.43201640611E+02 -0.69069519648E+00  0.43457108930E+02  0.00000000000E+00 0.  1.
</event>
<event>
 7    1  0.3707147E-015  0.9000767E+02  0.7816164E-02  0.1186339E+00
        -11   -1    0    0    0    0  0.00000000000E+00  0.00000000000E+00  0.45593999997E+02  0.45594000000E+02  0.51100000000E-03 0.  1.
         11   -1    0    0    0    0 -0.00000000000E+00 -0.00000000000E+00 -0.45593999997E+02  0.45594000000E+02  0.51100000000E-03 0. -1.
    9900012    2    1    2    0    0 -0.80508397045E+00  0.39459263671E+00  0.76766973269E+00  0.90007669382E+02  0.89999929818E+02 0.  0.
         12    1    1    2    0    0  0.80508397045E+00 -0.39459263671E+00 -0.76766973269E+00  0.11803306176E+01  0.00000000000E+00 0. -1.
         11    1    3    3    0    0  0.14292259736E+02 -0.29445927107E+02 -0.19615240929E+02  0.38158734106E+02  0.51100000000E-03 0. -1.
        -11    1    3    3    0    0  0.22054865722E+00 -0.69452197837E+01  0.68726719294E+01  0.97733484162E+01  0.51100000000E-03 0.  1.
        -12    1    3    3    0    0 -0.15317892363E+02  0.36785739528E+02  0.13510238733E+02  0.42075586861E+02  0.00000000000E+00 0.  1.
</event>
<event>
 7    1  0.3707147E-015  0.9000775E+02  0.7816164E-02  0.1186339E+00
        -11   -1    0    0    0    0  0.00000000000E+00  0.00000000000E+00  0.45593999997E+02  0.45594000000E+02  0.51100000000E-03 0.  1.
         11   -1    0    0    0    0 -0.00000000000E+00 -0.00000000000E+00 -0.45593999997E+02  0.45594000000E+02  0.51100000000E-03 0. -1.
    9900012    2    1    2    0    0 -0.61220521864E+00 -0.77879002940E+00  0.64161864968E+00  0.90007752725E+02  0.90000014260E+02 0.  0.
         12    1    1    2    0    0  0.61220521864E+00  0.77879002940E+00 -0.64161864968E+00  0.11802472755E+01  0.00000000000E+00 0. -1.
         11    1    3    3    0    0 -0.23929959913E+02  0.18754994364E+02  0.28140958680E+02  0.41428327877E+02  0.51100000000E-03 0. -1.
        -11    1    3    3    0    0  0.36292630039E+01 -0.73235939648E+01  0.43001188773E+01  0.92356700424E+01  0.51100000000E-03 0.  1.
        -12    1    3    3    0    0  0.19688491690E+02 -0.12210190428E+02 -0.31799458907E+02  0.39343754805E+02  0.00000000000E+00 0.  1.
</event>
<event>
 7    1  0.3707147E-015  0.9000770E+02  0.7816164E-02  0.1186339E+00
        -11   -1    0    0    0    0  0.00000000000E+00  0.00000000000E+00  0.45593999997E+02  0.45594000000E+02  0.51100000000E-03 0. -1.
         11   -1    0    0    0    0 -0.00000000000E+00 -0.00000000000E+00 -0.45593999997E+02  0.45594000000E+02  0.51100000000E-03 0.  1.
    9900012    2    1    2    0    0  0.10518784830E+01  0.52705297379E+00  0.94230156306E-01  0.90007698131E+02  0.89999958946E+02 0.  0.
         12    1    1    2    0    0 -0.10518784830E+01 -0.52705297379E+00 -0.94230156306E-01  0.11803018693E+01  0.00000000000E+00 0. -1.
         11    1    3    3    0    0 -0.16437032201E+02 -0.28390883375E+02 -0.15103006026E+02  0.36115357920E+02  0.51100000000E-03 0. -1.
        -11    1    3    3    0    0 -0.39358886574E+01  0.22634359045E+00 -0.95720719796E+01  0.10352150172E+02  0.51100000000E-03 0.  1.
        -12    1    3    3    0    0  0.21424799341E+02  0.28691592758E+02  0.24769308161E+02  0.43540190039E+02  0.00000000000E+00 0.  1.
</event>
<event>
 7    1  0.3707147E-015  0.9000775E+02  0.7816164E-02  0.1186339E+00
        -11   -1    0    0    0    0  0.00000000000E+00  0.00000000000E+00  0.45593999997E+02  0.45594000000E+02  0.51100000000E-03 0.  1.
         11   -1    0    0    0    0 -0.00000000000E+00 -0.00000000000E+00 -0.45593999997E+02  0.45594000000E+02  0.51100000000E-03 0. -1.
    9900012    2    1    2    0    0  0.15017405722E+00 -0.66089827088E+00  0.96626168163E+00  0.90007745617E+02  0.90000007059E+02 0.  0.
         12    1    1    2    0    0 -0.15017405722E+00  0.66089827088E+00 -0.96626168163E+00  0.11802543833E+01  0.00000000000E+00 0. -1.
         11    1    3    3    0    0 -0.20096503029E+02 -0.25512805075E+02 -0.88997222416E+01  0.33674585566E+02  0.51100000000E-03 0. -1.
        -11    1    3    3    0    0 -0.52423525989E+01 -0.10057937632E+02 -0.19818101369E+01  0.11513988964E+02  0.51100000000E-03 0.  1.
        -12    1    3    3    0    0  0.25489029685E+02  0.34909844436E+02  0.11847794060E+02  0.44819171087E+02  0.00000000000E+00 0.  1.
</event>
<event>
 7    1  0.3707147E-015  0.9000770E+02  0.7816164E-02  0.1186339E+00
        -11   -1    0    0    0    0  0.00000000000E+00  0.00000000000E+00  0.45593999997E+02  0.45594000000E+02  0.51100000000E-03 0.  1.
         11   -1    0    0    0    0 -0.00000000000E+00 -0.00000000000E+00 -0.45593999997E+02  0.45594000000E+02  0.51100000000E-03 0. -1.
    9900012    2    1    2    0    0  0.44142300423E+00  0.37805513578E+00  0.10272869422E+01  0.90007704098E+02  0.89999964992E+02 0.  0.
         12    1    1    2    0    0 -0.44142300423E+00 -0.37805513578E+00 -0.10272869422E+01  0.11802959018E+01  0.00000000000E+00 0. -1.
         11    1    3    3    0    0 -0.51091844643E+01 -0.14284351051E+01 -0.74568105166E+01  0.91514051425E+01  0.51100000000E-03 0. -1.
        -11    1    3    3    0    0 -0.27102544640E+02  0.72909130110E+01 -0.22145631865E+02  0.35751004874E+02  0.51100000000E-03 0.  1.
         12    1    3    3    0    0  0.32653152109E+02 -0.54844227701E+01  0.30629729324E+02  0.45105294082E+02  0.00000000000E+00 0. -1.
</event>
<event>
 7    1  0.5640801E-015  0.9000777E+02  0.7816164E-02  0.1186339E+00
        -11   -1    0    0    0    0  0.00000000000E+00  0.00000000000E+00  0.45593999997E+02  0.45594000000E+02  0.51100000000E-03 0.  1.
         11   -1    0    0    0    0 -0.00000000000E+00 -0.00000000000E+00 -0.45593999997E+02  0.45594000000E+02  0.51100000000E-03 0. -1.
    9900012    2    1    2    0    0 -0.10157768383E+01 -0.43921227968E+00 -0.41016081273E+00  0.90007770402E+02  0.90000032171E+02 0.  0.
         12    1    1    2    0    0  0.10157768383E+01  0.43921227968E+00  0.41016081273E+00  0.11802295981E+01  0.00000000000E+00 0. -1.
         11    1    3    3    0    0  0.23466403383E+01 -0.80410640083E+01  0.49280210184E+01  0.97185813102E+01  0.51100000000E-03 0. -1.
        -11    1    3    3    0    0 -0.34185857579E+02 -0.98626414259E+01 -0.21260626864E+02  0.41448266662E+02  0.51100000000E-03 0.  1.
         12    1    3    3    0    0  0.30823440403E+02  0.17464493155E+02  0.15922445033E+02  0.38840922430E+02  0.00000000000E+00 0. -1.
</event>
<event>
 7    1  0.3707147E-015  0.9000670E+02  0.7816164E-02  0.1186341E+00
        -11   -1    0    0    0    0  0.00000000000E+00  0.00000000000E+00  0.45593999997E+02  0.45594000000E+02  0.51100000000E-03 0.  1.
         11   -1    0    0    0    0 -0.00000000000E+00 -0.00000000000E+00 -0.45593999997E+02  0.45594000000E+02  0.51100000000E-03 0. -1.
    9900012    2    1    2    0    0  0.47061588627E+00 -0.73753453567E+00  0.79375150911E+00  0.90006696499E+02  0.89998944086E+02 0.  0.
         12    1    1    2    0    0 -0.47061588627E+00  0.73753453567E+00 -0.79375150911E+00  0.11813035012E+01  0.00000000000E+00 0. -1.
         11    1    3    3    0    0 -0.29413602121E+01 -0.67087172127E+01 -0.26867015672E+01  0.78023619571E+01  0.51100000000E-03 0. -1.
        -11    1    3    3    0    0 -0.74806292320E+01  0.64226587407E+01  0.41498697502E+02  0.42653865635E+02  0.51100000000E-03 0.  1.
         12    1    3    3    0    0  0.10892605330E+02 -0.45147606363E+00 -0.38018244426E+02  0.39550468907E+02  0.00000000000E+00 0. -1.
</event>
<event>
 7    1  0.3707147E-015  0.9000735E+02  0.7816164E-02  0.1186340E+00
        -11   -1    0    0    0    0  0.00000000000E+00  0.00000000000E+00  0.45593999997E+02  0.45594000000E+02  0.51100000000E-03 0. -1.
         11   -1    0    0    0    0 -0.00000000000E+00 -0.00000000000E+00 -0.45593999997E+02  0.45594000000E+02  0.51100000000E-03 0.  1.
    9900012    2    1    2    0    0  0.82417922182E-02  0.49134465480E+00 -0.10735228722E+01  0.90007348123E+02  0.89999604318E+02 0.  0.
         12    1    1    2    0    0 -0.82417922182E-02 -0.49134465480E+00  0.10735228722E+01  0.11806518768E+01  0.00000000000E+00 0. -1.
         11    1    3    3    0    0  0.15138831295E+02  0.21498423185E+02  0.27608386337E+02  0.38125967645E+02  0.51100000000E-03 0. -1.
        -11    1    3    3    0    0 -0.24513548802E+01 -0.44423446208E+01  0.81221164398E+01  0.95766561075E+01  0.51100000000E-03 0.  1.
        -12    1    3    3    0    0 -0.12679234623E+02 -0.16564733910E+02 -0.36804025649E+02  0.42304724371E+02  0.00000000000E+00 0.  1.
</event>
<event>
 7    1  0.3707147E-015  0.9000786E+02  0.7816164E-02  0.1186339E+00
        -11   -1    0    0    0    0  0.00000000000E+00  0.00000000000E+00  0.45593999997E+02  0.45594000000E+02  0.51100000000E-03 0.  1.
         11   -1    0    0    0    0 -0.00000000000E+00 -0.00000000000E+00 -0.45593999997E+02  0.45594000000E+02  0.51100000000E-03 0. -1.
    9900012    2    1    2    0    0 -0.60705861936E-01 -0.11641530912E+01  0.18385257657E+00  0.90007856199E+02  0.90000119101E+02 0.  0.
         12    1    1    2    0    0  0.60705861936E-01  0.11641530912E+01 -0.18385257657E+00  0.11801438012E+01  0.00000000000E+00 0. -1.
         11    1    3    3    0    0 -0.20325641323E+02  0.18682909982E+02 -0.25884426681E+02  0.37844238207E+02  0.51100000000E-03 0. -1.
        -11    1    3    3    0    0 -0.48584842700E+01 -0.39031429025E+01 -0.58352901867E+01  0.85375643917E+01  0.51100000000E-03 0.  1.
        -12    1    3    3    0    0  0.25123419731E+02 -0.15943920171E+02  0.31903569445E+02  0.43626053600E+02  0.00000000000E+00 0.  1.
</event>
<event>
 7    1  0.3707147E-015  0.9000765E+02  0.7816164E-02  0.1186339E+00
        -11   -1    0    0    0    0  0.00000000000E+00  0.00000000000E+00  0.45593999997E+02  0.45594000000E+02  0.51100000000E-03 0.  1.
         11   -1    0    0    0    0 -0.00000000000E+00 -0.00000000000E+00 -0.45593999997E+02  0.45594000000E+02  0.51100000000E-03 0. -1.
    9900012    2    1    2    0    0 -0.55010697763E+00 -0.88941526185E-01  0.10405221700E+01  0.90007654852E+02  0.89999915096E+02 0.  0.
         12    1    1    2    0    0  0.55010697763E+00  0.88941526185E-01 -0.10405221700E+01  0.11803451479E+01  0.00000000000E+00 0. -1.
         11    1    3    3    0    0  0.15474403743E+02 -0.25618346658E+02 -0.31229470737E+02  0.43255481728E+02  0.51100000000E-03 0. -1.
        -11    1    3    3    0    0  0.10810767222E+01  0.93369027731E+01  0.47589109806E+01  0.10535355440E+02  0.51100000000E-03 0.  1.
        -12    1    3    3    0    0 -0.17105587442E+02  0.16192502359E+02  0.27511081927E+02  0.36216817684E+02  0.00000000000E+00 0.  1.
</event>
<event>
 7    1  0.3707147E-015  0.9000774E+02  0.7816164E-02  0.1186339E+00
        -11   -1    0    0    0    0  0.00000000000E+00  0.00000000000E+00  0.45593999997E+02  0.45594000000E+02  0.51100000000E-03 0.  1.
         11   -1    0    0    0    0 -0.00000000000E+00 -0.00000000000E+00 -0.45593999997E+02  0.45594000000E+02  0.51100000000E-03 0. -1.
    9900012    2    1    2    0    0 -0.61799563200E-01  0.64575765783E+00  0.98599641811E+00  0.90007741098E+02  0.90000002481E+02 0.  0.
         12    1    1    2    0    0  0.61799563200E-01 -0.64575765783E+00 -0.98599641811E+00  0.11802589018E+01  0.00000000000E+00 0. -1.
         11    1    3    3    0    0  0.22677195759E+02 -0.88599425261E+01 -0.24280454516E+02  0.34384506115E+02  0.51100000000E-03 0. -1.
        -11    1    3    3    0    0 -0.12676068662E+02 -0.62087094382E+01 -0.89046804349E+01  0.16689042019E+02  0.51100000000E-03 0.  1.
        -12    1    3    3    0    0 -0.10062926660E+02  0.15714409622E+02  0.34171131369E+02  0.38934192964E+02  0.00000000000E+00 0.  1.
</event>
<event>
 7    1  0.3707147E-015  0.9000776E+02  0.7816164E-02  0.1186339E+00
        -11   -1    0    0    0    0  0.00000000000E+00  0.00000000000E+00  0.45593999997E+02  0.45594000000E+02  0.51100000000E-03 0.  1.
         11   -1    0    0    0    0 -0.00000000000E+00 -0.00000000000E+00 -0.45593999997E+02  0.45594000000E+02  0.51100000000E-03 0. -1.
    9900012    2    1    2    0    0 -0.57904678025E+00 -0.55834352746E+00  0.86367066459E+00  0.90007758633E+02  0.90000020247E+02 0.  0.
         12    1    1    2    0    0  0.57904678025E+00  0.55834352746E+00 -0.86367066459E+00  0.11802413674E+01  0.00000000000E+00 0. -1.
         11    1    3    3    0    0  0.79389942033E+01 -0.57362377630E+01 -0.39369521400E+01  0.10556118844E+02  0.51100000000E-03 0. -1.
        -11    1    3    3    0    0  0.48559502041E+01 -0.34008801276E+02  0.13897087230E+02  0.37058168470E+02  0.51100000000E-03 0.  1.
         12    1    3    3    0    0 -0.13373991188E+02  0.39186695512E+02 -0.90964644253E+01  0.42393471319E+02  0.00000000000E+00 0. -1.
</event>
<event>
 7    1  0.3707147E-015  0.9000773E+02  0.7816164E-02  0.1186339E+00
        -11   -1    0    0    0    0  0.00000000000E+00  0.00000000000E+00  0.45593999997E+02  0.45594000000E+02  0.51100000000E-03 0. -1.
         11   -1    0    0    0    0 -0.00000000000E+00 -0.00000000000E+00 -0.45593999997E+02  0.45594000000E+02  0.51100000000E-03 0.  1.
    9900012    2    1    2    0    0 -0.21054497679E+00  0.11084168559E+01 -0.34657751442E+00  0.90007731773E+02  0.89999993033E+02 0.  0.
         12    1    1    2    0    0  0.21054497679E+00 -0.11084168559E+01  0.34657751442E+00  0.11802682268E+01  0.00000000000E+00 0. -1.
         11    1    3    3    0    0  0.23502327074E+01 -0.81153522748E+00 -0.82106027007E+01  0.85788216075E+01  0.51100000000E-03 0. -1.
        -11    1    3    3    0    0 -0.89756788618E+01 -0.13271193051E+02 -0.33371648163E+02  0.37018296522E+02  0.51100000000E-03 0.  1.
         12    1    3    3    0    0  0.64149011776E+01  0.15191145134E+02  0.41235673349E+02  0.44410613643E+02  0.00000000000E+00 0. -1.
</event>
<event>
 7    1  0.3707147E-015  0.9000768E+02  0.7816164E-02  0.1186339E+00
        -11   -1    0    0    0    0  0.00000000000E+00  0.00000000000E+00  0.45593999997E+02  0.45594000000E+02  0.51100000000E-03 0. -1.
         11   -1    0    0    0    0 -0.00000000000E+00 -0.00000000000E+00 -0.45593999997E+02  0.45594000000E+02  0.51100000000E-03 0.  1.
    9900012    2    1    2    0    0 -0.10455905516E+00  0.34026197737E+00 -0.11253629991E+01  0.90007681107E+02  0.89999941698E+02 0.  0.
         12    1    1    2    0    0  0.10455905516E+00 -0.34026197737E+00  0.11253629991E+01  0.11803188929E+01  0.00000000000E+00 0. -1.
         11    1    3    3    0    0 -0.20061835461E+02  0.72081967880E+01 -0.26278874587E+02  0.33838064259E+02  0.51100000000E-03 0. -1.
        -11    1    3    3    0    0 -0.11926754276E+02  0.26042267758E+01 -0.30247074568E+01  0.12576896284E+02  0.51100000000E-03 0.  1.
        -12    1    3    3    0    0  0.31884030682E+02 -0.94721615865E+01  0.28178219045E+02  0.43592720564E+02  0.00000000000E+00 0.  1.
</event>
<event>
 7    1  0.3707147E-015  0.9000768E+02  0.7816164E-02  0.1186339E+00
        -11   -1    0    0    0    0  0.00000000000E+00  0.00000000000E+00  0.45593999997E+02  0.45594000000E+02  0.51100000000E-03 0. -1.
         11   -1    0    0    0    0 -0.00000000000E+00 -0.00000000000E+00 -0.45593999997E+02  0.45594000000E+02  0.51100000000E-03 0.  1.
    9900012    2    1    2    0    0 -0.64878317562E+00 -0.95950086248E+00  0.22712236570E+00  0.90007683905E+02  0.89999944533E+02 0.  0.
         12    1    1    2    0    0  0.64878317562E+00  0.95950086248E+00 -0.22712236570E+00  0.11803160946E+01  0.00000000000E+00 0. -1.
         11    1    3    3    0    0 -0.17781894416E+02  0.16664648438E+02 -0.14700859857E+02  0.28460877663E+02  0.51100000000E-03 0. -1.
        -11    1    3    3    0    0 -0.41037640557E+01 -0.29485109070E+02 -0.48934678501E+01  0.30168834319E+02  0.51100000000E-03 0.  1.
        -12    1    3    3    0    0  0.21236875296E+02  0.11860959770E+02  0.19821450073E+02  0.31377971923E+02  0.00000000000E+00 0.  1.
</event>
<event>
 7    1  0.3707147E-015  0.9000774E+02  0.7816164E-02  0.1186339E+00
        -11   -1    0    0    0    0  0.00000000000E+00  0.00000000000E+00  0.45593999997E+02  0.45594000000E+02  0.51100000000E-03 0.  1.
         11   -1    0    0    0    0 -0.00000000000E+00 -0.00000000000E+00 -0.45593999997E+02  0.45594000000E+02  0.51100000000E-03 0. -1.
    9900012    2    1    2    0    0  0.10850427944E+01  0.38406730164E+00 -0.26110682178E+00  0.90007744803E+02  0.90000006234E+02 0.  0.
         12    1    1    2    0    0 -0.10850427944E+01 -0.38406730164E+00  0.26110682178E+00  0.11802551971E+01  0.00000000000E+00 0. -1.
         11    1    3    3    0    0 -0.67887896355E+01  0.16082276460E+01  0.56026083335E+01  0.89478087416E+01  0.51100000000E-03 0. -1.
        -11    1    3    3    0    0  0.30134992007E+02  0.13870532922E+02  0.23943209160E+02  0.40911938257E+02  0.51100000000E-03 0.  1.
         12    1    3    3    0    0 -0.22261159577E+02 -0.15094693266E+02 -0.29806924315E+02  0.40147997804E+02  0.00000000000E+00 0. -1.
</event>
<event>
 7    1  0.3707147E-015  0.9000761E+02  0.7816164E-02  0.1186339E+00
        -11   -1    0    0    0    0  0.00000000000E+00  0.00000000000E+00  0.45593999997E+02  0.45594000000E+02  0.51100000000E-03 0.  1.
         11   -1    0    0    0    0 -0.00000000000E+00 -0.00000000000E+00 -0.45593999997E+02  0.45594000000E+02  0.51100000000E-03 0. -1.
    9900012    2    1    2    0    0  0.17040819927E-01 -0.45924666241E-01  0.11793692730E+01  0.90007613899E+02  0.89999873603E+02 0.  0.
         12    1    1    2    0    0 -0.17040819927E-01  0.45924666241E-01 -0.11793692730E+01  0.11803861007E+01  0.00000000000E+00 0. -1.
         11    1    3    3    0    0  0.21802698232E+02  0.29918558675E+02 -0.63954107100E+01  0.37568325512E+02  0.51100000000E-03 0. -1.
        -11    1    3    3    0    0  0.67494752310E+01  0.23536484695E+01  0.59424445722E+01  0.92955755479E+01  0.51100000000E-03 0.  1.
        -12    1    3    3    0    0 -0.28535132643E+02 -0.32318131811E+02  0.16323354108E+01  0.43143712839E+02  0.00000000000E+00 0.  1.
</event>
<event>
 7    1  0.3707147E-015  0.9000771E+02  0.7816164E-02  0.1186339E+00
        -11   -1    0    0    0    0  0.00000000000E+00  0.00000000000E+00  0.45593999997E+02  0.45594000000E+02  0.51100000000E-03 0.  1.
         11   -1    0    0    0    0 -0.00000000000E+00 -0.00000000000E+00 -0.45593999997E+02  0.45594000000E+02  0.51100000000E-03 0. -1.
    9900012    2    1    2    0    0 -0.41056074445E+00 -0.44210855664E+00  0.10144246740E+01  0.90007712950E+02  0.89999973961E+02 0.  0.
         12    1    1    2    0    0  0.41056074445E+00  0.44210855664E+00 -0.10144246740E+01  0.11802870499E+01  0.00000000000E+00 0. -1.
         11    1    3    3    0    0 -0.40674051284E+02  0.12981567961E+02  0.95125971745E+01  0.43742302864E+02  0.51100000000E-03 0. -1.
        -11    1    3    3    0    0  0.37129678106E+01 -0.65553316822E+01 -0.47047729469E+01  0.88821952337E+01  0.51100000000E-03 0.  1.
        -12    1    3    3    0    0  0.36550522729E+02 -0.68683448352E+01 -0.37933995536E+01  0.37383214853E+02  0.00000000000E+00 0.  1.
</event>
<event>
 7    1  0.3707147E-015  0.9000772E+02  0.7816164E-02  0.1186339E+00
        -11   -1    0    0    0    0  0.00000000000E+00  0.00000000000E+00  0.45593999997E+02  0.45594000000E+02  0.51100000000E-03 0. -1.
         11   -1    0    0    0    0 -0.00000000000E+00 -0.00000000000E+00 -0.45593999997E+02  0.45594000000E+02  0.51100000000E-03 0.  1.
    9900012    2    1    2    0    0  0.95143463629E+00 -0.68835089972E+00 -0.11833012474E+00  0.90007721708E+02  0.89999982834E+02 0.  0.
         12    1    1    2    0    0 -0.95143463629E+00  0.68835089972E+00  0.11833012474E+00  0.11802782921E+01  0.00000000000E+00 0. -1.
         11    1    3    3    0    0 -0.42249808791E+01  0.29915036089E+02  0.20877670084E+02  0.36723792778E+02  0.51100000000E-03 0. -1.
        -11    1    3    3    0    0  0.10530839331E+02  0.56403081799E+01 -0.23507700617E+01  0.12175293570E+02  0.51100000000E-03 0.  1.
        -12    1    3    3    0    0 -0.53544238153E+01 -0.36243695169E+02 -0.18645230147E+02  0.41108635359E+02  0.00000000000E+00 0.  1.
</event>
<event>
 7    1  0.3707147E-015  0.9000797E+02  0.7816164E-02  0.1186339E+00
        -11   -1    0    0    0    0  0.00000000000E+00  0.00000000000E+00  0.45593999997E+02  0.45594000000E+02  0.51100000000E-03 0.  1.
         11   -1    0    0    0    0 -0.00000000000E+00 -0.00000000000E+00 -0.45593999997E+02  0.45594000000E+02  0.51100000000E-03 0. -1.
    9900012    2    1    2    0    0  0.11659629625E+01  0.17559649928E+00  0.46438854506E-01  0.90007974438E+02  0.90000238900E+02 0.  0.
         12    1    1    2    0    0 -0.11659629625E+01 -0.17559649928E+00 -0.46438854506E-01  0.11800255623E+01  0.00000000000E+00 0. -1.
         11    1    3    3    0    0 -0.50877322971E+00  0.94863267985E+01  0.37110207542E+01  0.10199064743E+02  0.51100000000E-03 0. -1.
        -11    1    3    3    0    0  0.57846189546E+01  0.26048202298E+02 -0.26428367927E+02  0.37555682539E+02  0.51100000000E-03 0.  1.
         12    1    3    3    0    0 -0.41098827624E+01 -0.35358932598E+02  0.22763786028E+02  0.42253227156E+02  0.00000000000E+00 0. -1.
</event>
<event>
 7    1  0.3707147E-015  0.9000811E+02  0.7816164E-02  0.1186338E+00
        -11   -1    0    0    0    0  0.00000000000E+00  0.00000000000E+00  0.45593999997E+02  0.45594000000E+02  0.51100000000E-03 0.  1.
         11   -1    0    0    0    0 -0.00000000000E+00 -0.00000000000E+00 -0.45593999997E+02  0.45594000000E+02  0.51100000000E-03 0. -1.
    9900012    2    1    2    0    0  0.95457041363E+00  0.45032429361E+00 -0.52740298121E+00  0.90008105704E+02  0.90000371899E+02 0.  0.
         12    1    1    2    0    0 -0.95457041363E+00 -0.45032429361E+00  0.52740298121E+00  0.11798942955E+01  0.00000000000E+00 0. -1.
         11    1    3    3    0    0  0.76551786111E+01 -0.15676335435E+00  0.63732576800E+01  0.99621658305E+01  0.51100000000E-03 0. -1.
        -11    1    3    3    0    0  0.25193975657E+02  0.16067633154E+02  0.19647092961E+02  0.35761900210E+02  0.51100000000E-03 0.  1.
         12    1    3    3    0    0 -0.31894583855E+02 -0.15460545506E+02 -0.26547753622E+02  0.44284039664E+02  0.00000000000E+00 0. -1.
</event>
<event>
 7    1  0.3707147E-015  0.9000777E+02  0.7816164E-02  0.1186339E+00
        -11   -1    0    0    0    0  0.00000000000E+00  0.00000000000E+00  0.45593999997E+02  0.45594000000E+02  0.51100000000E-03 0. -1.
         11   -1    0    0    0    0 -0.00000000000E+00 -0.00000000000E+00 -0.45593999997E+02  0.45594000000E+02  0.51100000000E-03 0.  1.
    9900012    2    1    2    0    0  0.10495062476E+01  0.32896204258E+00 -0.42810343492E+00  0.90007766150E+02  0.90000027863E+02 0.  0.
         12    1    1    2    0    0 -0.10495062476E+01 -0.32896204258E+00  0.42810343492E+00  0.11802338498E+01  0.00000000000E+00 0. -1.
         11    1    3    3    0    0 -0.68612862411E+01 -0.23713742405E+02 -0.11117157572E+01  0.24711429338E+02  0.51100000000E-03 0. -1.
        -11    1    3    3    0    0 -0.10574885647E+02 -0.64362392711E+01 -0.20413868254E+02  0.23874241344E+02  0.51100000000E-03 0.  1.
        -12    1    3    3    0    0  0.18485678136E+02  0.30478943719E+02  0.21097480576E+02  0.41422095469E+02  0.00000000000E+00 0.  1.
</event>
<event>
 7    1  0.3707147E-015  0.9000771E+02  0.7816164E-02  0.1186339E+00
        -11   -1    0    0    0    0  0.00000000000E+00  0.00000000000E+00  0.45593999997E+02  0.45594000000E+02  0.51100000000E-03 0. -1.
         11   -1    0    0    0    0 -0.00000000000E+00 -0.00000000000E+00 -0.45593999997E+02  0.45594000000E+02  0.51100000000E-03 0.  1.
    9900012    2    1    2    0    0 -0.20003216693E+00 -0.11600369462E+01  0.85886038416E-01  0.90007714019E+02  0.89999975044E+02 0.  0.
         12    1    1    2    0    0  0.20003216693E+00  0.11600369462E+01 -0.85886038416E-01  0.11802859806E+01  0.00000000000E+00 0. -1.
         11    1    3    3    0    0  0.42544101371E+00 -0.53201603906E+01 -0.82226718711E+01  0.98029301537E+01  0.51100000000E-03 0. -1.
        -11    1    3    3    0    0  0.18081296414E+02 -0.29684824417E+02 -0.11687127116E+02  0.36670301624E+02  0.51100000000E-03 0.  1.
         12    1    3    3    0    0 -0.18706769595E+02  0.33844947862E+02  0.19995685026E+02  0.43534482242E+02  0.00000000000E+00 0. -1.
</event>
<event>
 7    1  0.3707147E-015  0.9000749E+02  0.7816164E-02  0.1186340E+00
        -11   -1    0    0    0    0  0.00000000000E+00  0.00000000000E+00  0.45593999997E+02  0.45594000000E+02  0.51100000000E-03 0.  1.
         11   -1    0    0    0    0 -0.00000000000E+00 -0.00000000000E+00 -0.45593999997E+02  0.45594000000E+02  0.51100000000E-03 0. -1.
    9900012    2    1    2    0    0 -0.92249814241E+00 -0.68254324240E+00 -0.27701030641E+00  0.90007490445E+02  0.89999748518E+02 0.  0.
         12    1    1    2    0    0  0.92249814241E+00  0.68254324240E+00  0.27701030641E+00  0.11805095554E+01  0.00000000000E+00 0. -1.
         11    1    3    3    0    0  0.15792845354E+01  0.28299264294E+01  0.83534615305E+01  0.89600749463E+01  0.51100000000E-03 0. -1.
        -11    1    3    3    0    0 -0.50970314674E+01  0.20345403314E+02  0.29377843465E+02  0.36096715262E+02  0.51100000000E-03 0.  1.
         12    1    3    3    0    0  0.25952487896E+01 -0.23857872986E+02 -0.38008315302E+02  0.44950700237E+02  0.00000000000E+00 0. -1.
</event>
<event>
 7    1  0.3707147E-015  0.9000774E+02  0.7816164E-02  0.1186339E+00
        -11   -1    0    0    0    0  0.00000000000E+00  0.00000000000E+00  0.45593999997E+02  0.45594000000E+02  0.51100000000E-03 0.  1.
         11   -1    0    0    0    0 -0.00000000000E+00 -0.00000000000E+00 -0.45593999997E+02  0.45594000000E+02  0.51100000000E-03 0. -1.
    9900012    2    1    2    0    0 -0.89765125802E+00  0.42041565797E+00  0.64069413790E+00  0.90007738976E+02  0.90000000330E+02 0.  0.
         12    1    1    2    0    0  0.89765125802E+00 -0.42041565797E+00 -0.64069413790E+00  0.11802610240E+01  0.00000000000E+00 0. -1.
         11    1    3    3    0    0 -0.25549958284E+02  0.25130910533E+01 -0.27042633498E+02  0.37288336269E+02  0.51100000000E-03 0. -1.
        -11    1    3    3    0    0 -0.94096372434E+01 -0.33976660701E+01  0.24245318563E+01  0.10293870155E+02  0.51100000000E-03 0.  1.
        -12    1    3    3    0    0  0.34061944270E+02  0.13049906747E+01  0.25258795780E+02  0.42425532552E+02  0.00000000000E+00 0.  1.
</event>
<event>
 7    1  0.3707147E-015  0.9000761E+02  0.7816164E-02  0.1186339E+00
        -11   -1    0    0    0    0  0.00000000000E+00  0.00000000000E+00  0.45593999997E+02  0.45594000000E+02  0.51100000000E-03 0. -1.
         11   -1    0    0    0    0 -0.00000000000E+00 -0.00000000000E+00 -0.45593999997E+02  0.45594000000E+02  0.51100000000E-03 0.  1.
    9900012    2    1    2    0    0 -0.15981510829E+00 -0.10322924145E+01 -0.54968897496E+00  0.90007607494E+02  0.89999867113E+02 0.  0.
         12    1    1    2    0    0  0.15981510829E+00  0.10322924145E+01  0.54968897496E+00  0.11803925055E+01  0.00000000000E+00 0. -1.
         11    1    3    3    0    0  0.92453796710E+01  0.74354969246E+00  0.23041609034E+01  0.95571475418E+01  0.51100000000E-03 0. -1.
        -11    1    3    3    0    0  0.32234959652E+01  0.38142725262E+02  0.18193830646E+01  0.38321907202E+02  0.51100000000E-03 0.  1.
         12    1    3    3    0    0 -0.12628690745E+02 -0.39918567369E+02 -0.46732329430E+01  0.42128552750E+02  0.00000000000E+00 0. -1.
</event>
<event>
 7    1  0.3707147E-015  0.9000773E+02  0.7816164E-02  0.1186339E+00
        -11   -1    0    0    0    0  0.00000000000E+00  0.00000000000E+00  0.45593999997E+02  0.45594000000E+02  0.51100000000E-03 0. -1.
         11   -1    0    0    0    0 -0.00000000000E+00 -0.00000000000E+00 -0.45593999997E+02  0.45594000000E+02  0.51100000000E-03 0.  1.
    9900012    2    1    2    0    0 -0.28199147403E+00  0.50692189979E+00 -0.10278801630E+01  0.90007734507E+02  0.89999995803E+02 0.  0.
         12    1    1    2    0    0  0.28199147403E+00 -0.50692189979E+00  0.10278801630E+01  0.11802654927E+01  0.00000000000E+00 0. -1.
         11    1    3    3    0    0 -0.31219841657E+02  0.14073480170E+02 -0.18298649860E+02  0.38827592561E+02  0.51100000000E-03 0. -1.
        -11    1    3    3    0    0  0.47728363181E+01  0.90446555520E+01 -0.35372106928E+01  0.10821165386E+02  0.51100000000E-03 0.  1.
        -12    1    3    3    0    0  0.26165013865E+02 -0.22611213822E+02  0.20807980390E+02  0.40358976560E+02  0.00000000000E+00 0.  1.
</event>
<event>
 7    1  0.3707147E-015  0.9000774E+02  0.7816164E-02  0.1186339E+00
        -11   -1    0    0    0    0  0.00000000000E+00  0.00000000000E+00  0.45593999997E+02  0.45594000000E+02  0.51100000000E-03 0.  1.
         11   -1    0    0    0    0 -0.00000000000E+00 -0.00000000000E+00 -0.45593999997E+02  0.45594000000E+02  0.51100000000E-03 0. -1.
    9900012    2    1    2    0    0 -0.93130960334E+00 -0.33822540700E+00  0.64130389840E+00  0.90007743802E+02  0.90000005220E+02 0.  0.
         12    1    1    2    0    0  0.93130960334E+00  0.33822540700E+00 -0.64130389840E+00  0.11802561982E+01  0.00000000000E+00 0. -1.
         11    1    3    3    0    0  0.32839546643E+02  0.16492257574E+02 -0.60478298007E+01  0.37242537899E+02  0.51100000000E-03 0. -1.
        -11    1    3    3    0    0  0.25157387178E+01  0.29857601433E+01  0.10541420472E+02  0.11241229949E+02  0.51100000000E-03 0.  1.
        -12    1    3    3    0    0 -0.36286594964E+02 -0.19816243124E+02 -0.38522867728E+01  0.41523975954E+02  0.00000000000E+00 0.  1.
</event>
<event>
 7    1  0.3707147E-015  0.9000773E+02  0.7816164E-02  0.1186339E+00
        -11   -1    0    0    0    0  0.00000000000E+00  0.00000000000E+00  0.45593999997E+02  0.45594000000E+02  0.51100000000E-03 0.  1.
         11   -1    0    0    0    0 -0.00000000000E+00 -0.00000000000E+00 -0.45593999997E+02  0.45594000000E+02  0.51100000000E-03 0. -1.
    9900012    2    1    2    0    0  0.71066646461E+00 -0.93793756165E+00  0.90967565282E-01  0.90007725120E+02  0.89999986292E+02 0.  0.
         12    1    1    2    0    0 -0.71066646461E+00  0.93793756165E+00 -0.90967565282E-01  0.11802748796E+01  0.00000000000E+00 0. -1.
         11    1    3    3    0    0 -0.54466016773E+01  0.13205360417E+01 -0.72727348316E+01  0.91816097424E+01  0.51100000000E-03 0. -1.
        -11    1    3    3    0    0 -0.33085877605E+02  0.16520943981E+02  0.37647378667E+01  0.37172437886E+02  0.51100000000E-03 0.  1.
         12    1    3    3    0    0  0.39243145747E+02 -0.18779417585E+02  0.35989645302E+01  0.43653677492E+02  0.00000000000E+00 0. -1.
</event>
<event>
 7    1  0.3707147E-015  0.9000775E+02  0.7816164E-02  0.1186339E+00
        -11   -1    0    0    0    0  0.00000000000E+00  0.00000000000E+00  0.45593999997E+02  0.45594000000E+02  0.51100000000E-03 0.  1.
         11   -1    0    0    0    0 -0.00000000000E+00 -0.00000000000E+00 -0.45593999997E+02  0.45594000000E+02  0.51100000000E-03 0. -1.
    9900012    2    1    2    0    0 -0.92744682186E+00 -0.40314127696E-01  0.72884571255E+00  0.90007746252E+02  0.90000007703E+02 0.  0.
         12    1    1    2    0    0  0.92744682186E+00  0.40314127696E-01 -0.72884571255E+00  0.11802537477E+01  0.00000000000E+00 0. -1.
         11    1    3    3    0    0 -0.25134508306E+01  0.90725773015E+01  0.10647511172E+01  0.94743226233E+01  0.51100000000E-03 0. -1.
        -11    1    3    3    0    0 -0.37553602480E+02 -0.15271952152E+02 -0.40318668159E+01  0.40740170987E+02  0.51100000000E-03 0.  1.
         12    1    3    3    0    0  0.39139606489E+02  0.61590607224E+01  0.36959614113E+01  0.39793252642E+02  0.00000000000E+00 0. -1.
</event>
<event>
 7    1  0.3707147E-015  0.9000774E+02  0.7816164E-02  0.1186339E+00
        -11   -1    0    0    0    0  0.00000000000E+00  0.00000000000E+00  0.45593999997E+02  0.45594000000E+02  0.51100000000E-03 0.  1.
         11   -1    0    0    0    0 -0.00000000000E+00 -0.00000000000E+00 -0.45593999997E+02  0.45594000000E+02  0.51100000000E-03 0. -1.
    9900012    2    1    2    0    0  0.11257214142E+01 -0.53145747018E-01  0.35061447480E+00  0.90007744230E+02  0.90000005654E+02 0.  0.
         12    1    1    2    0    0 -0.11257214142E+01  0.53145747018E-01 -0.35061447480E+00  0.11802557701E+01  0.00000000000E+00 0. -1.
         11    1    3    3    0    0  0.13921452749E+01  0.27025285012E+01 -0.86199502525E+01  0.91403102454E+01  0.51100000000E-03 0. -1.
        -11    1    3    3    0    0  0.31166097052E+02  0.23395446701E+02  0.89233243890E+01  0.39978722468E+02  0.51100000000E-03 0.  1.
         12    1    3    3    0    0 -0.31432520913E+02 -0.26151120949E+02  0.47240338279E-01  0.40888711516E+02  0.00000000000E+00 0. -1.
</event>
<event>
 8    1  0.3707147E-015  0.9000777E+02  0.7816164E-02  0.1186339E+00
        -11   -1    0    0    0    0  0.00000000000E+00  0.00000000000E+00  0.45593999997E+02  0.45594000000E+02  0.51100000000E-03 0. -1.
         11   -1    0    0    0    0 -0.00000000000E+00 -0.00000000000E+00 -0.45593999997E+02  0.45594000000E+02  0.51100000000E-03 0.  1.
    9900012    2    1    2    0    0 -0.24649026714E-01 -0.11589321603E+01  0.22183289913E+00  0.90007770716E+02  0.90000032490E+02 0.  0.
         23    2    3    3    0    0 -0.22720020040E+02 -0.64462671104E+01  0.11781502596E+02  0.63995048064E+02  0.58299302766E+02 0.  0.
         12    1    1    2    0    0  0.24649026714E-01  0.11589321603E+01 -0.22183289913E+00  0.11802292836E+01  0.00000000000E+00 0. -1.
         11    1    4    4    0    0 -0.14436318956E+02  0.94167261290E+01  0.32396406508E+02  0.36696174063E+02  0.51100000000E-03 0. -1.
        -11    1    4    4    0    0 -0.82837010838E+01 -0.15862993239E+02 -0.20614903912E+02  0.27298874001E+02  0.51100000000E-03 0.  1.
        -12    1    3    3    0    0  0.22695371013E+02  0.52873349501E+01 -0.11559669696E+02  0.26012722652E+02  0.00000000000E+00 0.  1.
</event>
<event>
 7    1  0.3707147E-015  0.9000769E+02  0.7816164E-02  0.1186339E+00
        -11   -1    0    0    0    0  0.00000000000E+00  0.00000000000E+00  0.45593999997E+02  0.45594000000E+02  0.51100000000E-03 0.  1.
         11   -1    0    0    0    0 -0.00000000000E+00 -0.00000000000E+00 -0.45593999997E+02  0.45594000000E+02  0.51100000000E-03 0. -1.
    9900012    2    1    2    0    0 -0.10023316763E+01  0.59090263943E+00  0.19821876023E+00  0.90007692669E+02  0.89999953412E+02 0.  0.
         12    1    1    2    0    0  0.10023316763E+01 -0.59090263943E+00 -0.19821876023E+00  0.11803073310E+01  0.00000000000E+00 0. -1.
         11    1    3    3    0    0  0.58851010985E+01 -0.42712653183E+01  0.59411761264E+01  0.93901914988E+01  0.51100000000E-03 0. -1.
        -11    1    3    3    0    0  0.14305382480E+02 -0.18289789090E+02 -0.32109508053E+02  0.39625507700E+02  0.51100000000E-03 0.  1.
         12    1    3    3    0    0 -0.21192815255E+02  0.23151957047E+02  0.26366550686E+02  0.40991993470E+02  0.00000000000E+00 0. -1.
</event>
<event>
 7    1  0.3707147E-015  0.9000775E+02  0.7816164E-02  0.1186339E+00
        -11   -1    0    0    0    0  0.00000000000E+00  0.00000000000E+00  0.45593999997E+02  0.45594000000E+02  0.51100000000E-03 0.  1.
         11   -1    0    0    0    0 -0.00000000000E+00 -0.00000000000E+00 -0.45593999997E+02  0.45594000000E+02  0.51100000000E-03 0. -1.
    9900012    2    1    2    0    0 -0.56551587713E+00  0.11902693629E+00  0.10290879453E+01  0.90007746799E+02  0.90000008257E+02 0.  0.
         12    1    1    2    0    0  0.56551587713E+00 -0.11902693629E+00 -0.10290879453E+01  0.11802532008E+01  0.00000000000E+00 0. -1.
         11    1    3    3    0    0  0.13970987270E+02 -0.32261737511E+02 -0.19554501750E+02  0.40229177614E+02  0.51100000000E-03 0. -1.
        -11    1    3    3    0    0 -0.92969651785E+01  0.12895076642E+01 -0.35893347676E+01  0.10048866398E+02  0.51100000000E-03 0.  1.
        -12    1    3    3    0    0 -0.52395379686E+01  0.31091256783E+02  0.24172924463E+02  0.39729702787E+02  0.00000000000E+00 0.  1.
</event>
<event>
 7    1  0.3707147E-015  0.9000762E+02  0.7816164E-02  0.1186339E+00
        -11   -1    0    0    0    0  0.00000000000E+00  0.00000000000E+00  0.45593999997E+02  0.45594000000E+02  0.51100000000E-03 0. -1.
         11   -1    0    0    0    0 -0.00000000000E+00 -0.00000000000E+00 -0.45593999997E+02  0.45594000000E+02  0.51100000000E-03 0.  1.
    9900012    2    1    2    0    0  0.47373048724E+00 -0.31193036000E+00 -0.10351674415E+01  0.90007621774E+02  0.89999881582E+02 0.  0.
         12    1    1    2    0    0 -0.47373048724E+00  0.31193036000E+00  0.10351674415E+01  0.11803782258E+01  0.00000000000E+00 0. -1.
         11    1    3    3    0    0  0.23532208188E+02 -0.24447802794E+02  0.17023394556E+02  0.37963875541E+02  0.51100000000E-03 0. -1.
        -11    1    3    3    0    0 -0.36059892676E+01 -0.82167715342E+01  0.21463351960E+01  0.92263344876E+01  0.51100000000E-03 0.  1.
        -12    1    3    3    0    0 -0.19452488433E+02  0.32352643968E+02 -0.20204897194E+02  0.42817411745E+02  0.00000000000E+00 0.  1.
</event>
<event>
 7    1  0.3707147E-015  0.9000753E+02  0.7816164E-02  0.1186339E+00
        -11   -1    0    0    0    0  0.00000000000E+00  0.00000000000E+00  0.45593999997E+02  0.45594000000E+02  0.51100000000E-03 0.  1.
         11   -1    0    0    0    0 -0.00000000000E+00 -0.00000000000E+00 -0.45593999997E+02  0.45594000000E+02  0.51100000000E-03 0. -1.
    9900012    2    1    2    0    0  0.58037332259E+00  0.61252865130E+00  0.82552405560E+00  0.90007527845E+02  0.89999786412E+02 0.  0.
         12    1    1    2    0    0 -0.58037332259E+00 -0.61252865130E+00 -0.82552405560E+00  0.11804721549E+01  0.00000000000E+00 0. -1.
         11    1    3    3    0    0  0.45105859230E+00  0.26478445495E+02 -0.35243114985E+02  0.44083882358E+02  0.51100000000E-03 0. -1.
        -11    1    3    3    0    0  0.34688941707E+01 -0.41351080613E+01  0.28923672971E+01  0.61235720203E+01  0.51100000000E-03 0.  1.
        -12    1    3    3    0    0 -0.33395794404E+01 -0.21730808782E+02  0.33176271743E+02  0.39800073467E+02  0.00000000000E+00 0.  1.
</event>
<event>
 7    1  0.3707147E-015  0.9000794E+02  0.7816164E-02  0.1186339E+00
        -11   -1    0    0    0    0  0.00000000000E+00  0.00000000000E+00  0.45593999997E+02  0.45594000000E+02  0.51100000000E-03 0.  1.
         11   -1    0    0    0    0 -0.00000000000E+00 -0.00000000000E+00 -0.45593999997E+02  0.45594000000E+02  0.51100000000E-03 0. -1.
    9900012    2    1    2    0    0 -0.26388521077E+00 -0.37364242302E+00  0.10877946373E+01  0.90007940155E+02  0.90000204165E+02 0.  0.
         12    1    1    2    0    0  0.26388521077E+00  0.37364242302E+00 -0.10877946373E+01  0.11800598450E+01  0.00000000000E+00 0. -1.
         11    1    3    3    0    0 -0.29244729037E+01  0.84872279611E+01  0.10848191937E+01  0.90422570839E+01  0.51100000000E-03 0. -1.
        -11    1    3    3    0    0 -0.29695303674E+02  0.24772775888E+01  0.24705880104E+02  0.38708248172E+02  0.51100000000E-03 0.  1.
         12    1    3    3    0    0  0.32355891367E+02 -0.11338147973E+02 -0.24702904661E+02  0.42257434899E+02  0.00000000000E+00 0. -1.
</event>
<event>
 7    1  0.5894981E-015  0.9000771E+02  0.7816164E-02  0.1186339E+00
        -11   -1    0    0    0    0  0.00000000000E+00  0.00000000000E+00  0.45593999997E+02  0.45594000000E+02  0.51100000000E-03 0. -1.
         11   -1    0    0    0    0 -0.00000000000E+00 -0.00000000000E+00 -0.45593999997E+02  0.45594000000E+02  0.51100000000E-03 0.  1.
    9900012    2    1    2    0    0  0.92139851854E+00  0.19863559069E+00 -0.71039287810E+00  0.90007707931E+02  0.89999968875E+02 0.  0.
         12    1    1    2    0    0 -0.92139851854E+00 -0.19863559069E+00  0.71039287810E+00  0.11802920694E+01  0.00000000000E+00 0. -1.
         11    1    3    3    0    0  0.30950176887E-01  0.83280411944E+01 -0.36675568563E+01  0.90999011866E+01  0.51100000000E-03 0. -1.
        -11    1    3    3    0    0  0.66669750169E+01  0.22996149523E+02 -0.27855194441E+02  0.36731230668E+02  0.51100000000E-03 0.  1.
         12    1    3    3    0    0 -0.57765266752E+01 -0.31125555127E+02  0.30812358420E+02  0.44176576076E+02  0.00000000000E+00 0. -1.
</event>
<event>
 7    1  0.3707147E-015  0.9000772E+02  0.7816164E-02  0.1186339E+00
        -11   -1    0    0    0    0  0.00000000000E+00  0.00000000000E+00  0.45593999997E+02  0.45594000000E+02  0.51100000000E-03 0. -1.
         11   -1    0    0    0    0 -0.00000000000E+00 -0.00000000000E+00 -0.45593999997E+02  0.45594000000E+02  0.51100000000E-03 0.  1.
    9900012    2    1    2    0    0  0.49662547245E+00 -0.98532854385E+00 -0.41898534547E+00  0.90007721254E+02  0.89999982374E+02 0.  0.
         12    1    1    2    0    0 -0.49662547245E+00  0.98532854385E+00  0.41898534547E+00  0.11802787463E+01  0.00000000000E+00 0. -1.
         11    1    3    3    0    0 -0.60494423635E+01 -0.93149457837E+00  0.54327738656E+01  0.81840373407E+01  0.51100000000E-03 0. -1.
        -11    1    3    3    0    0 -0.29861560059E+02 -0.11968070238E+02 -0.23307664243E+02  0.39726498551E+02  0.51100000000E-03 0.  1.
         12    1    3    3    0    0  0.36407627895E+02  0.11914236273E+02  0.17455905032E+02  0.42097185362E+02  0.00000000000E+00 0. -1.
</event>
<event>
 7    1  0.3707147E-015  0.9000891E+02  0.7816164E-02  0.1186337E+00
        -11   -1    0    0    0    0  0.00000000000E+00  0.00000000000E+00  0.45593999997E+02  0.45594000000E+02  0.51100000000E-03 0.  1.
         11   -1    0    0    0    0 -0.00000000000E+00 -0.00000000000E+00 -0.45593999997E+02  0.45594000000E+02  0.51100000000E-03 0. -1.
    9900012    2    1    2    0    0  0.29057900235E+00  0.10934202217E+01  0.33202835923E+00  0.90008912739E+02  0.90001189579E+02 0.  0.
         12    1    1    2    0    0 -0.29057900235E+00 -0.10934202217E+01 -0.33202835923E+00  0.11790872611E+01  0.00000000000E+00 0. -1.
         11    1    3    3    0    0 -0.15586631520E+02 -0.53403304567E+01  0.12680515845E+02  0.20790807918E+02  0.51100000000E-03 0. -1.
        -11    1    3    3    0    0  0.11722692287E+02  0.23126885207E+02  0.19889078216E+02  0.32677970659E+02  0.51100000000E-03 0.  1.
         12    1    3    3    0    0  0.41545182352E+01 -0.16693134528E+02 -0.32237565702E+02  0.36540134162E+02  0.00000000000E+00 0. -1.
</event>
<event>
 7    1  0.3707147E-015  0.9000775E+02  0.7816164E-02  0.1186339E+00
        -11   -1    0    0    0    0  0.00000000000E+00  0.00000000000E+00  0.45593999997E+02  0.45594000000E+02  0.51100000000E-03 0.  1.
         11   -1    0    0    0    0 -0.00000000000E+00 -0.00000000000E+00 -0.45593999997E+02  0.45594000000E+02  0.51100000000E-03 0. -1.
    9900012    2    1    2    0    0  0.64391704045E+00  0.12262194233E+00 -0.98149491011E+00  0.90007746826E+02  0.90000008284E+02 0.  0.
         12    1    1    2    0    0 -0.64391704045E+00 -0.12262194233E+00  0.98149491011E+00  0.11802531738E+01  0.00000000000E+00 0. -1.
         11    1    3    3    0    0  0.40613346947E+01  0.27358381324E+02 -0.26762820120E+02  0.38486673137E+02  0.51100000000E-03 0. -1.
        -11    1    3    3    0    0 -0.10486184806E+00  0.85270340941E+01  0.67413940976E+01  0.10870496819E+02  0.51100000000E-03 0.  1.
        -12    1    3    3    0    0 -0.33125558062E+01 -0.35762793475E+02  0.19039931112E+02  0.40650576870E+02  0.00000000000E+00 0.  1.
</event>
<event>
 7    1  0.3707147E-015  0.9000778E+02  0.7816164E-02  0.1186339E+00
        -11   -1    0    0    0    0  0.00000000000E+00  0.00000000000E+00  0.45593999997E+02  0.45594000000E+02  0.51100000000E-03 0. -1.
         11   -1    0    0    0    0 -0.00000000000E+00 -0.00000000000E+00 -0.45593999997E+02  0.45594000000E+02  0.51100000000E-03 0.  1.
    9900012    2    1    2    0    0 -0.19073124839E+00  0.65713271611E+00 -0.96162295745E+00  0.90007779458E+02  0.90000041347E+02 0.  0.
         12    1    1    2    0    0  0.19073124839E+00 -0.65713271611E+00  0.96162295745E+00  0.11802205421E+01  0.00000000000E+00 0. -1.
         11    1    3    3    0    0  0.20665266797E+00 -0.27356058822E+01 -0.99292305580E+01  0.10301255487E+02  0.51100000000E-03 0. -1.
        -11    1    3    3    0    0  0.47326192950E+01  0.84392227726E+01 -0.34405696995E+02  0.35740315504E+02  0.51100000000E-03 0.  1.
         12    1    3    3    0    0 -0.51300032114E+01 -0.50464841742E+01  0.43373304595E+02  0.43966208467E+02  0.00000000000E+00 0. -1.
</event>
<event>
 7    1  0.3707147E-015  0.9000775E+02  0.7816164E-02  0.1186339E+00
        -11   -1    0    0    0    0  0.00000000000E+00  0.00000000000E+00  0.45593999997E+02  0.45594000000E+02  0.51100000000E-03 0.  1.
         11   -1    0    0    0    0 -0.00000000000E+00 -0.00000000000E+00 -0.45593999997E+02  0.45594000000E+02  0.51100000000E-03 0. -1.
    9900012    2    1    2    0    0 -0.66106827790E+00  0.32932471222E+00  0.92060489167E+00  0.90007754517E+02  0.90000016076E+02 0.  0.
         12    1    1    2    0    0  0.66106827790E+00 -0.32932471222E+00 -0.92060489167E+00  0.11802454832E+01  0.00000000000E+00 0. -1.
         11    1    3    3    0    0  0.32440094729E+02 -0.15668372004E+02 -0.19279582680E+02  0.40860248847E+02  0.51100000000E-03 0. -1.
        -11    1    3    3    0    0 -0.51050398224E+01 -0.69361588799E+01  0.37170787294E+01  0.93802135444E+01  0.51100000000E-03 0.  1.
        -12    1    3    3    0    0 -0.27996123184E+02  0.22933855596E+02  0.16483108843E+02  0.39767292125E+02  0.00000000000E+00 0.  1.
</event>
<event>
 7    1  0.3707147E-015  0.9000773E+02  0.7816164E-02  0.1186339E+00
        -11   -1    0    0    0    0  0.00000000000E+00  0.00000000000E+00  0.45593999997E+02  0.45594000000E+02  0.51100000000E-03 0. -1.
         11   -1    0    0    0    0 -0.00000000000E+00 -0.00000000000E+00 -0.45593999997E+02  0.45594000000E+02  0.51100000000E-03 0.  1.
    9900012    2    1    2    0    0 -0.10628384047E+01  0.47875132429E+00  0.18498130257E+00  0.90007726139E+02  0.89999987324E+02 0.  0.
         12    1    1    2    0    0  0.10628384047E+01 -0.47875132429E+00 -0.18498130257E+00  0.11802738612E+01  0.00000000000E+00 0. -1.
         11    1    3    3    0    0  0.59856851958E+01  0.28550494913E+02  0.25719010503E+02  0.38889930427E+02  0.51100000000E-03 0. -1.
        -11    1    3    3    0    0  0.73704180699E+01 -0.58736404411E+01  0.50316332762E+01  0.10683634599E+02  0.51100000000E-03 0.  1.
        -12    1    3    3    0    0 -0.14418941670E+02 -0.22198103148E+02 -0.30565662477E+02  0.40434161113E+02  0.00000000000E+00 0.  1.
</event>
<event>
 7    1  0.3707147E-015  0.9000763E+02  0.7816164E-02  0.1186339E+00
        -11   -1    0    0    0    0  0.00000000000E+00  0.00000000000E+00  0.45593999997E+02  0.45594000000E+02  0.51100000000E-03 0.  1.
         11   -1    0    0    0    0 -0.00000000000E+00 -0.00000000000E+00 -0.45593999997E+02  0.45594000000E+02  0.51100000000E-03 0. -1.
    9900012    2    1    2    0    0  0.64607717122E+00  0.51889787883E+00  0.84059172406E+00  0.90007633461E+02  0.89999893423E+02 0.  0.
         12    1    1    2    0    0 -0.64607717122E+00 -0.51889787883E+00 -0.84059172406E+00  0.11803665390E+01  0.00000000000E+00 0. -1.
         11    1    3    3    0    0 -0.34947590314E+02  0.11216710876E+02  0.14879225152E+02  0.39604797854E+02  0.51100000000E-03 0. -1.
        -11    1    3    3    0    0  0.33827451647E+01  0.41198211977E+00  0.87643114345E+01  0.94035019699E+01  0.51100000000E-03 0.  1.
        -12    1    3    3    0    0  0.32210922321E+02 -0.11109795117E+02 -0.22802944862E+02  0.40999333637E+02  0.00000000000E+00 0.  1.
</event>
<event>
 7    1  0.3707147E-015  0.9000814E+02  0.7816164E-02  0.1186338E+00
        -11   -1    0    0    0    0  0.00000000000E+00  0.00000000000E+00  0.45593999997E+02  0.45594000000E+02  0.51100000000E-03 0. -1.
         11   -1    0    0    0    0 -0.00000000000E+00 -0.00000000000E+00 -0.45593999997E+02  0.45594000000E+02  0.51100000000E-03 0.  1.
    9900012    2    1    2    0    0  0.36455684217E+00  0.25016998164E+00 -0.10938865375E+01  0.90008137945E+02  0.90000404565E+02 0.  0.
         12    1    1    2    0    0 -0.36455684217E+00 -0.25016998164E+00  0.10938865375E+01  0.11798620545E+01  0.00000000000E+00 0. -1.
         11    1    3    3    0    0 -0.44997174270E+01  0.31286224932E+00  0.80098083678E+01  0.91925170688E+01  0.51100000000E-03 0. -1.
        -11    1    3    3    0    0  0.24980022293E+02 -0.29214091623E+01  0.28539003338E+02  0.38039595911E+02  0.51100000000E-03 0.  1.
         12    1    3    3    0    0 -0.20115748024E+02  0.28587168946E+01 -0.37642698243E+02  0.42776024966E+02  0.00000000000E+00 0. -1.
</event>
<event>
 7    1  0.3707147E-015  0.9000768E+02  0.7816164E-02  0.1186339E+00
        -11   -1    0    0    0    0  0.00000000000E+00  0.00000000000E+00  0.45593999997E+02  0.45594000000E+02  0.51100000000E-03 0.  1.
         11   -1    0    0    0    0 -0.00000000000E+00 -0.00000000000E+00 -0.45593999997E+02  0.45594000000E+02  0.51100000000E-03 0. -1.
    9900012    2    1    2    0    0  0.96353715099E+00 -0.53887386372E+00 -0.41757374392E+00  0.90007679402E+02  0.89999939970E+02 0.  0.
         12    1    1    2    0    0 -0.96353715099E+00  0.53887386372E+00  0.41757374392E+00  0.11803205980E+01  0.00000000000E+00 0. -1.
         11    1    3    3    0    0 -0.17482543131E+02  0.17759290804E+02 -0.48751968735E+00  0.24925276326E+02  0.51100000000E-03 0. -1.
        -11    1    3    3    0    0  0.17429644948E+02  0.15147289123E+02 -0.15869306996E+02  0.28019061290E+02  0.51100000000E-03 0.  1.
         12    1    3    3    0    0  0.10164353339E+01 -0.33445453791E+02  0.15939252939E+02  0.37063341786E+02  0.00000000000E+00 0. -1.
</event>
<event>
 7    1  0.3707147E-015  0.9000771E+02  0.7816164E-02  0.1186339E+00
        -11   -1    0    0    0    0  0.00000000000E+00  0.00000000000E+00  0.45593999997E+02  0.45594000000E+02  0.51100000000E-03 0.  1.
         11   -1    0    0    0    0 -0.00000000000E+00 -0.00000000000E+00 -0.45593999997E+02  0.45594000000E+02  0.51100000000E-03 0. -1.
    9900012    2    1    2    0    0 -0.62322428283E+00  0.96637830158E+00 -0.26605369109E+00  0.90007711859E+02  0.89999972856E+02 0.  0.
         12    1    1    2    0    0  0.62322428283E+00 -0.96637830158E+00  0.26605369109E+00  0.11802881407E+01  0.00000000000E+00 0. -1.
         11    1    3    3    0    0 -0.28253835622E+02 -0.23946727088E+02 -0.60559661522E+01  0.37528651612E+02  0.51100000000E-03 0. -1.
        -11    1    3    3    0    0 -0.58843588360E+01  0.11391450428E+01 -0.72146651539E+01  0.93794842014E+01  0.51100000000E-03 0.  1.
        -12    1    3    3    0    0  0.33514970175E+02  0.23773960346E+02  0.13004577615E+02  0.43099576046E+02  0.00000000000E+00 0.  1.
</event>
<event>
 7    1  0.3707147E-015  0.9000769E+02  0.7816164E-02  0.1186339E+00
        -11   -1    0    0    0    0  0.00000000000E+00  0.00000000000E+00  0.45593999997E+02  0.45594000000E+02  0.51100000000E-03 0.  1.
         11   -1    0    0    0    0 -0.00000000000E+00 -0.00000000000E+00 -0.45593999997E+02  0.45594000000E+02  0.51100000000E-03 0. -1.
    9900012    2    1    2    0    0 -0.11491269527E+01 -0.80982774866E-01  0.25705081016E+00  0.90007692378E+02  0.89999953118E+02 0.  0.
         12    1    1    2    0    0  0.11491269527E+01  0.80982774866E-01 -0.25705081016E+00  0.11803076219E+01  0.00000000000E+00 0. -1.
         11    1    3    3    0    0  0.76407504099E+01  0.52849119828E+01  0.11810847898E+01  0.93651654035E+01  0.51100000000E-03 0. -1.
        -11    1    3    3    0    0  0.15994046514E+02 -0.54207389463E+01 -0.34792512485E+02  0.38674447118E+02  0.51100000000E-03 0.  1.
         12    1    3    3    0    0 -0.24783923877E+02  0.54844188585E-01  0.33868478505E+02  0.41968079857E+02  0.00000000000E+00 0. -1.
</event>
<event>
 7    1  0.3707147E-015  0.9000775E+02  0.7816164E-02  0.1186339E+00
        -11   -1    0    0    0    0  0.00000000000E+00  0.00000000000E+00  0.45593999997E+02  0.45594000000E+02  0.51100000000E-03 0.  1.
         11   -1    0    0    0    0 -0.00000000000E+00 -0.00000000000E+00 -0.45593999997E+02  0.45594000000E+02  0.51100000000E-03 0. -1.
    9900012    2    1    2    0    0 -0.88350259646E+00  0.38590446862E+00  0.68080717031E+00  0.90007746849E+02  0.90000008308E+02 0.  0.
         12    1    1    2    0    0  0.88350259646E+00 -0.38590446862E+00 -0.68080717031E+00  0.11802531508E+01  0.00000000000E+00 0. -1.
         11    1    3    3    0    0 -0.24552115466E+02 -0.89617667839E+01 -0.29811941312E+02  0.39646834461E+02  0.51100000000E-03 0. -1.
        -11    1    3    3    0    0 -0.65249386471E+01  0.48947317257E+01  0.15564830308E+01  0.83039666848E+01  0.51100000000E-03 0.  1.
        -12    1    3    3    0    0  0.30193551517E+02  0.44529395268E+01  0.28936265451E+02  0.42056945703E+02  0.00000000000E+00 0.  1.
</event>
<event>
 7    1  0.3707147E-015  0.9000783E+02  0.7816164E-02  0.1186339E+00
        -11   -1    0    0    0    0  0.00000000000E+00  0.00000000000E+00  0.45593999997E+02  0.45594000000E+02  0.51100000000E-03 0. -1.
         11   -1    0    0    0    0 -0.00000000000E+00 -0.00000000000E+00 -0.45593999997E+02  0.45594000000E+02  0.51100000000E-03 0.  1.
    9900012    2    1    2    0    0 -0.11596355402E+01 -0.21833856697E+00 -0.19416493781E-01  0.90007829116E+02  0.90000091660E+02 0.  0.
         12    1    1    2    0    0  0.11596355402E+01  0.21833856697E+00  0.19416493781E-01  0.11801708843E+01  0.00000000000E+00 0. -1.
         11    1    3    3    0    0 -0.66325442378E+01  0.54903947644E+00 -0.83406408877E+01  0.10670444137E+02  0.51100000000E-03 0. -1.
        -11    1    3    3    0    0 -0.15633626407E+02  0.17824804144E+02 -0.25851526378E+02  0.35077561685E+02  0.51100000000E-03 0.  1.
         12    1    3    3    0    0  0.21106535104E+02 -0.18592182188E+02  0.34172750772E+02  0.44259823293E+02  0.00000000000E+00 0. -1.
</event>
<event>
 7    1  0.3707147E-015  0.9000772E+02  0.7816164E-02  0.1186339E+00
        -11   -1    0    0    0    0  0.00000000000E+00  0.00000000000E+00  0.45593999997E+02  0.45594000000E+02  0.51100000000E-03 0.  1.
         11   -1    0    0    0    0 -0.00000000000E+00 -0.00000000000E+00 -0.45593999997E+02  0.45594000000E+02  0.51100000000E-03 0. -1.
    9900012    2    1    2    0    0  0.35428282126E+00 -0.87754364528E+00  0.70531449881E+00  0.90007717106E+02  0.89999978172E+02 0.  0.
         12    1    1    2    0    0 -0.35428282126E+00  0.87754364528E+00 -0.70531449881E+00  0.11802828937E+01  0.00000000000E+00 0. -1.
         11    1    3    3    0    0  0.15585389459E+01 -0.66346686917E+01  0.58500563260E+01  0.89817053822E+01  0.51100000000E-03 0. -1.
        -11    1    3    3    0    0  0.29571272320E+02 -0.90362619095E+01 -0.26524233442E+02  0.40738791537E+02  0.51100000000E-03 0.  1.
         12    1    3    3    0    0 -0.30775528445E+02  0.14793386956E+02  0.21379491615E+02  0.40287220187E+02  0.00000000000E+00 0. -1.
</event>
<event>
 7    1  0.3707147E-015  0.9000772E+02  0.7816164E-02  0.1186339E+00
        -11   -1    0    0    0    0  0.00000000000E+00  0.00000000000E+00  0.45593999997E+02  0.45594000000E+02  0.51100000000E-03 0.  1.
         11   -1    0    0    0    0 -0.00000000000E+00 -0.00000000000E+00 -0.45593999997E+02  0.45594000000E+02  0.51100000000E-03 0. -1.
    9900012    2    1    2    0    0  0.57486104231E+00  0.63597841402E+00  0.81124883820E+00  0.90007721034E+02  0.89999982151E+02 0.  0.
         12    1    1    2    0    0 -0.57486104231E+00 -0.63597841402E+00 -0.81124883820E+00  0.11802789664E+01  0.00000000000E+00 0. -1.
         11    1    3    3    0    0  0.27018970206E+02  0.43615357514E+01 -0.34824315061E+02  0.44291993236E+02  0.51100000000E-03 0. -1.
        -11    1    3    3    0    0 -0.14058412639E+01  0.23848219644E+01  0.46581555030E+01  0.54186878866E+01  0.51100000000E-03 0.  1.
        -12    1    3    3    0    0 -0.25038267900E+02 -0.61103793017E+01  0.30977408396E+02  0.40297039911E+02  0.00000000000E+00 0.  1.
</event>
<event>
 7    1  0.3707147E-015  0.9000773E+02  0.7816164E-02  0.1186339E+00
        -11   -1    0    0    0    0  0.00000000000E+00  0.00000000000E+00  0.45593999997E+02  0.45594000000E+02  0.51100000000E-03 0. -1.
         11   -1    0    0    0    0 -0.00000000000E+00 -0.00000000000E+00 -0.45593999997E+02  0.45594000000E+02  0.51100000000E-03 0.  1.
    9900012    2    1    2    0    0 -0.31037261413E+00 -0.25978038077E+00 -0.11086995736E+01  0.90007732340E+02  0.89999993606E+02 0.  0.
         12    1    1    2    0    0  0.31037261413E+00  0.25978038077E+00  0.11086995736E+01  0.11802676604E+01  0.00000000000E+00 0. -1.
         11    1    3    3    0    0 -0.63877190269E+01  0.26280769931E+01  0.63299305090E+01  0.93689787896E+01  0.51100000000E-03 0. -1.
        -11    1    3    3    0    0  0.66111292167E+01 -0.40791886678E+02 -0.10408495630E+02  0.42614807635E+02  0.51100000000E-03 0.  1.
         12    1    3    3    0    0 -0.53378280395E+00  0.37904029304E+02  0.29698655473E+01  0.38023945915E+02  0.00000000000E+00 0. -1.
</event>
<event>
 7    1  0.4417508E-015  0.9000771E+02  0.7816164E-02  0.1186339E+00
        -11   -1    0    0    0    0  0.00000000000E+00  0.00000000000E+00  0.45593999997E+02  0.45594000000E+02  0.51100000000E-03 0.  1.
         11   -1    0    0    0    0 -0.00000000000E+00 -0.00000000000E+00 -0.45593999997E+02  0.45594000000E+02  0.51100000000E-03 0. -1.
    9900012    2    1    2    0    0 -0.28723390587E+00 -0.76579136301E+00 -0.85096142804E+00  0.90007713984E+02  0.89999975008E+02 0.  0.
         12    1    1    2    0    0  0.28723390587E+00  0.76579136301E+00  0.85096142804E+00  0.11802860163E+01  0.00000000000E+00 0. -1.
         11    1    3    3    0    0  0.63571709845E+01 -0.54885104382E+01 -0.58136226586E+01  0.10214478863E+02  0.51100000000E-03 0. -1.
        -11    1    3    3    0    0 -0.28699166769E+02  0.17660600326E+02 -0.23840178387E+02  0.41278239823E+02  0.51100000000E-03 0.  1.
         12    1    3    3    0    0  0.22054761879E+02 -0.12937881251E+02  0.28802839617E+02  0.38514995298E+02  0.00000000000E+00 0. -1.
</event>
<event>
 7    1  0.3707147E-015  0.9000758E+02  0.7816164E-02  0.1186339E+00
        -11   -1    0    0    0    0  0.00000000000E+00  0.00000000000E+00  0.45593999997E+02  0.45594000000E+02  0.51100000000E-03 0.  1.
         11   -1    0    0    0    0 -0.00000000000E+00 -0.00000000000E+00 -0.45593999997E+02  0.45594000000E+02  0.51100000000E-03 0. -1.
    9900012    2    1    2    0    0  0.15910680357E+00 -0.84111352300E+00  0.81277571520E+00  0.90007580034E+02  0.89999839290E+02 0.  0.
         12    1    1    2    0    0 -0.15910680357E+00  0.84111352300E+00 -0.81277571520E+00  0.11804199663E+01  0.00000000000E+00 0. -1.
         11    1    3    3    0    0 -0.11031348155E+02 -0.21827075211E+02 -0.24624044632E+02  0.34705265144E+02  0.51100000000E-03 0. -1.
        -11    1    3    3    0    0 -0.32638721140E+01 -0.11549682920E+02  0.84287038977E+00  0.12031561307E+02  0.51100000000E-03 0.  1.
        -12    1    3    3    0    0  0.14454327073E+02  0.32535644608E+02  0.24593949958E+02  0.43270753583E+02  0.00000000000E+00 0.  1.
</event>
<event>
 7    1  0.3707147E-015  0.9000746E+02  0.7816164E-02  0.1186340E+00
        -11   -1    0    0    0    0  0.00000000000E+00  0.00000000000E+00  0.45593999997E+02  0.45594000000E+02  0.51100000000E-03 0. -1.
         11   -1    0    0    0    0 -0.00000000000E+00 -0.00000000000E+00 -0.45593999997E+02  0.45594000000E+02  0.51100000000E-03 0.  1.
    9900012    2    1    2    0    0  0.36233150874E+00  0.91034013442E+00 -0.65853110917E+00  0.90007463468E+02  0.89999721185E+02 0.  0.
         12    1    1    2    0    0 -0.36233150874E+00 -0.91034013442E+00  0.65853110917E+00  0.11805365324E+01  0.00000000000E+00 0. -1.
         11    1    3    3    0    0 -0.35582953061E+01  0.32842029442E+02 -0.14763508266E+02  0.36183166527E+02  0.51100000000E-03 0. -1.
        -11    1    3    3    0    0 -0.17351991963E+00  0.79664760833E+01 -0.49912795722E+01  0.94025380817E+01  0.51100000000E-03 0.  1.
        -12    1    3    3    0    0  0.40941467344E+01 -0.39898165391E+02  0.19096256729E+02  0.44421758859E+02  0.00000000000E+00 0.  1.
</event>
<event>
 7    1  0.3707147E-015  0.9000845E+02  0.7816164E-02  0.1186338E+00
        -11   -1    0    0    0    0  0.00000000000E+00  0.00000000000E+00  0.45593999997E+02  0.45594000000E+02  0.51100000000E-03 0. -1.
         11   -1    0    0    0    0 -0.00000000000E+00 -0.00000000000E+00 -0.45593999997E+02  0.45594000000E+02  0.51100000000E-03 0.  1.
    9900012    2    1    2    0    0  0.10448037024E+01 -0.27593516557E+00 -0.47284286472E+00  0.90008451202E+02  0.90000721955E+02 0.  0.
         12    1    1    2    0    0 -0.10448037024E+01  0.27593516557E+00  0.47284286472E+00  0.11795487980E+01  0.00000000000E+00 0. -1.
         11    1    3    3    0    0  0.65489188389E+01 -0.36805847922E+02 -0.14444406668E+02  0.40077420868E+02  0.51100000000E-03 0. -1.
        -11    1    3    3    0    0 -0.69931495173E+01  0.17739763509E+01 -0.63769877726E+01  0.96289721974E+01  0.51100000000E-03 0.  1.
        -12    1    3    3    0    0  0.14890343808E+01  0.34755936405E+02  0.20348551576E+02  0.40302058136E+02  0.00000000000E+00 0.  1.
</event>
<event>
 7    1  0.3707147E-015  0.9000778E+02  0.7816164E-02  0.1186339E+00
        -11   -1    0    0    0    0  0.00000000000E+00  0.00000000000E+00  0.45593999997E+02  0.45594000000E+02  0.51100000000E-03 0.  1.
         11   -1    0    0    0    0 -0.00000000000E+00 -0.00000000000E+00 -0.45593999997E+02  0.45594000000E+02  0.51100000000E-03 0. -1.
    9900012    2    1    2    0    0 -0.19340424085E+00  0.87791955648E+00  0.76470897623E+00  0.90007776391E+02  0.90000038240E+02 0.  0.
         12    1    1    2    0    0  0.19340424085E+00 -0.87791955648E+00 -0.76470897623E+00  0.11802236086E+01  0.00000000000E+00 0. -1.
         11    1    3    3    0    0  0.60168600021E+00  0.89098529720E+01  0.28617781623E+01  0.93774879652E+01  0.51100000000E-03 0. -1.
        -11    1    3    3    0    0  0.34559633749E+02 -0.21350142856E+02  0.82652449820E+01  0.41454929257E+02  0.51100000000E-03 0.  1.
         12    1    3    3    0    0 -0.35354723990E+02  0.13318209441E+02 -0.10362314168E+02  0.39175359169E+02  0.00000000000E+00 0. -1.
</event>
<event>
 7    1  0.3707147E-015  0.9000772E+02  0.7816164E-02  0.1186339E+00
        -11   -1    0    0    0    0  0.00000000000E+00  0.00000000000E+00  0.45593999997E+02  0.45594000000E+02  0.51100000000E-03 0.  1.
         11   -1    0    0    0    0 -0.00000000000E+00 -0.00000000000E+00 -0.45593999997E+02  0.45594000000E+02  0.51100000000E-03 0. -1.
    9900012    2    1    2    0    0  0.68141447569E-01  0.14147418225E+00  0.11697917797E+01  0.90007715708E+02  0.89999976756E+02 0.  0.
         12    1    1    2    0    0 -0.68141447569E-01 -0.14147418225E+00 -0.11697917797E+01  0.11802842915E+01  0.00000000000E+00 0. -1.
         11    1    3    3    0    0 -0.68303438095E+01  0.56534518929E+01 -0.38664758638E+02  0.39668358621E+02  0.51100000000E-03 0. -1.
        -11    1    3    3    0    0 -0.49813272639E-01 -0.85175676397E+01 -0.12093273624E+01  0.86031338935E+01  0.51100000000E-03 0.  1.
        -12    1    3    3    0    0  0.69482985297E+01  0.30055899291E+01  0.41043877780E+02  0.41736223194E+02  0.00000000000E+00 0.  1.
</event>
<event>
 7    1  0.3707147E-015  0.9000769E+02  0.7816164E-02  0.1186339E+00
        -11   -1    0    0    0    0  0.00000000000E+00  0.00000000000E+00  0.45593999997E+02  0.45594000000E+02  0.51100000000E-03 0. -1.
         11   -1    0    0    0    0 -0.00000000000E+00 -0.00000000000E+00 -0.45593999997E+02  0.45594000000E+02  0.51100000000E-03 0.  1.
    9900012    2    1    2    0    0 -0.11228825223E+01  0.34839950871E+00 -0.10433323473E+00  0.90007689532E+02  0.89999950234E+02 0.  0.
         12    1    1    2    0    0  0.11228825223E+01 -0.34839950871E+00  0.10433323473E+00  0.11803104678E+01  0.00000000000E+00 0. -1.
         11    1    3    3    0    0  0.32870009728E+01  0.82105268876E+01  0.49368302138E+01  0.10128643541E+02  0.51100000000E-03 0. -1.
        -11    1    3    3    0    0  0.14976187121E+02 -0.15893374635E+02 -0.36221599567E+02  0.42295269398E+02  0.51100000000E-03 0.  1.
         12    1    3    3    0    0 -0.19386070616E+02  0.80312472557E+01  0.31180436119E+02  0.37583776593E+02  0.00000000000E+00 0. -1.
</event>
<event>
 7    1  0.3707147E-015  0.9000777E+02  0.7816164E-02  0.1186339E+00
        -11   -1    0    0    0    0  0.00000000000E+00  0.00000000000E+00  0.45593999997E+02  0.45594000000E+02  0.51100000000E-03 0. -1.
         11   -1    0    0    0    0 -0.00000000000E+00 -0.00000000000E+00 -0.45593999997E+02  0.45594000000E+02  0.51100000000E-03 0.  1.
    9900012    2    1    2    0    0  0.32174999842E+00 -0.92351842747E+00 -0.66069792091E+00  0.90007774983E+02  0.90000036813E+02 0.  0.
         12    1    1    2    0    0 -0.32174999842E+00  0.92351842747E+00  0.66069792091E+00  0.11802250167E+01  0.00000000000E+00 0. -1.
         11    1    3    3    0    0 -0.49237648679E+01 -0.38831702930E+02  0.57394279660E+01  0.39561163362E+02  0.51100000000E-03 0. -1.
        -11    1    3    3    0    0 -0.88150725370E+01 -0.23463276525E+00  0.17388149336E+01  0.89879938808E+01  0.51100000000E-03 0.  1.
        -12    1    3    3    0    0  0.14060587403E+02  0.38142817268E+02 -0.81389408205E+01  0.41458617740E+02  0.00000000000E+00 0.  1.
</event>
<event>
 7    1  0.3707147E-015  0.9000776E+02  0.7816164E-02  0.1186339E+00
        -11   -1    0    0    0    0  0.00000000000E+00  0.00000000000E+00  0.45593999997E+02  0.45594000000E+02  0.51100000000E-03 0.  1.
         11   -1    0    0    0    0 -0.00000000000E+00 -0.00000000000E+00 -0.45593999997E+02  0.45594000000E+02  0.51100000000E-03 0. -1.
    9900012    2    1    2    0    0 -0.10732823746E+01  0.72457308489E-01 -0.48557885698E+00  0.90007757676E+02  0.90000019277E+02 0.  0.
         12    1    1    2    0    0  0.10732823746E+01 -0.72457308489E-01  0.48557885698E+00  0.11802423241E+01  0.00000000000E+00 0. -1.
         11    1    3    3    0    0 -0.68033688465E+01 -0.30030811643E+02 -0.20976326880E+02  0.37257774561E+02  0.51100000000E-03 0. -1.
        -11    1    3    3    0    0  0.14521731680E+02  0.12167129631E+02 -0.57251616142E+01  0.19791341800E+02  0.51100000000E-03 0.  1.
        -12    1    3    3    0    0 -0.87916452086E+01  0.17936139321E+02  0.26215909637E+02  0.32958641315E+02  0.00000000000E+00 0.  1.
</event>
<event>
 7    1  0.3707147E-015  0.9000782E+02  0.7816164E-02  0.1186339E+00
        -11   -1    0    0    0    0  0.00000000000E+00  0.00000000000E+00  0.45593999997E+02  0.45594000000E+02  0.51100000000E-03 0. -1.
         11   -1    0    0    0    0 -0.00000000000E+00 -0.00000000000E+00 -0.45593999997E+02  0.45594000000E+02  0.51100000000E-03 0.  1.
    9900012    2    1    2    0    0 -0.20554172965E+00 -0.27757136933E+00 -0.11285073515E+01  0.90007821153E+02  0.90000083592E+02 0.  0.
         12    1    1    2    0    0  0.20554172965E+00  0.27757136933E+00  0.11285073515E+01  0.11801788467E+01  0.00000000000E+00 0. -1.
         11    1    3    3    0    0  0.75656664723E+01 -0.31929817092E+01 -0.43346836763E+01  0.92856838305E+01  0.51100000000E-03 0. -1.
        -11    1    3    3    0    0 -0.64912551867E+01  0.33996042894E+02  0.25039067825E+02  0.42717938201E+02  0.51100000000E-03 0.  1.
         12    1    3    3    0    0 -0.12799530152E+01 -0.31080632554E+02 -0.21832891500E+02  0.38004199122E+02  0.00000000000E+00 0. -1.
</event>
<event>
 7    1  0.3707147E-015  0.9000789E+02  0.7816164E-02  0.1186339E+00
        -11   -1    0    0    0    0  0.00000000000E+00  0.00000000000E+00  0.45593999997E+02  0.45594000000E+02  0.51100000000E-03 0. -1.
         11   -1    0    0    0    0 -0.00000000000E+00 -0.00000000000E+00 -0.45593999997E+02  0.45594000000E+02  0.51100000000E-03 0.  1.
    9900012    2    1    2    0    0  0.10799442427E+01 -0.30294213801E+00 -0.36688927234E+00  0.90007889308E+02  0.90000152647E+02 0.  0.
         12    1    1    2    0    0 -0.10799442427E+01  0.30294213801E+00  0.36688927234E+00  0.11801106916E+01  0.00000000000E+00 0. -1.
         11    1    3    3    0    0 -0.98488306336E+00 -0.57356825088E+01 -0.88776957937E+01  0.10615155739E+02  0.51100000000E-03 0. -1.
        -11    1    3    3    0    0  0.26106926513E-01 -0.71470285641E+01 -0.34139290512E+02  0.34879390130E+02  0.51100000000E-03 0.  1.
         12    1    3    3    0    0  0.20387203796E+01  0.12579768935E+02  0.42650097034E+02  0.44513343440E+02  0.00000000000E+00 0. -1.
</event>
<event>
 7    1  0.3707147E-015  0.9000779E+02  0.7816164E-02  0.1186339E+00
        -11   -1    0    0    0    0  0.00000000000E+00  0.00000000000E+00  0.45593999997E+02  0.45594000000E+02  0.51100000000E-03 0. -1.
         11   -1    0    0    0    0 -0.00000000000E+00 -0.00000000000E+00 -0.45593999997E+02  0.45594000000E+02  0.51100000000E-03 0.  1.
    9900012    2    1    2    0    0 -0.10800732345E+01  0.45101724487E+00 -0.15142515730E+00  0.90007786322E+02  0.90000048302E+02 0.  0.
         12    1    1    2    0    0  0.10800732345E+01 -0.45101724487E+00  0.15142515730E+00  0.11802136779E+01  0.00000000000E+00 0. -1.
         11    1    3    3    0    0 -0.48334159931E+00  0.26013003025E+01  0.12644280252E+02  0.12918134762E+02  0.51100000000E-03 0. -1.
        -11    1    3    3    0    0 -0.22937198464E+02 -0.28936739666E+02  0.60920141828E+01  0.37424091345E+02  0.51100000000E-03 0.  1.
         12    1    3    3    0    0  0.22340466829E+02  0.26786456609E+02 -0.18887719592E+02  0.39665560215E+02  0.00000000000E+00 0. -1.
</event>
<event>
 7    1  0.3707147E-015  0.9000786E+02  0.7816164E-02  0.1186339E+00
        -11   -1    0    0    0    0  0.00000000000E+00  0.00000000000E+00  0.45593999997E+02  0.45594000000E+02  0.51100000000E-03 0.  1.
         11   -1    0    0    0    0 -0.00000000000E+00 -0.00000000000E+00 -0.45593999997E+02  0.45594000000E+02  0.51100000000E-03 0. -1.
    9900012    2    1    2    0    0 -0.72638552693E-01  0.39846639603E+00  0.11084586786E+01  0.90007859131E+02  0.90000122072E+02 0.  0.
         12    1    1    2    0    0  0.72638552693E-01 -0.39846639603E+00 -0.11084586786E+01  0.11801408688E+01  0.00000000000E+00 0. -1.
         11    1    3    3    0    0  0.90308812284E+01 -0.10297974445E+01  0.45575606643E+01  0.10168021342E+02  0.51100000000E-03 0. -1.
        -11    1    3    3    0    0  0.86932562397E+01  0.29635063866E+02  0.21973832906E+02  0.37903285441E+02  0.51100000000E-03 0.  1.
         12    1    3    3    0    0 -0.17796776021E+02 -0.28206800025E+02 -0.25422934892E+02  0.41936552349E+02  0.00000000000E+00 0. -1.
</event>
<event>
 7    1  0.3707147E-015  0.9000779E+02  0.7816164E-02  0.1186339E+00
        -11   -1    0    0    0    0  0.00000000000E+00  0.00000000000E+00  0.45593999997E+02  0.45594000000E+02  0.51100000000E-03 0.  1.
         11   -1    0    0    0    0 -0.00000000000E+00 -0.00000000000E+00 -0.45593999997E+02  0.45594000000E+02  0.51100000000E-03 0. -1.
    9900012    2    1    2    0    0 -0.10931140430E+01 -0.31099465200E+00  0.31826285528E+00  0.90007785092E+02  0.90000047055E+02 0.  0.
         12    1    1    2    0    0  0.10931140430E+01  0.31099465200E+00 -0.31826285528E+00  0.11802149083E+01  0.00000000000E+00 0. -1.
         11    1    3    3    0    0 -0.27783464727E+01 -0.90140687212E+01 -0.42244662763E+01  0.10335316135E+02  0.51100000000E-03 0. -1.
        -11    1    3    3    0    0 -0.99482432947E+01 -0.33079904621E+02 -0.59423681474E+01  0.35050811315E+02  0.51100000000E-03 0.  1.
         12    1    3    3    0    0  0.11633475724E+02  0.41782978691E+02  0.10485097279E+02  0.44621657641E+02  0.00000000000E+00 0. -1.
</event>
<event>
 7    1  0.3707147E-015  0.9000714E+02  0.7816164E-02  0.1186340E+00
        -11   -1    0    0    0    0  0.00000000000E+00  0.00000000000E+00  0.45593999997E+02  0.45594000000E+02  0.51100000000E-03 0.  1.
         11   -1    0    0    0    0 -0.00000000000E+00 -0.00000000000E+00 -0.45593999997E+02  0.45594000000E+02  0.51100000000E-03 0. -1.
    9900012    2    1    2    0    0 -0.20821066260E+00 -0.60288883175E+00  0.99378513993E+00  0.90007137803E+02  0.89999391220E+02 0.  0.
         12    1    1    2    0    0  0.20821066260E+00  0.60288883175E+00 -0.99378513993E+00  0.11808621968E+01  0.00000000000E+00 0. -1.
         11    1    3    3    0    0 -0.91349169473E+01 -0.44727360286E+01  0.27975446998E+01  0.10548854527E+02  0.51100000000E-03 0. -1.
        -11    1    3    3    0    0  0.25569210011E+02  0.33787840328E+02  0.94641879524E+01  0.43416281606E+02  0.51100000000E-03 0.  1.
         12    1    3    3    0    0 -0.16642503727E+02 -0.29917993131E+02 -0.11267947512E+02  0.36042001671E+02  0.00000000000E+00 0. -1.
</event>
<event>
 7    1  0.3707147E-015  0.9000768E+02  0.7816164E-02  0.1186339E+00
        -11   -1    0    0    0    0  0.00000000000E+00  0.00000000000E+00  0.45593999997E+02  0.45594000000E+02  0.51100000000E-03 0.  1.
         11   -1    0    0    0    0 -0.00000000000E+00 -0.00000000000E+00 -0.45593999997E+02  0.45594000000E+02  0.51100000000E-03 0. -1.
    9900012    2    1    2    0    0 -0.68600695223E+00 -0.84144887485E+00  0.46314678720E+00  0.90007683647E+02  0.89999944271E+02 0.  0.
         12    1    1    2    0    0  0.68600695223E+00  0.84144887485E+00 -0.46314678720E+00  0.11803163534E+01  0.00000000000E+00 0. -1.
         11    1    3    3    0    0 -0.16332951097E+01 -0.97314606186E+01 -0.42517045513E+01  0.10744578658E+02  0.51100000000E-03 0. -1.
        -11    1    3    3    0    0  0.36298555716E+01 -0.34857215530E+02 -0.10172812083E+01  0.35060464733E+02  0.51100000000E-03 0.  1.
         12    1    3    3    0    0 -0.26825674141E+01  0.43747227274E+02  0.57321325468E+01  0.44202640256E+02  0.00000000000E+00 0. -1.
</event>
<event>
 7    1  0.3707147E-015  0.9000776E+02  0.7816164E-02  0.1186339E+00
        -11   -1    0    0    0    0  0.00000000000E+00  0.00000000000E+00  0.45593999997E+02  0.45594000000E+02  0.51100000000E-03 0.  1.
         11   -1    0    0    0    0 -0.00000000000E+00 -0.00000000000E+00 -0.45593999997E+02  0.45594000000E+02  0.51100000000E-03 0. -1.
    9900012    2    1    2    0    0 -0.54661196124E+00  0.10458050941E+01 -0.21995505496E-01  0.90007755647E+02  0.90000017221E+02 0.  0.
         12    1    1    2    0    0  0.54661196124E+00 -0.10458050941E+01  0.21995505496E-01  0.11802443532E+01  0.00000000000E+00 0. -1.
         11    1    3    3    0    0 -0.22984386608E+02 -0.31104483561E+02  0.12884813966E+02  0.40765050676E+02  0.51100000000E-03 0. -1.
        -11    1    3    3    0    0 -0.33649831108E+01  0.67996910171E+01 -0.10548716128E+02  0.12993626186E+02  0.51100000000E-03 0.  1.
        -12    1    3    3    0    0  0.25802757758E+02  0.25350597638E+02 -0.23580933436E+01  0.36249078785E+02  0.00000000000E+00 0.  1.
</event>
<event>
 7    1  0.3707147E-015  0.9000773E+02  0.7816164E-02  0.1186339E+00
        -11   -1    0    0    0    0  0.00000000000E+00  0.00000000000E+00  0.45593999997E+02  0.45594000000E+02  0.51100000000E-03 0. -1.
         11   -1    0    0    0    0 -0.00000000000E+00 -0.00000000000E+00 -0.45593999997E+02  0.45594000000E+02  0.51100000000E-03 0.  1.
    9900012    2    1    2    0    0 -0.48144382255E-01 -0.11417248083E+01 -0.29526349860E+00  0.90007731406E+02  0.89999992661E+02 0.  0.
         12    1    1    2    0    0  0.48144382255E-01  0.11417248083E+01  0.29526349860E+00  0.11802685936E+01  0.00000000000E+00 0. -1.
         11    1    3    3    0    0  0.13227005670E+01 -0.94087350674E+01  0.35368345802E+01  0.10138196658E+02  0.51100000000E-03 0. -1.
        -11    1    3    3    0    0 -0.27288771523E+02 -0.16070097894E+02 -0.23317085900E+02  0.39326983010E+02  0.51100000000E-03 0.  1.
         12    1    3    3    0    0  0.25917926574E+02  0.24337108153E+02  0.19484987821E+02  0.40542551739E+02  0.00000000000E+00 0. -1.
</event>
<event>
 7    1  0.3707147E-015  0.9000778E+02  0.7816164E-02  0.1186339E+00
        -11   -1    0    0    0    0  0.00000000000E+00  0.00000000000E+00  0.45593999997E+02  0.45594000000E+02  0.51100000000E-03 0.  1.
         11   -1    0    0    0    0 -0.00000000000E+00 -0.00000000000E+00 -0.45593999997E+02  0.45594000000E+02  0.51100000000E-03 0. -1.
    9900012    2    1    2    0    0  0.42715213334E+00 -0.10976769712E+01 -0.74579209296E-01  0.90007781488E+02  0.90000043403E+02 0.  0.
         12    1    1    2    0    0 -0.42715213334E+00  0.10976769712E+01  0.74579209296E-01  0.11802185122E+01  0.00000000000E+00 0. -1.
         11    1    3    3    0    0 -0.37147805283E+02  0.47643347097E+01  0.12547619869E+02  0.39498114983E+02  0.51100000000E-03 0. -1.
        -11    1    3    3    0    0  0.62801255757E+01 -0.87512229257E+01  0.75598250696E+01  0.13159591000E+02  0.51100000000E-03 0.  1.
        -12    1    3    3    0    0  0.31294831840E+02  0.28892112448E+01 -0.20182024148E+02  0.37350075505E+02  0.00000000000E+00 0.  1.
</event>
<event>
 7    1  0.3707147E-015  0.9000770E+02  0.7816164E-02  0.1186339E+00
        -11   -1    0    0    0    0  0.00000000000E+00  0.00000000000E+00  0.45593999997E+02  0.45594000000E+02  0.51100000000E-03 0.  1.
         11   -1    0    0    0    0 -0.00000000000E+00 -0.00000000000E+00 -0.45593999997E+02  0.45594000000E+02  0.51100000000E-03 0. -1.
    9900012    2    1    2    0    0 -0.83947572087E+00  0.26221807770E+00  0.78716343770E+00  0.90007701697E+02  0.89999962559E+02 0.  0.
         12    1    1    2    0    0  0.83947572087E+00 -0.26221807770E+00 -0.78716343770E+00  0.11802983029E+01  0.00000000000E+00 0. -1.
         11    1    3    3    0    0 -0.10819217843E+02  0.55526381688E+01 -0.76406524307E+01  0.14361992731E+02  0.51100000000E-03 0. -1.
        -11    1    3    3    0    0  0.13409761744E+02  0.17463785610E+02  0.34464578530E+02  0.40897587843E+02  0.51100000000E-03 0.  1.
         12    1    3    3    0    0 -0.34300196217E+01 -0.22754205701E+02 -0.26036762662E+02  0.34748121123E+02  0.00000000000E+00 0. -1.
</event>
<event>
 7    1  0.3707147E-015  0.9000765E+02  0.7816164E-02  0.1186339E+00
        -11   -1    0    0    0    0  0.00000000000E+00  0.00000000000E+00  0.45593999997E+02  0.45594000000E+02  0.51100000000E-03 0.  1.
         11   -1    0    0    0    0 -0.00000000000E+00 -0.00000000000E+00 -0.45593999997E+02  0.45594000000E+02  0.51100000000E-03 0. -1.
    9900012    2    1    2    0    0 -0.55272536883E+00  0.83266304538E+00  0.62801324718E+00  0.90007646782E+02  0.89999906920E+02 0.  0.
         12    1    1    2    0    0  0.55272536883E+00 -0.83266304538E+00 -0.62801324718E+00  0.11803532179E+01  0.00000000000E+00 0. -1.
         11    1    3    3    0    0 -0.31906769578E+01 -0.98376056742E+01 -0.21072244784E+01  0.10554586686E+02  0.51100000000E-03 0. -1.
        -11    1    3    3    0    0  0.14451802770E+02 -0.13564676445E+01  0.37829969456E+02  0.40519146055E+02  0.51100000000E-03 0.  1.
         12    1    3    3    0    0 -0.11813851181E+02  0.12026736364E+02 -0.35094731730E+02  0.38933914041E+02  0.00000000000E+00 0. -1.
</event>
<event>
 7    1  0.3707147E-015  0.9000826E+02  0.7816164E-02  0.1186338E+00
        -11   -1    0    0    0    0  0.00000000000E+00  0.00000000000E+00  0.45593999997E+02  0.45594000000E+02  0.51100000000E-03 0. -1.
         11   -1    0    0    0    0 -0.00000000000E+00 -0.00000000000E+00 -0.45593999997E+02  0.45594000000E+02  0.51100000000E-03 0.  1.
    9900012    2    1    2    0    0 -0.10330718010E+01  0.56413466325E+00  0.79443830374E-01  0.90008255711E+02  0.90000523885E+02 0.  0.
         12    1    1    2    0    0  0.10330718010E+01 -0.56413466325E+00 -0.79443830374E-01  0.11797442886E+01  0.00000000000E+00 0. -1.
         11    1    3    3    0    0 -0.62056617233E+01 -0.28307732724E+02  0.30188011140E+02  0.41846791827E+02  0.51100000000E-03 0. -1.
        -11    1    3    3    0    0  0.10904377589E+01  0.92466203772E+01  0.27173080903E+01  0.96991136928E+01  0.51100000000E-03 0.  1.
        -12    1    3    3    0    0  0.40821521634E+01  0.19625247010E+02 -0.32825875400E+02  0.38462350191E+02  0.00000000000E+00 0.  1.
</event>
<event>
 7    1  0.3707147E-015  0.9000779E+02  0.7816164E-02  0.1186339E+00
        -11   -1    0    0    0    0  0.00000000000E+00  0.00000000000E+00  0.45593999997E+02  0.45594000000E+02  0.51100000000E-03 0. -1.
         11   -1    0    0    0    0 -0.00000000000E+00 -0.00000000000E+00 -0.45593999997E+02  0.45594000000E+02  0.51100000000E-03 0.  1.
    9900012    2    1    2    0    0 -0.10085121055E+01  0.79981533899E-01 -0.60777779772E+00  0.90007793423E+02  0.90000055496E+02 0.  0.
         12    1    1    2    0    0  0.10085121055E+01 -0.79981533899E-01  0.60777779772E+00  0.11802065769E+01  0.00000000000E+00 0. -1.
         11    1    3    3    0    0 -0.43497681437E+01  0.32113715821E+02  0.13337099162E+02  0.35044107081E+02  0.51100000000E-03 0. -1.
        -11    1    3    3    0    0  0.21191260450E+01 -0.93742848609E+01  0.15226175916E+02  0.18005675359E+02  0.51100000000E-03 0.  1.
        -12    1    3    3    0    0  0.12221299932E+01 -0.22659449426E+02 -0.29171052875E+02  0.36958010984E+02  0.00000000000E+00 0.  1.
</event>
<event>
 7    1  0.3707147E-015  0.9000775E+02  0.7816164E-02  0.1186339E+00
        -11   -1    0    0    0    0  0.00000000000E+00  0.00000000000E+00  0.45593999997E+02  0.45594000000E+02  0.51100000000E-03 0.  1.
         11   -1    0    0    0    0 -0.00000000000E+00 -0.00000000000E+00 -0.45593999997E+02  0.45594000000E+02  0.51100000000E-03 0. -1.
    9900012    2    1    2    0    0 -0.59431054590E+00 -0.87177628285E+00  0.52895339499E+00  0.90007749770E+02  0.90000011267E+02 0.  0.
         12    1    1    2    0    0  0.59431054590E+00  0.87177628285E+00 -0.52895339499E+00  0.11802502304E+01  0.00000000000E+00 0. -1.
         11    1    3    3    0    0 -0.18451408443E+02  0.82923081218E+01 -0.26934777677E+02  0.33685294956E+02  0.51100000000E-03 0. -1.
        -11    1    3    3    0    0  0.34624810209E+01 -0.32475249738E+00 -0.12479103486E+02  0.12954623232E+02  0.51100000000E-03 0.  1.
        -12    1    3    3    0    0  0.14394616877E+02 -0.88393319073E+01  0.39942834558E+02  0.43367831582E+02  0.00000000000E+00 0.  1.
</event>
<event>
 7    1  0.3707147E-015  0.9000794E+02  0.7816164E-02  0.1186339E+00
        -11   -1    0    0    0    0  0.00000000000E+00  0.00000000000E+00  0.45593999997E+02  0.45594000000E+02  0.51100000000E-03 0.  1.
         11   -1    0    0    0    0 -0.00000000000E+00 -0.00000000000E+00 -0.45593999997E+02  0.45594000000E+02  0.51100000000E-03 0. -1.
    9900012    2    1    2    0    0  0.76444687465E+00 -0.24156742769E+00  0.86592001647E+00  0.90007935883E+02  0.90000199836E+02 0.  0.
         12    1    1    2    0    0 -0.76444687465E+00  0.24156742769E+00 -0.86592001647E+00  0.11800641174E+01  0.00000000000E+00 0. -1.
         11    1    3    3    0    0  0.35310873239E+02  0.12066573111E+02 -0.23720640499E+01  0.37390996826E+02  0.51100000000E-03 0. -1.
        -11    1    3    3    0    0  0.51281135087E+01  0.33368709103E+01  0.75886254692E+01  0.97477942327E+01  0.51100000000E-03 0.  1.
        -12    1    3    3    0    0 -0.39674539873E+02 -0.15645011449E+02 -0.43506414028E+01  0.42869144824E+02  0.00000000000E+00 0.  1.
</event>
<event>
 7    1  0.3707147E-015  0.9000775E+02  0.7816164E-02  0.1186339E+00
        -11   -1    0    0    0    0  0.00000000000E+00  0.00000000000E+00  0.45593999997E+02  0.45594000000E+02  0.51100000000E-03 0.  1.
         11   -1    0    0    0    0 -0.00000000000E+00 -0.00000000000E+00 -0.45593999997E+02  0.45594000000E+02  0.51100000000E-03 0. -1.
    9900012    2    1    2    0    0 -0.70394940396E+00  0.77022279605E+00  0.55153695466E+00  0.90007753868E+02  0.90000015419E+02 0.  0.
         12    1    1    2    0    0  0.70394940396E+00 -0.77022279605E+00 -0.55153695466E+00  0.11802461316E+01  0.00000000000E+00 0. -1.
         11    1    3    3    0    0  0.11460621881E+01 -0.13257228802E+01 -0.87395909320E+01  0.89135542638E+01  0.51100000000E-03 0. -1.
        -11    1    3    3    0    0  0.30441670599E+02  0.16630094910E+02  0.24589249996E+02  0.42519249537E+02  0.51100000000E-03 0.  1.
         12    1    3    3    0    0 -0.32291682191E+02 -0.14534149234E+02 -0.15298122109E+02  0.38574950068E+02  0.00000000000E+00 0. -1.
</event>
<event>
 7    1  0.3707147E-015  0.9000785E+02  0.7816164E-02  0.1186339E+00
        -11   -1    0    0    0    0  0.00000000000E+00  0.00000000000E+00  0.45593999997E+02  0.45594000000E+02  0.51100000000E-03 0.  1.
         11   -1    0    0    0    0 -0.00000000000E+00 -0.00000000000E+00 -0.45593999997E+02  0.45594000000E+02  0.51100000000E-03 0. -1.
    9900012    2    1    2    0    0  0.66518090380E+00 -0.95003399966E+00 -0.21843953527E+00  0.90007853371E+02  0.90000116235E+02 0.  0.
         12    1    1    2    0    0 -0.66518090380E+00  0.95003399966E+00  0.21843953527E+00  0.11801466290E+01  0.00000000000E+00 0. -1.
         11    1    3    3    0    0 -0.11478373587E+00  0.13388528340E+01 -0.13226060117E+02  0.13294147912E+02  0.51100000000E-03 0. -1.
        -11    1    3    3    0    0 -0.14698239533E+02  0.31170281765E+02 -0.64003725250E+01  0.35051240768E+02  0.51100000000E-03 0.  1.
         12    1    3    3    0    0  0.15478204173E+02 -0.33459168599E+02  0.19407993107E+02  0.41662464691E+02  0.00000000000E+00 0. -1.
</event>
<event>
 7    1  0.3707147E-015  0.9000771E+02  0.7816164E-02  0.1186339E+00
        -11   -1    0    0    0    0  0.00000000000E+00  0.00000000000E+00  0.45593999997E+02  0.45594000000E+02  0.51100000000E-03 0.  1.
         11   -1    0    0    0    0 -0.00000000000E+00 -0.00000000000E+00 -0.45593999997E+02  0.45594000000E+02  0.51100000000E-03 0. -1.
    9900012    2    1    2    0    0 -0.89743851565E+00 -0.74094421945E+00  0.19671645026E+00  0.90007706991E+02  0.89999967923E+02 0.  0.
         12    1    1    2    0    0  0.89743851565E+00  0.74094421945E+00 -0.19671645026E+00  0.11802930092E+01  0.00000000000E+00 0. -1.
         11    1    3    3    0    0  0.76308908220E+01  0.18722042295E+01 -0.32154171467E+02  0.33100247528E+02  0.51100000000E-03 0. -1.
        -11    1    3    3    0    0  0.14565065837E+02  0.86663867815E+01  0.18910542477E+01  0.17053547699E+02  0.51100000000E-03 0.  1.
        -12    1    3    3    0    0 -0.23093395175E+02 -0.11279535230E+02  0.30459833670E+02  0.39853911764E+02  0.00000000000E+00 0.  1.
</event>
<event>
 7    1  0.3707147E-015  0.9000769E+02  0.7816164E-02  0.1186339E+00
        -11   -1    0    0    0    0  0.00000000000E+00  0.00000000000E+00  0.45593999997E+02  0.45594000000E+02  0.51100000000E-03 0.  1.
         11   -1    0    0    0    0 -0.00000000000E+00 -0.00000000000E+00 -0.45593999997E+02  0.45594000000E+02  0.51100000000E-03 0. -1.
    9900012    2    1    2    0    0  0.10651486780E+01  0.25504383928E+00  0.43993829800E+00  0.90007688697E+02  0.89999949388E+02 0.  0.
         12    1    1    2    0    0 -0.10651486780E+01 -0.25504383928E+00 -0.43993829800E+00  0.11803113031E+01  0.00000000000E+00 0. -1.
         11    1    3    3    0    0  0.49003564688E+01 -0.72109600534E+01  0.25710758858E+01  0.90896573029E+01  0.51100000000E-03 0. -1.
        -11    1    3    3    0    0  0.25728123693E+02  0.31166161446E+02  0.90453509880E+01  0.41413576793E+02  0.51100000000E-03 0.  1.
         12    1    3    3    0    0 -0.29563331483E+02 -0.23700157553E+02 -0.11176488576E+02  0.39504454601E+02  0.00000000000E+00 0. -1.
</event>
<event>
 7    1  0.3707147E-015  0.9000830E+02  0.7816164E-02  0.1186338E+00
        -11   -1    0    0    0    0  0.00000000000E+00  0.00000000000E+00  0.45593999997E+02  0.45594000000E+02  0.51100000000E-03 0.  1.
         11   -1    0    0    0    0 -0.00000000000E+00 -0.00000000000E+00 -0.45593999997E+02  0.45594000000E+02  0.51100000000E-03 0. -1.
    9900012    2    1    2    0    0 -0.61809804125E+00  0.88165598395E+00 -0.48200821182E+00  0.90008299030E+02  0.90000567775E+02 0.  0.
         12    1    1    2    0    0  0.61809804125E+00 -0.88165598395E+00  0.48200821182E+00  0.11797009701E+01  0.00000000000E+00 0. -1.
         11    1    3    3    0    0 -0.51513439758E+01 -0.35737448389E+02 -0.30867925307E+01  0.36238513360E+02  0.51100000000E-03 0. -1.
        -11    1    3    3    0    0  0.11696987689E+01 -0.82598921249E+01  0.26885818525E+01  0.87648437387E+01  0.51100000000E-03 0.  1.
        -12    1    3    3    0    0  0.33635471656E+01  0.44878996498E+02 -0.83797533588E-01  0.45004941931E+02  0.00000000000E+00 0.  1.
</event>
<event>
 7    1  0.3707147E-015  0.9000781E+02  0.7816164E-02  0.1186339E+00
        -11   -1    0    0    0    0  0.00000000000E+00  0.00000000000E+00  0.45593999997E+02  0.45594000000E+02  0.51100000000E-03 0.  1.
         11   -1    0    0    0    0 -0.00000000000E+00 -0.00000000000E+00 -0.45593999997E+02  0.45594000000E+02  0.51100000000E-03 0. -1.
    9900012    2    1    2    0    0 -0.35725458533E+00  0.10028016145E+01 -0.50952623083E+00  0.90007805568E+02  0.90000067802E+02 0.  0.
         12    1    1    2    0    0  0.35725458533E+00 -0.10028016145E+01  0.50952623083E+00  0.11801944318E+01  0.00000000000E+00 0. -1.
         11    1    3    3    0    0 -0.40939765412E+02  0.39160759482E+01 -0.93768448026E+01  0.42182049043E+02  0.51100000000E-03 0. -1.
        -11    1    3    3    0    0  0.10882222313E+01  0.14679273716E+01  0.78671926367E+01  0.80766180197E+01  0.51100000000E-03 0.  1.
        -12    1    3    3    0    0  0.39494288595E+02 -0.43812017052E+01  0.10001259351E+01  0.39749138505E+02  0.00000000000E+00 0.  1.
</event>
<event>
 7    1  0.3707147E-015  0.9000771E+02  0.7816164E-02  0.1186339E+00
        -11   -1    0    0    0    0  0.00000000000E+00  0.00000000000E+00  0.45593999997E+02  0.45594000000E+02  0.51100000000E-03 0. -1.
         11   -1    0    0    0    0 -0.00000000000E+00 -0.00000000000E+00 -0.45593999997E+02  0.45594000000E+02  0.51100000000E-03 0.  1.
    9900012    2    1    2    0    0 -0.79614664637E+00  0.69601914335E+00 -0.52419954119E+00  0.90007713048E+02  0.89999974060E+02 0.  0.
         12    1    1    2    0    0  0.79614664637E+00 -0.69601914335E+00  0.52419954119E+00  0.11802869522E+01  0.00000000000E+00 0. -1.
         11    1    3    3    0    0 -0.10746350210E+02  0.36345162004E+02  0.14593147422E+02  0.40612988020E+02  0.51100000000E-03 0. -1.
        -11    1    3    3    0    0  0.10812331985E+02 -0.70547609552E+01  0.56009614251E+01  0.14072915271E+02  0.51100000000E-03 0.  1.
        -12    1    3    3    0    0 -0.86212842154E+00 -0.28594381906E+02 -0.20718308389E+02  0.35321809757E+02  0.00000000000E+00 0.  1.
</event>
<event>
 7    1  0.3707147E-015  0.9000771E+02  0.7816164E-02  0.1186339E+00
        -11   -1    0    0    0    0  0.00000000000E+00  0.00000000000E+00  0.45593999997E+02  0.45594000000E+02  0.51100000000E-03 0. -1.
         11   -1    0    0    0    0 -0.00000000000E+00 -0.00000000000E+00 -0.45593999997E+02  0.45594000000E+02  0.51100000000E-03 0.  1.
    9900012    2    1    2    0    0  0.24534359499E+00  0.77072209736E+00 -0.85958240818E+00  0.90007708533E+02  0.89999969485E+02 0.  0.
         12    1    1    2    0    0 -0.24534359499E+00 -0.77072209736E+00  0.85958240818E+00  0.11802914671E+01  0.00000000000E+00 0. -1.
         11    1    3    3    0    0  0.27121994102E+02  0.22270505363E+02  0.40213364877E+01  0.35323492474E+02  0.51100000000E-03 0. -1.
        -11    1    3    3    0    0  0.79821266099E+01  0.57945372384E+01 -0.32345779761E+01  0.10380438429E+02  0.51100000000E-03 0.  1.
        -12    1    3    3    0    0 -0.34858777117E+02 -0.27294320504E+02 -0.16463409198E+01  0.44303777630E+02  0.00000000000E+00 0.  1.
</event>
<event>
 7    1  0.3707147E-015  0.9000764E+02  0.7816164E-02  0.1186339E+00
        -11   -1    0    0    0    0  0.00000000000E+00  0.00000000000E+00  0.45593999997E+02  0.45594000000E+02  0.51100000000E-03 0.  1.
         11   -1    0    0    0    0 -0.00000000000E+00 -0.00000000000E+00 -0.45593999997E+02  0.45594000000E+02  0.51100000000E-03 0. -1.
    9900012    2    1    2    0    0 -0.84714271612E+00 -0.54772648203E+00  0.61284860273E+00  0.90007644761E+02  0.89999904872E+02 0.  0.
         12    1    1    2    0    0  0.84714271612E+00  0.54772648203E+00 -0.61284860273E+00  0.11803552391E+01  0.00000000000E+00 0. -1.
         11    1    3    3    0    0 -0.53937097487E+01 -0.75587625662E+01 -0.53752213600E+01  0.10729398926E+02  0.51100000000E-03 0. -1.
        -11    1    3    3    0    0  0.14066446424E+02 -0.34046266357E+02  0.11580881001E+01  0.36855858912E+02  0.51100000000E-03 0.  1.
         12    1    3    3    0    0 -0.95198793912E+01  0.41057302442E+02  0.48299818627E+01  0.42422386922E+02  0.00000000000E+00 0. -1.
</event>
<event>
 7    1  0.3707147E-015  0.9000812E+02  0.7816164E-02  0.1186338E+00
        -11   -1    0    0    0    0  0.00000000000E+00  0.00000000000E+00  0.45593999997E+02  0.45594000000E+02  0.51100000000E-03 0. -1.
         11   -1    0    0    0    0 -0.00000000000E+00 -0.00000000000E+00 -0.45593999997E+02  0.45594000000E+02  0.51100000000E-03 0.  1.
    9900012    2    1    2    0    0  0.15643107382E+00  0.38285415593E+00 -0.11050224713E+01  0.90008117528E+02  0.90000383879E+02 0.  0.
         12    1    1    2    0    0 -0.15643107382E+00 -0.38285415593E+00  0.11050224713E+01  0.11798824720E+01  0.00000000000E+00 0. -1.
         11    1    3    3    0    0 -0.36344959338E+01 -0.25245286146E+01  0.97032159095E+01  0.10664670865E+02  0.51100000000E-03 0. -1.
        -11    1    3    3    0    0 -0.16055797069E+02  0.29681524788E+02 -0.26113121700E+02  0.42669387837E+02  0.51100000000E-03 0.  1.
         12    1    3    3    0    0  0.19846724077E+02 -0.26774142017E+02  0.15304883319E+02  0.36674058825E+02  0.00000000000E+00 0. -1.
</event>
<event>
 7    1  0.3707147E-015  0.9000779E+02  0.7816164E-02  0.1186339E+00
        -11   -1    0    0    0    0  0.00000000000E+00  0.00000000000E+00  0.45593999997E+02  0.45594000000E+02  0.51100000000E-03 0. -1.
         11   -1    0    0    0    0 -0.00000000000E+00 -0.00000000000E+00 -0.45593999997E+02  0.45594000000E+02  0.51100000000E-03 0.  1.
    9900012    2    1    2    0    0 -0.79441754147E+00 -0.87035570930E+00 -0.65456256129E-01  0.90007786963E+02  0.90000048951E+02 0.  0.
         12    1    1    2    0    0  0.79441754147E+00  0.87035570930E+00  0.65456256129E-01  0.11802130369E+01  0.00000000000E+00 0. -1.
         11    1    3    3    0    0  0.76188538148E+01 -0.22341752526E+01 -0.46922755949E+01  0.92225768108E+01  0.51100000000E-03 0. -1.
        -11    1    3    3    0    0  0.99670957453E+00 -0.38806675453E+02 -0.25693616489E+01  0.38904409895E+02  0.51100000000E-03 0.  1.
         12    1    3    3    0    0 -0.94099809308E+01  0.40170494997E+02  0.71961809877E+01  0.41880800257E+02  0.00000000000E+00 0. -1.
</event>
<event>
 7    1  0.3707147E-015  0.9000764E+02  0.7816164E-02  0.1186339E+00
        -11   -1    0    0    0    0  0.00000000000E+00  0.00000000000E+00  0.45593999997E+02  0.45594000000E+02  0.51100000000E-03 0.  1.
         11   -1    0    0    0    0 -0.00000000000E+00 -0.00000000000E+00 -0.45593999997E+02  0.45594000000E+02  0.51100000000E-03 0. -1.
    9900012    2    1    2    0    0 -0.23709710764E+00  0.10543709926E+01  0.47469761600E+00  0.90007639439E+02  0.89999899479E+02 0.  0.
         12    1    1    2    0    0  0.23709710764E+00 -0.10543709926E+01 -0.47469761600E+00  0.11803605615E+01  0.00000000000E+00 0. -1.
         11    1    3    3    0    0  0.36017459389E+02  0.13680048670E+02 -0.51747629584E+01  0.38873889494E+02  0.51100000000E-03 0. -1.
        -11    1    3    3    0    0 -0.73491323617E+00  0.91038909513E+01  0.18740631857E+01  0.93237889832E+01  0.51100000000E-03 0.  1.
        -12    1    3    3    0    0 -0.35519643261E+02 -0.21729568628E+02  0.37753973887E+01  0.41809960961E+02  0.00000000000E+00 0.  1.
</event>
<event>
 7    1  0.3707147E-015  0.9000772E+02  0.7816164E-02  0.1186339E+00
        -11   -1    0    0    0    0  0.00000000000E+00  0.00000000000E+00  0.45593999997E+02  0.45594000000E+02  0.51100000000E-03 0. -1.
         11   -1    0    0    0    0 -0.00000000000E+00 -0.00000000000E+00 -0.45593999997E+02  0.45594000000E+02  0.51100000000E-03 0.  1.
    9900012    2    1    2    0    0 -0.15239037828E+00  0.29927533527E+00 -0.11314881967E+01  0.90007722874E+02  0.89999984016E+02 0.  0.
         12    1    1    2    0    0  0.15239037828E+00 -0.29927533527E+00  0.11314881967E+01  0.11802771255E+01  0.00000000000E+00 0. -1.
         11    1    3    3    0    0 -0.10397294814E+02 -0.23583905811E+02  0.22429689458E+02  0.34167167313E+02  0.51100000000E-03 0. -1.
        -11    1    3    3    0    0  0.55215133164E+01  0.78819066008E+01  0.12694754258E+02  0.15930108188E+02  0.51100000000E-03 0.  1.
        -12    1    3    3    0    0  0.47233911198E+01  0.16001274545E+02 -0.36255931912E+02  0.39910447373E+02  0.00000000000E+00 0.  1.
</event>
<event>
 7    1  0.3707147E-015  0.9000776E+02  0.7816164E-02  0.1186339E+00
        -11   -1    0    0    0    0  0.00000000000E+00  0.00000000000E+00  0.45593999997E+02  0.45594000000E+02  0.51100000000E-03 0.  1.
         11   -1    0    0    0    0 -0.00000000000E+00 -0.00000000000E+00 -0.45593999997E+02  0.45594000000E+02  0.51100000000E-03 0. -1.
    9900012    2    1    2    0    0  0.55562053861E+00 -0.61174252716E+00 -0.84263512346E+00  0.90007755511E+02  0.90000017084E+02 0.  0.
         12    1    1    2    0    0 -0.55562053861E+00  0.61174252716E+00  0.84263512346E+00  0.11802444890E+01  0.00000000000E+00 0. -1.
         11    1    3    3    0    0  0.13240665551E+02 -0.22070108536E+02 -0.24131500843E+02  0.35280791491E+02  0.51100000000E-03 0. -1.
        -11    1    3    3    0    0  0.11616699385E+02 -0.37975038541E+01 -0.72078059514E+00  0.12242886304E+02  0.51100000000E-03 0.  1.
        -12    1    3    3    0    0 -0.24301744397E+02  0.25255869863E+02  0.24009646314E+02  0.42484077717E+02  0.00000000000E+00 0.  1.
</event>
<event>
 7    1  0.3707147E-015  0.9000768E+02  0.7816164E-02  0.1186339E+00
        -11   -1    0    0    0    0  0.00000000000E+00  0.00000000000E+00  0.45593999997E+02  0.45594000000E+02  0.51100000000E-03 0.  1.
         11   -1    0    0    0    0 -0.00000000000E+00 -0.00000000000E+00 -0.45593999997E+02  0.45594000000E+02  0.51100000000E-03 0. -1.
    9900012    2    1    2    0    0 -0.11265661672E+01 -0.25875386504E+00 -0.23884413466E+00  0.90007681648E+02  0.89999942246E+02 0.  0.
         12    1    1    2    0    0  0.11265661672E+01  0.25875386504E+00  0.23884413466E+00  0.11803183521E+01  0.00000000000E+00 0. -1.
         11    1    3    3    0    0  0.12848303695E+02 -0.24134835921E+02  0.24171810552E+02  0.36494460380E+02  0.51100000000E-03 0. -1.
        -11    1    3    3    0    0  0.27242612704E+01 -0.97093516237E+01 -0.59451197343E+01  0.11706304171E+02  0.51100000000E-03 0.  1.
        -12    1    3    3    0    0 -0.16699131133E+02  0.33585433680E+02 -0.18465534953E+02  0.41806917097E+02  0.00000000000E+00 0.  1.
</event>
<event>
 7    1  0.3707147E-015  0.9000767E+02  0.7816164E-02  0.1186339E+00
        -11   -1    0    0    0    0  0.00000000000E+00  0.00000000000E+00  0.45593999997E+02  0.45594000000E+02  0.51100000000E-03 0. -1.
         11   -1    0    0    0    0 -0.00000000000E+00 -0.00000000000E+00 -0.45593999997E+02  0.45594000000E+02  0.51100000000E-03 0.  1.
    9900012    2    1    2    0    0 -0.22274010443E+00  0.74581424417E+00 -0.88730954752E+00  0.90007673658E+02  0.89999934150E+02 0.  0.
         12    1    1    2    0    0  0.22274010443E+00 -0.74581424417E+00  0.88730954752E+00  0.11803263422E+01  0.00000000000E+00 0. -1.
         11    1    3    3    0    0  0.11012856081E+02 -0.26639225252E+01 -0.26918455386E-02  0.11330467324E+02  0.51100000000E-03 0. -1.
        -11    1    3    3    0    0  0.55892814435E+00  0.25734960038E+01 -0.38836679818E+02  0.38925865204E+02  0.51100000000E-03 0.  1.
         12    1    3    3    0    0 -0.11794524329E+02  0.83624076560E+00  0.37952062116E+02  0.39751341130E+02  0.00000000000E+00 0. -1.
</event>
<event>
 7    1  0.3707147E-015  0.9000773E+02  0.7816164E-02  0.1186339E+00
        -11   -1    0    0    0    0  0.00000000000E+00  0.00000000000E+00  0.45593999997E+02  0.45594000000E+02  0.51100000000E-03 0.  1.
         11   -1    0    0    0    0 -0.00000000000E+00 -0.00000000000E+00 -0.45593999997E+02  0.45594000000E+02  0.51100000000E-03 0. -1.
    9900012    2    1    2    0    0 -0.10675122088E+01  0.38258925689E+00  0.32721348293E+00  0.90007734979E+02  0.89999996281E+02 0.  0.
         12    1    1    2    0    0  0.10675122088E+01 -0.38258925689E+00 -0.32721348293E+00  0.11802650206E+01  0.00000000000E+00 0. -1.
         11    1    3    3    0    0 -0.18220403889E+02 -0.35197467904E+02 -0.62607277941E+01  0.40125323394E+02  0.51100000000E-03 0. -1.
        -11    1    3    3    0    0 -0.65676944234E+01  0.43610841405E+01  0.71892060198E+01  0.10669505536E+02  0.51100000000E-03 0.  1.
        -12    1    3    3    0    0  0.23720586103E+02  0.31218973020E+02 -0.60126474276E+00  0.39212906049E+02  0.00000000000E+00 0.  1.
</event>
<event>
 7    1  0.3707147E-015  0.9000795E+02  0.7816164E-02  0.1186339E+00
        -11   -1    0    0    0    0  0.00000000000E+00  0.00000000000E+00  0.45593999997E+02  0.45594000000E+02  0.51100000000E-03 0.  1.
         11   -1    0    0    0    0 -0.00000000000E+00 -0.00000000000E+00 -0.45593999997E+02  0.45594000000E+02  0.51100000000E-03 0. -1.
    9900012    2    1    2    0    0  0.60020685290E+00  0.11678669670E+00  0.10092703554E+01  0.90007951675E+02  0.90000215837E+02 0.  0.
         12    1    1    2    0    0 -0.60020685290E+00 -0.11678669670E+00 -0.10092703554E+01  0.11800483249E+01  0.00000000000E+00 0. -1.
         11    1    3    3    0    0  0.35941474180E+02  0.83437432447E+00 -0.42047543871E+01  0.36196211217E+02  0.51100000000E-03 0. -1.
        -11    1    3    3    0    0  0.54623273918E+01  0.83860092347E+01  0.65889425819E+01  0.11982334331E+02  0.51100000000E-03 0.  1.
        -12    1    3    3    0    0 -0.40803594719E+02 -0.91035968625E+01 -0.13749178395E+01  0.41829406127E+02  0.00000000000E+00 0.  1.
</event>
<event>
 7    1  0.3707147E-015  0.9000736E+02  0.7816164E-02  0.1186340E+00
        -11   -1    0    0    0    0  0.00000000000E+00  0.00000000000E+00  0.45593999997E+02  0.45594000000E+02  0.51100000000E-03 0. -1.
         11   -1    0    0    0    0 -0.00000000000E+00 -0.00000000000E+00 -0.45593999997E+02  0.45594000000E+02  0.51100000000E-03 0.  1.
    9900012    2    1    2    0    0 -0.10165198074E+01 -0.55141933209E+00  0.23775216347E+00  0.90007363778E+02  0.89999620179E+02 0.  0.
         12    1    1    2    0    0  0.10165198074E+01  0.55141933209E+00 -0.23775216347E+00  0.11806362225E+01  0.00000000000E+00 0. -1.
         11    1    3    3    0    0  0.56378902063E+01 -0.40086871034E+00  0.80705462290E+01  0.98529294323E+01  0.51100000000E-03 0. -1.
        -11    1    3    3    0    0 -0.63866927490E+01 -0.33251471740E+02 -0.25727867598E+02  0.42524973704E+02  0.51100000000E-03 0.  1.
         12    1    3    3    0    0 -0.26771726471E+00  0.33100921118E+02  0.17895073532E+02  0.37629460641E+02  0.00000000000E+00 0. -1.
</event>
<event>
 7    1  0.3707147E-015  0.9000750E+02  0.7816164E-02  0.1186340E+00
        -11   -1    0    0    0    0  0.00000000000E+00  0.00000000000E+00  0.45593999997E+02  0.45594000000E+02  0.51100000000E-03 0. -1.
         11   -1    0    0    0    0 -0.00000000000E+00 -0.00000000000E+00 -0.45593999997E+02  0.45594000000E+02  0.51100000000E-03 0.  1.
    9900012    2    1    2    0    0 -0.11277882829E+01  0.29593548223E+00  0.18463284344E+00  0.90007502856E+02  0.89999761093E+02 0.  0.
         12    1    1    2    0    0  0.11277882829E+01 -0.29593548223E+00 -0.18463284344E+00  0.11804971442E+01  0.00000000000E+00 0. -1.
         11    1    3    3    0    0 -0.32784801268E+02 -0.21196918790E+02  0.16196395404E+01  0.39073978462E+02  0.51100000000E-03 0. -1.
        -11    1    3    3    0    0 -0.11822075353E+01  0.17604596143E+02 -0.26524969904E+01  0.17842509929E+02  0.51100000000E-03 0.  1.
        -12    1    3    3    0    0  0.32839220521E+02  0.38882581285E+01  0.12174902934E+01  0.33091014465E+02  0.00000000000E+00 0.  1.
</event>
<event>
 7    1  0.3707147E-015  0.9000776E+02  0.7816164E-02  0.1186339E+00
        -11   -1    0    0    0    0  0.00000000000E+00  0.00000000000E+00  0.45593999997E+02  0.45594000000E+02  0.51100000000E-03 0. -1.
         11   -1    0    0    0    0 -0.00000000000E+00 -0.00000000000E+00 -0.45593999997E+02  0.45594000000E+02  0.51100000000E-03 0.  1.
    9900012    2    1    2    0    0 -0.16605757122E+00 -0.77803792526E+00 -0.87181171499E+00  0.90007756891E+02  0.90000018482E+02 0.  0.
         12    1    1    2    0    0  0.16605757122E+00  0.77803792526E+00  0.87181171499E+00  0.11802431091E+01  0.00000000000E+00 0. -1.
         11    1    3    3    0    0 -0.11568122091E+02 -0.85142930462E+01  0.12749099499E+01  0.14420125882E+02  0.51100000000E-03 0. -1.
        -11    1    3    3    0    0 -0.22059520302E+02 -0.19671964858E+02 -0.10815860616E+02  0.31473663251E+02  0.51100000000E-03 0.  1.
        -12    1    3    3    0    0  0.33461584822E+02  0.27408219979E+02  0.86691389512E+01  0.44113967758E+02  0.00000000000E+00 0.  1.
</event>
<event>
 7    1  0.3707147E-015  0.9000782E+02  0.7816164E-02  0.1186339E+00
        -11   -1    0    0    0    0  0.00000000000E+00  0.00000000000E+00  0.45593999997E+02  0.45594000000E+02  0.51100000000E-03 0. -1.
         11   -1    0    0    0    0 -0.00000000000E+00 -0.00000000000E+00 -0.45593999997E+02  0.45594000000E+02  0.51100000000E-03 0.  1.
    9900012    2    1    2    0    0 -0.11401553427E+01 -0.11082045142E+00  0.28387093970E+00  0.90007822857E+02  0.90000085319E+02 0.  0.
         12    1    1    2    0    0  0.11401553427E+01  0.11082045142E+00 -0.28387093970E+00  0.11801771428E+01  0.00000000000E+00 0. -1.
         11    1    3    3    0    0 -0.34788639153E+02 -0.40730764180E+01 -0.71713447417E+01  0.35752867736E+02  0.51100000000E-03 0. -1.
        -11    1    3    3    0    0 -0.96359398869E+01 -0.18666118176E+01 -0.64008118202E+00  0.98359179217E+01  0.51100000000E-03 0.  1.
        -12    1    3    3    0    0  0.43284423698E+02  0.58288677842E+01  0.80952968634E+01  0.44419037200E+02  0.00000000000E+00 0.  1.
</event>
<event>
 7    1  0.3707147E-015  0.9000782E+02  0.7816164E-02  0.1186339E+00
        -11   -1    0    0    0    0  0.00000000000E+00  0.00000000000E+00  0.45593999997E+02  0.45594000000E+02  0.51100000000E-03 0.  1.
         11   -1    0    0    0    0 -0.00000000000E+00 -0.00000000000E+00 -0.45593999997E+02  0.45594000000E+02  0.51100000000E-03 0. -1.
    9900012    2    1    2    0    0  0.65967789683E+00 -0.48954607396E+00  0.84734297806E+00  0.90007821874E+02  0.90000084323E+02 0.  0.
         12    1    1    2    0    0 -0.65967789683E+00  0.48954607396E+00 -0.84734297806E+00  0.11801781258E+01  0.00000000000E+00 0. -1.
         11    1    3    3    0    0  0.23533506354E+01 -0.80263649709E+01 -0.54821436442E+01  0.10000734626E+02  0.51100000000E-03 0. -1.
        -11    1    3    3    0    0  0.17529580848E+02 -0.27566256499E+02  0.19291123474E+02  0.37938531169E+02  0.51100000000E-03 0.  1.
         12    1    3    3    0    0 -0.19223253586E+02  0.35103075396E+02 -0.12961636852E+02  0.42068556080E+02  0.00000000000E+00 0. -1.
</event>
<event>
 7    1  0.3707147E-015  0.9000803E+02  0.7816164E-02  0.1186338E+00
        -11   -1    0    0    0    0  0.00000000000E+00  0.00000000000E+00  0.45593999997E+02  0.45594000000E+02  0.51100000000E-03 0.  1.
         11   -1    0    0    0    0 -0.00000000000E+00 -0.00000000000E+00 -0.45593999997E+02  0.45594000000E+02  0.51100000000E-03 0. -1.
    9900012    2    1    2    0    0  0.11430803816E+01  0.29261424239E+00 -0.88576930807E-02  0.90008027834E+02  0.90000293001E+02 0.  0.
         12    1    1    2    0    0 -0.11430803816E+01 -0.29261424239E+00  0.88576930807E-02  0.11799721659E+01  0.00000000000E+00 0. -1.
         11    1    3    3    0    0  0.30658293146E+02 -0.85608550748E+01 -0.16335724606E+02  0.35778136856E+02  0.51100000000E-03 0. -1.
        -11    1    3    3    0    0  0.71384671352E+01 -0.69543787484E+01 -0.22264147888E+01  0.10211660976E+02  0.51100000000E-03 0.  1.
        -12    1    3    3    0    0 -0.36653679899E+02  0.15807848066E+02  0.18553281702E+02  0.44018230002E+02  0.00000000000E+00 0.  1.
</event>
<event>
 7    1  0.3707147E-015  0.9000792E+02  0.7816164E-02  0.1186339E+00
        -11   -1    0    0    0    0  0.00000000000E+00  0.00000000000E+00  0.45593999997E+02  0.45594000000E+02  0.51100000000E-03 0.  1.
         11   -1    0    0    0    0 -0.00000000000E+00 -0.00000000000E+00 -0.45593999997E+02  0.45594000000E+02  0.51100000000E-03 0. -1.
    9900012    2    1    2    0    0 -0.15712532656E+00 -0.96099014660E+00  0.66662480322E+00  0.90007924130E+02  0.90000187929E+02 0.  0.
         12    1    1    2    0    0  0.15712532656E+00  0.96099014660E+00 -0.66662480322E+00  0.11800758698E+01  0.00000000000E+00 0. -1.
         11    1    3    3    0    0  0.16896617051E+02  0.29447094139E+02  0.38375910195E+01  0.34166564446E+02  0.51100000000E-03 0. -1.
        -11    1    3    3    0    0  0.16465534657E+01  0.10522595831E+02  0.70865694241E+00  0.10674191129E+02  0.51100000000E-03 0.  1.
        -12    1    3    3    0    0 -0.18700295843E+02 -0.40930680116E+02 -0.38796231587E+01  0.45167168555E+02  0.00000000000E+00 0.  1.
</event>
<event>
 7    1  0.3707147E-015  0.9000769E+02  0.7816164E-02  0.1186339E+00
        -11   -1    0    0    0    0  0.00000000000E+00  0.00000000000E+00  0.45593999997E+02  0.45594000000E+02  0.51100000000E-03 0. -1.
         11   -1    0    0    0    0 -0.00000000000E+00 -0.00000000000E+00 -0.45593999997E+02  0.45594000000E+02  0.51100000000E-03 0.  1.
    9900012    2    1    2    0    0 -0.14516973035E+00 -0.11521443365E+01 -0.21123964703E+00  0.90007689443E+02  0.89999950144E+02 0.  0.
         12    1    1    2    0    0  0.14516973035E+00  0.11521443365E+01  0.21123964703E+00  0.11803105571E+01  0.00000000000E+00 0. -1.
         11    1    3    3    0    0 -0.39976121547E+01  0.85727485518E+01  0.49809245860E+01  0.10690300775E+02  0.51100000000E-03 0. -1.
        -11    1    3    3    0    0  0.10205087587E+02  0.15226166487E+02 -0.35255423969E+02  0.39735687713E+02  0.51100000000E-03 0.  1.
         12    1    3    3    0    0 -0.63526451627E+01 -0.24951059375E+02  0.30063259736E+02  0.39581700955E+02  0.00000000000E+00 0. -1.
</event>
<event>
 7    1  0.3707147E-015  0.9000779E+02  0.7816164E-02  0.1186339E+00
        -11   -1    0    0    0    0  0.00000000000E+00  0.00000000000E+00  0.45593999997E+02  0.45594000000E+02  0.51100000000E-03 0. -1.
         11   -1    0    0    0    0 -0.00000000000E+00 -0.00000000000E+00 -0.45593999997E+02  0.45594000000E+02  0.51100000000E-03 0.  1.
    9900012    2    1    2    0    0 -0.10055021775E+01 -0.58510922945E+00 -0.19878429246E+00  0.90007787039E+02  0.90000049027E+02 0.  0.
         12    1    1    2    0    0  0.10055021775E+01  0.58510922945E+00  0.19878429246E+00  0.11802129614E+01  0.00000000000E+00 0. -1.
         11    1    3    3    0    0  0.62231875150E+01  0.33831527886E+01  0.92131245991E+01  0.11621336015E+02  0.51100000000E-03 0. -1.
        -11    1    3    3    0    0  0.29221221484E+02  0.10423362396E+02 -0.21067614304E+02  0.37501608517E+02  0.51100000000E-03 0.  1.
         12    1    3    3    0    0 -0.36449911177E+02 -0.14391624414E+02  0.11655705412E+02  0.40884842506E+02  0.00000000000E+00 0. -1.
</event>
<event>
 7    1  0.3707147E-015  0.9000776E+02  0.7816164E-02  0.1186339E+00
        -11   -1    0    0    0    0  0.00000000000E+00  0.00000000000E+00  0.45593999997E+02  0.45594000000E+02  0.51100000000E-03 0.  1.
         11   -1    0    0    0    0 -0.00000000000E+00 -0.00000000000E+00 -0.45593999997E+02  0.45594000000E+02  0.51100000000E-03 0. -1.
    9900012    2    1    2    0    0  0.17933008166E+00  0.16416969768E+00  0.11549314374E+01  0.90007755283E+02  0.90000016852E+02 0.  0.
         12    1    1    2    0    0 -0.17933008166E+00 -0.16416969768E+00 -0.11549314374E+01  0.11802447174E+01  0.00000000000E+00 0. -1.
         11    1    3    3    0    0 -0.49583943838E+01  0.78790962883E+01  0.20067957400E+01  0.95232905337E+01  0.51100000000E-03 0. -1.
        -11    1    3    3    0    0 -0.94047932072E+01 -0.38952633022E+02  0.14696550730E+02  0.42681920742E+02  0.51100000000E-03 0.  1.
         12    1    3    3    0    0  0.14542517673E+02  0.31237706431E+02 -0.15548415032E+02  0.37802544007E+02  0.00000000000E+00 0. -1.
</event>
<event>
 7    1  0.3707147E-015  0.9000775E+02  0.7816164E-02  0.1186339E+00
        -11   -1    0    0    0    0  0.00000000000E+00  0.00000000000E+00  0.45593999997E+02  0.45594000000E+02  0.51100000000E-03 0. -1.
         11   -1    0    0    0    0 -0.00000000000E+00 -0.00000000000E+00 -0.45593999997E+02  0.45594000000E+02  0.51100000000E-03 0.  1.
    9900012    2    1    2    0    0  0.97913155563E+00  0.43085067184E+00 -0.49865111215E+00  0.90007752638E+02  0.90000014172E+02 0.  0.
         12    1    1    2    0    0 -0.97913155563E+00 -0.43085067184E+00  0.49865111215E+00  0.11802473623E+01  0.00000000000E+00 0. -1.
         11    1    3    3    0    0 -0.10276411012E+02 -0.28702414910E+00 -0.31543776588E+00  0.10285256798E+02  0.51100000000E-03 0. -1.
        -11    1    3    3    0    0 -0.33981202135E+02 -0.15551860304E+01  0.39263954869E+01  0.34242623789E+02  0.51100000000E-03 0.  1.
         12    1    3    3    0    0  0.45236744703E+02  0.22730608513E+01 -0.41096088332E+01  0.45479872051E+02  0.00000000000E+00 0. -1.
</event>
<event>
 7    1  0.3707147E-015  0.9000772E+02  0.7816164E-02  0.1186339E+00
        -11   -1    0    0    0    0  0.00000000000E+00  0.00000000000E+00  0.45593999997E+02  0.45594000000E+02  0.51100000000E-03 0.  1.
         11   -1    0    0    0    0 -0.00000000000E+00 -0.00000000000E+00 -0.45593999997E+02  0.45594000000E+02  0.51100000000E-03 0. -1.
    9900012    2    1    2    0    0  0.46266298085E+00  0.33401457106E+00  0.10331652198E+01  0.90007723279E+02  0.89999984426E+02 0.  0.
         12    1    1    2    0    0 -0.46266298085E+00 -0.33401457106E+00 -0.10331652198E+01  0.11802767214E+01  0.00000000000E+00 0. -1.
         11    1    3    3    0    0 -0.37557739875E+02 -0.10267944640E+02 -0.10187439383E+02  0.40246719532E+02  0.51100000000E-03 0. -1.
        -11    1    3    3    0    0  0.27273826486E+01  0.38291676855E+00 -0.78819298868E+01  0.83492550784E+01  0.51100000000E-03 0.  1.
        -12    1    3    3    0    0  0.35293020207E+02  0.10219042442E+02  0.19102534490E+02  0.41411748668E+02  0.00000000000E+00 0.  1.
</event>
<event>
 7    1  0.3707147E-015  0.9000776E+02  0.7816164E-02  0.1186339E+00
        -11   -1    0    0    0    0  0.00000000000E+00  0.00000000000E+00  0.45593999997E+02  0.45594000000E+02  0.51100000000E-03 0.  1.
         11   -1    0    0    0    0 -0.00000000000E+00 -0.00000000000E+00 -0.45593999997E+02  0.45594000000E+02  0.51100000000E-03 0. -1.
    9900012    2    1    2    0    0 -0.20633110332E+00  0.94525223372E+00  0.67593993631E+00  0.90007758878E+02  0.90000020495E+02 0.  0.
         12    1    1    2    0    0  0.20633110332E+00 -0.94525223372E+00 -0.67593993631E+00  0.11802411224E+01  0.00000000000E+00 0. -1.
         11    1    3    3    0    0 -0.18657544595E+02 -0.34805972170E+02  0.10470923146E+02  0.40855842922E+02  0.51100000000E-03 0. -1.
        -11    1    3    3    0    0 -0.66317310418E+00 -0.39703912119E+01 -0.15066768321E+01  0.42981252051E+01  0.51100000000E-03 0.  1.
        -12    1    3    3    0    0  0.19114386596E+02  0.39721615616E+02 -0.82883063773E+01  0.44853790751E+02  0.00000000000E+00 0.  1.
</event>
<event>
 7    1  0.3707147E-015  0.9000769E+02  0.7816164E-02  0.1186339E+00
        -11   -1    0    0    0    0  0.00000000000E+00  0.00000000000E+00  0.45593999997E+02  0.45594000000E+02  0.51100000000E-03 0.  1.
         11   -1    0    0    0    0 -0.00000000000E+00 -0.00000000000E+00 -0.45593999997E+02  0.45594000000E+02  0.51100000000E-03 0. -1.
    9900012    2    1    2    0    0  0.23747079903E+00  0.14577822885E+00  0.11469492428E+01  0.90007688076E+02  0.89999948759E+02 0.  0.
         12    1    1    2    0    0 -0.23747079903E+00 -0.14577822885E+00 -0.11469492428E+01  0.11803119240E+01  0.00000000000E+00 0. -1.
         11    1    3    3    0    0  0.27549726407E+01 -0.14763609050E+01  0.55559121863E+01  0.63747687218E+01  0.51100000000E-03 0. -1.
        -11    1    3    3    0    0 -0.18078625025E+02  0.33013897286E+02  0.18328086450E+02  0.41864935805E+02  0.51100000000E-03 0.  1.
         12    1    3    3    0    0  0.15561123183E+02 -0.31391758153E+02 -0.22737049393E+02  0.41767983549E+02  0.00000000000E+00 0. -1.
</event>
<event>
 7    1  0.3707147E-015  0.9000760E+02  0.7816164E-02  0.1186339E+00
        -11   -1    0    0    0    0  0.00000000000E+00  0.00000000000E+00  0.45593999997E+02  0.45594000000E+02  0.51100000000E-03 0.  1.
         11   -1    0    0    0    0 -0.00000000000E+00 -0.00000000000E+00 -0.45593999997E+02  0.45594000000E+02  0.51100000000E-03 0. -1.
    9900012    2    1    2    0    0  0.16249183796E+00  0.11500528813E+01  0.21050137217E+00  0.90007603433E+02  0.89999862998E+02 0.  0.
         12    1    1    2    0    0 -0.16249183796E+00 -0.11500528813E+01 -0.21050137217E+00  0.11803965668E+01  0.00000000000E+00 0. -1.
         11    1    3    3    0    0  0.89775022086E+01 -0.35888051178E+02 -0.11264220094E+02  0.38670795412E+02  0.51100000000E-03 0. -1.
        -11    1    3    3    0    0  0.67090869556E+01 -0.93209350101E+00  0.75271997360E+01  0.10126173127E+02  0.51100000000E-03 0.  1.
        -12    1    3    3    0    0 -0.15524097326E+02  0.37970197560E+02  0.39475217301E+01  0.41210634894E+02  0.00000000000E+00 0.  1.
</event>
<event>
 7    1  0.3707147E-015  0.9000757E+02  0.7816164E-02  0.1186339E+00
        -11   -1    0    0    0    0  0.00000000000E+00  0.00000000000E+00  0.45593999997E+02  0.45594000000E+02  0.51100000000E-03 0. -1.
         11   -1    0    0    0    0 -0.00000000000E+00 -0.00000000000E+00 -0.45593999997E+02  0.45594000000E+02  0.51100000000E-03 0.  1.
    9900012    2    1    2    0    0  0.10971628152E+01 -0.43544511171E+00  0.68749170818E-02  0.90007565354E+02  0.89999824417E+02 0.  0.
         12    1    1    2    0    0 -0.10971628152E+01  0.43544511171E+00 -0.68749170818E-02  0.11804346457E+01  0.00000000000E+00 0. -1.
         11    1    3    3    0    0 -0.16473543420E+02 -0.32139351181E+02  0.14201259664E+02  0.38807103776E+02  0.51100000000E-03 0. -1.
        -11    1    3    3    0    0 -0.72621575362E+01  0.87719023373E+01  0.48787048979E+01  0.12388985610E+02  0.51100000000E-03 0.  1.
        -12    1    3    3    0    0  0.24832863771E+02  0.22932003732E+02 -0.19073089645E+02  0.38811475969E+02  0.00000000000E+00 0.  1.
</event>
<event>
 7    1  0.3707147E-015  0.9000765E+02  0.7816164E-02  0.1186339E+00
        -11   -1    0    0    0    0  0.00000000000E+00  0.00000000000E+00  0.45593999997E+02  0.45594000000E+02  0.51100000000E-03 0. -1.
         11   -1    0    0    0    0 -0.00000000000E+00 -0.00000000000E+00 -0.45593999997E+02  0.45594000000E+02  0.51100000000E-03 0.  1.
    9900012    2    1    2    0    0 -0.61006398065E-01  0.52109752579E+00 -0.10573384457E+01  0.90007648781E+02  0.89999908945E+02 0.  0.
         12    1    1    2    0    0  0.61006398065E-01 -0.52109752579E+00  0.10573384457E+01  0.11803512192E+01  0.00000000000E+00 0. -1.
         11    1    3    3    0    0  0.13609722090E+01  0.82104303708E+01  0.11221782113E+01  0.83977792556E+01  0.51100000000E-03 0. -1.
        -11    1    3    3    0    0  0.10591496038E+02  0.31151404169E+02 -0.18561559960E+02  0.37777258747E+02  0.51100000000E-03 0.  1.
         12    1    3    3    0    0 -0.12013474645E+02 -0.38840737014E+02  0.16382043303E+02  0.43832610778E+02  0.00000000000E+00 0. -1.
</event>
<event>
 7    1  0.3707147E-015  0.9000773E+02  0.7816164E-02  0.1186339E+00
        -11   -1    0    0    0    0  0.00000000000E+00  0.00000000000E+00  0.45593999997E+02  0.45594000000E+02  0.51100000000E-03 0. -1.
         11   -1    0    0    0    0 -0.00000000000E+00 -0.00000000000E+00 -0.45593999997E+02  0.45594000000E+02  0.51100000000E-03 0.  1.
    9900012    2    1    2    0    0 -0.11207450750E+01  0.36898193315E+00 -0.28680779800E-01  0.90007728939E+02  0.89999990161E+02 0.  0.
         12    1    1    2    0    0  0.11207450750E+01 -0.36898193315E+00  0.28680779800E-01  0.11802710609E+01  0.00000000000E+00 0. -1.
         11    1    3    3    0    0 -0.84986459999E+00 -0.10265552301E+02 -0.39558600081E+01  0.11034158896E+02  0.51100000000E-03 0. -1.
        -11    1    3    3    0    0  0.22794498073E+02  0.33030687430E+01 -0.29673701774E+02  0.37563652415E+02  0.51100000000E-03 0.  1.
         12    1    3    3    0    0 -0.23065378548E+02  0.73314654914E+01  0.33600881002E+02  0.41409917628E+02  0.00000000000E+00 0. -1.
</event>
<event>
 7    1  0.3707147E-015  0.9000776E+02  0.7816164E-02  0.1186339E+00
        -11   -1    0    0    0    0  0.00000000000E+00  0.00000000000E+00  0.45593999997E+02  0.45594000000E+02  0.51100000000E-03 0.  1.
         11   -1    0    0    0    0 -0.00000000000E+00 -0.00000000000E+00 -0.45593999997E+02  0.45594000000E+02  0.51100000000E-03 0. -1.
    9900012    2    1    2    0    0  0.44017963321E+00  0.10936559063E+01 -0.55959247959E-01  0.90007757318E+02  0.90000018915E+02 0.  0.
         12    1    1    2    0    0 -0.44017963321E+00 -0.10936559063E+01  0.55959247959E-01  0.11802426820E+01  0.00000000000E+00 0. -1.
         11    1    3    3    0    0 -0.40355422951E+01 -0.18225570037E+02 -0.31446462755E+02  0.36569618878E+02  0.51100000000E-03 0. -1.
        -11    1    3    3    0    0 -0.57695173866E+01  0.88222624173E+00 -0.73152865327E+01  0.93583690530E+01  0.51100000000E-03 0.  1.
        -12    1    3    3    0    0  0.10245239315E+02  0.18436999702E+02  0.38705790040E+02  0.44079769387E+02  0.00000000000E+00 0.  1.
</event>
<event>
 7    1  0.3707147E-015  0.9000773E+02  0.7816164E-02  0.1186339E+00
        -11   -1    0    0    0    0  0.00000000000E+00  0.00000000000E+00  0.45593999997E+02  0.45594000000E+02  0.51100000000E-03 0.  1.
         11   -1    0    0    0    0 -0.00000000000E+00 -0.00000000000E+00 -0.45593999997E+02  0.45594000000E+02  0.51100000000E-03 0. -1.
    9900012    2    1    2    0    0  0.10441765878E+01 -0.54909723031E+00 -0.34853142737E-01  0.90007734243E+02  0.89999995535E+02 0.  0.
         12    1    1    2    0    0 -0.10441765878E+01  0.54909723031E+00  0.34853142737E-01  0.11802657567E+01  0.00000000000E+00 0. -1.
         11    1    3    3    0    0  0.34958353122E+02  0.15947276570E+01 -0.19288207078E+02  0.39958285022E+02  0.51100000000E-03 0. -1.
        -11    1    3    3    0    0  0.30649908990E+01 -0.81056486038E+01  0.47559313676E+01  0.98850691416E+01  0.51100000000E-03 0.  1.
        -12    1    3    3    0    0 -0.36979167434E+02  0.59618237165E+01  0.14497422568E+02  0.40164380080E+02  0.00000000000E+00 0.  1.
</event>
<event>
 7    1  0.3707147E-015  0.9000767E+02  0.7816164E-02  0.1186339E+00
        -11   -1    0    0    0    0  0.00000000000E+00  0.00000000000E+00  0.45593999997E+02  0.45594000000E+02  0.51100000000E-03 0.  1.
         11   -1    0    0    0    0 -0.00000000000E+00 -0.00000000000E+00 -0.45593999997E+02  0.45594000000E+02  0.51100000000E-03 0. -1.
    9900012    2    1    2    0    0  0.62623112116E+00 -0.12661381913E+00  0.99246780495E+00  0.90007665801E+02  0.89999926190E+02 0.  0.
         12    1    1    2    0    0 -0.62623112116E+00  0.12661381913E+00 -0.99246780495E+00  0.11803341985E+01  0.00000000000E+00 0. -1.
         11    1    3    3    0    0 -0.65697877147E+01  0.29217261346E+01  0.20817427253E+00  0.71931864296E+01  0.51100000000E-03 0. -1.
        -11    1    3    3    0    0 -0.26394484833E+02  0.21116703144E+02  0.17646454895E+02  0.38131107404E+02  0.51100000000E-03 0.  1.
         12    1    3    3    0    0  0.33590503668E+02 -0.24165043097E+02 -0.16862161363E+02  0.44683371968E+02  0.00000000000E+00 0. -1.
</event>
<event>
 7    1  0.3707147E-015  0.9000771E+02  0.7816164E-02  0.1186339E+00
        -11   -1    0    0    0    0  0.00000000000E+00  0.00000000000E+00  0.45593999997E+02  0.45594000000E+02  0.51100000000E-03 0. -1.
         11   -1    0    0    0    0 -0.00000000000E+00 -0.00000000000E+00 -0.45593999997E+02  0.45594000000E+02  0.51100000000E-03 0.  1.
    9900012    2    1    2    0    0 -0.33725669918E+00 -0.11183038242E+01 -0.16953054482E+00  0.90007709303E+02  0.89999970266E+02 0.  0.
         12    1    1    2    0    0  0.33725669918E+00  0.11183038242E+01  0.16953054482E+00  0.11802906972E+01  0.00000000000E+00 0. -1.
         11    1    3    3    0    0  0.21423290071E+02 -0.20059567732E+02  0.21040397474E+02  0.36111520893E+02  0.51100000000E-03 0. -1.
        -11    1    3    3    0    0  0.15867024341E+01 -0.10517706138E+02  0.19795546743E+00  0.10638559754E+02  0.51100000000E-03 0.  1.
        -12    1    3    3    0    0 -0.23347249204E+02  0.29458970046E+02 -0.21407883486E+02  0.43257628656E+02  0.00000000000E+00 0.  1.
</event>
<event>
 7    1  0.3707147E-015  0.9000767E+02  0.7816164E-02  0.1186339E+00
        -11   -1    0    0    0    0  0.00000000000E+00  0.00000000000E+00  0.45593999997E+02  0.45594000000E+02  0.51100000000E-03 0. -1.
         11   -1    0    0    0    0 -0.00000000000E+00 -0.00000000000E+00 -0.45593999997E+02  0.45594000000E+02  0.51100000000E-03 0.  1.
    9900012    2    1    2    0    0 -0.58330208304E+00  0.96799390742E+00 -0.34047011476E+00  0.90007672323E+02  0.89999932798E+02 0.  0.
         12    1    1    2    0    0  0.58330208304E+00 -0.96799390742E+00  0.34047011476E+00  0.11803276765E+01  0.00000000000E+00 0. -1.
         11    1    3    3    0    0 -0.38750545348E+01  0.40260541455E+01  0.35889841016E+02  0.36322250041E+02  0.51100000000E-03 0. -1.
        -11    1    3    3    0    0 -0.57240223327E+01  0.81789441833E+00  0.71577006698E+01  0.92014163086E+01  0.51100000000E-03 0.  1.
        -12    1    3    3    0    0  0.90157747845E+01 -0.38759546564E+01 -0.43388011801E+02  0.44484005974E+02  0.00000000000E+00 0.  1.
</event>
<event>
 7    1  0.3707147E-015  0.9000782E+02  0.7816164E-02  0.1186339E+00
        -11   -1    0    0    0    0  0.00000000000E+00  0.00000000000E+00  0.45593999997E+02  0.45594000000E+02  0.51100000000E-03 0.  1.
         11   -1    0    0    0    0 -0.00000000000E+00 -0.00000000000E+00 -0.45593999997E+02  0.45594000000E+02  0.51100000000E-03 0. -1.
    9900012    2    1    2    0    0 -0.48100106219E+00 -0.10382735001E+01  0.28889593646E+00  0.90007815800E+02  0.90000078169E+02 0.  0.
         12    1    1    2    0    0  0.48100106219E+00  0.10382735001E+01 -0.28889593646E+00  0.11801841996E+01  0.00000000000E+00 0. -1.
         11    1    3    3    0    0  0.64497072664E+01 -0.80919004815E+01  0.19870744469E+01  0.10536889595E+02  0.51100000000E-03 0. -1.
        -11    1    3    3    0    0 -0.12961760076E+02  0.29678806629E+02  0.27188995762E+02  0.42285698268E+02  0.51100000000E-03 0.  1.
         12    1    3    3    0    0  0.60310517479E+01 -0.22625179648E+02 -0.28887174273E+02  0.37185227937E+02  0.00000000000E+00 0. -1.
</event>
<event>
 7    1  0.3707147E-015  0.9000776E+02  0.7816164E-02  0.1186339E+00
        -11   -1    0    0    0    0  0.00000000000E+00  0.00000000000E+00  0.45593999997E+02  0.45594000000E+02  0.51100000000E-03 0.  1.
         11   -1    0    0    0    0 -0.00000000000E+00 -0.00000000000E+00 -0.45593999997E+02  0.45594000000E+02  0.51100000000E-03 0. -1.
    9900012    2    1    2    0    0  0.76408981722E+00 -0.85770432541E+00 -0.27105762504E+00  0.90007761806E+02  0.90000023462E+02 0.  0.
         12    1    1    2    0    0 -0.76408981722E+00  0.85770432541E+00  0.27105762504E+00  0.11802381940E+01  0.00000000000E+00 0. -1.
         11    1    3    3    0    0 -0.17921679671E+02 -0.35869988378E+01  0.11236742994E+01  0.18311630378E+02  0.51100000000E-03 0. -1.
        -11    1    3    3    0    0 -0.19279089607E+02 -0.17961600513E+02 -0.89008426790E+01  0.27812360377E+02  0.51100000000E-03 0.  1.
         12    1    3    3    0    0  0.37964859095E+02  0.20690895026E+02  0.75061107545E+01  0.43883771052E+02  0.00000000000E+00 0. -1.
</event>
<event>
 7    1  0.3707147E-015  0.9000768E+02  0.7816164E-02  0.1186339E+00
        -11   -1    0    0    0    0  0.00000000000E+00  0.00000000000E+00  0.45593999997E+02  0.45594000000E+02  0.51100000000E-03 0.  1.
         11   -1    0    0    0    0 -0.00000000000E+00 -0.00000000000E+00 -0.45593999997E+02  0.45594000000E+02  0.51100000000E-03 0. -1.
    9900012    2    1    2    0    0  0.12327274979E+00 -0.34563133000E+00  0.11218269186E+01  0.90007681051E+02  0.89999941640E+02 0.  0.
         12    1    1    2    0    0 -0.12327274979E+00  0.34563133000E+00 -0.11218269186E+01  0.11803189495E+01  0.00000000000E+00 0. -1.
         11    1    3    3    0    0  0.61255422910E+00  0.42915265641E+01 -0.35222567348E+02  0.35488331516E+02  0.51100000000E-03 0. -1.
        -11    1    3    3    0    0  0.30649233232E+00 -0.23357629696E-01 -0.89642139801E+01  0.89694824640E+01  0.51100000000E-03 0.  1.
        -12    1    3    3    0    0 -0.79577381162E+00 -0.46138002644E+01  0.45308608247E+02  0.45549867070E+02  0.00000000000E+00 0.  1.
</event>
<event>
 7    1  0.3707147E-015  0.9000770E+02  0.7816164E-02  0.1186339E+00
        -11   -1    0    0    0    0  0.00000000000E+00  0.00000000000E+00  0.45593999997E+02  0.45594000000E+02  0.51100000000E-03 0. -1.
         11   -1    0    0    0    0 -0.00000000000E+00 -0.00000000000E+00 -0.45593999997E+02  0.45594000000E+02  0.51100000000E-03 0.  1.
    9900012    2    1    2    0    0  0.59495989011E+00  0.30141643365E+00 -0.97380006291E+00  0.90007696776E+02  0.89999957574E+02 0.  0.
         12    1    1    2    0    0 -0.59495989011E+00 -0.30141643365E+00  0.97380006291E+00  0.11803032237E+01  0.00000000000E+00 0. -1.
         11    1    3    3    0    0 -0.36920950457E+01 -0.66856787554E+00  0.15690407277E+02  0.16132806006E+02  0.51100000000E-03 0. -1.
        -11    1    3    3    0    0 -0.22488867928E+02  0.24252938800E+02  0.31667612670E+01  0.33226233586E+02  0.51100000000E-03 0.  1.
         12    1    3    3    0    0  0.26775922864E+02 -0.23282954491E+02 -0.19830968607E+02  0.40648657185E+02  0.00000000000E+00 0. -1.
</event>
<event>
 7    1  0.3707147E-015  0.9000763E+02  0.7816164E-02  0.1186339E+00
        -11   -1    0    0    0    0  0.00000000000E+00  0.00000000000E+00  0.45593999997E+02  0.45594000000E+02  0.51100000000E-03 0.  1.
         11   -1    0    0    0    0 -0.00000000000E+00 -0.00000000000E+00 -0.45593999997E+02  0.45594000000E+02  0.51100000000E-03 0. -1.
    9900012    2    1    2    0    0 -0.45284642779E-01  0.11641456116E+01  0.18969422311E+00  0.90007631582E+02  0.89999891519E+02 0.  0.
         12    1    1    2    0    0  0.45284642779E-01 -0.11641456116E+01 -0.18969422311E+00  0.11803684180E+01  0.00000000000E+00 0. -1.
         11    1    3    3    0    0  0.23654124308E+01 -0.10428450185E+02 -0.29309978719E+01  0.11087763436E+02  0.51100000000E-03 0. -1.
        -11    1    3    3    0    0  0.12449342808E+02 -0.26716162618E+02  0.18778059126E+02  0.34947889581E+02  0.51100000000E-03 0.  1.
         12    1    3    3    0    0 -0.14860039882E+02  0.38308758414E+02 -0.15657367031E+02  0.43971978565E+02  0.00000000000E+00 0. -1.
</event>
<event>
 7    1  0.3707147E-015  0.9000820E+02  0.7816164E-02  0.1186338E+00
        -11   -1    0    0    0    0  0.00000000000E+00  0.00000000000E+00  0.45593999997E+02  0.45594000000E+02  0.51100000000E-03 0.  1.
         11   -1    0    0    0    0 -0.00000000000E+00 -0.00000000000E+00 -0.45593999997E+02  0.45594000000E+02  0.51100000000E-03 0. -1.
    9900012    2    1    2    0    0  0.41938225015E+00  0.51408857831E-01  0.11015479844E+01  0.90008198193E+02  0.90000465608E+02 0.  0.
         12    1    1    2    0    0 -0.41938225015E+00 -0.51408857831E-01 -0.11015479844E+01  0.11798018072E+01  0.00000000000E+00 0. -1.
         11    1    3    3    0    0 -0.10672706366E+02 -0.37365014487E+02  0.40308329381E+01  0.39067871496E+02  0.51100000000E-03 0. -1.
        -11    1    3    3    0    0  0.76592470800E+01 -0.43114811303E+01 -0.22202431184E+01  0.90654517337E+01  0.51100000000E-03 0.  1.
        -12    1    3    3    0    0  0.34328415357E+01  0.41727904475E+02 -0.70904183537E+00  0.41874874963E+02  0.00000000000E+00 0.  1.
</event>
<event>
 7    1  0.3707147E-015  0.9000781E+02  0.7816164E-02  0.1186339E+00
        -11   -1    0    0    0    0  0.00000000000E+00  0.00000000000E+00  0.45593999997E+02  0.45594000000E+02  0.51100000000E-03 0.  1.
         11   -1    0    0    0    0 -0.00000000000E+00 -0.00000000000E+00 -0.45593999997E+02  0.45594000000E+02  0.51100000000E-03 0. -1.
    9900012    2    1    2    0    0  0.36226883098E+00 -0.99532765663E+00  0.52051333151E+00  0.90007809347E+02  0.90000071630E+02 0.  0.
         12    1    1    2    0    0 -0.36226883098E+00  0.99532765663E+00 -0.52051333151E+00  0.11801906533E+01  0.00000000000E+00 0. -1.
         11    1    3    3    0    0 -0.15756684126E+01 -0.10374620766E+01 -0.10087121412E+02  0.10262021105E+02  0.51100000000E-03 0. -1.
        -11    1    3    3    0    0 -0.25373094097E+02  0.87032438248E+01  0.33610865510E+02  0.43002681750E+02  0.51100000000E-03 0.  1.
         12    1    3    3    0    0  0.27311031340E+02 -0.86611094048E+01 -0.23003230766E+02  0.36743106492E+02  0.00000000000E+00 0. -1.
</event>
<event>
 7    1  0.3707147E-015  0.9000769E+02  0.7816164E-02  0.1186339E+00
        -11   -1    0    0    0    0  0.00000000000E+00  0.00000000000E+00  0.45593999997E+02  0.45594000000E+02  0.51100000000E-03 0.  1.
         11   -1    0    0    0    0 -0.00000000000E+00 -0.00000000000E+00 -0.45593999997E+02  0.45594000000E+02  0.51100000000E-03 0. -1.
    9900012    2    1    2    0    0 -0.83643261394E+00  0.78715765547E+00 -0.27184848292E+00  0.90007687207E+02  0.89999947878E+02 0.  0.
         12    1    1    2    0    0  0.83643261394E+00 -0.78715765547E+00  0.27184848292E+00  0.11803127932E+01  0.00000000000E+00 0. -1.
         11    1    3    3    0    0 -0.95142933958E+01  0.19943585407E+01 -0.23099079450E+01  0.99917425800E+01  0.51100000000E-03 0. -1.
        -11    1    3    3    0    0 -0.22639242627E+02 -0.21924046504E+02 -0.19173803647E+02  0.36889481812E+02  0.51100000000E-03 0.  1.
         12    1    3    3    0    0  0.31317103409E+02  0.20716845619E+02  0.21211863109E+02  0.43126462814E+02  0.00000000000E+00 0. -1.
</event>
<event>
 7    1  0.3707147E-015  0.9000805E+02  0.7816164E-02  0.1186338E+00
        -11   -1    0    0    0    0  0.00000000000E+00  0.00000000000E+00  0.45593999997E+02  0.45594000000E+02  0.51100000000E-03 0. -1.
         11   -1    0    0    0    0 -0.00000000000E+00 -0.00000000000E+00 -0.45593999997E+02  0.45594000000E+02  0.51100000000E-03 0.  1.
    9900012    2    1    2    0    0 -0.53537489336E+00 -0.49069686356E+00 -0.92998129605E+00  0.90008053010E+02  0.90000318509E+02 0.  0.
         12    1    1    2    0    0  0.53537489336E+00  0.49069686356E+00  0.92998129605E+00  0.11799469901E+01  0.00000000000E+00 0. -1.
         11    1    3    3    0    0  0.30168053319E+01  0.17674665645E+02 -0.40674731973E+01  0.18385843971E+02  0.51100000000E-03 0. -1.
        -11    1    3    3    0    0  0.14442338853E+02  0.22429725977E+02 -0.27945255679E+01  0.26823182741E+02  0.51100000000E-03 0.  1.
         12    1    3    3    0    0 -0.17994519078E+02 -0.40595088485E+02  0.59320174692E+01  0.44799026298E+02  0.00000000000E+00 0. -1.
</event>
<event>
 7    1  0.3707147E-015  0.9000752E+02  0.7816164E-02  0.1186339E+00
        -11   -1    0    0    0    0  0.00000000000E+00  0.00000000000E+00  0.45593999997E+02  0.45594000000E+02  0.51100000000E-03 0.  1.
         11   -1    0    0    0    0 -0.00000000000E+00 -0.00000000000E+00 -0.45593999997E+02  0.45594000000E+02  0.51100000000E-03 0. -1.
    9900012    2    1    2    0    0 -0.82482047472E+00 -0.68319268657E+00  0.49643036179E+00  0.90007523754E+02  0.89999782268E+02 0.  0.
         12    1    1    2    0    0  0.82482047472E+00  0.68319268657E+00 -0.49643036179E+00  0.11804762457E+01  0.00000000000E+00 0. -1.
         11    1    3    3    0    0 -0.85181231517E+01 -0.91950476148E+00 -0.86867848651E+00  0.86115337547E+01  0.51100000000E-03 0. -1.
        -11    1    3    3    0    0  0.15577517784E+02  0.24438490883E+02  0.30928265489E+02  0.42384625790E+02  0.51100000000E-03 0.  1.
         12    1    3    3    0    0 -0.78842151073E+01 -0.24202178808E+02 -0.29563156640E+02  0.39011364209E+02  0.00000000000E+00 0. -1.
</event>
<event>
 7    1  0.3707147E-015  0.9000779E+02  0.7816164E-02  0.1186339E+00
        -11   -1    0    0    0    0  0.00000000000E+00  0.00000000000E+00  0.45593999997E+02  0.45594000000E+02  0.51100000000E-03 0.  1.
         11   -1    0    0    0    0 -0.00000000000E+00 -0.00000000000E+00 -0.45593999997E+02  0.45594000000E+02  0.51100000000E-03 0. -1.
    9900012    2    1    2    0    0 -0.67572380237E+00 -0.54673900482E-01 -0.96607754171E+00  0.90007789125E+02  0.90000051142E+02 0.  0.
         12    1    1    2    0    0  0.67572380237E+00  0.54673900482E-01  0.96607754171E+00  0.11802108748E+01  0.00000000000E+00 0. -1.
         11    1    3    3    0    0  0.74364705371E+01 -0.20310487800E+01 -0.70484275352E+01  0.10445409718E+02  0.51100000000E-03 0. -1.
        -11    1    3    3    0    0  0.32990216264E+02 -0.12578008529E+02 -0.13394166014E+01  0.35332063410E+02  0.51100000000E-03 0.  1.
         12    1    3    3    0    0 -0.41102410603E+02  0.14554383409E+02  0.74217665949E+01  0.44230315997E+02  0.00000000000E+00 0. -1.
</event>
<event>
 7    1  0.3707147E-015  0.9000755E+02  0.7816164E-02  0.1186339E+00
        -11   -1    0    0    0    0  0.00000000000E+00  0.00000000000E+00  0.45593999997E+02  0.45594000000E+02  0.51100000000E-03 0.  1.
         11   -1    0    0    0    0 -0.00000000000E+00 -0.00000000000E+00 -0.45593999997E+02  0.45594000000E+02  0.51100000000E-03 0. -1.
    9900012    2    1    2    0    0  0.31520747725E+00 -0.11374121991E+01  0.19728062665E-01  0.90007554550E+02  0.89999813470E+02 0.  0.
         12    1    1    2    0    0 -0.31520747725E+00  0.11374121991E+01 -0.19728062665E-01  0.11804454502E+01  0.00000000000E+00 0. -1.
         11    1    3    3    0    0 -0.19555547231E+02 -0.80724458506E+01  0.11896855363E+02  0.24271773262E+02  0.51100000000E-03 0. -1.
        -11    1    3    3    0    0  0.28536963537E+01 -0.18636299405E+02  0.15640331458E+02  0.24496432531E+02  0.51100000000E-03 0.  1.
         12    1    3    3    0    0  0.17017058354E+02  0.25571333056E+02 -0.27517458759E+02  0.41239348756E+02  0.00000000000E+00 0. -1.
</event>
<event>
 7    1  0.3707147E-015  0.9000774E+02  0.7816164E-02  0.1186339E+00
        -11   -1    0    0    0    0  0.00000000000E+00  0.00000000000E+00  0.45593999997E+02  0.45594000000E+02  0.51100000000E-03 0. -1.
         11   -1    0    0    0    0 -0.00000000000E+00 -0.00000000000E+00 -0.45593999997E+02  0.45594000000E+02  0.51100000000E-03 0.  1.
    9900012    2    1    2    0    0  0.51339418454E+00  0.28128276922E-01 -0.10623788579E+01  0.90007740017E+02  0.90000001386E+02 0.  0.
         12    1    1    2    0    0 -0.51339418454E+00 -0.28128276922E-01  0.10623788579E+01  0.11802599825E+01  0.00000000000E+00 0. -1.
         11    1    3    3    0    0  0.17373775846E+02 -0.20045682444E+02  0.23957448172E+02  0.35744045588E+02  0.51100000000E-03 0. -1.
        -11    1    3    3    0    0 -0.60387483691E+01 -0.27827298474E+01  0.94237280923E+01  0.11533287419E+02  0.51100000000E-03 0.  1.
        -12    1    3    3    0    0 -0.10821633292E+02  0.22856540569E+02 -0.34443555122E+02  0.42730407011E+02  0.00000000000E+00 0.  1.
</event>
<event>
 7    1  0.3707147E-015  0.9000776E+02  0.7816164E-02  0.1186339E+00
        -11   -1    0    0    0    0  0.00000000000E+00  0.00000000000E+00  0.45593999997E+02  0.45594000000E+02  0.51100000000E-03 0. -1.
         11   -1    0    0    0    0 -0.00000000000E+00 -0.00000000000E+00 -0.45593999997E+02  0.45594000000E+02  0.51100000000E-03 0.  1.
    9900012    2    1    2    0    0  0.30002780684E+00  0.11087325655E+01  0.27140368529E+00  0.90007760809E+02  0.90000022452E+02 0.  0.
         12    1    1    2    0    0 -0.30002780684E+00 -0.11087325655E+01 -0.27140368529E+00  0.11802391907E+01  0.00000000000E+00 0. -1.
         11    1    3    3    0    0 -0.13544840104E+02  0.79631335101E+01  0.31013466676E+02  0.34766496865E+02  0.51100000000E-03 0. -1.
        -11    1    3    3    0    0 -0.48823201686E+01  0.10672138183E+02  0.36931349932E+01  0.12303285332E+02  0.51100000000E-03 0.  1.
        -12    1    3    3    0    0  0.18727188079E+02 -0.17526539128E+02 -0.34435197984E+02  0.42937978612E+02  0.00000000000E+00 0.  1.
</event>
<event>
 7    1  0.3707147E-015  0.9000795E+02  0.7816164E-02  0.1186339E+00
        -11   -1    0    0    0    0  0.00000000000E+00  0.00000000000E+00  0.45593999997E+02  0.45594000000E+02  0.51100000000E-03 0.  1.
         11   -1    0    0    0    0 -0.00000000000E+00 -0.00000000000E+00 -0.45593999997E+02  0.45594000000E+02  0.51100000000E-03 0. -1.
    9900012    2    1    2    0    0 -0.10271760246E+01 -0.23066188184E+00 -0.53313534997E+00  0.90007945429E+02  0.90000209508E+02 0.  0.
         12    1    1    2    0    0  0.10271760246E+01  0.23066188184E+00  0.53313534997E+00  0.11800545711E+01  0.00000000000E+00 0. -1.
         11    1    3    3    0    0 -0.22981448825E+01  0.79095843767E+01  0.17495846983E+01  0.84204537758E+01  0.51100000000E-03 0. -1.
        -11    1    3    3    0    0  0.20505125321E+02  0.25780300699E+02 -0.20234893944E+02  0.38659216259E+02  0.51100000000E-03 0.  1.
         12    1    3    3    0    0 -0.19234156463E+02 -0.33920546957E+02  0.17952173896E+02  0.42928275394E+02  0.00000000000E+00 0. -1.
</event>
<event>
 7    1  0.3707147E-015  0.9000793E+02  0.7816164E-02  0.1186339E+00
        -11   -1    0    0    0    0  0.00000000000E+00  0.00000000000E+00  0.45593999997E+02  0.45594000000E+02  0.51100000000E-03 0.  1.
         11   -1    0    0    0    0 -0.00000000000E+00 -0.00000000000E+00 -0.45593999997E+02  0.45594000000E+02  0.51100000000E-03 0. -1.
    9900012    2    1    2    0    0  0.63892510134E+00 -0.65589004327E+00 -0.74441019277E+00  0.90007930693E+02  0.90000194578E+02 0.  0.
         12    1    1    2    0    0 -0.63892510134E+00  0.65589004327E+00  0.74441019277E+00  0.11800693069E+01  0.00000000000E+00 0. -1.
         11    1    3    3    0    0  0.82848043165E+01  0.46573105550E+01 -0.32257307392E+02  0.33628297677E+02  0.51100000000E-03 0. -1.
        -11    1    3    3    0    0  0.38267822119E+01  0.39931202375E+01 -0.10487777582E+02  0.11856759684E+02  0.51100000000E-03 0.  1.
        -12    1    3    3    0    0 -0.11472661427E+02 -0.93063208359E+01  0.42000674781E+02  0.44522873333E+02  0.00000000000E+00 0.  1.
</event>
<event>
 7    1  0.3707147E-015  0.9000774E+02  0.7816164E-02  0.1186339E+00
        -11   -1    0    0    0    0  0.00000000000E+00  0.00000000000E+00  0.45593999997E+02  0.45594000000E+02  0.51100000000E-03 0.  1.
         11   -1    0    0    0    0 -0.00000000000E+00 -0.00000000000E+00 -0.45593999997E+02  0.45594000000E+02  0.51100000000E-03 0. -1.
    9900012    2    1    2    0    0 -0.24119791383E+00 -0.97932980025E+00  0.61299425545E+00  0.90007735094E+02  0.89999996397E+02 0.  0.
         12    1    1    2    0    0  0.24119791383E+00  0.97932980025E+00 -0.61299425545E+00  0.11802649061E+01  0.00000000000E+00 0. -1.
         11    1    3    3    0    0 -0.43452257850E+01  0.36458963214E+02 -0.13819257402E+02  0.39231477938E+02  0.51100000000E-03 0. -1.
        -11    1    3    3    0    0  0.26409137839E+01  0.31173069605E+01  0.89335275617E+01  0.98234384640E+01  0.51100000000E-03 0.  1.
        -12    1    3    3    0    0  0.14631140873E+01 -0.40555599975E+02  0.54987240953E+01  0.40952818692E+02  0.00000000000E+00 0.  1.
</event>
<event>
 7    1  0.3707147E-015  0.9000775E+02  0.7816164E-02  0.1186339E+00
        -11   -1    0    0    0    0  0.00000000000E+00  0.00000000000E+00  0.45593999997E+02  0.45594000000E+02  0.51100000000E-03 0.  1.
         11   -1    0    0    0    0 -0.00000000000E+00 -0.00000000000E+00 -0.45593999997E+02  0.45594000000E+02  0.51100000000E-03 0. -1.
    9900012    2    1    2    0    0  0.60991060274E-01  0.10942162175E+01  0.43812336943E+00  0.90007753786E+02  0.90000015335E+02 0.  0.
         12    1    1    2    0    0 -0.60991060274E-01 -0.10942162175E+01 -0.43812336943E+00  0.11802462145E+01  0.00000000000E+00 0. -1.
         11    1    3    3    0    0  0.30129807565E+02 -0.23847801420E+02 -0.94378084171E+01  0.39567602460E+02  0.51100000000E-03 0. -1.
        -11    1    3    3    0    0  0.57400715282E+01  0.55473923713E+01 -0.15762026622E+01  0.81367314300E+01  0.51100000000E-03 0.  1.
        -12    1    3    3    0    0 -0.35808888033E+02  0.19394625266E+02  0.11452134449E+02  0.42303419895E+02  0.00000000000E+00 0.  1.
</event>
<event>
 7    1  0.3707147E-015  0.9000770E+02  0.7816164E-02  0.1186339E+00
        -11   -1    0    0    0    0  0.00000000000E+00  0.00000000000E+00  0.45593999997E+02  0.45594000000E+02  0.51100000000E-03 0. -1.
         11   -1    0    0    0    0 -0.00000000000E+00 -0.00000000000E+00 -0.45593999997E+02  0.45594000000E+02  0.51100000000E-03 0.  1.
    9900012    2    1    2    0    0  0.25530087885E+00 -0.11502053914E+01 -0.70365611612E-01  0.90007702453E+02  0.89999963325E+02 0.  0.
         12    1    1    2    0    0 -0.25530087885E+00  0.11502053914E+01  0.70365611612E-01  0.11802975474E+01  0.00000000000E+00 0. -1.
         11    1    3    3    0    0 -0.26448631117E+01 -0.66873478992E+01 -0.60626182752E+01  0.94059164049E+01  0.51100000000E-03 0. -1.
        -11    1    3    3    0    0 -0.42529992609E+01 -0.33338489277E+02 -0.13876831074E+02  0.36360821098E+02  0.51100000000E-03 0.  1.
         12    1    3    3    0    0  0.71531632514E+01  0.38875631784E+02  0.19869083738E+02  0.44240964950E+02  0.00000000000E+00 0. -1.
</event>
<event>
 7    1  0.3707147E-015  0.9000756E+02  0.7816164E-02  0.1186339E+00
        -11   -1    0    0    0    0  0.00000000000E+00  0.00000000000E+00  0.45593999997E+02  0.45594000000E+02  0.51100000000E-03 0. -1.
         11   -1    0    0    0    0 -0.00000000000E+00 -0.00000000000E+00 -0.45593999997E+02  0.45594000000E+02  0.51100000000E-03 0.  1.
    9900012    2    1    2    0    0 -0.49376360659E+00 -0.88677780185E+00 -0.60271630465E+00  0.90007557577E+02  0.89999816537E+02 0.  0.
         12    1    1    2    0    0  0.49376360659E+00  0.88677780185E+00  0.60271630465E+00  0.11804424225E+01  0.00000000000E+00 0. -1.
         11    1    3    3    0    0  0.63957405649E+01  0.11151397399E+01 -0.72937309757E+01  0.97646067929E+01  0.51100000000E-03 0. -1.
        -11    1    3    3    0    0 -0.23492087954E+02 -0.35499856902E+02  0.41258949896E+01  0.42768458544E+02  0.51100000000E-03 0.  1.
         12    1    3    3    0    0  0.16602583783E+02  0.33497939361E+02  0.25651196814E+01  0.37474492240E+02  0.00000000000E+00 0. -1.
</event>
<event>
 7    1  0.3707147E-015  0.9000774E+02  0.7816164E-02  0.1186339E+00
        -11   -1    0    0    0    0  0.00000000000E+00  0.00000000000E+00  0.45593999997E+02  0.45594000000E+02  0.51100000000E-03 0.  1.
         11   -1    0    0    0    0 -0.00000000000E+00 -0.00000000000E+00 -0.45593999997E+02  0.45594000000E+02  0.51100000000E-03 0. -1.
    9900012    2    1    2    0    0  0.71585945982E+00 -0.93384890484E+00  0.92086972684E-01  0.90007742166E+02  0.90000003563E+02 0.  0.
         12    1    1    2    0    0 -0.71585945982E+00  0.93384890484E+00 -0.92086972684E-01  0.11802578336E+01  0.00000000000E+00 0. -1.
         11    1    3    3    0    0  0.11719833191E+02  0.33000912325E+02 -0.10191335208E+02  0.36472976543E+02  0.51100000000E-03 0. -1.
        -11    1    3    3    0    0 -0.12186086994E+01  0.85695133112E+01 -0.27037746147E+00  0.86599462923E+01  0.51100000000E-03 0.  1.
        -12    1    3    3    0    0 -0.97853650318E+01 -0.42504274541E+02  0.10553799642E+02  0.44874819331E+02  0.00000000000E+00 0.  1.
</event>
<event>
 7    1  0.3707147E-015  0.9000780E+02  0.7816164E-02  0.1186339E+00
        -11   -1    0    0    0    0  0.00000000000E+00  0.00000000000E+00  0.45593999997E+02  0.45594000000E+02  0.51100000000E-03 0.  1.
         11   -1    0    0    0    0 -0.00000000000E+00 -0.00000000000E+00 -0.45593999997E+02  0.45594000000E+02  0.51100000000E-03 0. -1.
    9900012    2    1    2    0    0  0.76838599489E+00 -0.88174753804E+00 -0.15801978503E+00  0.90007802554E+02  0.90000064748E+02 0.  0.
         12    1    1    2    0    0 -0.76838599489E+00  0.88174753804E+00  0.15801978503E+00  0.11801974455E+01  0.00000000000E+00 0. -1.
         11    1    3    3    0    0 -0.29624775703E+02  0.97542758734E+01 -0.28732042775E+02  0.42406408897E+02  0.51100000000E-03 0. -1.
        -11    1    3    3    0    0  0.31511951347E+01  0.53336009783E+01  0.70534083899E+01  0.93876461559E+01  0.51100000000E-03 0.  1.
        -12    1    3    3    0    0  0.27241966563E+02 -0.15969624390E+02  0.21520614600E+02  0.38213747502E+02  0.00000000000E+00 0.  1.
</event>
<event>
 7    1  0.3707147E-015  0.9000794E+02  0.7816164E-02  0.1186339E+00
        -11   -1    0    0    0    0  0.00000000000E+00  0.00000000000E+00  0.45593999997E+02  0.45594000000E+02  0.51100000000E-03 0. -1.
         11   -1    0    0    0    0 -0.00000000000E+00 -0.00000000000E+00 -0.45593999997E+02  0.45594000000E+02  0.51100000000E-03 0.  1.
    9900012    2    1    2    0    0  0.31698199941E+00 -0.40841500090E+00 -0.10607848976E+01  0.90007938561E+02  0.90000202550E+02 0.  0.
         12    1    1    2    0    0 -0.31698199941E+00  0.40841500090E+00  0.10607848976E+01  0.11800614390E+01  0.00000000000E+00 0. -1.
         11    1    3    3    0    0  0.11003018677E+02 -0.40113791565E+02 -0.23721410691E+00  0.41596141221E+02  0.51100000000E-03 0. -1.
        -11    1    3    3    0    0  0.63434493793E+01  0.73424065919E+01  0.57161623072E+01  0.11261651583E+02  0.51100000000E-03 0.  1.
        -12    1    3    3    0    0 -0.17029486056E+02  0.32362969972E+02 -0.65397330979E+01  0.37150145757E+02  0.00000000000E+00 0.  1.
</event>
<event>
 7    1  0.3707147E-015  0.9000781E+02  0.7816164E-02  0.1186339E+00
        -11   -1    0    0    0    0  0.00000000000E+00  0.00000000000E+00  0.45593999997E+02  0.45594000000E+02  0.51100000000E-03 0.  1.
         11   -1    0    0    0    0 -0.00000000000E+00 -0.00000000000E+00 -0.45593999997E+02  0.45594000000E+02  0.51100000000E-03 0. -1.
    9900012    2    1    2    0    0  0.69687643862E+00  0.85642843926E+00  0.41683342776E+00  0.90007806563E+02  0.90000068810E+02 0.  0.
         12    1    1    2    0    0 -0.69687643862E+00 -0.85642843926E+00 -0.41683342776E+00  0.11801934370E+01  0.00000000000E+00 0. -1.
         11    1    3    3    0    0  0.14184121633E+02 -0.70584152567E+01  0.14015574323E+02  0.21152939661E+02  0.51100000000E-03 0. -1.
        -11    1    3    3    0    0 -0.15282529595E+02 -0.20495856088E+02  0.14048306239E+02  0.29171745509E+02  0.51100000000E-03 0.  1.
         12    1    3    3    0    0  0.17952844004E+01  0.28410699784E+02 -0.27647047134E+02  0.39683121393E+02  0.00000000000E+00 0. -1.
</event>
<event>
 7    1  0.3707147E-015  0.9000861E+02  0.7816164E-02  0.1186337E+00
        -11   -1    0    0    0    0  0.00000000000E+00  0.00000000000E+00  0.45593999997E+02  0.45594000000E+02  0.51100000000E-03 0.  1.
         11   -1    0    0    0    0 -0.00000000000E+00 -0.00000000000E+00 -0.45593999997E+02  0.45594000000E+02  0.51100000000E-03 0. -1.
    9900012    2    1    2    0    0  0.92897133645E+00 -0.61002691113E+00 -0.39477019603E+00  0.90008608596E+02  0.90000881425E+02 0.  0.
         12    1    1    2    0    0 -0.92897133645E+00  0.61002691113E+00  0.39477019603E+00  0.11793914040E+01  0.00000000000E+00 0. -1.
         11    1    3    3    0    0  0.27446947772E+02 -0.11420919486E+02 -0.27594475778E+02  0.40561403299E+02  0.51100000000E-03 0. -1.
        -11    1    3    3    0    0 -0.61933716137E+01 -0.81753912838E+01 -0.39985448043E+00  0.10264246609E+02  0.51100000000E-03 0.  1.
        -12    1    3    3    0    0 -0.20324604821E+02  0.18986283859E+02  0.27599560062E+02  0.39182958688E+02  0.00000000000E+00 0.  1.
</event>
<event>
 7    1  0.3707147E-015  0.9000813E+02  0.7816164E-02  0.1186338E+00
        -11   -1    0    0    0    0  0.00000000000E+00  0.00000000000E+00  0.45593999997E+02  0.45594000000E+02  0.51100000000E-03 0.  1.
         11   -1    0    0    0    0 -0.00000000000E+00 -0.00000000000E+00 -0.45593999997E+02  0.45594000000E+02  0.51100000000E-03 0. -1.
    9900012    2    1    2    0    0  0.81700214773E+00  0.77853141555E+00  0.34420783744E+00  0.90008134453E+02  0.90000401027E+02 0.  0.
         12    1    1    2    0    0 -0.81700214773E+00 -0.77853141555E+00 -0.34420783744E+00  0.11798655473E+01  0.00000000000E+00 0. -1.
         11    1    3    3    0    0 -0.29486581294E+01  0.84374574595E+01  0.12387205128E+01  0.90232866471E+01  0.51100000000E-03 0. -1.
        -11    1    3    3    0    0 -0.17027425738E+02  0.30384878849E+02  0.10084214398E+02  0.36261073760E+02  0.51100000000E-03 0.  1.
         12    1    3    3    0    0  0.20793086015E+02 -0.38043804893E+02 -0.10978727074E+02  0.44723774046E+02  0.00000000000E+00 0. -1.
</event>
<event>
 7    1  0.3707147E-015  0.9000770E+02  0.7816164E-02  0.1186339E+00
        -11   -1    0    0    0    0  0.00000000000E+00  0.00000000000E+00  0.45593999997E+02  0.45594000000E+02  0.51100000000E-03 0. -1.
         11   -1    0    0    0    0 -0.00000000000E+00 -0.00000000000E+00 -0.45593999997E+02  0.45594000000E+02  0.51100000000E-03 0.  1.
    9900012    2    1    2    0    0 -0.15576380295E-01  0.30692469846E+00 -0.11395923331E+01  0.90007696615E+02  0.89999957411E+02 0.  0.
         12    1    1    2    0    0  0.15576380295E-01 -0.30692469846E+00  0.11395923331E+01  0.11803033846E+01  0.00000000000E+00 0. -1.
         11    1    3    3    0    0 -0.22847394485E+02  0.36070546761E+01  0.33465446409E+02  0.40681081375E+02  0.51100000000E-03 0. -1.
        -11    1    3    3    0    0 -0.58324352056E+01 -0.24921670735E+01 -0.46959489686E+01  0.78917763607E+01  0.51100000000E-03 0.  1.
        -12    1    3    3    0    0  0.28664253311E+02 -0.80796290412E+00 -0.29909089774E+02  0.41434838880E+02  0.00000000000E+00 0.  1.
</event>
<event>
 7    1  0.3707147E-015  0.9000772E+02  0.7816164E-02  0.1186339E+00
        -11   -1    0    0    0    0  0.00000000000E+00  0.00000000000E+00  0.45593999997E+02  0.45594000000E+02  0.51100000000E-03 0. -1.
         11   -1    0    0    0    0 -0.00000000000E+00 -0.00000000000E+00 -0.45593999997E+02  0.45594000000E+02  0.51100000000E-03 0.  1.
    9900012    2    1    2    0    0 -0.75616388655E+00 -0.27340496721E+00 -0.86401484655E+00  0.90007722171E+02  0.89999983303E+02 0.  0.
         12    1    1    2    0    0  0.75616388655E+00  0.27340496721E+00  0.86401484655E+00  0.11802778294E+01  0.00000000000E+00 0. -1.
         11    1    3    3    0    0 -0.20760194621E+02  0.24270668028E+02  0.24901779206E+02  0.40498760662E+02  0.51100000000E-03 0. -1.
        -11    1    3    3    0    0  0.30533628490E+01 -0.58598948149E+01  0.60130560222E+01  0.89341051547E+01  0.51100000000E-03 0.  1.
        -12    1    3    3    0    0  0.16950667886E+02 -0.18684178181E+02 -0.31778850075E+02  0.40574856354E+02  0.00000000000E+00 0.  1.
</event>
<event>
 7    1  0.3707147E-015  0.9000772E+02  0.7816164E-02  0.1186339E+00
        -11   -1    0    0    0    0  0.00000000000E+00  0.00000000000E+00  0.45593999997E+02  0.45594000000E+02  0.51100000000E-03 0.  1.
         11   -1    0    0    0    0 -0.00000000000E+00 -0.00000000000E+00 -0.45593999997E+02  0.45594000000E+02  0.51100000000E-03 0. -1.
    9900012    2    1    2    0    0  0.48851452596E+00  0.10548505121E+00  0.10692483199E+01  0.90007718039E+02  0.89999979117E+02 0.  0.
         12    1    1    2    0    0 -0.48851452596E+00 -0.10548505121E+00 -0.10692483199E+01  0.11802819611E+01  0.00000000000E+00 0. -1.
         11    1    3    3    0    0 -0.38078860560E+02  0.55384573157E+01 -0.10246064316E+02  0.39820295896E+02  0.51100000000E-03 0. -1.
        -11    1    3    3    0    0  0.46359408354E+01 -0.24895014642E+01 -0.90758675113E+01  0.10490993104E+02  0.51100000000E-03 0.  1.
        -12    1    3    3    0    0  0.33931434251E+02 -0.29434708002E+01  0.20391180147E+02  0.39696429039E+02  0.00000000000E+00 0.  1.
</event>
<event>
 7    1  0.3707147E-015  0.9000781E+02  0.7816164E-02  0.1186339E+00
        -11   -1    0    0    0    0  0.00000000000E+00  0.00000000000E+00  0.45593999997E+02  0.45594000000E+02  0.51100000000E-03 0. -1.
         11   -1    0    0    0    0 -0.00000000000E+00 -0.00000000000E+00 -0.45593999997E+02  0.45594000000E+02  0.51100000000E-03 0.  1.
    9900012    2    1    2    0    0 -0.86391864359E+00  0.53578184555E+00  0.59953499509E+00  0.90007805177E+02  0.90000067406E+02 0.  0.
         12    1    1    2    0    0  0.86391864359E+00 -0.53578184555E+00 -0.59953499509E+00  0.11801948225E+01  0.00000000000E+00 0. -1.
         11    1    3    3    0    0  0.14742520350E+02  0.24963455176E+02 -0.19174358408E+02  0.34758768983E+02  0.51100000000E-03 0. -1.
        -11    1    3    3    0    0  0.68986490722E+01 -0.28572252084E+01 -0.97723655815E+01  0.12298545615E+02  0.51100000000E-03 0.  1.
        -12    1    3    3    0    0 -0.22505088066E+02 -0.21570448122E+02  0.29546258985E+02  0.42950490580E+02  0.00000000000E+00 0.  1.
</event>
<event>
 7    1  0.3707147E-015  0.9000788E+02  0.7816164E-02  0.1186339E+00
        -11   -1    0    0    0    0  0.00000000000E+00  0.00000000000E+00  0.45593999997E+02  0.45594000000E+02  0.51100000000E-03 0.  1.
         11   -1    0    0    0    0 -0.00000000000E+00 -0.00000000000E+00 -0.45593999997E+02  0.45594000000E+02  0.51100000000E-03 0. -1.
    9900012    2    1    2    0    0  0.15562751617E+00  0.34215469154E+00  0.11186563385E+01  0.90007880616E+02  0.90000143840E+02 0.  0.
         12    1    1    2    0    0 -0.15562751617E+00 -0.34215469154E+00 -0.11186563385E+01  0.11801193840E+01  0.00000000000E+00 0. -1.
         11    1    3    3    0    0 -0.92981208304E+01 -0.21500030603E+02 -0.27614884247E+02  0.36211713562E+02  0.51100000000E-03 0. -1.
        -11    1    3    3    0    0 -0.12077699186E+01 -0.30733794794E+01 -0.77059785551E+01  0.83837029619E+01  0.51100000000E-03 0.  1.
        -12    1    3    3    0    0  0.10661518265E+02  0.24915564774E+02  0.36439519140E+02  0.45412464092E+02  0.00000000000E+00 0.  1.
</event>
<event>
 7    1  0.3707147E-015  0.9000774E+02  0.7816164E-02  0.1186339E+00
        -11   -1    0    0    0    0  0.00000000000E+00  0.00000000000E+00  0.45593999997E+02  0.45594000000E+02  0.51100000000E-03 0.  1.
         11   -1    0    0    0    0 -0.00000000000E+00 -0.00000000000E+00 -0.45593999997E+02  0.45594000000E+02  0.51100000000E-03 0. -1.
    9900012    2    1    2    0    0  0.46126346465E+00 -0.42381474028E+00  0.10003176979E+01  0.90007737989E+02  0.89999999330E+02 0.  0.
         12    1    1    2    0    0 -0.46126346465E+00  0.42381474028E+00 -0.10003176979E+01  0.11802620110E+01  0.00000000000E+00 0. -1.
         11    1    3    3    0    0 -0.10761667671E+01  0.76841213768E+01 -0.59825690257E+00  0.77821441664E+01  0.51100000000E-03 0. -1.
        -11    1    3    3    0    0 -0.30211181161E+02 -0.24427483904E+01  0.27450666691E+02  0.40892806077E+02  0.51100000000E-03 0.  1.
         12    1    3    3    0    0  0.31748611393E+02 -0.56651877267E+01 -0.25852092090E+02  0.41332787745E+02  0.00000000000E+00 0. -1.
</event>
<event>
 7    1  0.3707147E-015  0.9000750E+02  0.7816164E-02  0.1186340E+00
        -11   -1    0    0    0    0  0.00000000000E+00  0.00000000000E+00  0.45593999997E+02  0.45594000000E+02  0.51100000000E-03 0. -1.
         11   -1    0    0    0    0 -0.00000000000E+00 -0.00000000000E+00 -0.45593999997E+02  0.45594000000E+02  0.51100000000E-03 0.  1.
    9900012    2    1    2    0    0 -0.82907506257E+00  0.24607967207E+00 -0.80353569739E+00  0.90007495751E+02  0.89999753895E+02 0.  0.
         12    1    1    2    0    0  0.82907506257E+00 -0.24607967207E+00  0.80353569739E+00  0.11805042488E+01  0.00000000000E+00 0. -1.
         11    1    3    3    0    0  0.10449468534E+02 -0.37457704385E+02  0.86742356597E+01  0.39843611471E+02  0.51100000000E-03 0. -1.
        -11    1    3    3    0    0 -0.96910181833E+01 -0.16877155283E+01 -0.19196279208E+01  0.10022434273E+02  0.51100000000E-03 0.  1.
        -12    1    3    3    0    0 -0.15875254136E+01  0.39391499586E+02 -0.75581434364E+01  0.40141450008E+02  0.00000000000E+00 0.  1.
</event>
<event>
 7    1  0.3707147E-015  0.9000783E+02  0.7816164E-02  0.1186339E+00
        -11   -1    0    0    0    0  0.00000000000E+00  0.00000000000E+00  0.45593999997E+02  0.45594000000E+02  0.51100000000E-03 0.  1.
         11   -1    0    0    0    0 -0.00000000000E+00 -0.00000000000E+00 -0.45593999997E+02  0.45594000000E+02  0.51100000000E-03 0. -1.
    9900012    2    1    2    0    0 -0.95279236044E-02 -0.49634765621E+00  0.10706812436E+01  0.90007826241E+02  0.90000088747E+02 0.  0.
         12    1    1    2    0    0  0.95279236043E-02  0.49634765621E+00 -0.10706812436E+01  0.11801737595E+01  0.00000000000E+00 0. -1.
         11    1    3    3    0    0 -0.85705113977E+01  0.45794532068E+01 -0.48158476113E+01  0.10845157711E+02  0.51100000000E-03 0. -1.
        -11    1    3    3    0    0 -0.32968194361E+02  0.73665821616E+01  0.10957960973E+02  0.35514015278E+02  0.51100000000E-03 0.  1.
         12    1    3    3    0    0  0.41529177835E+02 -0.12442383025E+02 -0.50714321186E+01  0.43648653252E+02  0.00000000000E+00 0. -1.
</event>
<event>
 7    1  0.3707147E-015  0.9000774E+02  0.7816164E-02  0.1186339E+00
        -11   -1    0    0    0    0  0.00000000000E+00  0.00000000000E+00  0.45593999997E+02  0.45594000000E+02  0.51100000000E-03 0.  1.
         11   -1    0    0    0    0 -0.00000000000E+00 -0.00000000000E+00 -0.45593999997E+02  0.45594000000E+02  0.51100000000E-03 0. -1.
    9900012    2    1    2    0    0 -0.98955762618E+00  0.56773265947E-01  0.64075320963E+00  0.90007740632E+02  0.90000002009E+02 0.  0.
         12    1    1    2    0    0  0.98955762618E+00 -0.56773265947E-01 -0.64075320963E+00  0.11802593676E+01  0.00000000000E+00 0. -1.
         11    1    3    3    0    0 -0.17499671415E+02  0.53081805128E+01 -0.33098768738E+02  0.37814597343E+02  0.51100000000E-03 0. -1.
        -11    1    3    3    0    0 -0.47125415711E+01 -0.10038584170E+02 -0.10731200923E+01  0.11141490349E+02  0.51100000000E-03 0.  1.
        -12    1    3    3    0    0  0.21222655360E+02  0.47871769234E+01  0.34812642039E+02  0.41051652941E+02  0.00000000000E+00 0.  1.
</event>
<event>
 7    1  0.3707147E-015  0.9000773E+02  0.7816164E-02  0.1186339E+00
        -11   -1    0    0    0    0  0.00000000000E+00  0.00000000000E+00  0.45593999997E+02  0.45594000000E+02  0.51100000000E-03 0.  1.
         11   -1    0    0    0    0 -0.00000000000E+00 -0.00000000000E+00 -0.45593999997E+02  0.45594000000E+02  0.51100000000E-03 0. -1.
    9900012    2    1    2    0    0  0.79022933826E+00  0.11960920472E+00 -0.86848719213E+00  0.90007729365E+02  0.89999990593E+02 0.  0.
         12    1    1    2    0    0 -0.79022933826E+00 -0.11960920472E+00  0.86848719213E+00  0.11802706350E+01  0.00000000000E+00 0. -1.
         11    1    3    3    0    0 -0.71392503304E+01 -0.90722117322E+01  0.36341943727E+01  0.12102945509E+02  0.51100000000E-03 0. -1.
        -11    1    3    3    0    0 -0.24351274407E+02  0.25911105698E+02  0.12606229882E+02  0.37726476059E+02  0.51100000000E-03 0.  1.
         12    1    3    3    0    0  0.32280754075E+02 -0.16719284761E+02 -0.17108911447E+02  0.40178307797E+02  0.00000000000E+00 0. -1.
</event>
<event>
 7    1  0.3707147E-015  0.9000811E+02  0.7816164E-02  0.1186338E+00
        -11   -1    0    0    0    0  0.00000000000E+00  0.00000000000E+00  0.45593999997E+02  0.45594000000E+02  0.51100000000E-03 0. -1.
         11   -1    0    0    0    0 -0.00000000000E+00 -0.00000000000E+00 -0.45593999997E+02  0.45594000000E+02  0.51100000000E-03 0.  1.
    9900012    2    1    2    0    0  0.47679969847E+00  0.83318575255E+00  0.68601358240E+00  0.90008105477E+02  0.90000371668E+02 0.  0.
         12    1    1    2    0    0 -0.47679969847E+00 -0.83318575255E+00 -0.68601358240E+00  0.11798945232E+01  0.00000000000E+00 0. -1.
         11    1    3    3    0    0  0.26452049760E+02 -0.42403170180E+01  0.33835639200E+02  0.43157174435E+02  0.51100000000E-03 0. -1.
        -11    1    3    3    0    0 -0.90554922009E+01  0.15324847927E+01  0.31030676086E+00  0.91894906925E+01  0.51100000000E-03 0.  1.
        -12    1    3    3    0    0 -0.16919757861E+02  0.35410179778E+01 -0.33459932378E+02  0.37661440349E+02  0.00000000000E+00 0.  1.
</event>
<event>
 7    1  0.3707147E-015  0.9000777E+02  0.7816164E-02  0.1186339E+00
        -11   -1    0    0    0    0  0.00000000000E+00  0.00000000000E+00  0.45593999997E+02  0.45594000000E+02  0.51100000000E-03 0. -1.
         11   -1    0    0    0    0 -0.00000000000E+00 -0.00000000000E+00 -0.45593999997E+02  0.45594000000E+02  0.51100000000E-03 0.  1.
    9900012    2    1    2    0    0  0.10978719746E+01  0.39377673666E+00  0.18043555217E+00  0.90007771217E+02  0.90000032997E+02 0.  0.
         12    1    1    2    0    0 -0.10978719746E+01 -0.39377673666E+00 -0.18043555217E+00  0.11802287827E+01  0.00000000000E+00 0. -1.
         11    1    3    3    0    0  0.35595981744E+02  0.22029361886E+01  0.14024617491E+02  0.38322535671E+02  0.51100000000E-03 0. -1.
        -11    1    3    3    0    0  0.53578667506E+01 -0.75973121941E+01 -0.71011556547E+00  0.93236341128E+01  0.51100000000E-03 0.  1.
        -12    1    3    3    0    0 -0.39855976520E+02  0.57881527421E+01 -0.13134066373E+02  0.42361601434E+02  0.00000000000E+00 0.  1.
</event>
<event>
 7    1  0.3707147E-015  0.9000770E+02  0.7816164E-02  0.1186339E+00
        -11   -1    0    0    0    0  0.00000000000E+00  0.00000000000E+00  0.45593999997E+02  0.45594000000E+02  0.51100000000E-03 0. -1.
         11   -1    0    0    0    0 -0.00000000000E+00 -0.00000000000E+00 -0.45593999997E+02  0.45594000000E+02  0.51100000000E-03 0.  1.
    9900012    2    1    2    0    0 -0.73323265790E+00 -0.92281813100E+00 -0.62305601450E-01  0.90007701130E+02  0.89999961985E+02 0.  0.
         12    1    1    2    0    0  0.73323265790E+00  0.92281813100E+00  0.62305601450E-01  0.11802988696E+01  0.00000000000E+00 0. -1.
         11    1    3    3    0    0 -0.33445711509E+02  0.13594257626E+02 -0.98481131521E+01  0.37421982733E+02  0.51100000000E-03 0. -1.
        -11    1    3    3    0    0 -0.43298202573E+01  0.72513712288E+01  0.35867168477E+01  0.91757433577E+01  0.51100000000E-03 0.  1.
        -12    1    3    3    0    0  0.37042299108E+02 -0.21768446986E+02  0.61990907029E+01  0.43409975040E+02  0.00000000000E+00 0.  1.
</event>
<event>
 7    1  0.3707147E-015  0.9000763E+02  0.7816164E-02  0.1186339E+00
        -11   -1    0    0    0    0  0.00000000000E+00  0.00000000000E+00  0.45593999997E+02  0.45594000000E+02  0.51100000000E-03 0.  1.
         11   -1    0    0    0    0 -0.00000000000E+00 -0.00000000000E+00 -0.45593999997E+02  0.45594000000E+02  0.51100000000E-03 0. -1.
    9900012    2    1    2    0    0 -0.10918757038E+01 -0.39046033157E+00 -0.22052519922E+00  0.90007625828E+02  0.89999885689E+02 0.  0.
         12    1    1    2    0    0  0.10918757038E+01  0.39046033157E+00  0.22052519922E+00  0.11803741722E+01  0.00000000000E+00 0. -1.
         11    1    3    3    0    0  0.27259628305E+01 -0.89920406389E+01 -0.77123455292E+00  0.94277500604E+01  0.51100000000E-03 0. -1.
        -11    1    3    3    0    0  0.46418832695E+01 -0.24195308010E+02  0.27773256549E+02  0.37125648676E+02  0.51100000000E-03 0.  1.
         12    1    3    3    0    0 -0.84597218038E+01  0.32796888318E+02 -0.27222547195E+02  0.43454227091E+02  0.00000000000E+00 0. -1.
</event>
<event>
 7    1  0.3707147E-015  0.9000798E+02  0.7816164E-02  0.1186339E+00
        -11   -1    0    0    0    0  0.00000000000E+00  0.00000000000E+00  0.45593999997E+02  0.45594000000E+02  0.51100000000E-03 0.  1.
         11   -1    0    0    0    0 -0.00000000000E+00 -0.00000000000E+00 -0.45593999997E+02  0.45594000000E+02  0.51100000000E-03 0. -1.
    9900012    2    1    2    0    0 -0.60751853573E+00  0.69665575195E+00  0.73351410326E+00  0.90007978412E+02  0.90000242927E+02 0.  0.
         12    1    1    2    0    0  0.60751853573E+00 -0.69665575195E+00 -0.73351410326E+00  0.11800215878E+01  0.00000000000E+00 0. -1.
         11    1    3    3    0    0  0.14627989503E+02 -0.93193639745E+01 -0.31688842894E+02  0.36124941329E+02  0.51100000000E-03 0. -1.
        -11    1    3    3    0    0 -0.34124124121E+01  0.57335549708E+01 -0.86525835031E+01  0.10926363192E+02  0.51100000000E-03 0.  1.
        -12    1    3    3    0    0 -0.11823095627E+02  0.42824647557E+01  0.41074940501E+02  0.42956673890E+02  0.00000000000E+00 0.  1.
</event>
<event>
 7    1  0.3707147E-015  0.9000773E+02  0.7816164E-02  0.1186339E+00
        -11   -1    0    0    0    0  0.00000000000E+00  0.00000000000E+00  0.45593999997E+02  0.45594000000E+02  0.51100000000E-03 0.  1.
         11   -1    0    0    0    0 -0.00000000000E+00 -0.00000000000E+00 -0.45593999997E+02  0.45594000000E+02  0.51100000000E-03 0. -1.
    9900012    2    1    2    0    0 -0.18193969371E+00  0.11470457712E+01  0.21029759255E+00  0.90007728366E+02  0.89999989580E+02 0.  0.
         12    1    1    2    0    0  0.18193969371E+00 -0.11470457712E+01 -0.21029759255E+00  0.11802716343E+01  0.00000000000E+00 0. -1.
         11    1    3    3    0    0 -0.18322060285E+02 -0.44986474827E+01 -0.92060252906E+01  0.20992537345E+02  0.51100000000E-03 0. -1.
        -11    1    3    3    0    0  0.12357944557E+02  0.17421789232E+02 -0.24586742764E+02  0.32569087394E+02  0.51100000000E-03 0.  1.
        -12    1    3    3    0    0  0.57821760340E+01 -0.11776095978E+02  0.34003065647E+02  0.36446103626E+02  0.00000000000E+00 0.  1.
</event>
<event>
 7    1  0.3707147E-015  0.9000805E+02  0.7816164E-02  0.1186338E+00
        -11   -1    0    0    0    0  0.00000000000E+00  0.00000000000E+00  0.45593999997E+02  0.45594000000E+02  0.51100000000E-03 0. -1.
         11   -1    0    0    0    0 -0.00000000000E+00 -0.00000000000E+00 -0.45593999997E+02  0.45594000000E+02  0.51100000000E-03 0.  1.
    9900012    2    1    2    0    0  0.10475585212E+00 -0.10149632736E+01  0.59258496925E+00  0.90008050348E+02  0.90000315812E+02 0.  0.
         12    1    1    2    0    0 -0.10475585212E+00  0.10149632736E+01 -0.59258496925E+00  0.11799496519E+01  0.00000000000E+00 0. -1.
         11    1    3    3    0    0 -0.62646060743E+01  0.63806005725E+01 -0.25795834596E+01  0.93065355540E+01  0.51100000000E-03 0. -1.
        -11    1    3    3    0    0 -0.13905946870E+02 -0.35834393676E+02 -0.15083831698E+02  0.41291659054E+02  0.51100000000E-03 0.  1.
         12    1    3    3    0    0  0.20275308796E+02  0.28438829829E+02  0.18256000127E+02  0.39409855741E+02  0.00000000000E+00 0. -1.
</event>
<event>
 7    1  0.3707147E-015  0.9000774E+02  0.7816164E-02  0.1186339E+00
        -11   -1    0    0    0    0  0.00000000000E+00  0.00000000000E+00  0.45593999997E+02  0.45594000000E+02  0.51100000000E-03 0.  1.
         11   -1    0    0    0    0 -0.00000000000E+00 -0.00000000000E+00 -0.45593999997E+02  0.45594000000E+02  0.51100000000E-03 0. -1.
    9900012    2    1    2    0    0  0.71798586825E+00  0.13569131558E+00  0.92688026518E+00  0.90007736103E+02  0.89999997420E+02 0.  0.
         12    1    1    2    0    0 -0.71798586825E+00 -0.13569131558E+00 -0.92688026518E+00  0.11802638968E+01  0.00000000000E+00 0. -1.
         11    1    3    3    0    0  0.30544300294E+02 -0.17552628701E+02 -0.45220876341E+01  0.35517577783E+02  0.51100000000E-03 0. -1.
        -11    1    3    3    0    0  0.10436915008E+02  0.12313816726E+01  0.29793261116E+01  0.10923455500E+02  0.51100000000E-03 0.  1.
        -12    1    3    3    0    0 -0.40263229434E+02  0.16456938344E+02  0.24696417877E+01  0.43566702820E+02  0.00000000000E+00 0.  1.
</event>
<event>
 7    1  0.3707147E-015  0.9000769E+02  0.7816164E-02  0.1186339E+00
        -11   -1    0    0    0    0  0.00000000000E+00  0.00000000000E+00  0.45593999997E+02  0.45594000000E+02  0.51100000000E-03 0. -1.
         11   -1    0    0    0    0 -0.00000000000E+00 -0.00000000000E+00 -0.45593999997E+02  0.45594000000E+02  0.51100000000E-03 0.  1.
    9900012    2    1    2    0    0  0.60654530039E+00 -0.10110548187E+01  0.54746326772E-01  0.90007692325E+02  0.89999953063E+02 0.  0.
         12    1    1    2    0    0 -0.60654530039E+00  0.10110548187E+01 -0.54746326772E-01  0.11803076752E+01  0.00000000000E+00 0. -1.
         11    1    3    3    0    0 -0.20777002258E+02 -0.24829731695E+02  0.22278743081E+01  0.32452470215E+02  0.51100000000E-03 0. -1.
        -11    1    3    3    0    0  0.62507292185E+01 -0.84362952607E+01  0.14755212227E+02  0.18109637810E+02  0.51100000000E-03 0.  1.
        -12    1    3    3    0    0  0.15132818340E+02  0.32254972137E+02 -0.16928340209E+02  0.39445584299E+02  0.00000000000E+00 0.  1.
</event>
<event>
 7    1  0.3707147E-015  0.9000772E+02  0.7816164E-02  0.1186339E+00
        -11   -1    0    0    0    0  0.00000000000E+00  0.00000000000E+00  0.45593999997E+02  0.45594000000E+02  0.51100000000E-03 0. -1.
         11   -1    0    0    0    0 -0.00000000000E+00 -0.00000000000E+00 -0.45593999997E+02  0.45594000000E+02  0.51100000000E-03 0.  1.
    9900012    2    1    2    0    0 -0.56567147443E+00  0.10007255494E+01  0.26763146580E+00  0.90007719337E+02  0.89999980432E+02 0.  0.
         12    1    1    2    0    0  0.56567147443E+00 -0.10007255494E+01 -0.26763146580E+00  0.11802806631E+01  0.00000000000E+00 0. -1.
         11    1    3    3    0    0  0.28207075464E+02  0.86227655976E+01  0.26709832763E+02  0.39792038893E+02  0.51100000000E-03 0. -1.
        -11    1    3    3    0    0 -0.45132225552E+01 -0.15502727628E+01  0.69909774563E+01  0.84644131236E+01  0.51100000000E-03 0.  1.
        -12    1    3    3    0    0 -0.24259524383E+02 -0.60717672854E+01 -0.33433178754E+02  0.41751267320E+02  0.00000000000E+00 0.  1.
</event>
<event>
 7    1  0.3707147E-015  0.9000771E+02  0.7816164E-02  0.1186339E+00
        -11   -1    0    0    0    0  0.00000000000E+00  0.00000000000E+00  0.45593999997E+02  0.45594000000E+02  0.51100000000E-03 0.  1.
         11   -1    0    0    0    0 -0.00000000000E+00 -0.00000000000E+00 -0.45593999997E+02  0.45594000000E+02  0.51100000000E-03 0. -1.
    9900012    2    1    2    0    0 -0.21008950814E+00 -0.11221154687E+01 -0.29968817479E+00  0.90007706084E+02  0.89999967004E+02 0.  0.
         12    1    1    2    0    0  0.21008950814E+00  0.11221154687E+01  0.29968817479E+00  0.11802939162E+01  0.00000000000E+00 0. -1.
         11    1    3    3    0    0 -0.56295892167E+01 -0.27145773688E+01 -0.92623592003E+01  0.11173741686E+02  0.51100000000E-03 0. -1.
        -11    1    3    3    0    0  0.36245605922E+02 -0.14250386036E+02 -0.87411190014E+01  0.39915217806E+02  0.51100000000E-03 0.  1.
         12    1    3    3    0    0 -0.30826106213E+02  0.15842847936E+02  0.17703790027E+02  0.38918746592E+02  0.00000000000E+00 0. -1.
</event>
<event>
 7    1  0.3707147E-015  0.9000776E+02  0.7816164E-02  0.1186339E+00
        -11   -1    0    0    0    0  0.00000000000E+00  0.00000000000E+00  0.45593999997E+02  0.45594000000E+02  0.51100000000E-03 0. -1.
         11   -1    0    0    0    0 -0.00000000000E+00 -0.00000000000E+00 -0.45593999997E+02  0.45594000000E+02  0.51100000000E-03 0.  1.
    9900012    2    1    2    0    0  0.94063243467E+00  0.23279196982E+00  0.67377998348E+00  0.90007762336E+02  0.90000023998E+02 0.  0.
         12    1    1    2    0    0 -0.94063243467E+00 -0.23279196982E+00 -0.67377998348E+00  0.11802376644E+01  0.00000000000E+00 0. -1.
         11    1    3    3    0    0 -0.37565720192E+01 -0.67749411434E+01  0.56759071998E+01  0.96035193359E+01  0.51100000000E-03 0. -1.
        -11    1    3    3    0    0 -0.35068514219E+02 -0.46945419485E+01  0.92503500481E+01  0.36570594607E+02  0.51100000000E-03 0.  1.
         12    1    3    3    0    0  0.39765718673E+02  0.11702275062E+02 -0.14252477264E+02  0.43833648392E+02  0.00000000000E+00 0. -1.
</event>
<event>
 7    1  0.3707147E-015  0.9000775E+02  0.7816164E-02  0.1186339E+00
        -11   -1    0    0    0    0  0.00000000000E+00  0.00000000000E+00  0.45593999997E+02  0.45594000000E+02  0.51100000000E-03 0.  1.
         11   -1    0    0    0    0 -0.00000000000E+00 -0.00000000000E+00 -0.45593999997E+02  0.45594000000E+02  0.51100000000E-03 0. -1.
    9900012    2    1    2    0    0 -0.61831438177E-01  0.73191733145E+00  0.92382528252E+00  0.90007754577E+02  0.90000016137E+02 0.  0.
         12    1    1    2    0    0  0.61831438177E-01 -0.73191733145E+00 -0.92382528252E+00  0.11802454234E+01  0.00000000000E+00 0. -1.
         11    1    3    3    0    0 -0.11510083244E+02 -0.23224576533E+02  0.15694846943E+02  0.30301669793E+02  0.51100000000E-03 0. -1.
        -11    1    3    3    0    0  0.10113838060E+01 -0.15490134097E+02 -0.10363722438E+02  0.18664776842E+02  0.51100000000E-03 0.  1.
        -12    1    3    3    0    0  0.10436867999E+02  0.39446627961E+02 -0.44072992223E+01  0.41041307942E+02  0.00000000000E+00 0.  1.
</event>
<event>
 7    1  0.3707147E-015  0.9000780E+02  0.7816164E-02  0.1186339E+00
        -11   -1    0    0    0    0  0.00000000000E+00  0.00000000000E+00  0.45593999997E+02  0.45594000000E+02  0.51100000000E-03 0.  1.
         11   -1    0    0    0    0 -0.00000000000E+00 -0.00000000000E+00 -0.45593999997E+02  0.45594000000E+02  0.51100000000E-03 0. -1.
    9900012    2    1    2    0    0  0.87318329760E+00  0.68081930717E+00  0.40855093877E+00  0.90007797530E+02  0.90000059658E+02 0.  0.
         12    1    1    2    0    0 -0.87318329760E+00 -0.68081930717E+00 -0.40855093877E+00  0.11802024698E+01  0.00000000000E+00 0. -1.
         11    1    3    3    0    0  0.83370582744E+01  0.20487038293E+01 -0.35696967605E+02  0.36714809335E+02  0.51100000000E-03 0. -1.
        -11    1    3    3    0    0 -0.41771751006E+01 -0.48416602776E+00 -0.80098145428E+01  0.90465649743E+01  0.51100000000E-03 0.  1.
        -12    1    3    3    0    0 -0.32866998762E+01 -0.88371849438E+00  0.44115333087E+02  0.44246423221E+02  0.00000000000E+00 0.  1.
</event>
<event>
 7    1  0.3707147E-015  0.9000777E+02  0.7816164E-02  0.1186339E+00
        -11   -1    0    0    0    0  0.00000000000E+00  0.00000000000E+00  0.45593999997E+02  0.45594000000E+02  0.51100000000E-03 0.  1.
         11   -1    0    0    0    0 -0.00000000000E+00 -0.00000000000E+00 -0.45593999997E+02  0.45594000000E+02  0.51100000000E-03 0. -1.
    9900012    2    1    2    0    0 -0.55301000422E+00 -0.98056814566E+00  0.35442724051E+00  0.90007765861E+02  0.90000027571E+02 0.  0.
         12    1    1    2    0    0  0.55301000422E+00  0.98056814566E+00 -0.35442724051E+00  0.11802341386E+01  0.00000000000E+00 0. -1.
         11    1    3    3    0    0 -0.66886907766E+01 -0.32031559826E+00  0.24775034083E+01  0.71399726741E+01  0.51100000000E-03 0. -1.
        -11    1    3    3    0    0  0.28150970834E+02 -0.20515236764E+02  0.24848923734E+02  0.42788095416E+02  0.51100000000E-03 0.  1.
         12    1    3    3    0    0 -0.22015290062E+02  0.19854984216E+02 -0.26971999902E+02  0.40079697771E+02  0.00000000000E+00 0. -1.
</event>
<event>
 7    1  0.3707147E-015  0.9000779E+02  0.7816164E-02  0.1186339E+00
        -11   -1    0    0    0    0  0.00000000000E+00  0.00000000000E+00  0.45593999997E+02  0.45594000000E+02  0.51100000000E-03 0.  1.
         11   -1    0    0    0    0 -0.00000000000E+00 -0.00000000000E+00 -0.45593999997E+02  0.45594000000E+02  0.51100000000E-03 0. -1.
    9900012    2    1    2    0    0  0.75937771952E+00 -0.89172767574E+00  0.14515540730E+00  0.90007786943E+02  0.90000048930E+02 0.  0.
         12    1    1    2    0    0 -0.75937771952E+00  0.89172767574E+00 -0.14515540730E+00  0.11802130574E+01  0.00000000000E+00 0. -1.
         11    1    3    3    0    0  0.10218848682E+02 -0.30775580130E+02 -0.15857027964E+02  0.36097181840E+02  0.51100000000E-03 0. -1.
        -11    1    3    3    0    0 -0.60529993304E+00  0.65709590876E+01 -0.13652834023E+02  0.15163896876E+02  0.51100000000E-03 0.  1.
        -12    1    3    3    0    0 -0.88541710299E+01  0.23312893366E+02  0.29655017394E+02  0.38746708226E+02  0.00000000000E+00 0.  1.
</event>
<event>
 7    1  0.3707147E-015  0.9000774E+02  0.7816164E-02  0.1186339E+00
        -11   -1    0    0    0    0  0.00000000000E+00  0.00000000000E+00  0.45593999997E+02  0.45594000000E+02  0.51100000000E-03 0. -1.
         11   -1    0    0    0    0 -0.00000000000E+00 -0.00000000000E+00 -0.45593999997E+02  0.45594000000E+02  0.51100000000E-03 0.  1.
    9900012    2    1    2    0    0 -0.60574651775E+00  0.29888213464E+00 -0.96786509012E+00  0.90007736382E+02  0.89999997703E+02 0.  0.
         12    1    1    2    0    0  0.60574651775E+00 -0.29888213464E+00  0.96786509012E+00  0.11802636175E+01  0.00000000000E+00 0. -1.
         11    1    3    3    0    0 -0.96006403248E+01 -0.55102509159E+01  0.13790748809E+01  0.11155133688E+02  0.51100000000E-03 0. -1.
        -11    1    3    3    0    0 -0.16902113639E+02 -0.16606509831E+02 -0.27542770789E+02  0.36332655246E+02  0.51100000000E-03 0.  1.
         12    1    3    3    0    0  0.25897007446E+02  0.22415642881E+02  0.25195830818E+02  0.42519947449E+02  0.00000000000E+00 0. -1.
</event>
<event>
 7    1  0.3707147E-015  0.9000782E+02  0.7816164E-02  0.1186339E+00
        -11   -1    0    0    0    0  0.00000000000E+00  0.00000000000E+00  0.45593999997E+02  0.45594000000E+02  0.51100000000E-03 0.  1.
         11   -1    0    0    0    0 -0.00000000000E+00 -0.00000000000E+00 -0.45593999997E+02  0.45594000000E+02  0.51100000000E-03 0. -1.
    9900012    2    1    2    0    0  0.79103143069E+00  0.74156785467E+00  0.46602006685E+00  0.90007818527E+02  0.90000080931E+02 0.  0.
         12    1    1    2    0    0 -0.79103143069E+00 -0.74156785467E+00 -0.46602006685E+00  0.11801814734E+01  0.00000000000E+00 0. -1.
         11    1    3    3    0    0 -0.71145678488E+01  0.28128049963E+01 -0.68795225721E+01  0.10288672349E+02  0.51100000000E-03 0. -1.
        -11    1    3    3    0    0 -0.10663691624E+02  0.17981393620E+02 -0.28060554335E+02  0.34991992590E+02  0.51100000000E-03 0.  1.
         12    1    3    3    0    0  0.18569290903E+02 -0.20052630762E+02  0.35406096974E+02  0.44727153588E+02  0.00000000000E+00 0. -1.
</event>
<event>
 7    1  0.3707147E-015  0.9000764E+02  0.7816164E-02  0.1186339E+00
        -11   -1    0    0    0    0  0.00000000000E+00  0.00000000000E+00  0.45593999997E+02  0.45594000000E+02  0.51100000000E-03 0. -1.
         11   -1    0    0    0    0 -0.00000000000E+00 -0.00000000000E+00 -0.45593999997E+02  0.45594000000E+02  0.51100000000E-03 0.  1.
    9900012    2    1    2    0    0  0.99438832292E+00 -0.65700436189E-01  0.63255808158E+00  0.90007638017E+02  0.89999898039E+02 0.  0.
         12    1    1    2    0    0 -0.99438832292E+00  0.65700436189E-01 -0.63255808158E+00  0.11803619829E+01  0.00000000000E+00 0. -1.
         11    1    3    3    0    0 -0.75509810913E+01 -0.60588407871E+01  0.84247181780E+01  0.12833656679E+02  0.51100000000E-03 0. -1.
        -11    1    3    3    0    0 -0.28036793425E+02  0.22055225157E+02 -0.10338167832E+02  0.37139903832E+02  0.51100000000E-03 0.  1.
         12    1    3    3    0    0  0.36582162840E+02 -0.16062084806E+02  0.25460077360E+01  0.40034077505E+02  0.00000000000E+00 0. -1.
</event>
<event>
 7    1  0.3707147E-015  0.9000782E+02  0.7816164E-02  0.1186339E+00
        -11   -1    0    0    0    0  0.00000000000E+00  0.00000000000E+00  0.45593999997E+02  0.45594000000E+02  0.51100000000E-03 0. -1.
         11   -1    0    0    0    0 -0.00000000000E+00 -0.00000000000E+00 -0.45593999997E+02  0.45594000000E+02  0.51100000000E-03 0.  1.
    9900012    2    1    2    0    0 -0.38150821928E+00  0.11083742329E+01 -0.13700980324E+00  0.90007824739E+02  0.90000087225E+02 0.  0.
         12    1    1    2    0    0  0.38150821928E+00 -0.11083742329E+01  0.13700980324E+00  0.11801752614E+01  0.00000000000E+00 0. -1.
         11    1    3    3    0    0  0.35159729331E+02  0.10106334739E+02  0.55042188705E+01  0.36995148251E+02  0.51100000000E-03 0. -1.
        -11    1    3    3    0    0  0.46800462772E+01  0.15183109301E+01  0.78850649733E+01  0.92942106244E+01  0.51100000000E-03 0.  1.
        -12    1    3    3    0    0 -0.40221283827E+02 -0.10516271437E+02 -0.13526293647E+02  0.43718465863E+02  0.00000000000E+00 0.  1.
</event>
<event>
 7    1  0.3707147E-015  0.9000782E+02  0.7816164E-02  0.1186339E+00
        -11   -1    0    0    0    0  0.00000000000E+00  0.00000000000E+00  0.45593999997E+02  0.45594000000E+02  0.51100000000E-03 0.  1.
         11   -1    0    0    0    0 -0.00000000000E+00 -0.00000000000E+00 -0.45593999997E+02  0.45594000000E+02  0.51100000000E-03 0. -1.
    9900012    2    1    2    0    0 -0.10193858553E+01  0.41308415610E+00  0.42781875721E+00  0.90007824195E+02  0.90000086674E+02 0.  0.
         12    1    1    2    0    0  0.10193858553E+01 -0.41308415610E+00 -0.42781875721E+00  0.11801758052E+01  0.00000000000E+00 0. -1.
         11    1    3    3    0    0  0.19234936164E+01  0.62159175646E+01  0.60919890216E+01  0.89134611326E+01  0.51100000000E-03 0. -1.
        -11    1    3    3    0    0  0.12447545382E+02  0.11387299612E+02  0.32431054551E+02  0.36556603754E+02  0.51100000000E-03 0.  1.
         12    1    3    3    0    0 -0.15390424853E+02 -0.17190133020E+02 -0.38095224816E+02  0.44537759308E+02  0.00000000000E+00 0. -1.
</event>
<event>
 7    1  0.3707147E-015  0.9000781E+02  0.7816164E-02  0.1186339E+00
        -11   -1    0    0    0    0  0.00000000000E+00  0.00000000000E+00  0.45593999997E+02  0.45594000000E+02  0.51100000000E-03 0.  1.
         11   -1    0    0    0    0 -0.00000000000E+00 -0.00000000000E+00 -0.45593999997E+02  0.45594000000E+02  0.51100000000E-03 0. -1.
    9900012    2    1    2    0    0 -0.11527507409E+01  0.11576991913E+00  0.22497479509E+00  0.90007809082E+02  0.90000071362E+02 0.  0.
         12    1    1    2    0    0  0.11527507409E+01 -0.11576991913E+00 -0.22497479509E+00  0.11801909181E+01  0.00000000000E+00 0. -1.
         11    1    3    3    0    0 -0.47904986633E+01  0.49467525434E+01 -0.82783206209E+01  0.10768000313E+02  0.51100000000E-03 0. -1.
        -11    1    3    3    0    0 -0.37334483981E+02 -0.43125394314E+01  0.70518602413E+01  0.38238598609E+02  0.51100000000E-03 0.  1.
         12    1    3    3    0    0  0.40972231904E+02 -0.51844319288E+00  0.14514351748E+01  0.41001210160E+02  0.00000000000E+00 0. -1.
</event>
<event>
 7    1  0.3707147E-015  0.9000766E+02  0.7816164E-02  0.1186339E+00
        -11   -1    0    0    0    0  0.00000000000E+00  0.00000000000E+00  0.45593999997E+02  0.45594000000E+02  0.51100000000E-03 0.  1.
         11   -1    0    0    0    0 -0.00000000000E+00 -0.00000000000E+00 -0.45593999997E+02  0.45594000000E+02  0.51100000000E-03 0. -1.
    9900012    2    1    2    0    0 -0.21244679716E+00 -0.92649795225E+00  0.69976217514E+00  0.90007661405E+02  0.89999921735E+02 0.  0.
         12    1    1    2    0    0  0.21244679716E+00  0.92649795225E+00 -0.69976217514E+00  0.11803385950E+01  0.00000000000E+00 0. -1.
         11    1    3    3    0    0  0.87472738128E+01  0.61061162870E+01  0.23668828953E+01  0.10927103466E+02  0.51100000000E-03 0. -1.
        -11    1    3    3    0    0  0.30005705749E+02  0.11391497250E+02  0.11370975872E+02  0.34050076059E+02  0.51100000000E-03 0.  1.
         12    1    3    3    0    0 -0.38965426359E+02 -0.18424111489E+02 -0.13038096592E+02  0.45030481879E+02  0.00000000000E+00 0. -1.
</event>
<event>
 7    1  0.3707147E-015  0.9000772E+02  0.7816164E-02  0.1186339E+00
        -11   -1    0    0    0    0  0.00000000000E+00  0.00000000000E+00  0.45593999997E+02  0.45594000000E+02  0.51100000000E-03 0.  1.
         11   -1    0    0    0    0 -0.00000000000E+00 -0.00000000000E+00 -0.45593999997E+02  0.45594000000E+02  0.51100000000E-03 0. -1.
    9900012    2    1    2    0    0 -0.96674621762E+00 -0.28890379705E+00  0.61236836291E+00  0.90007720938E+02  0.89999982054E+02 0.  0.
         12    1    1    2    0    0  0.96674621762E+00  0.28890379705E+00 -0.61236836291E+00  0.11802790624E+01  0.00000000000E+00 0. -1.
         11    1    3    3    0    0  0.94022313393E+01  0.33224654131E+02 -0.24832118123E+01  0.34618577923E+02  0.51100000000E-03 0. -1.
        -11    1    3    3    0    0  0.59175599984E+01  0.81449182077E+01  0.34990681638E+01  0.10658362314E+02  0.51100000000E-03 0.  1.
        -12    1    3    3    0    0 -0.16286537555E+02 -0.41658476136E+02 -0.40348798853E+00  0.44730780700E+02  0.00000000000E+00 0.  1.
</event>
<event>
 7    1  0.3707147E-015  0.9000769E+02  0.7816164E-02  0.1186339E+00
        -11   -1    0    0    0    0  0.00000000000E+00  0.00000000000E+00  0.45593999997E+02  0.45594000000E+02  0.51100000000E-03 0. -1.
         11   -1    0    0    0    0 -0.00000000000E+00 -0.00000000000E+00 -0.45593999997E+02  0.45594000000E+02  0.51100000000E-03 0.  1.
    9900012    2    1    2    0    0  0.77493230030E-01  0.83782275906E+00  0.82775068606E+00  0.90007693525E+02  0.89999954280E+02 0.  0.
         12    1    1    2    0    0 -0.77493230030E-01 -0.83782275906E+00 -0.82775068606E+00  0.11803064749E+01  0.00000000000E+00 0. -1.
         11    1    3    3    0    0 -0.60441011329E+01  0.53787984317E+01 -0.53806160440E+01  0.97166692003E+01  0.51100000000E-03 0. -1.
        -11    1    3    3    0    0  0.13332143301E+01 -0.90643918030E+01 -0.36216718195E+02  0.37357614168E+02  0.51100000000E-03 0.  1.
         12    1    3    3    0    0  0.47883800328E+01  0.45234161303E+01  0.42425084925E+02  0.42933410157E+02  0.00000000000E+00 0. -1.
</event>
<event>
 7    1  0.3707147E-015  0.9000774E+02  0.7816164E-02  0.1186339E+00
        -11   -1    0    0    0    0  0.00000000000E+00  0.00000000000E+00  0.45593999997E+02  0.45594000000E+02  0.51100000000E-03 0.  1.
         11   -1    0    0    0    0 -0.00000000000E+00 -0.00000000000E+00 -0.45593999997E+02  0.45594000000E+02  0.51100000000E-03 0. -1.
    9900012    2    1    2    0    0  0.77817880885E+00  0.90382388808E-01  0.88277030051E+00  0.90007739589E+02  0.90000000951E+02 0.  0.
         12    1    1    2    0    0 -0.77817880885E+00 -0.90382388808E-01 -0.88277030051E+00  0.11802604112E+01  0.00000000000E+00 0. -1.
         11    1    3    3    0    0 -0.16271461826E+02 -0.15483786590E+02  0.29990510243E+01  0.22660591881E+02  0.51100000000E-03 0. -1.
        -11    1    3    3    0    0  0.60938848623E+01  0.31738332722E+02  0.19872760164E+02  0.37939211819E+02  0.51100000000E-03 0.  1.
         12    1    3    3    0    0  0.10955755772E+02 -0.16164163743E+02 -0.21989040888E+02  0.29407935888E+02  0.00000000000E+00 0. -1.
</event>
<event>
 7    1  0.3707147E-015  0.9000795E+02  0.7816164E-02  0.1186339E+00
        -11   -1    0    0    0    0  0.00000000000E+00  0.00000000000E+00  0.45593999997E+02  0.45594000000E+02  0.51100000000E-03 0.  1.
         11   -1    0    0    0    0 -0.00000000000E+00 -0.00000000000E+00 -0.45593999997E+02  0.45594000000E+02  0.51100000000E-03 0. -1.
    9900012    2    1    2    0    0 -0.21919410431E+00 -0.86250510833E+00  0.77494996879E+00  0.90007953996E+02  0.90000218189E+02 0.  0.
         12    1    1    2    0    0  0.21919410431E+00  0.86250510833E+00 -0.77494996879E+00  0.11800460039E+01  0.00000000000E+00 0. -1.
         11    1    3    3    0    0  0.62573681894E+01 -0.18169918651E+02 -0.32928064940E+01  0.19497260713E+02  0.51100000000E-03 0. -1.
        -11    1    3    3    0    0  0.17802157497E+02 -0.18809255716E+02 -0.41342989005E+01  0.26225890639E+02  0.51100000000E-03 0.  1.
         12    1    3    3    0    0 -0.24278719791E+02  0.36116669259E+02  0.82020553633E+01  0.44284802644E+02  0.00000000000E+00 0. -1.
</event>
<event>
 7    1  0.3707147E-015  0.9000774E+02  0.7816164E-02  0.1186339E+00
        -11   -1    0    0    0    0  0.00000000000E+00  0.00000000000E+00  0.45593999997E+02  0.45594000000E+02  0.51100000000E-03 0.  1.
         11   -1    0    0    0    0 -0.00000000000E+00 -0.00000000000E+00 -0.45593999997E+02  0.45594000000E+02  0.51100000000E-03 0. -1.
    9900012    2    1    2    0    0 -0.81516647499E+00  0.27976823872E+00  0.80638117003E+00  0.90007738486E+02  0.89999999834E+02 0.  0.
         12    1    1    2    0    0  0.81516647499E+00 -0.27976823872E+00 -0.80638117003E+00  0.11802615137E+01  0.00000000000E+00 0. -1.
         11    1    3    3    0    0 -0.80844629470E+01  0.40532726633E+01  0.10444149256E+02  0.13815491825E+02  0.51100000000E-03 0. -1.
        -11    1    3    3    0    0  0.16149545433E+02  0.33315335189E+02 -0.87578528755E+01  0.38044965025E+02  0.51100000000E-03 0.  1.
         12    1    3    3    0    0 -0.88802489612E+01 -0.37088839614E+02 -0.87991521027E+00  0.38147281637E+02  0.00000000000E+00 0. -1.
</event>
<event>
 7    1  0.3707147E-015  0.9000779E+02  0.7816164E-02  0.1186339E+00
        -11   -1    0    0    0    0  0.00000000000E+00  0.00000000000E+00  0.45593999997E+02  0.45594000000E+02  0.51100000000E-03 0.  1.
         11   -1    0    0    0    0 -0.00000000000E+00 -0.00000000000E+00 -0.45593999997E+02  0.45594000000E+02  0.51100000000E-03 0. -1.
    9900012    2    1    2    0    0 -0.13452595642E+00  0.84538723874E-01  0.11694674222E+01  0.90007788968E+02  0.90000050982E+02 0.  0.
         12    1    1    2    0    0  0.13452595642E+00 -0.84538723874E-01 -0.11694674222E+01  0.11802110321E+01  0.00000000000E+00 0. -1.
         11    1    3    3    0    0 -0.26133954628E+01 -0.24610083206E+01 -0.93998361834E+01  0.10061973879E+02  0.51100000000E-03 0. -1.
        -11    1    3    3    0    0 -0.14016321271E+01 -0.16370548810E+02 -0.30454820110E+02  0.34604270100E+02  0.51100000000E-03 0.  1.
         12    1    3    3    0    0  0.38805016334E+01  0.18916095855E+02  0.41024123716E+02  0.45341544989E+02  0.00000000000E+00 0. -1.
</event>
<event>
 7    1  0.3707147E-015  0.9000776E+02  0.7816164E-02  0.1186339E+00
        -11   -1    0    0    0    0  0.00000000000E+00  0.00000000000E+00  0.45593999997E+02  0.45594000000E+02  0.51100000000E-03 0.  1.
         11   -1    0    0    0    0 -0.00000000000E+00 -0.00000000000E+00 -0.45593999997E+02  0.45594000000E+02  0.51100000000E-03 0. -1.
    9900012    2    1    2    0    0 -0.74517140823E+00  0.67661547322E+00 -0.61634691446E+00  0.90007757463E+02  0.90000019062E+02 0.  0.
         12    1    1    2    0    0  0.74517140823E+00 -0.67661547322E+00  0.61634691446E+00  0.11802425366E+01  0.00000000000E+00 0. -1.
         11    1    3    3    0    0  0.50506912398E+01  0.65415144466E+01 -0.15167428210E+01  0.84024640612E+01  0.51100000000E-03 0. -1.
        -11    1    3    3    0    0  0.86968300379E+01  0.34740633177E+02  0.10728161796E+02  0.37385022429E+02  0.51100000000E-03 0.  1.
         12    1    3    3    0    0 -0.14492692686E+02 -0.40605532151E+02 -0.98277658898E+01  0.44220270973E+02  0.00000000000E+00 0. -1.
</event>
<event>
 7    1  0.3707147E-015  0.9000774E+02  0.7816164E-02  0.1186339E+00
        -11   -1    0    0    0    0  0.00000000000E+00  0.00000000000E+00  0.45593999997E+02  0.45594000000E+02  0.51100000000E-03 0.  1.
         11   -1    0    0    0    0 -0.00000000000E+00 -0.00000000000E+00 -0.45593999997E+02  0.45594000000E+02  0.51100000000E-03 0. -1.
    9900012    2    1    2    0    0  0.18303836395E+00  0.17912080121E+00  0.11521432225E+01  0.90007736763E+02  0.89999998088E+02 0.  0.
         12    1    1    2    0    0 -0.18303836395E+00 -0.17912080121E+00 -0.11521432225E+01  0.11802632373E+01  0.00000000000E+00 0. -1.
         11    1    3    3    0    0 -0.15186135843E+02  0.34547949755E+02 -0.18648116045E+02  0.42094320120E+02  0.51100000000E-03 0. -1.
        -11    1    3    3    0    0  0.49596724792E+01 -0.26077907438E+01  0.12505129176E+02  0.13703181369E+02  0.51100000000E-03 0.  1.
        -12    1    3    3    0    0  0.10409501727E+02 -0.31761038210E+02  0.72951300918E+01  0.34210235273E+02  0.00000000000E+00 0.  1.
</event>
<event>
 7    1  0.3707147E-015  0.9000789E+02  0.7816164E-02  0.1186339E+00
        -11   -1    0    0    0    0  0.00000000000E+00  0.00000000000E+00  0.45593999997E+02  0.45594000000E+02  0.51100000000E-03 0.  1.
         11   -1    0    0    0    0 -0.00000000000E+00 -0.00000000000E+00 -0.45593999997E+02  0.45594000000E+02  0.51100000000E-03 0. -1.
    9900012    2    1    2    0    0  0.14691557375E+00 -0.33525519309E+00  0.11219092391E+01  0.90007889594E+02  0.90000152936E+02 0.  0.
         12    1    1    2    0    0 -0.14691557375E+00  0.33525519309E+00 -0.11219092391E+01  0.11801104063E+01  0.00000000000E+00 0. -1.
         11    1    3    3    0    0  0.90733506797E+01  0.17897663261E+01  0.64441380359E+01  0.11271906287E+02  0.51100000000E-03 0. -1.
        -11    1    3    3    0    0 -0.13388173615E+02  0.22587784959E+02  0.27094542866E+02  0.37730166651E+02  0.51100000000E-03 0.  1.
         12    1    3    3    0    0  0.44617385094E+01 -0.24712806479E+02 -0.32416771663E+02  0.41005816656E+02  0.00000000000E+00 0. -1.
</event>
<event>
 7    1  0.3707147E-015  0.9000795E+02  0.7816164E-02  0.1186339E+00
        -11   -1    0    0    0    0  0.00000000000E+00  0.00000000000E+00  0.45593999997E+02  0.45594000000E+02  0.51100000000E-03 0.  1.
         11   -1    0    0    0    0 -0.00000000000E+00 -0.00000000000E+00 -0.45593999997E+02  0.45594000000E+02  0.51100000000E-03 0. -1.
    9900012    2    1    2    0    0 -0.88303092414E+00 -0.66290938818E+00  0.41632472229E+00  0.90007949686E+02  0.90000213821E+02 0.  0.
         12    1    1    2    0    0  0.88303092414E+00  0.66290938818E+00 -0.41632472229E+00  0.11800503143E+01  0.00000000000E+00 0. -1.
         11    1    3    3    0    0 -0.37034686111E+02  0.22784768005E+02 -0.78197920426E+01  0.44179891084E+02  0.51100000000E-03 0. -1.
        -11    1    3    3    0    0  0.14228713651E+02 -0.37339326434E+01 -0.14814326282E+01  0.14784897296E+02  0.51100000000E-03 0.  1.
        -12    1    3    3    0    0  0.21922941536E+02 -0.19713744750E+02  0.97175493930E+01  0.31043161306E+02  0.00000000000E+00 0.  1.
</event>
<event>
 7    1  0.3707147E-015  0.9000718E+02  0.7816164E-02  0.1186340E+00
        -11   -1    0    0    0    0  0.00000000000E+00  0.00000000000E+00  0.45593999997E+02  0.45594000000E+02  0.51100000000E-03 0.  1.
         11   -1    0    0    0    0 -0.00000000000E+00 -0.00000000000E+00 -0.45593999997E+02  0.45594000000E+02  0.51100000000E-03 0. -1.
    9900012    2    1    2    0    0 -0.30599064120E+00  0.88200589396E+00  0.72303470735E+00  0.90007176619E+02  0.89999430548E+02 0.  0.
         12    1    1    2    0    0  0.30599064120E+00 -0.88200589396E+00 -0.72303470735E+00  0.11808233812E+01  0.00000000000E+00 0. -1.
         11    1    3    3    0    0 -0.25748748291E+02 -0.25672076862E+02  0.10926831208E+02  0.37966422131E+02  0.51100000000E-03 0. -1.
        -11    1    3    3    0    0 -0.14259796042E+01 -0.63404117037E+01  0.35384753693E+01  0.73996653036E+01  0.51100000000E-03 0.  1.
        -12    1    3    3    0    0  0.26868737254E+02  0.32894494460E+02 -0.13742271870E+02  0.44641089184E+02  0.00000000000E+00 0.  1.
</event>
<event>
 7    1  0.3707147E-015  0.9000772E+02  0.7816164E-02  0.1186339E+00
        -11   -1    0    0    0    0  0.00000000000E+00  0.00000000000E+00  0.45593999997E+02  0.45594000000E+02  0.51100000000E-03 0.  1.
         11   -1    0    0    0    0 -0.00000000000E+00 -0.00000000000E+00 -0.45593999997E+02  0.45594000000E+02  0.51100000000E-03 0. -1.
    9900012    2    1    2    0    0 -0.90285255169E+00  0.50070518163E+00  0.57201638647E+00  0.90007724119E+02  0.89999985277E+02 0.  0.
         12    1    1    2    0    0  0.90285255169E+00 -0.50070518163E+00 -0.57201638647E+00  0.11802758811E+01  0.00000000000E+00 0. -1.
         11    1    3    3    0    0 -0.37979492822E+01 -0.25659594728E+01  0.91200948862E+01  0.10207090563E+02  0.51100000000E-03 0. -1.
        -11    1    3    3    0    0  0.12125588732E+02  0.18850648010E+02  0.29816506555E+02  0.37301486511E+02  0.51100000000E-03 0.  1.
         12    1    3    3    0    0 -0.92304920012E+01 -0.15783983356E+02 -0.38364585055E+02  0.42499147045E+02  0.00000000000E+00 0. -1.
</event>
<event>
 7    1  0.3707147E-015  0.9000753E+02  0.7816164E-02  0.1186339E+00
        -11   -1    0    0    0    0  0.00000000000E+00  0.00000000000E+00  0.45593999997E+02  0.45594000000E+02  0.51100000000E-03 0.  1.
         11   -1    0    0    0    0 -0.00000000000E+00 -0.00000000000E+00 -0.45593999997E+02  0.45594000000E+02  0.51100000000E-03 0. -1.
    9900012    2    1    2    0    0 -0.52700455948E+00  0.72743954038E+00 -0.76589979008E+00  0.90007532051E+02  0.89999790674E+02 0.  0.
         12    1    1    2    0    0  0.52700455948E+00 -0.72743954038E+00  0.76589979008E+00  0.11804679492E+01  0.00000000000E+00 0. -1.
         11    1    3    3    0    0 -0.10590160647E+01 -0.38167230193E+02 -0.97271907393E+01  0.39401487479E+02  0.51100000000E-03 0. -1.
        -11    1    3    3    0    0 -0.33835906955E+01 -0.43193654025E+01  0.42887519600E+01  0.69641221349E+01  0.51100000000E-03 0.  1.
        -12    1    3    3    0    0  0.39156022007E+01  0.43214035136E+02  0.46725389893E+01  0.43641922436E+02  0.00000000000E+00 0.  1.
</event>
<event>
 7    1  0.3707147E-015  0.9000810E+02  0.7816164E-02  0.1186338E+00
        -11   -1    0    0    0    0  0.00000000000E+00  0.00000000000E+00  0.45593999997E+02  0.45594000000E+02  0.51100000000E-03 0.  1.
         11   -1    0    0    0    0 -0.00000000000E+00 -0.00000000000E+00 -0.45593999997E+02  0.45594000000E+02  0.51100000000E-03 0. -1.
    9900012    2    1    2    0    0  0.76145577164E+00  0.64523201138E+00  0.62930356346E+00  0.90008100760E+02  0.90000366890E+02 0.  0.
         12    1    1    2    0    0 -0.76145577164E+00 -0.64523201138E+00 -0.62930356346E+00  0.11798992396E+01  0.00000000000E+00 0. -1.
         11    1    3    3    0    0  0.98281914421E+00 -0.17238860933E+01 -0.89335537455E+01  0.91512895003E+01  0.51100000000E-03 0. -1.
        -11    1    3    3    0    0 -0.19106585140E+02 -0.26139467323E+02 -0.17901279238E+02  0.36997150516E+02  0.51100000000E-03 0.  1.
         12    1    3    3    0    0  0.18885221767E+02  0.28508585428E+02  0.27464136547E+02  0.43859660744E+02  0.00000000000E+00 0. -1.
</event>
<event>
 7    1  0.3707147E-015  0.9000769E+02  0.7816164E-02  0.1186339E+00
        -11   -1    0    0    0    0  0.00000000000E+00  0.00000000000E+00  0.45593999997E+02  0.45594000000E+02  0.51100000000E-03 0. -1.
         11   -1    0    0    0    0 -0.00000000000E+00 -0.00000000000E+00 -0.45593999997E+02  0.45594000000E+02  0.51100000000E-03 0.  1.
    9900012    2    1    2    0    0 -0.71522887907E+00  0.92644182429E-01 -0.93434237157E+00  0.90007690311E+02  0.89999951023E+02 0.  0.
         12    1    1    2    0    0  0.71522887907E+00 -0.92644182429E-01  0.93434237157E+00  0.11803096887E+01  0.00000000000E+00 0. -1.
         11    1    3    3    0    0 -0.10464261834E+01  0.33136217667E+00 -0.88488112399E+01  0.89166288063E+01  0.51100000000E-03 0. -1.
        -11    1    3    3    0    0  0.24718794066E+02 -0.31798060829E+02  0.86760235114E+01  0.41199621804E+02  0.51100000000E-03 0.  1.
         12    1    3    3    0    0 -0.24387596761E+02  0.31559342835E+02 -0.76155464303E+00  0.39891439701E+02  0.00000000000E+00 0. -1.
</event>
<event>
 7    1  0.3707147E-015  0.9000769E+02  0.7816164E-02  0.1186339E+00
        -11   -1    0    0    0    0  0.00000000000E+00  0.00000000000E+00  0.45593999997E+02  0.45594000000E+02  0.51100000000E-03 0.  1.
         11   -1    0    0    0    0 -0.00000000000E+00 -0.00000000000E+00 -0.45593999997E+02  0.45594000000E+02  0.51100000000E-03 0. -1.
    9900012    2    1    2    0    0  0.43849906095E+00  0.71364221020E+00  0.83159913714E+00  0.90007693364E+02  0.89999954116E+02 0.  0.
         12    1    1    2    0    0 -0.43849906095E+00 -0.71364221020E+00 -0.83159913714E+00  0.11803066362E+01  0.00000000000E+00 0. -1.
         11    1    3    3    0    0  0.29805726096E+02 -0.86040017985E+01 -0.19296574132E+02  0.36534475890E+02  0.51100000000E-03 0. -1.
        -11    1    3    3    0    0  0.54061362029E+01  0.57931801470E+00 -0.67465748356E+01  0.86647671798E+01  0.51100000000E-03 0.  1.
        -12    1    3    3    0    0 -0.34773363238E+02  0.87383259940E+01  0.26874748105E+02  0.44808450294E+02  0.00000000000E+00 0.  1.
</event>
<event>
 7    1  0.3707147E-015  0.9000767E+02  0.7816164E-02  0.1186339E+00
        -11   -1    0    0    0    0  0.00000000000E+00  0.00000000000E+00  0.45593999997E+02  0.45594000000E+02  0.51100000000E-03 0.  1.
         11   -1    0    0    0    0 -0.00000000000E+00 -0.00000000000E+00 -0.45593999997E+02  0.45594000000E+02  0.51100000000E-03 0. -1.
    9900012    2    1    2    0    0  0.11568788939E+01 -0.12225768885E+00 -0.19964031456E+00  0.90007672938E+02  0.89999933421E+02 0.  0.
         12    1    1    2    0    0 -0.11568788939E+01  0.12225768885E+00  0.19964031456E+00  0.11803270618E+01  0.00000000000E+00 0. -1.
         11    1    3    3    0    0 -0.22188520227E+02  0.29647380196E+02  0.14570638707E+02  0.39794485735E+02  0.51100000000E-03 0. -1.
        -11    1    3    3    0    0 -0.50098117780E+01 -0.29373842429E+01 -0.90570899221E+01  0.10759057503E+02  0.51100000000E-03 0.  1.
        -12    1    3    3    0    0  0.28355210899E+02 -0.26832253642E+02 -0.57131890992E+01  0.39454129699E+02  0.00000000000E+00 0.  1.
</event>
<event>
 7    1  0.3707147E-015  0.9000754E+02  0.7816164E-02  0.1186339E+00
        -11   -1    0    0    0    0  0.00000000000E+00  0.00000000000E+00  0.45593999997E+02  0.45594000000E+02  0.51100000000E-03 0. -1.
         11   -1    0    0    0    0 -0.00000000000E+00 -0.00000000000E+00 -0.45593999997E+02  0.45594000000E+02  0.51100000000E-03 0.  1.
    9900012    2    1    2    0    0  0.70706487727E+00 -0.66421595729E+00 -0.67257720981E+00  0.90007540902E+02  0.89999799642E+02 0.  0.
         12    1    1    2    0    0 -0.70706487727E+00  0.66421595729E+00  0.67257720981E+00  0.11804590979E+01  0.00000000000E+00 0. -1.
         11    1    3    3    0    0  0.50543202731E+01 -0.19237625450E+01 -0.18325794780E+02  0.19107113082E+02  0.51100000000E-03 0. -1.
        -11    1    3    3    0    0 -0.38659467795E+01  0.29356914238E+02  0.28194900756E+02  0.40886750751E+02  0.51100000000E-03 0.  1.
         12    1    3    3    0    0 -0.48130861634E+00 -0.28097367650E+02 -0.10541683186E+02  0.30013677070E+02  0.00000000000E+00 0. -1.
</event>
<event>
 7    1  0.3707147E-015  0.9000782E+02  0.7816164E-02  0.1186339E+00
        -11   -1    0    0    0    0  0.00000000000E+00  0.00000000000E+00  0.45593999997E+02  0.45594000000E+02  0.51100000000E-03 0.  1.
         11   -1    0    0    0    0 -0.00000000000E+00 -0.00000000000E+00 -0.45593999997E+02  0.45594000000E+02  0.51100000000E-03 0. -1.
    9900012    2    1    2    0    0  0.51449605237E+00  0.24583036065E+00  0.10332853226E+01  0.90007823186E+02  0.90000085652E+02 0.  0.
         12    1    1    2    0    0 -0.51449605237E+00 -0.24583036065E+00 -0.10332853226E+01  0.11801768139E+01  0.00000000000E+00 0. -1.
         11    1    3    3    0    0  0.79690450475E+00  0.31877500288E+02  0.23491785739E+02  0.39606490362E+02  0.51100000000E-03 0. -1.
        -11    1    3    3    0    0  0.31296014142E+01 -0.48059669839E+01  0.78892112004E+01  0.97535315291E+01  0.51100000000E-03 0.  1.
        -12    1    3    3    0    0 -0.34120098666E+01 -0.26825702943E+02 -0.30347711616E+02  0.40647801295E+02  0.00000000000E+00 0.  1.
</event>
<event>
 7    1  0.3707147E-015  0.9000774E+02  0.7816164E-02  0.1186339E+00
        -11   -1    0    0    0    0  0.00000000000E+00  0.00000000000E+00  0.45593999997E+02  0.45594000000E+02  0.51100000000E-03 0.  1.
         11   -1    0    0    0    0 -0.00000000000E+00 -0.00000000000E+00 -0.45593999997E+02  0.45594000000E+02  0.51100000000E-03 0. -1.
    9900012    2    1    2    0    0 -0.48074822305E+00 -0.64033644787E+00  0.86709546912E+00  0.90007744022E+02  0.90000005443E+02 0.  0.
         12    1    1    2    0    0  0.48074822305E+00  0.64033644787E+00 -0.86709546912E+00  0.11802559778E+01  0.00000000000E+00 0. -1.
         11    1    3    3    0    0 -0.11811741953E+02 -0.35750184998E+01  0.27022472412E+01  0.12633295122E+02  0.51100000000E-03 0. -1.
        -11    1    3    3    0    0  0.97442721114E+01 -0.13874826286E+02  0.33871007806E+02  0.37877523857E+02  0.51100000000E-03 0.  1.
         12    1    3    3    0    0  0.15867216183E+01  0.16809508338E+02 -0.35706159578E+02  0.39496925043E+02  0.00000000000E+00 0. -1.
</event>
<event>
 7    1  0.3707147E-015  0.9000773E+02  0.7816164E-02  0.1186339E+00
        -11   -1    0    0    0    0  0.00000000000E+00  0.00000000000E+00  0.45593999997E+02  0.45594000000E+02  0.51100000000E-03 0.  1.
         11   -1    0    0    0    0 -0.00000000000E+00 -0.00000000000E+00 -0.45593999997E+02  0.45594000000E+02  0.51100000000E-03 0. -1.
    9900012    2    1    2    0    0 -0.93891996097E+00 -0.71235403060E+00  0.63382002446E-01  0.90007730439E+02  0.89999991681E+02 0.  0.
         12    1    1    2    0    0  0.93891996097E+00  0.71235403060E+00 -0.63382002446E-01  0.11802695608E+01  0.00000000000E+00 0. -1.
         11    1    3    3    0    0 -0.40774988158E+01 -0.16462210468E+01 -0.93271584086E+01  0.10311737224E+02  0.51100000000E-03 0. -1.
        -11    1    3    3    0    0 -0.15697497979E+02 -0.92184200342E+01 -0.29871640367E+02  0.34981503816E+02  0.51100000000E-03 0.  1.
         12    1    3    3    0    0  0.18836076834E+02  0.10152287050E+02  0.39262180778E+02  0.44714489400E+02  0.00000000000E+00 0. -1.
</event>
<event>
 7    1  0.3707147E-015  0.9000770E+02  0.7816164E-02  0.1186339E+00
        -11   -1    0    0    0    0  0.00000000000E+00  0.00000000000E+00  0.45593999997E+02  0.45594000000E+02  0.51100000000E-03 0.  1.
         11   -1    0    0    0    0 -0.00000000000E+00 -0.00000000000E+00 -0.45593999997E+02  0.45594000000E+02  0.51100000000E-03 0. -1.
    9900012    2    1    2    0    0 -0.42916295600E+00  0.83431893526E+00  0.71613565247E+00  0.90007695293E+02  0.89999956071E+02 0.  0.
         12    1    1    2    0    0  0.42916295600E+00 -0.83431893526E+00 -0.71613565247E+00  0.11803047070E+01  0.00000000000E+00 0. -1.
         11    1    3    3    0    0 -0.11293178398E+02  0.51103427813E+01 -0.23924991578E+02  0.26945439391E+02  0.51100000000E-03 0. -1.
        -11    1    3    3    0    0 -0.10084897992E+00 -0.26871216800E+02 -0.13682566595E+01  0.26906218415E+02  0.51100000000E-03 0.  1.
         12    1    3    3    0    0  0.10964864422E+02  0.22595192954E+02  0.26009383890E+02  0.36156037487E+02  0.00000000000E+00 0. -1.
</event>
<event>
 7    1  0.3707147E-015  0.9000786E+02  0.7816164E-02  0.1186339E+00
        -11   -1    0    0    0    0  0.00000000000E+00  0.00000000000E+00  0.45593999997E+02  0.45594000000E+02  0.51100000000E-03 0. -1.
         11   -1    0    0    0    0 -0.00000000000E+00 -0.00000000000E+00 -0.45593999997E+02  0.45594000000E+02  0.51100000000E-03 0.  1.
    9900012    2    1    2    0    0  0.16483770200E+00 -0.72798067725E+00  0.91411008513E+00  0.90007862473E+02  0.90000125458E+02 0.  0.
         12    1    1    2    0    0 -0.16483770200E+00  0.72798067725E+00 -0.91411008513E+00  0.11801375268E+01  0.00000000000E+00 0. -1.
         11    1    3    3    0    0  0.82766427954E+01  0.57820096494E+01 -0.24144799968E+01  0.10380952050E+02  0.51100000000E-03 0. -1.
        -11    1    3    3    0    0  0.71676559466E+00  0.75240920977E+01 -0.36084939270E+02  0.36867988245E+02  0.51100000000E-03 0.  1.
         12    1    3    3    0    0 -0.88285706881E+01 -0.14034082424E+02  0.39413529352E+02  0.42758922179E+02  0.00000000000E+00 0. -1.
</event>
<event>
 7    1  0.7365152E-015  0.9000903E+02  0.7816164E-02  0.1186336E+00
        -11   -1    0    0    0    0  0.00000000000E+00  0.00000000000E+00  0.45593999997E+02  0.45594000000E+02  0.51100000000E-03 0.  1.
         11   -1    0    0    0    0 -0.00000000000E+00 -0.00000000000E+00 -0.45593999997E+02  0.45594000000E+02  0.51100000000E-03 0. -1.
    9900012    2    1    2    0    0  0.69449878605E+00 -0.86566502191E+00 -0.39781917861E+00  0.90009032404E+02  0.90001310822E+02 0.  0.
         12    1    1    2    0    0 -0.69449878605E+00  0.86566502191E+00  0.39781917861E+00  0.11789675962E+01  0.00000000000E+00 0. -1.
         11    1    3    3    0    0  0.54520199716E+01 -0.36754618296E+01 -0.68953578978E+01  0.95278277814E+01  0.51100000000E-03 0. -1.
        -11    1    3    3    0    0  0.37002093413E+02 -0.36881325504E+01 -0.25091107943E+01  0.37269999677E+02  0.51100000000E-03 0.  1.
         12    1    3    3    0    0 -0.41759614599E+02  0.64979293580E+01  0.90066495135E+01  0.43211204946E+02  0.00000000000E+00 0. -1.
</event>
<event>
 7    1  0.3707147E-015  0.9000775E+02  0.7816164E-02  0.1186339E+00
        -11   -1    0    0    0    0  0.00000000000E+00  0.00000000000E+00  0.45593999997E+02  0.45594000000E+02  0.51100000000E-03 0.  1.
         11   -1    0    0    0    0 -0.00000000000E+00 -0.00000000000E+00 -0.45593999997E+02  0.45594000000E+02  0.51100000000E-03 0. -1.
    9900012    2    1    2    0    0 -0.11191802492E+01  0.32869852894E+00 -0.17995162474E+00  0.90007750136E+02  0.90000011638E+02 0.  0.
         12    1    1    2    0    0  0.11191802492E+01 -0.32869852894E+00  0.17995162474E+00  0.11802498636E+01  0.00000000000E+00 0. -1.
         11    1    3    3    0    0  0.28831633018E+02  0.17229411116E+02  0.25949765120E+02  0.42444151305E+02  0.51100000000E-03 0. -1.
        -11    1    3    3    0    0 -0.62964942637E+01 -0.43422168109E+01  0.27959552204E+01  0.81435896693E+01  0.51100000000E-03 0.  1.
        -12    1    3    3    0    0 -0.23654319004E+02 -0.12558495776E+02 -0.28925671966E+02  0.39420009162E+02  0.00000000000E+00 0.  1.
</event>
<event>
 7    1  0.3707147E-015  0.9000797E+02  0.7816164E-02  0.1186339E+00
        -11   -1    0    0    0    0  0.00000000000E+00  0.00000000000E+00  0.45593999997E+02  0.45594000000E+02  0.51100000000E-03 0.  1.
         11   -1    0    0    0    0 -0.00000000000E+00 -0.00000000000E+00 -0.45593999997E+02  0.45594000000E+02  0.51100000000E-03 0. -1.
    9900012    2    1    2    0    0 -0.74213513289E+00  0.54682118113E+00  0.73668226345E+00  0.90007966646E+02  0.90000231005E+02 0.  0.
         12    1    1    2    0    0  0.74213513289E+00 -0.54682118113E+00 -0.73668226345E+00  0.11800333541E+01  0.00000000000E+00 0. -1.
         11    1    3    3    0    0  0.22652654089E+02  0.27801266259E+01 -0.27967336006E+02  0.36097696947E+02  0.51100000000E-03 0. -1.
        -11    1    3    3    0    0  0.70124316781E+01  0.63623906972E+01 -0.21897821060E+01  0.97185060250E+01  0.51100000000E-03 0.  1.
        -12    1    3    3    0    0 -0.30407220900E+02 -0.85956961420E+01  0.30893800375E+02  0.44191763674E+02  0.00000000000E+00 0.  1.
</event>
<event>
 7    1  0.3707147E-015  0.9000787E+02  0.7816164E-02  0.1186339E+00
        -11   -1    0    0    0    0  0.00000000000E+00  0.00000000000E+00  0.45593999997E+02  0.45594000000E+02  0.51100000000E-03 0.  1.
         11   -1    0    0    0    0 -0.00000000000E+00 -0.00000000000E+00 -0.45593999997E+02  0.45594000000E+02  0.51100000000E-03 0. -1.
    9900012    2    1    2    0    0 -0.80586968119E+00 -0.69437664702E+00  0.51101028714E+00  0.90007865946E+02  0.90000128977E+02 0.  0.
         12    1    1    2    0    0  0.80586968119E+00  0.69437664702E+00 -0.51101028714E+00  0.11801340536E+01  0.00000000000E+00 0. -1.
         11    1    3    3    0    0  0.20734914691E+02  0.13437281094E+02 -0.23668780766E+02  0.34215616225E+02  0.51100000000E-03 0. -1.
        -11    1    3    3    0    0  0.93946180995E+01  0.13958083750E+01 -0.48064506184E+01  0.10644674634E+02  0.51100000000E-03 0.  1.
        -12    1    3    3    0    0 -0.30935402472E+02 -0.15527466116E+02  0.28986241671E+02  0.45147575088E+02  0.00000000000E+00 0.  1.
</event>
<event>
 7    1  0.3707147E-015  0.9000771E+02  0.7816164E-02  0.1186339E+00
        -11   -1    0    0    0    0  0.00000000000E+00  0.00000000000E+00  0.45593999997E+02  0.45594000000E+02  0.51100000000E-03 0. -1.
         11   -1    0    0    0    0 -0.00000000000E+00 -0.00000000000E+00 -0.45593999997E+02  0.45594000000E+02  0.51100000000E-03 0.  1.
    9900012    2    1    2    0    0 -0.12989179189E+00 -0.17024449753E+00 -0.11607040507E+01  0.90007708104E+02  0.89999969051E+02 0.  0.
         12    1    1    2    0    0  0.12989179189E+00  0.17024449753E+00  0.11607040507E+01  0.11802918960E+01  0.00000000000E+00 0. -1.
         11    1    3    3    0    0 -0.11961982507E+02 -0.14320957388E+02  0.22013871592E+02  0.28858090524E+02  0.51100000000E-03 0. -1.
        -11    1    3    3    0    0 -0.74302893257E+01 -0.10504937459E+02  0.94364467724E+01  0.15956485779E+02  0.51100000000E-03 0.  1.
        -12    1    3    3    0    0  0.19262380041E+02  0.24655650349E+02 -0.32611022415E+02  0.45193131800E+02  0.00000000000E+00 0.  1.
</event>
<event>
 7    1  0.3707147E-015  0.9000778E+02  0.7816164E-02  0.1186339E+00
        -11   -1    0    0    0    0  0.00000000000E+00  0.00000000000E+00  0.45593999997E+02  0.45594000000E+02  0.51100000000E-03 0. -1.
         11   -1    0    0    0    0 -0.00000000000E+00 -0.00000000000E+00 -0.45593999997E+02  0.45594000000E+02  0.51100000000E-03 0.  1.
    9900012    2    1    2    0    0  0.22089215148E+00  0.52997348237E+00 -0.10311460768E+01  0.90007776518E+02  0.90000038369E+02 0.  0.
         12    1    1    2    0    0 -0.22089215148E+00 -0.52997348237E+00  0.10311460768E+01  0.11802234815E+01  0.00000000000E+00 0. -1.
         11    1    3    3    0    0 -0.14101388273E+02 -0.30966412072E+02 -0.72497349746E+01  0.34789746842E+02  0.51100000000E-03 0. -1.
        -11    1    3    3    0    0 -0.42544762284E+01 -0.84882378467E+01 -0.34118920470E+01  0.10089190122E+02  0.51100000000E-03 0.  1.
        -12    1    3    3    0    0  0.18576756653E+02  0.39984623401E+02  0.96304809448E+01  0.45128839554E+02  0.00000000000E+00 0.  1.
</event>
<event>
 7    1  0.3707147E-015  0.9000773E+02  0.7816164E-02  0.1186339E+00
        -11   -1    0    0    0    0  0.00000000000E+00  0.00000000000E+00  0.45593999997E+02  0.45594000000E+02  0.51100000000E-03 0.  1.
         11   -1    0    0    0    0 -0.00000000000E+00 -0.00000000000E+00 -0.45593999997E+02  0.45594000000E+02  0.51100000000E-03 0. -1.
    9900012    2    1    2    0    0 -0.11203956554E+01 -0.34812236351E+00 -0.12867595145E+00  0.90007731766E+02  0.89999993025E+02 0.  0.
         12    1    1    2    0    0  0.11203956554E+01  0.34812236351E+00  0.12867595145E+00  0.11802682344E+01  0.00000000000E+00 0. -1.
         11    1    3    3    0    0  0.16852334823E+02 -0.14841412216E+02 -0.25465231174E+02  0.33952123712E+02  0.51100000000E-03 0. -1.
        -11    1    3    3    0    0  0.95080998785E+01  0.98490039792E+00 -0.67502087679E+01  0.11702107108E+02  0.51100000000E-03 0.  1.
        -12    1    3    3    0    0 -0.27480830357E+02  0.13508389455E+02  0.32086763991E+02  0.44353500946E+02  0.00000000000E+00 0.  1.
</event>
<event>
 7    1  0.3707147E-015  0.9000770E+02  0.7816164E-02  0.1186339E+00
        -11   -1    0    0    0    0  0.00000000000E+00  0.00000000000E+00  0.45593999997E+02  0.45594000000E+02  0.51100000000E-03 0. -1.
         11   -1    0    0    0    0 -0.00000000000E+00 -0.00000000000E+00 -0.45593999997E+02  0.45594000000E+02  0.51100000000E-03 0.  1.
    9900012    2    1    2    0    0 -0.10562579146E+01 -0.51359330158E-01  0.52420594822E+00  0.90007699005E+02  0.89999959832E+02 0.  0.
         12    1    1    2    0    0  0.10562579146E+01  0.51359330158E-01 -0.52420594822E+00  0.11803009951E+01  0.00000000000E+00 0. -1.
         11    1    3    3    0    0 -0.29496899355E+02  0.15006031383E+02  0.22623729491E+02  0.40088417102E+02  0.51100000000E-03 0. -1.
        -11    1    3    3    0    0  0.27007897510E+01  0.33883112884E+01  0.61230795313E+01  0.75011347057E+01  0.51100000000E-03 0.  1.
        -12    1    3    3    0    0  0.25739851689E+02 -0.18445702002E+02 -0.28222603074E+02  0.42418147197E+02  0.00000000000E+00 0.  1.
</event>
<event>
 7    1  0.3707147E-015  0.9000776E+02  0.7816164E-02  0.1186339E+00
        -11   -1    0    0    0    0  0.00000000000E+00  0.00000000000E+00  0.45593999997E+02  0.45594000000E+02  0.51100000000E-03 0.  1.
         11   -1    0    0    0    0 -0.00000000000E+00 -0.00000000000E+00 -0.45593999997E+02  0.45594000000E+02  0.51100000000E-03 0. -1.
    9900012    2    1    2    0    0  0.74951937182E+00  0.65810938252E+00  0.63093535594E+00  0.90007759909E+02  0.90000021540E+02 0.  0.
         12    1    1    2    0    0 -0.74951937182E+00 -0.65810938252E+00 -0.63093535594E+00  0.11802400906E+01  0.00000000000E+00 0. -1.
         11    1    3    3    0    0 -0.45755281677E+01 -0.96663177872E+01 -0.37858725816E+01  0.11344866198E+02  0.51100000000E-03 0. -1.
        -11    1    3    3    0    0 -0.23052061899E+01 -0.33320314857E+02 -0.37499473747E+01  0.33609812010E+02  0.51100000000E-03 0.  1.
         12    1    3    3    0    0  0.76302537294E+01  0.43644742027E+02  0.81667553122E+01  0.45053081702E+02  0.00000000000E+00 0. -1.
</event>
<event>
 7    1  0.3707147E-015  0.9000777E+02  0.7816164E-02  0.1186339E+00
        -11   -1    0    0    0    0  0.00000000000E+00  0.00000000000E+00  0.45593999997E+02  0.45594000000E+02  0.51100000000E-03 0. -1.
         11   -1    0    0    0    0 -0.00000000000E+00 -0.00000000000E+00 -0.45593999997E+02  0.45594000000E+02  0.51100000000E-03 0.  1.
    9900012    2    1    2    0    0 -0.33047652528E+00  0.36912310134E+00 -0.10712031013E+01  0.90007770072E+02  0.90000031837E+02 0.  0.
         12    1    1    2    0    0  0.33047652528E+00 -0.36912310134E+00  0.10712031013E+01  0.11802299276E+01  0.00000000000E+00 0. -1.
         11    1    3    3    0    0 -0.59600255886E+00  0.62977548286E+00  0.97725577123E+01  0.98109490219E+01  0.51100000000E-03 0. -1.
        -11    1    3    3    0    0 -0.29566019012E+02 -0.24068681843E+02 -0.16630072595E+02  0.41593391790E+02  0.51100000000E-03 0.  1.
         12    1    3    3    0    0  0.29831545045E+02  0.23808029461E+02  0.57863117814E+01  0.38603429260E+02  0.00000000000E+00 0. -1.
</event>
<event>
 7    1  0.3707147E-015  0.9000779E+02  0.7816164E-02  0.1186339E+00
        -11   -1    0    0    0    0  0.00000000000E+00  0.00000000000E+00  0.45593999997E+02  0.45594000000E+02  0.51100000000E-03 0. -1.
         11   -1    0    0    0    0 -0.00000000000E+00 -0.00000000000E+00 -0.45593999997E+02  0.45594000000E+02  0.51100000000E-03 0.  1.
    9900012    2    1    2    0    0  0.64096759845E+00  0.65647367970E+00 -0.74235726782E+00  0.90007791769E+02  0.90000053821E+02 0.  0.
         12    1    1    2    0    0 -0.64096759845E+00 -0.65647367970E+00  0.74235726782E+00  0.11802082306E+01  0.00000000000E+00 0. -1.
         11    1    3    3    0    0 -0.19477998618E+02  0.11118415745E+02  0.32653260055E+02  0.39613722260E+02  0.51100000000E-03 0. -1.
        -11    1    3    3    0    0  0.31296018636E+01  0.92646280604E+01 -0.26999091321E+01  0.10144813971E+02  0.51100000000E-03 0.  1.
        -12    1    3    3    0    0  0.16989364353E+02 -0.19726570125E+02 -0.30695708191E+02  0.40249255538E+02  0.00000000000E+00 0.  1.
</event>
<event>
 7    1  0.3707147E-015  0.9000785E+02  0.7816164E-02  0.1186339E+00
        -11   -1    0    0    0    0  0.00000000000E+00  0.00000000000E+00  0.45593999997E+02  0.45594000000E+02  0.51100000000E-03 0.  1.
         11   -1    0    0    0    0 -0.00000000000E+00 -0.00000000000E+00 -0.45593999997E+02  0.45594000000E+02  0.51100000000E-03 0. -1.
    9900012    2    1    2    0    0  0.95237129232E+00 -0.28045413876E+00  0.63804119732E+00  0.90007846547E+02  0.90000109322E+02 0.  0.
         12    1    1    2    0    0 -0.95237129232E+00  0.28045413876E+00 -0.63804119732E+00  0.11801534527E+01  0.00000000000E+00 0. -1.
         11    1    3    3    0    0 -0.60480593920E+01  0.42931056002E+01 -0.54796543651E+01  0.92215177886E+01  0.51100000000E-03 0. -1.
        -11    1    3    3    0    0 -0.13293060830E+02 -0.37667795479E+02 -0.53642171779E+01  0.40303140184E+02  0.51100000000E-03 0.  1.
         12    1    3    3    0    0  0.20293491514E+02  0.33094235740E+02  0.11481912740E+02  0.40483188575E+02  0.00000000000E+00 0. -1.
</event>
<event>
 7    1  0.3707147E-015  0.9000768E+02  0.7816164E-02  0.1186339E+00
        -11   -1    0    0    0    0  0.00000000000E+00  0.00000000000E+00  0.45593999997E+02  0.45594000000E+02  0.51100000000E-03 0.  1.
         11   -1    0    0    0    0 -0.00000000000E+00 -0.00000000000E+00 -0.45593999997E+02  0.45594000000E+02  0.51100000000E-03 0. -1.
    9900012    2    1    2    0    0  0.10305033787E+01  0.47987396460E+00  0.31771418982E+00  0.90007678628E+02  0.89999939186E+02 0.  0.
         12    1    1    2    0    0 -0.10305033787E+01 -0.47987396460E+00 -0.31771418982E+00  0.11803213722E+01  0.00000000000E+00 0. -1.
         11    1    3    3    0    0  0.79851099824E+00 -0.96086950355E+01 -0.35744706532E+00  0.96484407427E+01  0.51100000000E-03 0. -1.
        -11    1    3    3    0    0 -0.15102886737E+02 -0.32095059714E+02  0.49116844481E+00  0.35474375154E+02  0.51100000000E-03 0.  1.
         12    1    3    3    0    0  0.15334879117E+02  0.42183628715E+02  0.18399281033E+00  0.44884862731E+02  0.00000000000E+00 0. -1.
</event>
<event>
 7    1  0.3707147E-015  0.9000769E+02  0.7816164E-02  0.1186339E+00
        -11   -1    0    0    0    0  0.00000000000E+00  0.00000000000E+00  0.45593999997E+02  0.45594000000E+02  0.51100000000E-03 0. -1.
         11   -1    0    0    0    0 -0.00000000000E+00 -0.00000000000E+00 -0.45593999997E+02  0.45594000000E+02  0.51100000000E-03 0.  1.
    9900012    2    1    2    0    0  0.96100431823E+00  0.31608402534E+00 -0.60802647866E+00  0.90007688766E+02  0.89999949458E+02 0.  0.
         12    1    1    2    0    0 -0.96100431823E+00 -0.31608402534E+00  0.60802647866E+00  0.11803112342E+01  0.00000000000E+00 0. -1.
         11    1    3    3    0    0 -0.13396383023E+02  0.35836617804E+02 -0.42911345536E+01  0.38498572568E+02  0.51100000000E-03 0. -1.
        -11    1    3    3    0    0 -0.52683625568E+01 -0.26275292139E+01  0.11034725546E+02  0.12506986925E+02  0.51100000000E-03 0.  1.
        -12    1    3    3    0    0  0.19625749898E+02 -0.32893004565E+02 -0.73516174711E+01  0.39002129273E+02  0.00000000000E+00 0.  1.
</event>
<event>
 7    1  0.3707147E-015  0.9000720E+02  0.7816164E-02  0.1186340E+00
        -11   -1    0    0    0    0  0.00000000000E+00  0.00000000000E+00  0.45593999997E+02  0.45594000000E+02  0.51100000000E-03 0.  1.
         11   -1    0    0    0    0 -0.00000000000E+00 -0.00000000000E+00 -0.45593999997E+02  0.45594000000E+02  0.51100000000E-03 0. -1.
    9900012    2    1    2    0    0 -0.70363582129E+00  0.93573823670E+00 -0.15351764541E+00  0.90007204893E+02  0.89999459196E+02 0.  0.
         12    1    1    2    0    0  0.70363582129E+00 -0.93573823670E+00  0.15351764541E+00  0.11807951067E+01  0.00000000000E+00 0. -1.
         11    1    3    3    0    0 -0.22991100686E+02 -0.13786017091E+02  0.25299992969E+02  0.36861017654E+02  0.51100000000E-03 0. -1.
        -11    1    3    3    0    0 -0.59506569317E+01  0.44713050820E+01  0.60672674350E+01  0.96028444455E+01  0.51100000000E-03 0.  1.
        -12    1    3    3    0    0  0.28238121796E+02  0.10250450245E+02 -0.31520778050E+02  0.43543342794E+02  0.00000000000E+00 0.  1.
</event>
<event>
 7    1  0.3707147E-015  0.9000776E+02  0.7816164E-02  0.1186339E+00
        -11   -1    0    0    0    0  0.00000000000E+00  0.00000000000E+00  0.45593999997E+02  0.45594000000E+02  0.51100000000E-03 0.  1.
         11   -1    0    0    0    0 -0.00000000000E+00 -0.00000000000E+00 -0.45593999997E+02  0.45594000000E+02  0.51100000000E-03 0. -1.
    9900012    2    1    2    0    0 -0.67625295894E-01  0.11685111992E+01  0.15154016612E+00  0.90007764420E+02  0.90000026110E+02 0.  0.
         12    1    1    2    0    0  0.67625295894E-01 -0.11685111992E+01 -0.15154016612E+00  0.11802355804E+01  0.00000000000E+00 0. -1.
         11    1    3    3    0    0  0.18655102205E+01 -0.46572613105E+00  0.10160648669E+02  0.10340977268E+02  0.51100000000E-03 0. -1.
        -11    1    3    3    0    0 -0.23269988880E+02 -0.20252052511E+02  0.20054107479E+02  0.36794092466E+02  0.51100000000E-03 0.  1.
         12    1    3    3    0    0  0.21336853363E+02  0.21886289841E+02 -0.30063215982E+02  0.42872694686E+02  0.00000000000E+00 0. -1.
</event>
<event>
 7    1  0.3707147E-015  0.9000814E+02  0.7816164E-02  0.1186338E+00
        -11   -1    0    0    0    0  0.00000000000E+00  0.00000000000E+00  0.45593999997E+02  0.45594000000E+02  0.51100000000E-03 0. -1.
         11   -1    0    0    0    0 -0.00000000000E+00 -0.00000000000E+00 -0.45593999997E+02  0.45594000000E+02  0.51100000000E-03 0.  1.
    9900012    2    1    2    0    0 -0.24608188847E+00 -0.11271572022E+01 -0.24702469439E+00  0.90008143715E+02  0.90000410411E+02 0.  0.
         12    1    1    2    0    0  0.24608188847E+00  0.11271572022E+01  0.24702469439E+00  0.11798562853E+01  0.00000000000E+00 0. -1.
         11    1    3    3    0    0  0.22090863613E+02 -0.14460240495E+02  0.25393915944E+02  0.36632714581E+02  0.51100000000E-03 0. -1.
        -11    1    3    3    0    0  0.48011471688E+01 -0.99361916492E+01 -0.52500346539E+01  0.12220547564E+02  0.51100000000E-03 0.  1.
        -12    1    3    3    0    0 -0.27138092670E+02  0.23269274942E+02 -0.20390905985E+02  0.41154881570E+02  0.00000000000E+00 0.  1.
</event>
<event>
 7    1  0.3707147E-015  0.9000775E+02  0.7816164E-02  0.1186339E+00
        -11   -1    0    0    0    0  0.00000000000E+00  0.00000000000E+00  0.45593999997E+02  0.45594000000E+02  0.51100000000E-03 0.  1.
         11   -1    0    0    0    0 -0.00000000000E+00 -0.00000000000E+00 -0.45593999997E+02  0.45594000000E+02  0.51100000000E-03 0. -1.
    9900012    2    1    2    0    0  0.28350523764E-01  0.11483205528E+01  0.27118908842E+00  0.90007751142E+02  0.90000012657E+02 0.  0.
         12    1    1    2    0    0 -0.28350523764E-01 -0.11483205528E+01 -0.27118908842E+00  0.11802488576E+01  0.00000000000E+00 0. -1.
         11    1    3    3    0    0  0.21366128972E+02 -0.17139452436E+02 -0.26179271968E+02  0.37889663209E+02  0.51100000000E-03 0. -1.
        -11    1    3    3    0    0  0.54246162805E+01  0.86954397471E+01 -0.34935789171E+01  0.10827845035E+02  0.51100000000E-03 0.  1.
        -12    1    3    3    0    0 -0.26762394729E+02  0.95923332421E+01  0.29944039974E+02  0.41290242898E+02  0.00000000000E+00 0.  1.
</event>
<event>
 7    1  0.3707147E-015  0.9000771E+02  0.7816164E-02  0.1186339E+00
        -11   -1    0    0    0    0  0.00000000000E+00  0.00000000000E+00  0.45593999997E+02  0.45594000000E+02  0.51100000000E-03 0.  1.
         11   -1    0    0    0    0 -0.00000000000E+00 -0.00000000000E+00 -0.45593999997E+02  0.45594000000E+02  0.51100000000E-03 0. -1.
    9900012    2    1    2    0    0  0.77578503783E+00 -0.87861247454E+00  0.13886084297E+00  0.90007709934E+02  0.89999970905E+02 0.  0.
         12    1    1    2    0    0 -0.77578503783E+00  0.87861247454E+00 -0.13886084297E+00  0.11802900656E+01  0.00000000000E+00 0. -1.
         11    1    3    3    0    0 -0.79430664429E+01 -0.14095089159E+01 -0.16513076646E+01  0.82344299842E+01  0.51100000000E-03 0. -1.
        -11    1    3    3    0    0  0.94509163327E+01  0.21782841327E+02 -0.33206582986E+02  0.40822654858E+02  0.51100000000E-03 0.  1.
         12    1    3    3    0    0 -0.73206485189E+00 -0.21251944885E+02  0.34996751493E+02  0.40950625092E+02  0.00000000000E+00 0. -1.
</event>
<event>
 7    1  0.3707147E-015  0.9000788E+02  0.7816164E-02  0.1186339E+00
        -11   -1    0    0    0    0  0.00000000000E+00  0.00000000000E+00  0.45593999997E+02  0.45594000000E+02  0.51100000000E-03 0.  1.
         11   -1    0    0    0    0 -0.00000000000E+00 -0.00000000000E+00 -0.45593999997E+02  0.45594000000E+02  0.51100000000E-03 0. -1.
    9900012    2    1    2    0    0 -0.63000137157E-02 -0.18813362217E+00  0.11650107889E+01  0.90007879630E+02  0.90000142841E+02 0.  0.
         12    1    1    2    0    0  0.63000137157E-02  0.18813362217E+00 -0.11650107889E+01  0.11801203702E+01  0.00000000000E+00 0. -1.
         11    1    3    3    0    0 -0.33689526395E+02  0.10945502032E+02 -0.14867088734E+02  0.38416383629E+02  0.51100000000E-03 0. -1.
        -11    1    3    3    0    0 -0.18290207703E+00  0.93878063939E+01  0.21732688073E+01  0.96378140483E+01  0.51100000000E-03 0.  1.
        -12    1    3    3    0    0  0.33866128459E+02 -0.20521442049E+02  0.13858830715E+02  0.41953681952E+02  0.00000000000E+00 0.  1.
</event>
<event>
 7    1  0.3707147E-015  0.9000768E+02  0.7816164E-02  0.1186339E+00
        -11   -1    0    0    0    0  0.00000000000E+00  0.00000000000E+00  0.45593999997E+02  0.45594000000E+02  0.51100000000E-03 0.  1.
         11   -1    0    0    0    0 -0.00000000000E+00 -0.00000000000E+00 -0.45593999997E+02  0.45594000000E+02  0.51100000000E-03 0. -1.
    9900012    2    1    2    0    0  0.97081874008E+00 -0.30709638158E+00  0.59695093311E+00  0.90007683250E+02  0.89999943869E+02 0.  0.
         12    1    1    2    0    0 -0.97081874008E+00  0.30709638158E+00 -0.59695093311E+00  0.11803167500E+01  0.00000000000E+00 0. -1.
         11    1    3    3    0    0 -0.69407091823E+00  0.50523997478E+01 -0.70260655176E+01  0.86818243803E+01  0.51100000000E-03 0. -1.
        -11    1    3    3    0    0 -0.35187513899E+02 -0.17232807729E+02  0.14921802622E+02  0.41926018060E+02  0.51100000000E-03 0.  1.
         12    1    3    3    0    0  0.36852403557E+02  0.11873311599E+02 -0.72987861714E+01  0.39399840810E+02  0.00000000000E+00 0. -1.
</event>
<event>
 7    1  0.3707147E-015  0.9000787E+02  0.7816164E-02  0.1186339E+00
        -11   -1    0    0    0    0  0.00000000000E+00  0.00000000000E+00  0.45593999997E+02  0.45594000000E+02  0.51100000000E-03 0.  1.
         11   -1    0    0    0    0 -0.00000000000E+00 -0.00000000000E+00 -0.45593999997E+02  0.45594000000E+02  0.51100000000E-03 0. -1.
    9900012    2    1    2    0    0  0.41940273203E+00 -0.16634009066E+00  0.10904712195E+01  0.90007874940E+02  0.90000138089E+02 0.  0.
         12    1    1    2    0    0 -0.41940273203E+00  0.16634009066E+00 -0.10904712195E+01  0.11801250603E+01  0.00000000000E+00 0. -1.
         11    1    3    3    0    0 -0.42646211362E+01 -0.77628849307E+01  0.18897723508E+01  0.90565233772E+01  0.51100000000E-03 0. -1.
        -11    1    3    3    0    0 -0.12276702136E+02 -0.17583242438E+01  0.36703337343E+02  0.38742019719E+02  0.51100000000E-03 0.  1.
         12    1    3    3    0    0  0.16960726004E+02  0.93548690838E+01 -0.37502638474E+02  0.42209331844E+02  0.00000000000E+00 0. -1.
</event>
<event>
 7    1  0.3707147E-015  0.9000781E+02  0.7816164E-02  0.1186339E+00
        -11   -1    0    0    0    0  0.00000000000E+00  0.00000000000E+00  0.45593999997E+02  0.45594000000E+02  0.51100000000E-03 0.  1.
         11   -1    0    0    0    0 -0.00000000000E+00 -0.00000000000E+00 -0.45593999997E+02  0.45594000000E+02  0.51100000000E-03 0. -1.
    9900012    2    1    2    0    0 -0.66257918751E+00  0.65240338908E+00 -0.72678121919E+00  0.90007808362E+02  0.90000070632E+02 0.  0.
         12    1    1    2    0    0  0.66257918751E+00 -0.65240338908E+00  0.72678121919E+00  0.11801916380E+01  0.00000000000E+00 0. -1.
         11    1    3    3    0    0  0.10768085680E+02 -0.10394409677E+01 -0.43318248302E+01  0.11653188978E+02  0.51100000000E-03 0. -1.
        -11    1    3    3    0    0  0.82628688420E+01  0.10524215042E+01  0.37898768158E+02  0.38803340329E+02  0.51100000000E-03 0.  1.
         12    1    3    3    0    0 -0.19693533710E+02  0.63942285258E+00 -0.34293724547E+02  0.39551279055E+02  0.00000000000E+00 0. -1.
</event>
<event>
 7    1  0.3707147E-015  0.9000778E+02  0.7816164E-02  0.1186339E+00
        -11   -1    0    0    0    0  0.00000000000E+00  0.00000000000E+00  0.45593999997E+02  0.45594000000E+02  0.51100000000E-03 0.  1.
         11   -1    0    0    0    0 -0.00000000000E+00 -0.00000000000E+00 -0.45593999997E+02  0.45594000000E+02  0.51100000000E-03 0. -1.
    9900012    2    1    2    0    0  0.21112313542E+00  0.90502524524E+00 -0.72751070850E+00  0.90007781586E+02  0.90000043503E+02 0.  0.
         12    1    1    2    0    0 -0.21112313542E+00 -0.90502524524E+00  0.72751070850E+00  0.11802184136E+01  0.00000000000E+00 0. -1.
         11    1    3    3    0    0  0.33646538681E+02 -0.13851154453E+02 -0.28632008117E+01  0.36498520025E+02  0.51100000000E-03 0. -1.
        -11    1    3    3    0    0  0.32445001012E+01 -0.90227740226E+01  0.20048159729E+01  0.97957398555E+01  0.51100000000E-03 0.  1.
        -12    1    3    3    0    0 -0.36679915647E+02  0.23778953721E+02  0.13087413037E+00  0.43713521706E+02  0.00000000000E+00 0.  1.
</event>
<event>
 7    1  0.3707147E-015  0.9000777E+02  0.7816164E-02  0.1186339E+00
        -11   -1    0    0    0    0  0.00000000000E+00  0.00000000000E+00  0.45593999997E+02  0.45594000000E+02  0.51100000000E-03 0.  1.
         11   -1    0    0    0    0 -0.00000000000E+00 -0.00000000000E+00 -0.45593999997E+02  0.45594000000E+02  0.51100000000E-03 0. -1.
    9900012    2    1    2    0    0  0.21009337130E+00 -0.10832359129E+01 -0.41880391940E+00  0.90007772907E+02  0.90000034710E+02 0.  0.
         12    1    1    2    0    0 -0.21009337130E+00  0.10832359129E+01  0.41880391940E+00  0.11802270928E+01  0.00000000000E+00 0. -1.
         11    1    3    3    0    0  0.24205827488E+02 -0.94733433783E+01 -0.24962311704E+02  0.36038636558E+02  0.51100000000E-03 0. -1.
        -11    1    3    3    0    0  0.19878072167E+01 -0.10368269666E+02 -0.37660563881E+01  0.11208727599E+02  0.51100000000E-03 0.  1.
        -12    1    3    3    0    0 -0.25983541333E+02  0.18758377132E+02  0.28309564173E+02  0.42760408750E+02  0.00000000000E+00 0.  1.
</event>
<event>
 7    1  0.3707147E-015  0.9000778E+02  0.7816164E-02  0.1186339E+00
        -11   -1    0    0    0    0  0.00000000000E+00  0.00000000000E+00  0.45593999997E+02  0.45594000000E+02  0.51100000000E-03 0.  1.
         11   -1    0    0    0    0 -0.00000000000E+00 -0.00000000000E+00 -0.45593999997E+02  0.45594000000E+02  0.51100000000E-03 0. -1.
    9900012    2    1    2    0    0  0.39042678309E+00 -0.10912610559E+01  0.22278946205E+00  0.90007780144E+02  0.90000042041E+02 0.  0.
         12    1    1    2    0    0 -0.39042678309E+00  0.10912610559E+01 -0.22278946205E+00  0.11802198564E+01  0.00000000000E+00 0. -1.
         11    1    3    3    0    0 -0.94905832149E+01 -0.15900002060E+01 -0.19465634759E+01  0.98177584021E+01  0.51100000000E-03 0. -1.
        -11    1    3    3    0    0 -0.34174288859E+02 -0.14189517817E+01 -0.75673704912E+01  0.35030851255E+02  0.51100000000E-03 0.  1.
         12    1    3    3    0    0  0.44055298857E+02  0.19176909318E+01  0.97367234291E+01  0.45159170487E+02  0.00000000000E+00 0. -1.
</event>
<event>
 7    1  0.3707147E-015  0.9000776E+02  0.7816164E-02  0.1186339E+00
        -11   -1    0    0    0    0  0.00000000000E+00  0.00000000000E+00  0.45593999997E+02  0.45594000000E+02  0.51100000000E-03 0.  1.
         11   -1    0    0    0    0 -0.00000000000E+00 -0.00000000000E+00 -0.45593999997E+02  0.45594000000E+02  0.51100000000E-03 0. -1.
    9900012    2    1    2    0    0  0.37919535502E+00 -0.77943419266E+00 -0.80103201320E+00  0.90007763132E+02  0.90000024806E+02 0.  0.
         12    1    1    2    0    0 -0.37919535502E+00  0.77943419266E+00  0.80103201320E+00  0.11802368678E+01  0.00000000000E+00 0. -1.
         11    1    3    3    0    0  0.82312509474E+01 -0.48237955867E+01  0.50776425204E+01  0.10807633869E+02  0.51100000000E-03 0. -1.
        -11    1    3    3    0    0  0.19401625980E+02  0.31399358585E+02 -0.14464367893E+02  0.39642915496E+02  0.51100000000E-03 0.  1.
         12    1    3    3    0    0 -0.27253681572E+02 -0.27354997191E+02  0.85856933590E+01  0.39557213767E+02  0.00000000000E+00 0. -1.
</event>
<event>
 7    1  0.3707147E-015  0.9000767E+02  0.7816164E-02  0.1186339E+00
        -11   -1    0    0    0    0  0.00000000000E+00  0.00000000000E+00  0.45593999997E+02  0.45594000000E+02  0.51100000000E-03 0. -1.
         11   -1    0    0    0    0 -0.00000000000E+00 -0.00000000000E+00 -0.45593999997E+02  0.45594000000E+02  0.51100000000E-03 0.  1.
    9900012    2    1    2    0    0  0.40088458877E+00  0.10699259603E+01  0.29617846188E+00  0.90007673056E+02  0.89999933540E+02 0.  0.
         12    1    1    2    0    0 -0.40088458877E+00 -0.10699259603E+01 -0.29617846188E+00  0.11803269442E+01  0.00000000000E+00 0. -1.
         11    1    3    3    0    0  0.64651420222E+01 -0.35488275092E+02 -0.20928258260E+02  0.41703809472E+02  0.51100000000E-03 0. -1.
        -11    1    3    3    0    0  0.54920724141E+01  0.21154571290E+01  0.73474752218E+01  0.94140007788E+01  0.51100000000E-03 0.  1.
        -12    1    3    3    0    0 -0.11556329848E+02  0.34442743924E+02  0.13876961500E+02  0.38889862805E+02  0.00000000000E+00 0.  1.
</event>
<event>
 7    1  0.3707147E-015  0.9000766E+02  0.7816164E-02  0.1186339E+00
        -11   -1    0    0    0    0  0.00000000000E+00  0.00000000000E+00  0.45593999997E+02  0.45594000000E+02  0.51100000000E-03 0.  1.
         11   -1    0    0    0    0 -0.00000000000E+00 -0.00000000000E+00 -0.45593999997E+02  0.45594000000E+02  0.51100000000E-03 0. -1.
    9900012    2    1    2    0    0  0.16754539874E-01  0.59766483688E+00  0.10177026027E+01  0.90007659981E+02  0.89999920293E+02 0.  0.
         12    1    1    2    0    0 -0.16754539874E-01 -0.59766483688E+00 -0.10177026027E+01  0.11803400185E+01  0.00000000000E+00 0. -1.
         11    1    3    3    0    0  0.17965019288E+02  0.33803076941E+02  0.45081287912E+01  0.38544949788E+02  0.51100000000E-03 0. -1.
        -11    1    3    3    0    0 -0.11792583485E+01  0.41731282315E+01  0.78378984937E+01  0.89575835217E+01  0.51100000000E-03 0.  1.
        -12    1    3    3    0    0 -0.16769006400E+02 -0.37378540336E+02 -0.11328324682E+02  0.42505126672E+02  0.00000000000E+00 0.  1.
</event>
<event>
 7    1  0.3707147E-015  0.9000771E+02  0.7816164E-02  0.1186339E+00
        -11   -1    0    0    0    0  0.00000000000E+00  0.00000000000E+00  0.45593999997E+02  0.45594000000E+02  0.51100000000E-03 0. -1.
         11   -1    0    0    0    0 -0.00000000000E+00 -0.00000000000E+00 -0.45593999997E+02  0.45594000000E+02  0.51100000000E-03 0.  1.
    9900012    2    1    2    0    0  0.36199048090E+00 -0.10887803083E+01 -0.27676083281E+00  0.90007713498E+02  0.89999974516E+02 0.  0.
         12    1    1    2    0    0 -0.36199048090E+00  0.10887803083E+01  0.27676083281E+00  0.11802865019E+01  0.00000000000E+00 0. -1.
         11    1    3    3    0    0 -0.11025142752E+02  0.53818821476E+01  0.30760823569E+02  0.33117166169E+02  0.51100000000E-03 0. -1.
        -11    1    3    3    0    0  0.54383295710E+01  0.66501697367E+00  0.11825081255E+02  0.13032659861E+02  0.51100000000E-03 0.  1.
        -12    1    3    3    0    0  0.59488036622E+01 -0.71356794296E+01 -0.42862665657E+02  0.43857887468E+02  0.00000000000E+00 0.  1.
</event>
<event>
 7    1  0.3707147E-015  0.9000771E+02  0.7816164E-02  0.1186339E+00
        -11   -1    0    0    0    0  0.00000000000E+00  0.00000000000E+00  0.45593999997E+02  0.45594000000E+02  0.51100000000E-03 0.  1.
         11   -1    0    0    0    0 -0.00000000000E+00 -0.00000000000E+00 -0.45593999997E+02  0.45594000000E+02  0.51100000000E-03 0. -1.
    9900012    2    1    2    0    0  0.10378858949E+01 -0.30339473684E+00  0.47310536879E+00  0.90007710126E+02  0.89999971099E+02 0.  0.
         12    1    1    2    0    0 -0.10378858949E+01  0.30339473684E+00 -0.47310536879E+00  0.11802898742E+01  0.00000000000E+00 0. -1.
         11    1    3    3    0    0  0.11681720202E+02 -0.25141679602E+01 -0.64459964576E+00  0.11966584157E+02  0.51100000000E-03 0. -1.
        -11    1    3    3    0    0  0.31315759323E+02 -0.10205272644E+02  0.76091984721E+01  0.33804204966E+02  0.51100000000E-03 0.  1.
         12    1    3    3    0    0 -0.41959593630E+02  0.12416045868E+02 -0.64914934575E+01  0.44236921004E+02  0.00000000000E+00 0. -1.
</event>
<event>
 7    1  0.3707147E-015  0.9000775E+02  0.7816164E-02  0.1186339E+00
        -11   -1    0    0    0    0  0.00000000000E+00  0.00000000000E+00  0.45593999997E+02  0.45594000000E+02  0.51100000000E-03 0.  1.
         11   -1    0    0    0    0 -0.00000000000E+00 -0.00000000000E+00 -0.45593999997E+02  0.45594000000E+02  0.51100000000E-03 0. -1.
    9900012    2    1    2    0    0  0.69613280276E+00  0.26136067758E+00  0.91656230234E+00  0.90007747172E+02  0.90000008635E+02 0.  0.
         12    1    1    2    0    0 -0.69613280276E+00 -0.26136067758E+00 -0.91656230234E+00  0.11802528275E+01  0.00000000000E+00 0. -1.
         11    1    3    3    0    0 -0.15283811339E+02  0.33881766283E+02 -0.58420905844E+01  0.37625775715E+02  0.51100000000E-03 0. -1.
        -11    1    3    3    0    0 -0.70685001825E+01  0.62574759394E+00 -0.58745131526E+01  0.92122288249E+01  0.51100000000E-03 0.  1.
        -12    1    3    3    0    0  0.23048444324E+02 -0.34246153200E+02  0.12633166039E+02  0.43169742632E+02  0.00000000000E+00 0.  1.
</event>
<event>
 7    1  0.3707147E-015  0.9000780E+02  0.7816164E-02  0.1186339E+00
        -11   -1    0    0    0    0  0.00000000000E+00  0.00000000000E+00  0.45593999997E+02  0.45594000000E+02  0.51100000000E-03 0. -1.
         11   -1    0    0    0    0 -0.00000000000E+00 -0.00000000000E+00 -0.45593999997E+02  0.45594000000E+02  0.51100000000E-03 0.  1.
    9900012    2    1    2    0    0 -0.10809430339E+01 -0.46359616261E+00 -0.97584608052E-01  0.90007795780E+02  0.90000057885E+02 0.  0.
         12    1    1    2    0    0  0.10809430339E+01  0.46359616261E+00  0.97584608052E-01  0.11802042198E+01  0.00000000000E+00 0. -1.
         11    1    3    3    0    0 -0.26013472309E+01 -0.38472596212E+01 -0.65320505389E+01  0.80147425730E+01  0.51100000000E-03 0. -1.
        -11    1    3    3    0    0 -0.11563556015E+02 -0.21085738062E+02 -0.28557636794E+02  0.37334471964E+02  0.51100000000E-03 0.  1.
         12    1    3    3    0    0  0.13083960212E+02  0.24469401520E+02  0.34992102725E+02  0.44658581243E+02  0.00000000000E+00 0. -1.
</event>
<event>
 7    1  0.3992610E-015  0.9000766E+02  0.7816164E-02  0.1186339E+00
        -11   -1    0    0    0    0  0.00000000000E+00  0.00000000000E+00  0.45593999997E+02  0.45594000000E+02  0.51100000000E-03 0.  1.
         11   -1    0    0    0    0 -0.00000000000E+00 -0.00000000000E+00 -0.45593999997E+02  0.45594000000E+02  0.51100000000E-03 0. -1.
    9900012    2    1    2    0    0 -0.40759422136E+00 -0.10316047269E+01  0.40356990217E+00  0.90007656818E+02  0.89999917088E+02 0.  0.
         12    1    1    2    0    0  0.40759422136E+00  0.10316047269E+01 -0.40356990217E+00  0.11803431822E+01  0.00000000000E+00 0. -1.
         11    1    3    3    0    0 -0.59183638917E+01 -0.65361064765E+01  0.35662584201E+01  0.95113573378E+01  0.51100000000E-03 0. -1.
        -11    1    3    3    0    0  0.28836761979E+02 -0.19633363908E+02  0.18941719594E+02  0.39696556037E+02  0.51100000000E-03 0.  1.
         12    1    3    3    0    0 -0.23325992308E+02  0.25137865658E+02 -0.22104408112E+02  0.40799743443E+02  0.00000000000E+00 0. -1.
</event>
<event>
 7    1  0.3707147E-015  0.9000781E+02  0.7816164E-02  0.1186339E+00
        -11   -1    0    0    0    0  0.00000000000E+00  0.00000000000E+00  0.45593999997E+02  0.45594000000E+02  0.51100000000E-03 0. -1.
         11   -1    0    0    0    0 -0.00000000000E+00 -0.00000000000E+00 -0.45593999997E+02  0.45594000000E+02  0.51100000000E-03 0.  1.
    9900012    2    1    2    0    0  0.44968128637E+00  0.15459315725E+00 -0.10801530359E+01  0.90007812352E+02  0.90000074675E+02 0.  0.
         12    1    1    2    0    0 -0.44968128637E+00 -0.15459315725E+00  0.10801530359E+01  0.11801876480E+01  0.00000000000E+00 0. -1.
         11    1    3    3    0    0  0.83488377434E+01 -0.13532338904E+02 -0.27737150464E+01  0.16140656222E+02  0.51100000000E-03 0. -1.
        -11    1    3    3    0    0  0.65758855730E+01 -0.35352468823E+01  0.33826964108E+02  0.34641070171E+02  0.51100000000E-03 0.  1.
        -12    1    3    3    0    0 -0.14475042030E+02  0.17222178943E+02 -0.32133402097E+02  0.39226085959E+02  0.00000000000E+00 0.  1.
</event>
<event>
 7    1  0.3707147E-015  0.9000776E+02  0.7816164E-02  0.1186339E+00
        -11   -1    0    0    0    0  0.00000000000E+00  0.00000000000E+00  0.45593999997E+02  0.45594000000E+02  0.51100000000E-03 0.  1.
         11   -1    0    0    0    0 -0.00000000000E+00 -0.00000000000E+00 -0.45593999997E+02  0.45594000000E+02  0.51100000000E-03 0. -1.
    9900012    2    1    2    0    0 -0.45600808744E+00  0.33879057275E+00  0.10345274151E+01  0.90007758753E+02  0.90000020369E+02 0.  0.
         12    1    1    2    0    0  0.45600808744E+00 -0.33879057275E+00 -0.10345274151E+01  0.11802412468E+01  0.00000000000E+00 0. -1.
         11    1    3    3    0    0 -0.74319092627E+01  0.27432346265E+01 -0.19537212411E+01  0.81593895884E+01  0.51100000000E-03 0. -1.
        -11    1    3    3    0    0 -0.27276821074E+01 -0.41397787803E+02  0.37671329543E+01  0.41658232987E+02  0.51100000000E-03 0.  1.
         12    1    3    3    0    0  0.97035832827E+01  0.38993343749E+02 -0.77888429810E+00  0.40190136178E+02  0.00000000000E+00 0. -1.
</event>
<event>
 7    1  0.3707147E-015  0.9000772E+02  0.7816164E-02  0.1186339E+00
        -11   -1    0    0    0    0  0.00000000000E+00  0.00000000000E+00  0.45593999997E+02  0.45594000000E+02  0.51100000000E-03 0. -1.
         11   -1    0    0    0    0 -0.00000000000E+00 -0.00000000000E+00 -0.45593999997E+02  0.45594000000E+02  0.51100000000E-03 0.  1.
    9900012    2    1    2    0    0  0.72810826159E+00  0.22579112720E+00 -0.90106971488E+00  0.90007724649E+02  0.89999985814E+02 0.  0.
         12    1    1    2    0    0 -0.72810826159E+00 -0.22579112720E+00  0.90106971488E+00  0.11802753513E+01  0.00000000000E+00 0. -1.
         11    1    3    3    0    0  0.29283381874E+02  0.85645178921E+01  0.25251951452E+02  0.39604652165E+02  0.51100000000E-03 0. -1.
        -11    1    3    3    0    0 -0.59608457412E+00  0.86757434679E+01 -0.31138471415E+00  0.87017700638E+01  0.51100000000E-03 0.  1.
        -12    1    3    3    0    0 -0.27959189038E+02 -0.17014470233E+02 -0.25841636453E+02  0.41701302420E+02  0.00000000000E+00 0.  1.
</event>
<event>
 8    1  0.3707147E-015  0.9000778E+02  0.7816164E-02  0.1186339E+00
        -11   -1    0    0    0    0  0.00000000000E+00  0.00000000000E+00  0.45593999997E+02  0.45594000000E+02  0.51100000000E-03 0. -1.
         11   -1    0    0    0    0 -0.00000000000E+00 -0.00000000000E+00 -0.45593999997E+02  0.45594000000E+02  0.51100000000E-03 0.  1.
    9900012    2    1    2    0    0 -0.78556685253E+00  0.54216439199E+00 -0.69416656434E+00  0.90007777679E+02  0.90000039544E+02 0.  0.
         23    2    3    3    0    0 -0.10258074727E+02 -0.13060140782E+02 -0.94172182301E+01  0.71276981064E+02  0.68672619406E+02 0.  0.
         12    1    1    2    0    0  0.78556685253E+00 -0.54216439199E+00  0.69416656434E+00  0.11802223209E+01  0.00000000000E+00 0. -1.
         11    1    4    4    0    0 -0.33363860545E+02 -0.27639788938E+02 -0.53442011217E+01  0.43653930051E+02  0.51100000000E-03 0. -1.
        -11    1    4    4    0    0  0.23105785818E+02  0.14579648156E+02 -0.40730171084E+01  0.27623051013E+02  0.51100000000E-03 0.  1.
        -12    1    3    3    0    0  0.94725078740E+01  0.13602305174E+02  0.87230516658E+01  0.18730796615E+02  0.00000000000E+00 0.  1.
</event>
<event>
 7    1  0.3707147E-015  0.9000778E+02  0.7816164E-02  0.1186339E+00
        -11   -1    0    0    0    0  0.00000000000E+00  0.00000000000E+00  0.45593999997E+02  0.45594000000E+02  0.51100000000E-03 0.  1.
         11   -1    0    0    0    0 -0.00000000000E+00 -0.00000000000E+00 -0.45593999997E+02  0.45594000000E+02  0.51100000000E-03 0. -1.
    9900012    2    1    2    0    0 -0.93318421432E+00 -0.38164833862E-02  0.72255002045E+00  0.90007777192E+02  0.90000039051E+02 0.  0.
         12    1    1    2    0    0  0.93318421432E+00  0.38164833862E-02 -0.72255002045E+00  0.11802228075E+01  0.00000000000E+00 0. -1.
         11    1    3    3    0    0  0.86592837364E+01 -0.37362576670E+01  0.48780081560E+01  0.10617804858E+02  0.51100000000E-03 0. -1.
        -11    1    3    3    0    0  0.28375986948E+02  0.19370367756E+02  0.10282782753E+02  0.35862841544E+02  0.51100000000E-03 0.  1.
         12    1    3    3    0    0 -0.37968454898E+02 -0.15637926572E+02 -0.14438240888E+02  0.43527130790E+02  0.00000000000E+00 0. -1.
</event>
<event>
 7    1  0.3707147E-015  0.9000768E+02  0.7816164E-02  0.1186339E+00
        -11   -1    0    0    0    0  0.00000000000E+00  0.00000000000E+00  0.45593999997E+02  0.45594000000E+02  0.51100000000E-03 0.  1.
         11   -1    0    0    0    0 -0.00000000000E+00 -0.00000000000E+00 -0.45593999997E+02  0.45594000000E+02  0.51100000000E-03 0. -1.
    9900012    2    1    2    0    0 -0.18057335068E+00 -0.77419522011E+00  0.87245281241E+00  0.90007678483E+02  0.89999939039E+02 0.  0.
         12    1    1    2    0    0  0.18057335068E+00  0.77419522011E+00 -0.87245281241E+00  0.11803215171E+01  0.00000000000E+00 0. -1.
         11    1    3    3    0    0  0.46817298207E+01  0.48496682282E+01 -0.44247570702E+01  0.80632717571E+01  0.51100000000E-03 0. -1.
        -11    1    3    3    0    0 -0.83505826401E+01  0.36462848640E+02  0.11781874697E+02  0.39218415739E+02  0.51100000000E-03 0.  1.
         12    1    3    3    0    0  0.34882794688E+01 -0.42086712089E+02 -0.64846648148E+01  0.42725990987E+02  0.00000000000E+00 0. -1.
</event>
<event>
 7    1  0.3707147E-015  0.9000777E+02  0.7816164E-02  0.1186339E+00
        -11   -1    0    0    0    0  0.00000000000E+00  0.00000000000E+00  0.45593999997E+02  0.45594000000E+02  0.51100000000E-03 0.  1.
         11   -1    0    0    0    0 -0.00000000000E+00 -0.00000000000E+00 -0.45593999997E+02  0.45594000000E+02  0.51100000000E-03 0. -1.
    9900012    2    1    2    0    0  0.53236405517E+00 -0.28171353708E+00 -0.10149749095E+01  0.90007767789E+02  0.90000029524E+02 0.  0.
         12    1    1    2    0    0 -0.53236405517E+00  0.28171353708E+00  0.10149749095E+01  0.11802322107E+01  0.00000000000E+00 0. -1.
         11    1    3    3    0    0 -0.19371188921E+01 -0.99757213010E+01  0.35484747440E+01  0.10763787361E+02  0.51100000000E-03 0. -1.
        -11    1    3    3    0    0 -0.20697382787E+02 -0.27165211712E+02 -0.94515238802E+01  0.35435316925E+02  0.51100000000E-03 0.  1.
         12    1    3    3    0    0  0.23166865735E+02  0.36859219476E+02  0.48880742267E+01  0.43808663504E+02  0.00000000000E+00 0. -1.
</event>
<event>
 7    1  0.3707147E-015  0.9000778E+02  0.7816164E-02  0.1186339E+00
        -11   -1    0    0    0    0  0.00000000000E+00  0.00000000000E+00  0.45593999997E+02  0.45594000000E+02  0.51100000000E-03 0.  1.
         11   -1    0    0    0    0 -0.00000000000E+00 -0.00000000000E+00 -0.45593999997E+02  0.45594000000E+02  0.51100000000E-03 0. -1.
    9900012    2    1    2    0    0 -0.37642717542E+00 -0.64623269075E+00  0.91302410632E+00  0.90007776662E+02  0.90000038514E+02 0.  0.
         12    1    1    2    0    0  0.37642717542E+00  0.64623269075E+00 -0.91302410632E+00  0.11802233381E+01  0.00000000000E+00 0. -1.
         11    1    3    3    0    0  0.10590619632E+02 -0.27656255226E+01  0.41168713472E+00  0.10953510637E+02  0.51100000000E-03 0. -1.
        -11    1    3    3    0    0  0.36617538796E+01 -0.15845905355E+02  0.34367683508E+02  0.38021557411E+02  0.51100000000E-03 0.  1.
         12    1    3    3    0    0 -0.14628800687E+02  0.17965298187E+02 -0.33866346536E+02  0.41032708614E+02  0.00000000000E+00 0. -1.
</event>
<event>
 7    1  0.3707147E-015  0.9000769E+02  0.7816164E-02  0.1186339E+00
        -11   -1    0    0    0    0  0.00000000000E+00  0.00000000000E+00  0.45593999997E+02  0.45594000000E+02  0.51100000000E-03 0.  1.
         11   -1    0    0    0    0 -0.00000000000E+00 -0.00000000000E+00 -0.45593999997E+02  0.45594000000E+02  0.51100000000E-03 0. -1.
    9900012    2    1    2    0    0 -0.17318635454E+00  0.11250780194E+01 -0.31197518869E+00  0.90007693861E+02  0.89999954620E+02 0.  0.
         12    1    1    2    0    0  0.17318635454E+00 -0.11250780194E+01  0.31197518869E+00  0.11803061389E+01  0.00000000000E+00 0. -1.
         11    1    3    3    0    0 -0.19584398646E+01  0.90699304983E+01 -0.11719427280E+01  0.93526774758E+01  0.51100000000E-03 0. -1.
        -11    1    3    3    0    0  0.23058615050E+02  0.28216803127E+02  0.98492964840E+01  0.37747799250E+02  0.51100000000E-03 0.  1.
         12    1    3    3    0    0 -0.21273361540E+02 -0.36161655606E+02 -0.89893289446E+01  0.42907217135E+02  0.00000000000E+00 0. -1.
</event>
<event>
 7    1  0.3707147E-015  0.9000773E+02  0.7816164E-02  0.1186339E+00
        -11   -1    0    0    0    0  0.00000000000E+00  0.00000000000E+00  0.45593999997E+02  0.45594000000E+02  0.51100000000E-03 0.  1.
         11   -1    0    0    0    0 -0.00000000000E+00 -0.00000000000E+00 -0.45593999997E+02  0.45594000000E+02  0.51100000000E-03 0. -1.
    9900012    2    1    2    0    0  0.73320605677E+00 -0.71148319758E+00  0.59096717913E+00  0.90007728138E+02  0.89999989349E+02 0.  0.
         12    1    1    2    0    0 -0.73320605677E+00  0.71148319758E+00 -0.59096717913E+00  0.11802718623E+01  0.00000000000E+00 0. -1.
         11    1    3    3    0    0  0.43146223140E+01 -0.23056146213E+02 -0.17528032021E+02  0.29281969720E+02  0.51100000000E-03 0. -1.
        -11    1    3    3    0    0 -0.41340419458E+01 -0.17250385386E+02  0.97876401707E+01  0.20259911134E+02  0.51100000000E-03 0.  1.
        -12    1    3    3    0    0  0.55262568850E+00  0.39595048402E+02  0.83313590293E+01  0.40465847283E+02  0.00000000000E+00 0.  1.
</event>
<event>
 7    1  0.3707147E-015  0.9000772E+02  0.7816164E-02  0.1186339E+00
        -11   -1    0    0    0    0  0.00000000000E+00  0.00000000000E+00  0.45593999997E+02  0.45594000000E+02  0.51100000000E-03 0. -1.
         11   -1    0    0    0    0 -0.00000000000E+00 -0.00000000000E+00 -0.45593999997E+02  0.45594000000E+02  0.51100000000E-03 0.  1.
    9900012    2    1    2    0    0  0.98257384457E+00 -0.37463037771E+00  0.53596070205E+00  0.90007723272E+02  0.89999984419E+02 0.  0.
         12    1    1    2    0    0 -0.98257384457E+00  0.37463037771E+00 -0.53596070205E+00  0.11802767278E+01  0.00000000000E+00 0. -1.
         11    1    3    3    0    0 -0.35601784805E+02 -0.19628563703E+02 -0.92704939334E+01  0.41697837503E+02  0.51100000000E-03 0. -1.
        -11    1    3    3    0    0  0.78914229287E+01 -0.53203410209E+01  0.23458122206E+01  0.98022150381E+01  0.51100000000E-03 0.  1.
        -12    1    3    3    0    0  0.28692935721E+02  0.24574274346E+02  0.74606424148E+01  0.38507670732E+02  0.00000000000E+00 0.  1.
</event>
<event>
 7    1  0.3707147E-015  0.9000764E+02  0.7816164E-02  0.1186339E+00
        -11   -1    0    0    0    0  0.00000000000E+00  0.00000000000E+00  0.45593999997E+02  0.45594000000E+02  0.51100000000E-03 0.  1.
         11   -1    0    0    0    0 -0.00000000000E+00 -0.00000000000E+00 -0.45593999997E+02  0.45594000000E+02  0.51100000000E-03 0. -1.
    9900012    2    1    2    0    0 -0.99768583177E+00 -0.58581283739E+00 -0.23386540566E+00  0.90007641272E+02  0.89999901336E+02 0.  0.
         12    1    1    2    0    0  0.99768583177E+00  0.58581283739E+00  0.23386540566E+00  0.11803587282E+01  0.00000000000E+00 0. -1.
         11    1    3    3    0    0  0.36113744400E+02  0.75821468381E+01  0.22654430873E+01  0.36970579085E+02  0.51100000000E-03 0. -1.
        -11    1    3    3    0    0  0.11172870129E+01  0.10371665573E+02  0.50500670246E+00  0.10443888599E+02  0.51100000000E-03 0.  1.
        -12    1    3    3    0    0 -0.38228717244E+02 -0.18539625249E+02 -0.30043151954E+01  0.42593173588E+02  0.00000000000E+00 0.  1.
</event>
<event>
 7    1  0.3707147E-015  0.9000732E+02  0.7816164E-02  0.1186340E+00
        -11   -1    0    0    0    0  0.00000000000E+00  0.00000000000E+00  0.45593999997E+02  0.45594000000E+02  0.51100000000E-03 0.  1.
         11   -1    0    0    0    0 -0.00000000000E+00 -0.00000000000E+00 -0.45593999997E+02  0.45594000000E+02  0.51100000000E-03 0. -1.
    9900012    2    1    2    0    0 -0.60076787105E+00 -0.17108805773E+00  0.10019005666E+01  0.90007323116E+02  0.89999578980E+02 0.  0.
         12    1    1    2    0    0  0.60076787105E+00  0.17108805773E+00 -0.10019005666E+01  0.11806768837E+01  0.00000000000E+00 0. -1.
         11    1    3    3    0    0 -0.16811171078E+02 -0.29295519926E+02 -0.25336976502E+02  0.42223279589E+02  0.51100000000E-03 0. -1.
        -11    1    3    3    0    0  0.15460462401E+01  0.12631965967E+02 -0.86325717945E+00  0.12755470841E+02  0.51100000000E-03 0.  1.
        -12    1    3    3    0    0  0.14664356967E+02  0.16492465901E+02  0.27202134248E+02  0.35028572686E+02  0.00000000000E+00 0.  1.
</event>
<event>
 7    1  0.3707147E-015  0.9000770E+02  0.7816164E-02  0.1186339E+00
        -11   -1    0    0    0    0  0.00000000000E+00  0.00000000000E+00  0.45593999997E+02  0.45594000000E+02  0.51100000000E-03 0.  1.
         11   -1    0    0    0    0 -0.00000000000E+00 -0.00000000000E+00 -0.45593999997E+02  0.45594000000E+02  0.51100000000E-03 0. -1.
    9900012    2    1    2    0    0 -0.14145540404E+00  0.75094384299E+00  0.89954086698E+00  0.90007703403E+02  0.89999964287E+02 0.  0.
         12    1    1    2    0    0  0.14145540404E+00 -0.75094384299E+00 -0.89954086698E+00  0.11802965975E+01  0.00000000000E+00 0. -1.
         11    1    3    3    0    0  0.36964810481E+01  0.32593289054E+02 -0.14858778513E+02  0.36010689561E+02  0.51100000000E-03 0. -1.
        -11    1    3    3    0    0  0.21431433597E+01  0.89469387324E+01 -0.14694382882E+01  0.93166531161E+01  0.51100000000E-03 0.  1.
        -12    1    3    3    0    0 -0.59810798118E+01 -0.40789283943E+02  0.17227757668E+02  0.44680360726E+02  0.00000000000E+00 0.  1.
</event>
<event>
 7    1  0.3707147E-015  0.9000778E+02  0.7816164E-02  0.1186339E+00
        -11   -1    0    0    0    0  0.00000000000E+00  0.00000000000E+00  0.45593999997E+02  0.45594000000E+02  0.51100000000E-03 0.  1.
         11   -1    0    0    0    0 -0.00000000000E+00 -0.00000000000E+00 -0.45593999997E+02  0.45594000000E+02  0.51100000000E-03 0. -1.
    9900012    2    1    2    0    0 -0.67609300205E+00 -0.91432535826E+00  0.31595208976E+00  0.90007780389E+02  0.90000042290E+02 0.  0.
         12    1    1    2    0    0  0.67609300205E+00  0.91432535826E+00 -0.31595208976E+00  0.11802196114E+01  0.00000000000E+00 0. -1.
         11    1    3    3    0    0  0.16781731382E+01 -0.78176478149E+01  0.67922333561E+01  0.10491249528E+02  0.51100000000E-03 0. -1.
        -11    1    3    3    0    0 -0.15515901382E+02 -0.16925013453E+02  0.27600068278E+02  0.35902131487E+02  0.51100000000E-03 0.  1.
         12    1    3    3    0    0  0.13161635242E+02  0.23828335910E+02 -0.34076349544E+02  0.43614399374E+02  0.00000000000E+00 0. -1.
</event>
<event>
 7    1  0.3707147E-015  0.9000799E+02  0.7816164E-02  0.1186339E+00
        -11   -1    0    0    0    0  0.00000000000E+00  0.00000000000E+00  0.45593999997E+02  0.45594000000E+02  0.51100000000E-03 0.  1.
         11   -1    0    0    0    0 -0.00000000000E+00 -0.00000000000E+00 -0.45593999997E+02  0.45594000000E+02  0.51100000000E-03 0. -1.
    9900012    2    1    2    0    0 -0.85167317324E+00 -0.65263544370E-01  0.81413955821E+00  0.90007987396E+02  0.90000252030E+02 0.  0.
         12    1    1    2    0    0  0.85167317324E+00  0.65263544370E-01 -0.81413955821E+00  0.11800126035E+01  0.00000000000E+00 0. -1.
         11    1    3    3    0    0  0.24749793675E+02 -0.21466859677E+02 -0.16387390419E+02  0.36632293354E+02  0.51100000000E-03 0. -1.
        -11    1    3    3    0    0  0.90325731214E+01 -0.56849710634E+00  0.41854724574E+00  0.90601185540E+01  0.51100000000E-03 0.  1.
        -12    1    3    3    0    0 -0.34634039970E+02  0.21970093239E+02  0.16782982731E+02  0.44315575489E+02  0.00000000000E+00 0.  1.
</event>
<event>
 7    1  0.3707147E-015  0.9000770E+02  0.7816164E-02  0.1186339E+00
        -11   -1    0    0    0    0  0.00000000000E+00  0.00000000000E+00  0.45593999997E+02  0.45594000000E+02  0.51100000000E-03 0. -1.
         11   -1    0    0    0    0 -0.00000000000E+00 -0.00000000000E+00 -0.45593999997E+02  0.45594000000E+02  0.51100000000E-03 0.  1.
    9900012    2    1    2    0    0  0.12883639091E+00  0.96384724483E+00  0.66896073202E+00  0.90007699704E+02  0.89999960540E+02 0.  0.
         12    1    1    2    0    0 -0.12883639091E+00 -0.96384724483E+00 -0.66896073202E+00  0.11803002957E+01  0.00000000000E+00 0. -1.
         11    1    3    3    0    0 -0.10820525019E+02  0.24690453024E+01  0.95066709705E+00  0.11139286987E+02  0.51100000000E-03 0. -1.
        -11    1    3    3    0    0  0.26315518310E+02  0.31575332329E+02  0.69393993294E+01  0.41685289718E+02  0.51100000000E-03 0.  1.
         12    1    3    3    0    0 -0.15366156900E+02 -0.33080530386E+02 -0.72211056945E+01  0.37183122999E+02  0.00000000000E+00 0. -1.
</event>
<event>
 7    1  0.3707147E-015  0.9000770E+02  0.7816164E-02  0.1186339E+00
        -11   -1    0    0    0    0  0.00000000000E+00  0.00000000000E+00  0.45593999997E+02  0.45594000000E+02  0.51100000000E-03 0.  1.
         11   -1    0    0    0    0 -0.00000000000E+00 -0.00000000000E+00 -0.45593999997E+02  0.45594000000E+02  0.51100000000E-03 0. -1.
    9900012    2    1    2    0    0 -0.30391069359E+00 -0.11337677887E+01 -0.12374397554E+00  0.90007701868E+02  0.89999962733E+02 0.  0.
         12    1    1    2    0    0  0.30391069359E+00  0.11337677887E+01  0.12374397554E+00  0.11802981318E+01  0.00000000000E+00 0. -1.
         11    1    3    3    0    0 -0.97374149773E+01 -0.36693882403E+02 -0.80671194563E+01  0.38811553342E+02  0.51100000000E-03 0. -1.
        -11    1    3    3    0    0 -0.52329894409E+01 -0.34985031989E+01  0.70691029154E+01  0.94655121051E+01  0.51100000000E-03 0.  1.
        -12    1    3    3    0    0  0.14666493725E+02  0.39058617813E+02  0.87427256543E+00  0.41730636421E+02  0.00000000000E+00 0.  1.
</event>
<event>
 7    1  0.3707147E-015  0.9000779E+02  0.7816164E-02  0.1186339E+00
        -11   -1    0    0    0    0  0.00000000000E+00  0.00000000000E+00  0.45593999997E+02  0.45594000000E+02  0.51100000000E-03 0.  1.
         11   -1    0    0    0    0 -0.00000000000E+00 -0.00000000000E+00 -0.45593999997E+02  0.45594000000E+02  0.51100000000E-03 0. -1.
    9900012    2    1    2    0    0  0.60634429434E+00 -0.92429108267E+00  0.41342423689E+00  0.90007793659E+02  0.90000055735E+02 0.  0.
         12    1    1    2    0    0 -0.60634429434E+00  0.92429108267E+00 -0.41342423689E+00  0.11802063415E+01  0.00000000000E+00 0. -1.
         11    1    3    3    0    0 -0.54561917276E+01 -0.65776757089E+01  0.27205031172E+01  0.89686667555E+01  0.51100000000E-03 0. -1.
        -11    1    3    3    0    0 -0.29003793567E+02  0.12840931048E+02 -0.23467766641E+02  0.39456883086E+02  0.51100000000E-03 0.  1.
         12    1    3    3    0    0  0.35066329589E+02 -0.71875464221E+01  0.21160687761E+02  0.41582243817E+02  0.00000000000E+00 0. -1.
</event>
<event>
 7    1  0.3707147E-015  0.9000772E+02  0.7816164E-02  0.1186339E+00
        -11   -1    0    0    0    0  0.00000000000E+00  0.00000000000E+00  0.45593999997E+02  0.45594000000E+02  0.51100000000E-03 0.  1.
         11   -1    0    0    0    0 -0.00000000000E+00 -0.00000000000E+00 -0.45593999997E+02  0.45594000000E+02  0.51100000000E-03 0. -1.
    9900012    2    1    2    0    0 -0.57177567285E+00  0.82274216934E+00  0.62388342066E+00  0.90007719262E+02  0.89999980357E+02 0.  0.
         12    1    1    2    0    0  0.57177567285E+00 -0.82274216934E+00 -0.62388342066E+00  0.11802807377E+01  0.00000000000E+00 0. -1.
         11    1    3    3    0    0  0.34917639454E+01 -0.66678391514E+01 -0.30171797886E+01  0.81089992316E+01  0.51100000000E-03 0. -1.
        -11    1    3    3    0    0  0.64231376616E+01  0.37754770756E+02 -0.18925039569E+02  0.42718105473E+02  0.51100000000E-03 0.  1.
         12    1    3    3    0    0 -0.10486677280E+02 -0.30264189435E+02  0.22566102778E+02  0.39180614558E+02  0.00000000000E+00 0. -1.
</event>
<event>
 7    1  0.3707147E-015  0.9000772E+02  0.7816164E-02  0.1186339E+00
        -11   -1    0    0    0    0  0.00000000000E+00  0.00000000000E+00  0.45593999997E+02  0.45594000000E+02  0.51100000000E-03 0. -1.
         11   -1    0    0    0    0 -0.00000000000E+00 -0.00000000000E+00 -0.45593999997E+02  0.45594000000E+02  0.51100000000E-03 0.  1.
    9900012    2    1    2    0    0  0.73192748195E+00 -0.91947006227E+00 -0.10912796123E+00  0.90007723784E+02  0.89999984938E+02 0.  0.
         12    1    1    2    0    0 -0.73192748195E+00  0.91947006227E+00  0.10912796123E+00  0.11802762161E+01  0.00000000000E+00 0. -1.
         11    1    3    3    0    0  0.45400656724E+01  0.36190468342E+01 -0.80421879916E+01  0.99189961313E+01  0.51100000000E-03 0. -1.
        -11    1    3    3    0    0 -0.23782164024E+02 -0.91578959170E+01 -0.28531727684E+02  0.38255952062E+02  0.51100000000E-03 0.  1.
         12    1    3    3    0    0  0.19974025834E+02  0.46193790206E+01  0.36464787714E+02  0.41832775590E+02  0.00000000000E+00 0. -1.
</event>
<event>
 7    1  0.3707147E-015  0.9000778E+02  0.7816164E-02  0.1186339E+00
        -11   -1    0    0    0    0  0.00000000000E+00  0.00000000000E+00  0.45593999997E+02  0.45594000000E+02  0.51100000000E-03 0.  1.
         11   -1    0    0    0    0 -0.00000000000E+00 -0.00000000000E+00 -0.45593999997E+02  0.45594000000E+02  0.51100000000E-03 0. -1.
    9900012    2    1    2    0    0  0.10234910339E+01  0.28737388494E+00 -0.51264903723E+00  0.90007776851E+02  0.90000038705E+02 0.  0.
         12    1    1    2    0    0 -0.10234910339E+01 -0.28737388494E+00  0.51264903723E+00  0.11802231491E+01  0.00000000000E+00 0. -1.
         11    1    3    3    0    0 -0.14556906543E+02 -0.23489715044E+02 -0.27593470934E+02  0.39052143084E+02  0.51100000000E-03 0. -1.
        -11    1    3    3    0    0 -0.86767472037E+01 -0.61857246000E+00  0.43913889251E+01  0.97443763720E+01  0.51100000000E-03 0.  1.
        -12    1    3    3    0    0  0.24257144780E+02  0.24395661389E+02  0.22689432972E+02  0.41211257395E+02  0.00000000000E+00 0.  1.
</event>
<event>
 7    1  0.3707147E-015  0.9000779E+02  0.7816164E-02  0.1186339E+00
        -11   -1    0    0    0    0  0.00000000000E+00  0.00000000000E+00  0.45593999997E+02  0.45594000000E+02  0.51100000000E-03 0.  1.
         11   -1    0    0    0    0 -0.00000000000E+00 -0.00000000000E+00 -0.45593999997E+02  0.45594000000E+02  0.51100000000E-03 0. -1.
    9900012    2    1    2    0    0 -0.63899462444E+00 -0.67963831176E-01  0.98992946331E+00  0.90007790885E+02  0.90000052925E+02 0.  0.
         12    1    1    2    0    0  0.63899462444E+00  0.67963831176E-01 -0.98992946331E+00  0.11802091148E+01  0.00000000000E+00 0. -1.
         11    1    3    3    0    0 -0.18193293429E+02 -0.27407942298E+02 -0.12406391838E+02  0.35158352998E+02  0.51100000000E-03 0. -1.
        -11    1    3    3    0    0 -0.28229703781E+01 -0.99137288448E+01 -0.52539800869E-01  0.10307955280E+02  0.51100000000E-03 0.  1.
        -12    1    3    3    0    0  0.20377269183E+02  0.37253707312E+02  0.13448861103E+02  0.44541482607E+02  0.00000000000E+00 0.  1.
</event>
<event>
 7    1  0.3707147E-015  0.9000798E+02  0.7816164E-02  0.1186339E+00
        -11   -1    0    0    0    0  0.00000000000E+00  0.00000000000E+00  0.45593999997E+02  0.45594000000E+02  0.51100000000E-03 0.  1.
         11   -1    0    0    0    0 -0.00000000000E+00 -0.00000000000E+00 -0.45593999997E+02  0.45594000000E+02  0.51100000000E-03 0. -1.
    9900012    2    1    2    0    0 -0.83389060030E+00 -0.40426429713E+00  0.73050617599E+00  0.90007982022E+02  0.90000246584E+02 0.  0.
         12    1    1    2    0    0  0.83389060030E+00  0.40426429713E+00 -0.73050617599E+00  0.11800179780E+01  0.00000000000E+00 0. -1.
         11    1    3    3    0    0 -0.14575130812E+02  0.36583539233E+02 -0.14365266737E+02  0.41918381048E+02  0.51100000000E-03 0. -1.
        -11    1    3    3    0    0  0.69743010151E+01  0.48324399328E+00  0.52990017036E+01  0.87723325702E+01  0.51100000000E-03 0.  1.
        -12    1    3    3    0    0  0.67669391963E+01 -0.37471047524E+02  0.97967712090E+01  0.39317268404E+02  0.00000000000E+00 0.  1.
</event>
<event>
 7    1  0.3707147E-015  0.9000782E+02  0.7816164E-02  0.1186339E+00
        -11   -1    0    0    0    0  0.00000000000E+00  0.00000000000E+00  0.45593999997E+02  0.45594000000E+02  0.51100000000E-03 0. -1.
         11   -1    0    0    0    0 -0.00000000000E+00 -0.00000000000E+00 -0.45593999997E+02  0.45594000000E+02  0.51100000000E-03 0.  1.
    9900012    2    1    2    0    0  0.10573675832E+01  0.34754662912E+00  0.39244733754E+00  0.90007817905E+02  0.90000080301E+02 0.  0.
         12    1    1    2    0    0 -0.10573675832E+01 -0.34754662912E+00 -0.39244733754E+00  0.11801820953E+01  0.00000000000E+00 0. -1.
         11    1    3    3    0    0  0.31312471838E+02  0.23878482003E+01 -0.20469542127E+02  0.37485662150E+02  0.51100000000E-03 0. -1.
        -11    1    3    3    0    0  0.76624864657E+01 -0.39412960912E+01 -0.10610726047E+01  0.86817849000E+01  0.51100000000E-03 0.  1.
        -12    1    3    3    0    0 -0.37917590720E+02  0.19009945201E+01  0.21923062069E+02  0.43840370855E+02  0.00000000000E+00 0.  1.
</event>
<event>
 7    1  0.3707147E-015  0.9000771E+02  0.7816164E-02  0.1186339E+00
        -11   -1    0    0    0    0  0.00000000000E+00  0.00000000000E+00  0.45593999997E+02  0.45594000000E+02  0.51100000000E-03 0. -1.
         11   -1    0    0    0    0 -0.00000000000E+00 -0.00000000000E+00 -0.45593999997E+02  0.45594000000E+02  0.51100000000E-03 0.  1.
    9900012    2    1    2    0    0 -0.92107710579E+00 -0.65288131426E+00  0.34417033531E+00  0.90007707551E+02  0.89999968491E+02 0.  0.
         12    1    1    2    0    0  0.92107710579E+00  0.65288131426E+00 -0.34417033531E+00  0.11802924489E+01  0.00000000000E+00 0. -1.
         11    1    3    3    0    0 -0.32243981009E+02 -0.16236519545E+02  0.36582255920E+01  0.36286106060E+02  0.51100000000E-03 0. -1.
        -11    1    3    3    0    0 -0.93493742909E+01 -0.77743870206E+00  0.19025935706E+01  0.95726210164E+01  0.51100000000E-03 0.  1.
        -12    1    3    3    0    0  0.40672278194E+02  0.16361076933E+02 -0.52166488273E+01  0.44148980474E+02  0.00000000000E+00 0.  1.
</event>
<event>
 7    1  0.3707147E-015  0.9000775E+02  0.7816164E-02  0.1186339E+00
        -11   -1    0    0    0    0  0.00000000000E+00  0.00000000000E+00  0.45593999997E+02  0.45594000000E+02  0.51100000000E-03 0.  1.
         11   -1    0    0    0    0 -0.00000000000E+00 -0.00000000000E+00 -0.45593999997E+02  0.45594000000E+02  0.51100000000E-03 0. -1.
    9900012    2    1    2    0    0 -0.87248873812E+00  0.25897203684E-01  0.79440571044E+00  0.90007751003E+02  0.90000012516E+02 0.  0.
         12    1    1    2    0    0  0.87248873812E+00 -0.25897203684E-01 -0.79440571044E+00  0.11802489975E+01  0.00000000000E+00 0. -1.
         11    1    3    3    0    0 -0.12777752959E+02  0.27569338481E+02 -0.26723842036E+02  0.40466073795E+02  0.51100000000E-03 0. -1.
        -11    1    3    3    0    0 -0.76025178321E+01 -0.51738610752E+01  0.19325767543E+00  0.91980685257E+01  0.51100000000E-03 0.  1.
        -12    1    3    3    0    0  0.19507782053E+02 -0.22369580202E+02  0.27324990071E+02  0.40343608681E+02  0.00000000000E+00 0.  1.
</event>
<event>
 7    1  0.3707147E-015  0.9000792E+02  0.7816164E-02  0.1186339E+00
        -11   -1    0    0    0    0  0.00000000000E+00  0.00000000000E+00  0.45593999997E+02  0.45594000000E+02  0.51100000000E-03 0.  1.
         11   -1    0    0    0    0 -0.00000000000E+00 -0.00000000000E+00 -0.45593999997E+02  0.45594000000E+02  0.51100000000E-03 0. -1.
    9900012    2    1    2    0    0 -0.41003337688E+00  0.25493687382E+00  0.10767830502E+01  0.90007922919E+02  0.90000186701E+02 0.  0.
         12    1    1    2    0    0  0.41003337688E+00 -0.25493687382E+00 -0.10767830502E+01  0.11800770810E+01  0.00000000000E+00 0. -1.
         11    1    3    3    0    0  0.28577944261E+00 -0.15421038274E+01 -0.84072309234E+01  0.85522678960E+01  0.51100000000E-03 0. -1.
        -11    1    3    3    0    0  0.37021617592E+02  0.12166199884E+02  0.15384581038E+02  0.41896323499E+02  0.51100000000E-03 0.  1.
         12    1    3    3    0    0 -0.37717430411E+02 -0.10369159183E+02 -0.59005670642E+01  0.39559331524E+02  0.00000000000E+00 0. -1.
</event>
<event>
 7    1  0.3707147E-015  0.9000781E+02  0.7816164E-02  0.1186339E+00
        -11   -1    0    0    0    0  0.00000000000E+00  0.00000000000E+00  0.45593999997E+02  0.45594000000E+02  0.51100000000E-03 0.  1.
         11   -1    0    0    0    0 -0.00000000000E+00 -0.00000000000E+00 -0.45593999997E+02  0.45594000000E+02  0.51100000000E-03 0. -1.
    9900012    2    1    2    0    0 -0.47421487868E+00  0.17919513699E+00  0.10657652934E+01  0.90007810901E+02  0.90000073205E+02 0.  0.
         12    1    1    2    0    0  0.47421487868E+00 -0.17919513699E+00 -0.10657652934E+01  0.11801890988E+01  0.00000000000E+00 0. -1.
         11    1    3    3    0    0 -0.23538454679E+01 -0.10755501606E+02  0.67223645253E+01  0.12900061564E+02  0.51100000000E-03 0. -1.
        -11    1    3    3    0    0  0.11953064003E+02 -0.86992255675E+00  0.33183929166E+02  0.35281803517E+02  0.51100000000E-03 0.  1.
         12    1    3    3    0    0 -0.10073433414E+02  0.11804619300E+02 -0.38840528397E+02  0.41825945820E+02  0.00000000000E+00 0. -1.
</event>
<event>
 7    1  0.3707147E-015  0.9000784E+02  0.7816164E-02  0.1186339E+00
        -11   -1    0    0    0    0  0.00000000000E+00  0.00000000000E+00  0.45593999997E+02  0.45594000000E+02  0.51100000000E-03 0. -1.
         11   -1    0    0    0    0 -0.00000000000E+00 -0.00000000000E+00 -0.45593999997E+02  0.45594000000E+02  0.51100000000E-03 0.  1.
    9900012    2    1    2    0    0 -0.64223378992E+00 -0.98427732945E+00 -0.10728116252E+00  0.90007840964E+02  0.90000103665E+02 0.  0.
         12    1    1    2    0    0  0.64223378992E+00  0.98427732945E+00  0.10728116252E+00  0.11801590359E+01  0.00000000000E+00 0. -1.
         11    1    3    3    0    0 -0.26997802878E+02  0.11139345813E+02  0.10017519754E+02  0.30875833392E+02  0.51100000000E-03 0. -1.
        -11    1    3    3    0    0 -0.94319414513E+01  0.89375111076E+01  0.63448858381E+01  0.14460228245E+02  0.51100000000E-03 0.  1.
        -12    1    3    3    0    0  0.35787510539E+02 -0.21061134250E+02 -0.16469686754E+02  0.44671779327E+02  0.00000000000E+00 0.  1.
</event>
<event>
 7    1  0.3707147E-015  0.9000775E+02  0.7816164E-02  0.1186339E+00
        -11   -1    0    0    0    0  0.00000000000E+00  0.00000000000E+00  0.45593999997E+02  0.45594000000E+02  0.51100000000E-03 0.  1.
         11   -1    0    0    0    0 -0.00000000000E+00 -0.00000000000E+00 -0.45593999997E+02  0.45594000000E+02  0.51100000000E-03 0. -1.
    9900012    2    1    2    0    0 -0.94875819433E+00  0.50832818626E-01  0.70019689918E+00  0.90007745034E+02  0.90000006469E+02 0.  0.
         12    1    1    2    0    0  0.94875819433E+00 -0.50832818626E-01 -0.70019689918E+00  0.11802549658E+01  0.00000000000E+00 0. -1.
         11    1    3    3    0    0  0.38032277390E+02 -0.31775776993E+01 -0.14748756641E+02  0.40915485408E+02  0.51100000000E-03 0. -1.
        -11    1    3    3    0    0 -0.21975698380E+01  0.89949772399E+01  0.17758162238E+01  0.94282793903E+01  0.51100000000E-03 0.  1.
        -12    1    3    3    0    0 -0.36783465746E+02 -0.57665667219E+01  0.13673137316E+02  0.39663980236E+02  0.00000000000E+00 0.  1.
</event>
<event>
 7    1  0.3707147E-015  0.9000773E+02  0.7816164E-02  0.1186339E+00
        -11   -1    0    0    0    0  0.00000000000E+00  0.00000000000E+00  0.45593999997E+02  0.45594000000E+02  0.51100000000E-03 0.  1.
         11   -1    0    0    0    0 -0.00000000000E+00 -0.00000000000E+00 -0.45593999997E+02  0.45594000000E+02  0.51100000000E-03 0. -1.
    9900012    2    1    2    0    0 -0.51067983297E-01  0.11745915824E+01 -0.10371210605E+00  0.90007733282E+02  0.89999994562E+02 0.  0.
         12    1    1    2    0    0  0.51067983297E-01 -0.11745915824E+01  0.10371210605E+00  0.11802667178E+01  0.00000000000E+00 0. -1.
         11    1    3    3    0    0  0.61126544252E+01 -0.33873664136E+02 -0.19389763186E+02  0.39506361295E+02  0.51100000000E-03 0. -1.
        -11    1    3    3    0    0  0.52823437645E+01 -0.26222595533E+01  0.72208846832E+01  0.93231205441E+01  0.51100000000E-03 0.  1.
        -12    1    3    3    0    0 -0.11446066173E+02  0.37670515272E+02  0.12065166396E+02  0.41178251443E+02  0.00000000000E+00 0.  1.
</event>
<event>
 7    1  0.3707147E-015  0.9000776E+02  0.7816164E-02  0.1186339E+00
        -11   -1    0    0    0    0  0.00000000000E+00  0.00000000000E+00  0.45593999997E+02  0.45594000000E+02  0.51100000000E-03 0.  1.
         11   -1    0    0    0    0 -0.00000000000E+00 -0.00000000000E+00 -0.45593999997E+02  0.45594000000E+02  0.51100000000E-03 0. -1.
    9900012    2    1    2    0    0 -0.18721108605E-01 -0.74815651311E+00  0.91262215306E+00  0.90007759413E+02  0.90000021038E+02 0.  0.
         12    1    1    2    0    0  0.18721108605E-01  0.74815651311E+00 -0.91262215306E+00  0.11802405866E+01  0.00000000000E+00 0. -1.
         11    1    3    3    0    0  0.27634626435E+01 -0.50314956854E+01  0.49763411746E+01  0.75971472515E+01  0.51100000000E-03 0. -1.
        -11    1    3    3    0    0 -0.10391860698E+02  0.10290088877E+02  0.37227239064E+02  0.39996800203E+02  0.51100000000E-03 0.  1.
         12    1    3    3    0    0  0.76096769455E+01 -0.60067497052E+01 -0.41290958086E+02  0.42413811959E+02  0.00000000000E+00 0. -1.
</event>
<event>
 7    1  0.3707147E-015  0.9000760E+02  0.7816164E-02  0.1186339E+00
        -11   -1    0    0    0    0  0.00000000000E+00  0.00000000000E+00  0.45593999997E+02  0.45594000000E+02  0.51100000000E-03 0.  1.
         11   -1    0    0    0    0 -0.00000000000E+00 -0.00000000000E+00 -0.45593999997E+02  0.45594000000E+02  0.51100000000E-03 0. -1.
    9900012    2    1    2    0    0  0.35740713923E+00  0.18027099705E+00  0.11104531726E+01  0.90007600176E+02  0.89999859698E+02 0.  0.
         12    1    1    2    0    0 -0.35740713923E+00 -0.18027099705E+00 -0.11104531726E+01  0.11803998239E+01  0.00000000000E+00 0. -1.
         11    1    3    3    0    0  0.15377795114E+01 -0.21912368317E+00 -0.86402486287E+01  0.87787628765E+01  0.51100000000E-03 0. -1.
        -11    1    3    3    0    0 -0.70708727565E+01 -0.39045187129E+02  0.11485655305E+02  0.41309129228E+02  0.51100000000E-03 0.  1.
         12    1    3    3    0    0  0.58905003843E+01  0.39444581810E+02 -0.17349535032E+01  0.39919708072E+02  0.00000000000E+00 0. -1.
</event>
<event>
 7    1  0.3707147E-015  0.9000774E+02  0.7816164E-02  0.1186339E+00
        -11   -1    0    0    0    0  0.00000000000E+00  0.00000000000E+00  0.45593999997E+02  0.45594000000E+02  0.51100000000E-03 0.  1.
         11   -1    0    0    0    0 -0.00000000000E+00 -0.00000000000E+00 -0.45593999997E+02  0.45594000000E+02  0.51100000000E-03 0. -1.
    9900012    2    1    2    0    0 -0.30024687341E+00  0.47278194559E+00  0.10389141677E+01  0.90007740028E+02  0.90000001397E+02 0.  0.
         12    1    1    2    0    0  0.30024687341E+00 -0.47278194559E+00 -0.10389141677E+01  0.11802599718E+01  0.00000000000E+00 0. -1.
         11    1    3    3    0    0  0.28286520214E+02 -0.19579021351E+02  0.98333048065E+01  0.35779312271E+02  0.51100000000E-03 0. -1.
        -11    1    3    3    0    0  0.55827132524E+01 -0.41437266072E+01  0.66319985429E+01  0.96083589852E+01  0.51100000000E-03 0.  1.
        -12    1    3    3    0    0 -0.34169480340E+02  0.24195529904E+02 -0.15426389182E+02  0.44620068772E+02  0.00000000000E+00 0.  1.
</event>
<event>
 7    1  0.3707147E-015  0.9000779E+02  0.7816164E-02  0.1186339E+00
        -11   -1    0    0    0    0  0.00000000000E+00  0.00000000000E+00  0.45593999997E+02  0.45594000000E+02  0.51100000000E-03 0.  1.
         11   -1    0    0    0    0 -0.00000000000E+00 -0.00000000000E+00 -0.45593999997E+02  0.45594000000E+02  0.51100000000E-03 0. -1.
    9900012    2    1    2    0    0  0.11074862536E+01  0.39779973602E+00  0.90148240234E-01  0.90007789367E+02  0.90000051387E+02 0.  0.
         12    1    1    2    0    0 -0.11074862536E+01 -0.39779973602E+00 -0.90148240234E-01  0.11802106325E+01  0.00000000000E+00 0. -1.
         11    1    3    3    0    0  0.51980177820E+01 -0.39185434004E+02 -0.43352530834E+01  0.39765714460E+02  0.51100000000E-03 0. -1.
        -11    1    3    3    0    0  0.96848900220E+01  0.22260102568E+01  0.30778616124E+01  0.10403146100E+02  0.51100000000E-03 0.  1.
        -12    1    3    3    0    0 -0.13775421550E+02  0.37357223483E+02  0.13475397112E+01  0.39838928808E+02  0.00000000000E+00 0.  1.
</event>
<event>
 7    1  0.3707147E-015  0.9000819E+02  0.7816164E-02  0.1186338E+00
        -11   -1    0    0    0    0  0.00000000000E+00  0.00000000000E+00  0.45593999997E+02  0.45594000000E+02  0.51100000000E-03 0. -1.
         11   -1    0    0    0    0 -0.00000000000E+00 -0.00000000000E+00 -0.45593999997E+02  0.45594000000E+02  0.51100000000E-03 0.  1.
    9900012    2    1    2    0    0  0.11227922977E+01 -0.35101244643E+00 -0.89935901099E-01  0.90008186139E+02  0.90000453394E+02 0.  0.
         12    1    1    2    0    0 -0.11227922977E+01  0.35101244643E+00  0.89935901099E-01  0.11798138614E+01  0.00000000000E+00 0. -1.
         11    1    3    3    0    0 -0.11112468233E+01 -0.68121832314E+01 -0.10079572690E+02  0.12216320876E+02  0.51100000000E-03 0. -1.
        -11    1    3    3    0    0  0.29595658168E+02  0.17823318283E+02 -0.16283665393E+02  0.38193342560E+02  0.51100000000E-03 0.  1.
         12    1    3    3    0    0 -0.27361619047E+02 -0.11362147498E+02  0.26273302182E+02  0.39598522702E+02  0.00000000000E+00 0. -1.
</event>
<event>
 7    1  0.3707147E-015  0.9000773E+02  0.7816164E-02  0.1186339E+00
        -11   -1    0    0    0    0  0.00000000000E+00  0.00000000000E+00  0.45593999997E+02  0.45594000000E+02  0.51100000000E-03 0. -1.
         11   -1    0    0    0    0 -0.00000000000E+00 -0.00000000000E+00 -0.45593999997E+02  0.45594000000E+02  0.51100000000E-03 0.  1.
    9900012    2    1    2    0    0  0.80363918566E-01  0.12323353830E+00 -0.11710682820E+01  0.90007726394E+02  0.89999987582E+02 0.  0.
         12    1    1    2    0    0 -0.80363918566E-01 -0.12323353830E+00  0.11710682820E+01  0.11802736062E+01  0.00000000000E+00 0. -1.
         11    1    3    3    0    0  0.21857183645E+02  0.27769010999E+02  0.24046519697E+01  0.35420852617E+02  0.51100000000E-03 0. -1.
        -11    1    3    3    0    0  0.77576207691E+01  0.58310061787E+01  0.75782996697E+00  0.97342498208E+01  0.51100000000E-03 0.  1.
        -12    1    3    3    0    0 -0.29534440495E+02 -0.33476783640E+02 -0.43335502187E+01  0.44852623956E+02  0.00000000000E+00 0.  1.
</event>
<event>
 7    1  0.3707147E-015  0.9000771E+02  0.7816164E-02  0.1186339E+00
        -11   -1    0    0    0    0  0.00000000000E+00  0.00000000000E+00  0.45593999997E+02  0.45594000000E+02  0.51100000000E-03 0. -1.
         11   -1    0    0    0    0 -0.00000000000E+00 -0.00000000000E+00 -0.45593999997E+02  0.45594000000E+02  0.51100000000E-03 0.  1.
    9900012    2    1    2    0    0  0.91666898562E+00 -0.56031064494E+00  0.48871774845E+00  0.90007713981E+02  0.89999975006E+02 0.  0.
         12    1    1    2    0    0 -0.91666898562E+00  0.56031064494E+00 -0.48871774845E+00  0.11802860186E+01  0.00000000000E+00 0. -1.
         11    1    3    3    0    0  0.15692326195E+02 -0.37839670637E+02  0.14858401011E+02  0.43575932075E+02  0.51100000000E-03 0. -1.
        -11    1    3    3    0    0 -0.47978684299E+01  0.24776876095E-01  0.10232877597E+01  0.49058407500E+01  0.51100000000E-03 0.  1.
        -12    1    3    3    0    0 -0.99777887793E+01  0.37254583116E+02 -0.15392971022E+02  0.41525941157E+02  0.00000000000E+00 0.  1.
</event>
<event>
 7    1  0.3707147E-015  0.9000777E+02  0.7816164E-02  0.1186339E+00
        -11   -1    0    0    0    0  0.00000000000E+00  0.00000000000E+00  0.45593999997E+02  0.45594000000E+02  0.51100000000E-03 0.  1.
         11   -1    0    0    0    0 -0.00000000000E+00 -0.00000000000E+00 -0.45593999997E+02  0.45594000000E+02  0.51100000000E-03 0. -1.
    9900012    2    1    2    0    0  0.48347651552E+00 -0.24103870424E+00  0.10493337558E+01  0.90007766748E+02  0.90000028469E+02 0.  0.
         12    1    1    2    0    0 -0.48347651552E+00  0.24103870424E+00 -0.10493337558E+01  0.11802332520E+01  0.00000000000E+00 0. -1.
         11    1    3    3    0    0  0.18349364779E+02 -0.26009448661E+02 -0.30630191059E+02  0.44174644447E+02  0.51100000000E-03 0. -1.
        -11    1    3    3    0    0 -0.31378362516E+01  0.88779190137E+01  0.40297283544E+01  0.10242176196E+02  0.51100000000E-03 0.  1.
        -12    1    3    3    0    0 -0.14728052012E+02  0.16890490943E+02  0.27649796461E+02  0.35590946105E+02  0.00000000000E+00 0.  1.
</event>
<event>
 7    1  0.3707147E-015  0.9000774E+02  0.7816164E-02  0.1186339E+00
        -11   -1    0    0    0    0  0.00000000000E+00  0.00000000000E+00  0.45593999997E+02  0.45594000000E+02  0.51100000000E-03 0.  1.
         11   -1    0    0    0    0 -0.00000000000E+00 -0.00000000000E+00 -0.45593999997E+02  0.45594000000E+02  0.51100000000E-03 0. -1.
    9900012    2    1    2    0    0 -0.45608214551E+00 -0.38146888882E+00  0.10195486045E+01  0.90007742065E+02  0.90000003460E+02 0.  0.
         12    1    1    2    0    0  0.45608214551E+00  0.38146888882E+00 -0.10195486045E+01  0.11802579352E+01  0.00000000000E+00 0. -1.
         11    1    3    3    0    0 -0.26605377620E+01  0.21977746022E+02 -0.26893530551E+02  0.34833342750E+02  0.51100000000E-03 0. -1.
        -11    1    3    3    0    0 -0.91006357147E+00  0.60209130965E+01 -0.75160846005E+01  0.96732175723E+01  0.51100000000E-03 0.  1.
        -12    1    3    3    0    0  0.31145191880E+01 -0.28380128007E+02  0.35429163756E+02  0.45501181742E+02  0.00000000000E+00 0.  1.
</event>
<event>
 7    1  0.3707147E-015  0.9000781E+02  0.7816164E-02  0.1186339E+00
        -11   -1    0    0    0    0  0.00000000000E+00  0.00000000000E+00  0.45593999997E+02  0.45594000000E+02  0.51100000000E-03 0.  1.
         11   -1    0    0    0    0 -0.00000000000E+00 -0.00000000000E+00 -0.45593999997E+02  0.45594000000E+02  0.51100000000E-03 0. -1.
    9900012    2    1    2    0    0  0.54682349505E-01  0.11767211022E+01 -0.72020983989E-01  0.90007809450E+02  0.90000071735E+02 0.  0.
         12    1    1    2    0    0 -0.54682349505E-01 -0.11767211022E+01  0.72020983989E-01  0.11801905498E+01  0.00000000000E+00 0. -1.
         11    1    3    3    0    0  0.15859413770E+02 -0.25750101469E+02  0.26014745600E+02  0.39891800157E+02  0.51100000000E-03 0. -1.
        -11    1    3    3    0    0 -0.17673988167E+01 -0.62992736511E+01 -0.24230592139E+01  0.69768017977E+01  0.51100000000E-03 0.  1.
        -12    1    3    3    0    0 -0.14037332604E+02  0.33226096223E+02 -0.23663707370E+02  0.43139207496E+02  0.00000000000E+00 0.  1.
</event>
<event>
 7    1  0.3707147E-015  0.9000772E+02  0.7816164E-02  0.1186339E+00
        -11   -1    0    0    0    0  0.00000000000E+00  0.00000000000E+00  0.45593999997E+02  0.45594000000E+02  0.51100000000E-03 0.  1.
         11   -1    0    0    0    0 -0.00000000000E+00 -0.00000000000E+00 -0.45593999997E+02  0.45594000000E+02  0.51100000000E-03 0. -1.
    9900012    2    1    2    0    0 -0.41585587968E+00 -0.10969125835E+01 -0.13005981761E+00  0.90007716608E+02  0.89999977668E+02 0.  0.
         12    1    1    2    0    0  0.41585587968E+00  0.10969125835E+01  0.13005981761E+00  0.11802833917E+01  0.00000000000E+00 0. -1.
         11    1    3    3    0    0  0.35065234441E+02 -0.25201765388E+01 -0.19412751766E+02  0.40159393516E+02  0.51100000000E-03 0. -1.
        -11    1    3    3    0    0 -0.14861831448E+02  0.10998455130E+02 -0.21383214600E+01  0.18612159149E+02  0.51100000000E-03 0.  1.
        -12    1    3    3    0    0 -0.20619258872E+02 -0.95751911747E+01  0.21421013409E+02  0.31236163944E+02  0.00000000000E+00 0.  1.
</event>
<event>
 7    1  0.3707147E-015  0.9000775E+02  0.7816164E-02  0.1186339E+00
        -11   -1    0    0    0    0  0.00000000000E+00  0.00000000000E+00  0.45593999997E+02  0.45594000000E+02  0.51100000000E-03 0. -1.
         11   -1    0    0    0    0 -0.00000000000E+00 -0.00000000000E+00 -0.45593999997E+02  0.45594000000E+02  0.51100000000E-03 0.  1.
    9900012    2    1    2    0    0  0.69150312345E+00 -0.10488695633E+00 -0.95069362174E+00  0.90007747397E+02  0.90000008863E+02 0.  0.
         12    1    1    2    0    0 -0.69150312345E+00  0.10488695633E+00  0.95069362174E+00  0.11802526025E+01  0.00000000000E+00 0. -1.
         11    1    3    3    0    0  0.57997085817E+01 -0.30885219425E+02  0.16574413125E+02  0.35528081418E+02  0.51100000000E-03 0. -1.
        -11    1    3    3    0    0  0.14697121818E+02  0.10934983093E+01 -0.36321416153E-01  0.14737789787E+02  0.51100000000E-03 0.  1.
        -12    1    3    3    0    0 -0.19805327277E+02  0.29686834159E+02 -0.17488785331E+02  0.39741876192E+02  0.00000000000E+00 0.  1.
</event>
<event>
 7    1  0.3707147E-015  0.9000769E+02  0.7816164E-02  0.1186339E+00
        -11   -1    0    0    0    0  0.00000000000E+00  0.00000000000E+00  0.45593999997E+02  0.45594000000E+02  0.51100000000E-03 0.  1.
         11   -1    0    0    0    0 -0.00000000000E+00 -0.00000000000E+00 -0.45593999997E+02  0.45594000000E+02  0.51100000000E-03 0. -1.
    9900012    2    1    2    0    0 -0.10307582845E+01  0.49006272577E+00  0.30084149881E+00  0.90007690836E+02  0.89999951555E+02 0.  0.
         12    1    1    2    0    0  0.10307582845E+01 -0.49006272577E+00 -0.30084149881E+00  0.11803091645E+01  0.00000000000E+00 0. -1.
         11    1    3    3    0    0  0.94562194697E+01  0.45125471495E+01 -0.10521881160E+01  0.10530444840E+02  0.51100000000E-03 0. -1.
        -11    1    3    3    0    0 -0.19488811037E+02 -0.26137144643E+02  0.28514453762E+02  0.43313256161E+02  0.51100000000E-03 0.  1.
         12    1    3    3    0    0  0.90018332828E+01  0.22114660219E+02 -0.27161424147E+02  0.36163989834E+02  0.00000000000E+00 0. -1.
</event>
<event>
 7    1  0.3707147E-015  0.9000770E+02  0.7816164E-02  0.1186339E+00
        -11   -1    0    0    0    0  0.00000000000E+00  0.00000000000E+00  0.45593999997E+02  0.45594000000E+02  0.51100000000E-03 0.  1.
         11   -1    0    0    0    0 -0.00000000000E+00 -0.00000000000E+00 -0.45593999997E+02  0.45594000000E+02  0.51100000000E-03 0. -1.
    9900012    2    1    2    0    0  0.10078822434E+01 -0.52572290912E+00  0.31764175406E+00  0.90007700259E+02  0.89999961103E+02 0.  0.
         12    1    1    2    0    0 -0.10078822434E+01  0.52572290912E+00 -0.31764175406E+00  0.11802997406E+01  0.00000000000E+00 0. -1.
         11    1    3    3    0    0 -0.32017725877E+02 -0.14484493519E+02  0.12234773753E+02  0.37210549739E+02  0.51100000000E-03 0. -1.
        -11    1    3    3    0    0 -0.74634561527E+01 -0.20425769357E+01 -0.33203660510E+01  0.84202214493E+01  0.51100000000E-03 0.  1.
        -12    1    3    3    0    0  0.40489064273E+02  0.16001347546E+02 -0.85967659483E+01  0.44376929071E+02  0.00000000000E+00 0.  1.
</event>
<event>
 7    1  0.3707147E-015  0.9000775E+02  0.7816164E-02  0.1186339E+00
        -11   -1    0    0    0    0  0.00000000000E+00  0.00000000000E+00  0.45593999997E+02  0.45594000000E+02  0.51100000000E-03 0. -1.
         11   -1    0    0    0    0 -0.00000000000E+00 -0.00000000000E+00 -0.45593999997E+02  0.45594000000E+02  0.51100000000E-03 0.  1.
    9900012    2    1    2    0    0  0.84038792234E+00  0.56916654298E-01 -0.82673904196E+00  0.90007750531E+02  0.90000012038E+02 0.  0.
         12    1    1    2    0    0 -0.84038792234E+00 -0.56916654298E-01  0.82673904196E+00  0.11802494690E+01  0.00000000000E+00 0. -1.
         11    1    3    3    0    0 -0.33636956260E+02 -0.66146018368E+01 -0.65798566001E+01  0.34906909016E+02  0.51100000000E-03 0. -1.
        -11    1    3    3    0    0 -0.89016600996E+01 -0.22249832593E+01 -0.35745535442E+01  0.98472095710E+01  0.51100000000E-03 0.  1.
        -12    1    3    3    0    0  0.43379004282E+02  0.88965017504E+01  0.93276711023E+01  0.45253631944E+02  0.00000000000E+00 0.  1.
</event>
<event>
 7    1  0.3707147E-015  0.9000773E+02  0.7816164E-02  0.1186339E+00
        -11   -1    0    0    0    0  0.00000000000E+00  0.00000000000E+00  0.45593999997E+02  0.45594000000E+02  0.51100000000E-03 0.  1.
         11   -1    0    0    0    0 -0.00000000000E+00 -0.00000000000E+00 -0.45593999997E+02  0.45594000000E+02  0.51100000000E-03 0. -1.
    9900012    2    1    2    0    0  0.17054992002E+00 -0.10735673830E+01 -0.45978808356E+00  0.90007729148E+02  0.89999990373E+02 0.  0.
         12    1    1    2    0    0 -0.17054992002E+00  0.10735673830E+01  0.45978808356E+00  0.11802708515E+01  0.00000000000E+00 0. -1.
         11    1    3    3    0    0 -0.75378377929E+00 -0.78317014669E+01  0.61416921288E+01  0.99811883220E+01  0.51100000000E-03 0. -1.
        -11    1    3    3    0    0 -0.39143304382E+02  0.98908851437E+00 -0.10781492852E+01  0.39170639261E+02  0.51100000000E-03 0.  1.
         12    1    3    3    0    0  0.40067638081E+02  0.57690455695E+01 -0.55233309272E+01  0.40855901565E+02  0.00000000000E+00 0. -1.
</event>
<event>
 7    1  0.3707147E-015  0.9000756E+02  0.7816164E-02  0.1186339E+00
        -11   -1    0    0    0    0  0.00000000000E+00  0.00000000000E+00  0.45593999997E+02  0.45594000000E+02  0.51100000000E-03 0.  1.
         11   -1    0    0    0    0 -0.00000000000E+00 -0.00000000000E+00 -0.45593999997E+02  0.45594000000E+02  0.51100000000E-03 0. -1.
    9900012    2    1    2    0    0 -0.88037417470E+00  0.44339117417E-01  0.78511501800E+00  0.90007563540E+02  0.89999822578E+02 0.  0.
         12    1    1    2    0    0  0.88037417470E+00 -0.44339117417E-01 -0.78511501800E+00  0.11804364601E+01  0.00000000000E+00 0. -1.
         11    1    3    3    0    0 -0.32166297316E+02 -0.15290044236E+01 -0.25592223333E+02  0.41133568201E+02  0.51100000000E-03 0. -1.
        -11    1    3    3    0    0  0.39668346610E+01  0.93239755191E+00 -0.55268073438E+01  0.68666397968E+01  0.51100000000E-03 0.  1.
        -12    1    3    3    0    0  0.27319088480E+02  0.64094598908E+00  0.31904145695E+02  0.42007355542E+02  0.00000000000E+00 0.  1.
</event>
<event>
 7    1  0.3707147E-015  0.9000773E+02  0.7816164E-02  0.1186339E+00
        -11   -1    0    0    0    0  0.00000000000E+00  0.00000000000E+00  0.45593999997E+02  0.45594000000E+02  0.51100000000E-03 0. -1.
         11   -1    0    0    0    0 -0.00000000000E+00 -0.00000000000E+00 -0.45593999997E+02  0.45594000000E+02  0.51100000000E-03 0.  1.
    9900012    2    1    2    0    0  0.54557840676E+00  0.10255602578E+01  0.20880189529E+00  0.90007733983E+02  0.89999995271E+02 0.  0.
         12    1    1    2    0    0 -0.54557840676E+00 -0.10255602578E+01 -0.20880189529E+00  0.11802660174E+01  0.00000000000E+00 0. -1.
         11    1    3    3    0    0 -0.40531969384E+01  0.86562111070E+01 -0.33446597987E+01  0.10126457702E+02  0.51100000000E-03 0. -1.
        -11    1    3    3    0    0  0.39161246420E+02 -0.90275242219E+01 -0.12018765517E+02  0.41946992021E+02  0.51100000000E-03 0.  1.
         12    1    3    3    0    0 -0.34562471075E+02  0.13968733727E+01  0.15572227211E+02  0.37934284260E+02  0.00000000000E+00 0. -1.
</event>
<event>
 7    1  0.3707147E-015  0.9000758E+02  0.7816164E-02  0.1186339E+00
        -11   -1    0    0    0    0  0.00000000000E+00  0.00000000000E+00  0.45593999997E+02  0.45594000000E+02  0.51100000000E-03 0.  1.
         11   -1    0    0    0    0 -0.00000000000E+00 -0.00000000000E+00 -0.45593999997E+02  0.45594000000E+02  0.51100000000E-03 0. -1.
    9900012    2    1    2    0    0 -0.39774828845E+00  0.83346729398E+00  0.73520188731E+00  0.90007579208E+02  0.89999838453E+02 0.  0.
         12    1    1    2    0    0  0.39774828845E+00 -0.83346729398E+00 -0.73520188731E+00  0.11804207920E+01  0.00000000000E+00 0. -1.
         11    1    3    3    0    0  0.14460428396E+02 -0.42359413709E+00 -0.37560923875E+02  0.40250545636E+02  0.51100000000E-03 0. -1.
        -11    1    3    3    0    0  0.74531771525E+01  0.33574569977E+01  0.48742851713E+01  0.95174063353E+01  0.51100000000E-03 0.  1.
        -12    1    3    3    0    0 -0.22311353837E+02 -0.21003955667E+01  0.33421840591E+02  0.40239627236E+02  0.00000000000E+00 0.  1.
</event>
<event>
 7    1  0.3707147E-015  0.9000785E+02  0.7816164E-02  0.1186339E+00
        -11   -1    0    0    0    0  0.00000000000E+00  0.00000000000E+00  0.45593999997E+02  0.45594000000E+02  0.51100000000E-03 0.  1.
         11   -1    0    0    0    0 -0.00000000000E+00 -0.00000000000E+00 -0.45593999997E+02  0.45594000000E+02  0.51100000000E-03 0. -1.
    9900012    2    1    2    0    0 -0.11511417634E+01 -0.24832614204E+00 -0.77221574942E-01  0.90007848991E+02  0.90000111798E+02 0.  0.
         12    1    1    2    0    0  0.11511417634E+01  0.24832614204E+00  0.77221574942E-01  0.11801510090E+01  0.00000000000E+00 0. -1.
         11    1    3    3    0    0 -0.31225704877E+02 -0.16400309207E+02  0.80119476378E+01  0.36169131761E+02  0.51100000000E-03 0. -1.
        -11    1    3    3    0    0 -0.71337000034E+01 -0.61261787821E+01 -0.41946171977E+01  0.10296337014E+02  0.51100000000E-03 0.  1.
        -12    1    3    3    0    0  0.37208263117E+02  0.22278161847E+02 -0.38945520150E+01  0.43542380216E+02  0.00000000000E+00 0.  1.
</event>
<event>
 7    1  0.3707147E-015  0.9000776E+02  0.7816164E-02  0.1186339E+00
        -11   -1    0    0    0    0  0.00000000000E+00  0.00000000000E+00  0.45593999997E+02  0.45594000000E+02  0.51100000000E-03 0.  1.
         11   -1    0    0    0    0 -0.00000000000E+00 -0.00000000000E+00 -0.45593999997E+02  0.45594000000E+02  0.51100000000E-03 0. -1.
    9900012    2    1    2    0    0 -0.34545770473E-01  0.90013970361E+00  0.76257842519E+00  0.90007758181E+02  0.90000019789E+02 0.  0.
         12    1    1    2    0    0  0.34545770473E-01 -0.90013970361E+00 -0.76257842519E+00  0.11802418188E+01  0.00000000000E+00 0. -1.
         11    1    3    3    0    0 -0.29017386549E+02  0.85828425678E+01 -0.25434851056E+02  0.39529805933E+02  0.51100000000E-03 0. -1.
        -11    1    3    3    0    0  0.48120005117E+01  0.59931937993E+01 -0.46404273214E+01  0.89781560929E+01  0.51100000000E-03 0.  1.
        -12    1    3    3    0    0  0.24170840266E+02 -0.13675896664E+02  0.30837856802E+02  0.41499796155E+02  0.00000000000E+00 0.  1.
</event>
<event>
 7    1  0.3707147E-015  0.9000761E+02  0.7816164E-02  0.1186339E+00
        -11   -1    0    0    0    0  0.00000000000E+00  0.00000000000E+00  0.45593999997E+02  0.45594000000E+02  0.51100000000E-03 0. -1.
         11   -1    0    0    0    0 -0.00000000000E+00 -0.00000000000E+00 -0.45593999997E+02  0.45594000000E+02  0.51100000000E-03 0.  1.
    9900012    2    1    2    0    0  0.36769806624E+00 -0.57139307653E+00 -0.96520410463E+00  0.90007614097E+02  0.89999873803E+02 0.  0.
         12    1    1    2    0    0 -0.36769806624E+00  0.57139307653E+00  0.96520410463E+00  0.11803859028E+01  0.00000000000E+00 0. -1.
         11    1    3    3    0    0 -0.70861526461E-01  0.73620006974E+01 -0.73412379964E+01  0.10397011648E+02  0.51100000000E-03 0. -1.
        -11    1    3    3    0    0 -0.25871314426E+02  0.17514391680E+02  0.23603234759E+02  0.39155989547E+02  0.51100000000E-03 0.  1.
         12    1    3    3    0    0  0.26309874019E+02 -0.25447785453E+02 -0.17227200867E+02  0.40454612903E+02  0.00000000000E+00 0. -1.
</event>
<event>
 7    1  0.3707147E-015  0.9000772E+02  0.7816164E-02  0.1186339E+00
        -11   -1    0    0    0    0  0.00000000000E+00  0.00000000000E+00  0.45593999997E+02  0.45594000000E+02  0.51100000000E-03 0.  1.
         11   -1    0    0    0    0 -0.00000000000E+00 -0.00000000000E+00 -0.45593999997E+02  0.45594000000E+02  0.51100000000E-03 0. -1.
    9900012    2    1    2    0    0 -0.32926483238E+00  0.11313729297E+01  0.68096095815E-01  0.90007721595E+02  0.89999982720E+02 0.  0.
         12    1    1    2    0    0  0.32926483238E+00 -0.11313729297E+01 -0.68096095815E-01  0.11802784054E+01  0.00000000000E+00 0. -1.
         11    1    3    3    0    0  0.91033140063E+01  0.10227146747E+01  0.22178515939E+00  0.91632668913E+01  0.51100000000E-03 0. -1.
        -11    1    3    3    0    0  0.17582875137E+02  0.11634000083E+02  0.31345499535E+02  0.37776286178E+02  0.51100000000E-03 0.  1.
         12    1    3    3    0    0 -0.27015453976E+02 -0.11525341829E+02 -0.31499188598E+02  0.43068168526E+02  0.00000000000E+00 0. -1.
</event>
<event>
 7    1  0.3707147E-015  0.9000789E+02  0.7816164E-02  0.1186339E+00
        -11   -1    0    0    0    0  0.00000000000E+00  0.00000000000E+00  0.45593999997E+02  0.45594000000E+02  0.51100000000E-03 0. -1.
         11   -1    0    0    0    0 -0.00000000000E+00 -0.00000000000E+00 -0.45593999997E+02  0.45594000000E+02  0.51100000000E-03 0.  1.
    9900012    2    1    2    0    0 -0.96865606385E+00  0.48374231018E+00 -0.46941479378E+00  0.90007893462E+02  0.90000156855E+02 0.  0.
         12    1    1    2    0    0  0.96865606385E+00 -0.48374231018E+00  0.46941479378E+00  0.11801065381E+01  0.00000000000E+00 0. -1.
         11    1    3    3    0    0 -0.25454591485E+01  0.31962803020E+02 -0.24469255394E+02  0.40334161687E+02  0.51100000000E-03 0. -1.
        -11    1    3    3    0    0 -0.83086008777E+01 -0.32493962633E+01 -0.29667474239E+01  0.94017559614E+01  0.51100000000E-03 0.  1.
        -12    1    3    3    0    0  0.98854039624E+01 -0.28229664446E+02  0.26966588025E+02  0.40271975814E+02  0.00000000000E+00 0.  1.
</event>
<event>
 7    1  0.3707147E-015  0.9000770E+02  0.7816164E-02  0.1186339E+00
        -11   -1    0    0    0    0  0.00000000000E+00  0.00000000000E+00  0.45593999997E+02  0.45594000000E+02  0.51100000000E-03 0.  1.
         11   -1    0    0    0    0 -0.00000000000E+00 -0.00000000000E+00 -0.45593999997E+02  0.45594000000E+02  0.51100000000E-03 0. -1.
    9900012    2    1    2    0    0 -0.38623228156E+00 -0.11072375335E+01  0.13396779835E+00  0.90007704401E+02  0.89999965299E+02 0.  0.
         12    1    1    2    0    0  0.38623228156E+00  0.11072375335E+01 -0.13396779835E+00  0.11802955993E+01  0.00000000000E+00 0. -1.
         11    1    3    3    0    0 -0.28585903667E+02 -0.70104146659E+01 -0.15782734379E+02  0.33397522467E+02  0.51100000000E-03 0. -1.
        -11    1    3    3    0    0 -0.10290040361E+01 -0.17095093977E+02  0.45510852719E+01  0.17720425074E+02  0.51100000000E-03 0.  1.
        -12    1    3    3    0    0  0.29228675421E+02  0.22998271110E+02  0.11365616905E+02  0.38889756859E+02  0.00000000000E+00 0.  1.
</event>
<event>
 7    1  0.3707147E-015  0.9000774E+02  0.7816164E-02  0.1186339E+00
        -11   -1    0    0    0    0  0.00000000000E+00  0.00000000000E+00  0.45593999997E+02  0.45594000000E+02  0.51100000000E-03 0.  1.
         11   -1    0    0    0    0 -0.00000000000E+00 -0.00000000000E+00 -0.45593999997E+02  0.45594000000E+02  0.51100000000E-03 0. -1.
    9900012    2    1    2    0    0  0.11336088137E+01  0.88659989789E-01 -0.31635031550E+00  0.90007742800E+02  0.90000004205E+02 0.  0.
         12    1    1    2    0    0 -0.11336088137E+01 -0.88659989789E-01  0.31635031550E+00  0.11802572001E+01  0.00000000000E+00 0. -1.
         11    1    3    3    0    0  0.12722295237E+02  0.33543222412E+02 -0.67278294013E+01  0.36500250062E+02  0.51100000000E-03 0. -1.
        -11    1    3    3    0    0 -0.13952834736E+02  0.49633283587E+00  0.12728685329E+02  0.18893050943E+02  0.51100000000E-03 0.  1.
        -12    1    3    3    0    0  0.23641483130E+01 -0.33950895258E+02 -0.63172062434E+01  0.34614441795E+02  0.00000000000E+00 0.  1.
</event>
<event>
 7    1  0.4181678E-015  0.9000770E+02  0.7816164E-02  0.1186339E+00
        -11   -1    0    0    0    0  0.00000000000E+00  0.00000000000E+00  0.45593999997E+02  0.45594000000E+02  0.51100000000E-03 0. -1.
         11   -1    0    0    0    0 -0.00000000000E+00 -0.00000000000E+00 -0.45593999997E+02  0.45594000000E+02  0.51100000000E-03 0.  1.
    9900012    2    1    2    0    0 -0.71113518375E+00 -0.18706135888E-01 -0.94183366987E+00  0.90007697568E+02  0.89999958376E+02 0.  0.
         12    1    1    2    0    0  0.71113518375E+00  0.18706135888E-01  0.94183366987E+00  0.11803024319E+01  0.00000000000E+00 0. -1.
         11    1    3    3    0    0 -0.66824282371E+01 -0.35475946029E+01  0.57397594368E+01  0.94965842946E+01  0.51100000000E-03 0. -1.
        -11    1    3    3    0    0 -0.14941077479E+02 -0.29403647634E+02 -0.20835120524E+02  0.39011697450E+02  0.51100000000E-03 0.  1.
         12    1    3    3    0    0  0.20912370532E+02  0.32932536101E+02  0.14153527418E+02  0.41499415823E+02  0.00000000000E+00 0. -1.
</event>
<event>
 7    1  0.3707147E-015  0.9000775E+02  0.7816164E-02  0.1186339E+00
        -11   -1    0    0    0    0  0.00000000000E+00  0.00000000000E+00  0.45593999997E+02  0.45594000000E+02  0.51100000000E-03 0.  1.
         11   -1    0    0    0    0 -0.00000000000E+00 -0.00000000000E+00 -0.45593999997E+02  0.45594000000E+02  0.51100000000E-03 0. -1.
    9900012    2    1    2    0    0  0.11274688505E+01  0.21358605398E+00  0.27600348645E+00  0.90007753019E+02  0.90000014559E+02 0.  0.
         12    1    1    2    0    0 -0.11274688505E+01 -0.21358605398E+00 -0.27600348645E+00  0.11802469809E+01  0.00000000000E+00 0. -1.
         11    1    3    3    0    0  0.33798954899E+02 -0.29934350579E+02 -0.24108500978E-01  0.45149034080E+02  0.51100000000E-03 0. -1.
        -11    1    3    3    0    0 -0.47183834444E+01  0.37306364405E+01  0.20584920164E+01  0.63575294118E+01  0.51100000000E-03 0.  1.
        -12    1    3    3    0    0 -0.27953102605E+02  0.26417300193E+02 -0.17583800290E+01  0.38501189527E+02  0.00000000000E+00 0.  1.
</event>
<event>
 7    1  0.3707147E-015  0.9000778E+02  0.7816164E-02  0.1186339E+00
        -11   -1    0    0    0    0  0.00000000000E+00  0.00000000000E+00  0.45593999997E+02  0.45594000000E+02  0.51100000000E-03 0. -1.
         11   -1    0    0    0    0 -0.00000000000E+00 -0.00000000000E+00 -0.45593999997E+02  0.45594000000E+02  0.51100000000E-03 0.  1.
    9900012    2    1    2    0    0  0.23209566813E+00  0.90217678246E+00 -0.72466119615E+00  0.90007777481E+02  0.90000039343E+02 0.  0.
         12    1    1    2    0    0 -0.23209566813E+00 -0.90217678246E+00  0.72466119615E+00  0.11802225193E+01  0.00000000000E+00 0. -1.
         11    1    3    3    0    0  0.29740222703E+02  0.19390386737E+02  0.22077575305E+02  0.41807741816E+02  0.51100000000E-03 0. -1.
        -11    1    3    3    0    0 -0.71870224475E+01  0.43291452186E+01  0.90602198390E+00  0.84389374972E+01  0.51100000000E-03 0.  1.
        -12    1    3    3    0    0 -0.22321104587E+02 -0.22817355173E+02 -0.23708258485E+02  0.39761098167E+02  0.00000000000E+00 0.  1.
</event>
<event>
 7    1  0.3707147E-015  0.9000771E+02  0.7816164E-02  0.1186339E+00
        -11   -1    0    0    0    0  0.00000000000E+00  0.00000000000E+00  0.45593999997E+02  0.45594000000E+02  0.51100000000E-03 0. -1.
         11   -1    0    0    0    0 -0.00000000000E+00 -0.00000000000E+00 -0.45593999997E+02  0.45594000000E+02  0.51100000000E-03 0.  1.
    9900012    2    1    2    0    0  0.32978825785E-01  0.72531025773E+00 -0.93055049519E+00  0.90007709020E+02  0.89999969979E+02 0.  0.
         12    1    1    2    0    0 -0.32978825785E-01 -0.72531025773E+00  0.93055049519E+00  0.11802909798E+01  0.00000000000E+00 0. -1.
         11    1    3    3    0    0  0.19483303187E+02  0.10322642053E+02  0.27135161003E+02  0.34963881434E+02  0.51100000000E-03 0. -1.
        -11    1    3    3    0    0  0.83001315649E+01 -0.84669996587E-01  0.58847806879E+01  0.10174969140E+02  0.51100000000E-03 0.  1.
        -12    1    3    3    0    0 -0.27750455926E+02 -0.95126617982E+01 -0.33950492186E+02  0.44868858446E+02  0.00000000000E+00 0.  1.
</event>
<event>
 7    1  0.3707147E-015  0.9000767E+02  0.7816164E-02  0.1186339E+00
        -11   -1    0    0    0    0  0.00000000000E+00  0.00000000000E+00  0.45593999997E+02  0.45594000000E+02  0.51100000000E-03 0.  1.
         11   -1    0    0    0    0 -0.00000000000E+00 -0.00000000000E+00 -0.45593999997E+02  0.45594000000E+02  0.51100000000E-03 0. -1.
    9900012    2    1    2    0    0  0.57268768898E+00 -0.39715151315E+00  0.95261206467E+00  0.90007673664E+02  0.89999934156E+02 0.  0.
         12    1    1    2    0    0 -0.57268768898E+00  0.39715151315E+00 -0.95261206467E+00  0.11803263359E+01  0.00000000000E+00 0. -1.
         11    1    3    3    0    0  0.28482083386E+02  0.27695473326E+02  0.78026433592E+00  0.39735086881E+02  0.51100000000E-03 0. -1.
        -11    1    3    3    0    0 -0.67542044988E+00 -0.29489890130E+00 -0.10018066985E+02  0.10045139349E+02  0.51100000000E-03 0.  1.
        -12    1    3    3    0    0 -0.27233975247E+02 -0.27797725937E+02  0.10190414714E+02  0.40227447435E+02  0.00000000000E+00 0.  1.
</event>
<event>
 7    1  0.3707147E-015  0.9000772E+02  0.7816164E-02  0.1186339E+00
        -11   -1    0    0    0    0  0.00000000000E+00  0.00000000000E+00  0.45593999997E+02  0.45594000000E+02  0.51100000000E-03 0. -1.
         11   -1    0    0    0    0 -0.00000000000E+00 -0.00000000000E+00 -0.45593999997E+02  0.45594000000E+02  0.51100000000E-03 0.  1.
    9900012    2    1    2    0    0 -0.72440067169E+00 -0.92697916983E+00  0.94932902218E-01  0.90007720808E+02  0.89999981923E+02 0.  0.
         12    1    1    2    0    0  0.72440067169E+00  0.92697916983E+00 -0.94932902218E-01  0.11802791917E+01  0.00000000000E+00 0. -1.
         11    1    3    3    0    0 -0.18731800903E+02  0.15045710383E+02  0.27632657771E+02  0.36617175502E+02  0.51100000000E-03 0. -1.
        -11    1    3    3    0    0 -0.11487906345E+02 -0.31711856812E+01 -0.14309243031E+02  0.18622106412E+02  0.51100000000E-03 0.  1.
        -12    1    3    3    0    0  0.29495306577E+02 -0.12801503872E+02 -0.13228481837E+02  0.34768438894E+02  0.00000000000E+00 0.  1.
</event>
<event>
 7    1  0.3707147E-015  0.9000652E+02  0.7816164E-02  0.1186341E+00
        -11   -1    0    0    0    0  0.00000000000E+00  0.00000000000E+00  0.45593999997E+02  0.45594000000E+02  0.51100000000E-03 0. -1.
         11   -1    0    0    0    0 -0.00000000000E+00 -0.00000000000E+00 -0.45593999997E+02  0.45594000000E+02  0.51100000000E-03 0.  1.
    9900012    2    1    2    0    0 -0.33269984365E+00  0.94796505522E+00 -0.62174851189E+00  0.90006518665E+02  0.89998763903E+02 0.  0.
         12    1    1    2    0    0  0.33269984365E+00 -0.94796505522E+00  0.62174851189E+00  0.11814813346E+01  0.00000000000E+00 0. -1.
         11    1    3    3    0    0  0.23822116961E+02  0.15471870114E+02  0.22616207483E+02  0.36309294437E+02  0.51100000000E-03 0. -1.
        -11    1    3    3    0    0  0.94536368306E+01  0.14568399728E+01  0.46293899448E+00  0.95764265154E+01  0.51100000000E-03 0.  1.
        -12    1    3    3    0    0 -0.33608453635E+02 -0.15980745032E+02 -0.23700894990E+02  0.44120797713E+02  0.00000000000E+00 0.  1.
</event>
<event>
 7    1  0.3707147E-015  0.9000778E+02  0.7816164E-02  0.1186339E+00
        -11   -1    0    0    0    0  0.00000000000E+00  0.00000000000E+00  0.45593999997E+02  0.45594000000E+02  0.51100000000E-03 0.  1.
         11   -1    0    0    0    0 -0.00000000000E+00 -0.00000000000E+00 -0.45593999997E+02  0.45594000000E+02  0.51100000000E-03 0. -1.
    9900012    2    1    2    0    0 -0.27955700316E-01  0.90390512792E+00 -0.75835483270E+00  0.90007776270E+02  0.90000038116E+02 0.  0.
         12    1    1    2    0    0  0.27955700316E-01 -0.90390512792E+00  0.75835483270E+00  0.11802237304E+01  0.00000000000E+00 0. -1.
         11    1    3    3    0    0  0.24199248816E+02 -0.15341140382E+02 -0.27961513434E+02  0.40034990512E+02  0.51100000000E-03 0. -1.
        -11    1    3    3    0    0  0.21978715297E+01  0.71087131441E+01 -0.36902246186E+01  0.83055523490E+01  0.51100000000E-03 0.  1.
        -12    1    3    3    0    0 -0.26425076046E+02  0.91363323661E+01  0.30893383220E+02  0.41667233409E+02  0.00000000000E+00 0.  1.
</event>
<event>
 7    1  0.3707147E-015  0.9000774E+02  0.7816164E-02  0.1186339E+00
        -11   -1    0    0    0    0  0.00000000000E+00  0.00000000000E+00  0.45593999997E+02  0.45594000000E+02  0.51100000000E-03 0. -1.
         11   -1    0    0    0    0 -0.00000000000E+00 -0.00000000000E+00 -0.45593999997E+02  0.45594000000E+02  0.51100000000E-03 0.  1.
    9900012    2    1    2    0    0  0.18219631172E+00  0.81737380920E+00 -0.83169846701E+00  0.90007738258E+02  0.89999999603E+02 0.  0.
         12    1    1    2    0    0 -0.18219631172E+00 -0.81737380920E+00  0.83169846701E+00  0.11802617422E+01  0.00000000000E+00 0. -1.
         11    1    3    3    0    0 -0.48118289492E+01 -0.38022013535E+02 -0.19296656440E+02  0.42909068519E+02  0.51100000000E-03 0. -1.
        -11    1    3    3    0    0  0.79438806636E+01  0.56920806665E+01  0.20217294157E+01  0.99795998118E+01  0.51100000000E-03 0.  1.
        -12    1    3    3    0    0 -0.29498554027E+01  0.33147306678E+02  0.16443228557E+02  0.37119069927E+02  0.00000000000E+00 0.  1.
</event>
<event>
 7    1  0.3707147E-015  0.9000773E+02  0.7816164E-02  0.1186339E+00
        -11   -1    0    0    0    0  0.00000000000E+00  0.00000000000E+00  0.45593999997E+02  0.45594000000E+02  0.51100000000E-03 0.  1.
         11   -1    0    0    0    0 -0.00000000000E+00 -0.00000000000E+00 -0.45593999997E+02  0.45594000000E+02  0.51100000000E-03 0. -1.
    9900012    2    1    2    0    0  0.10151942332E+00  0.11650678265E+01  0.15921459277E+00  0.90007729472E+02  0.89999990701E+02 0.  0.
         12    1    1    2    0    0 -0.10151942332E+00 -0.11650678265E+01 -0.15921459277E+00  0.11802705284E+01  0.00000000000E+00 0. -1.
         11    1    3    3    0    0  0.72478586859E+01  0.12064914382E+01 -0.44886662468E+01  0.86101801408E+01  0.51100000000E-03 0. -1.
        -11    1    3    3    0    0  0.69843761804E+01  0.34224854154E+01  0.41267249843E+02  0.41993818913E+02  0.51100000000E-03 0.  1.
         12    1    3    3    0    0 -0.14130715443E+02 -0.34639090271E+01 -0.36619369003E+02  0.39403730418E+02  0.00000000000E+00 0. -1.
</event>
<event>
 7    1  0.3707147E-015  0.9000780E+02  0.7816164E-02  0.1186339E+00
        -11   -1    0    0    0    0  0.00000000000E+00  0.00000000000E+00  0.45593999997E+02  0.45594000000E+02  0.51100000000E-03 0.  1.
         11   -1    0    0    0    0 -0.00000000000E+00 -0.00000000000E+00 -0.45593999997E+02  0.45594000000E+02  0.51100000000E-03 0. -1.
    9900012    2    1    2    0    0 -0.23403101530E+00 -0.85847949838E-01  0.11535744045E+01  0.90007799045E+02  0.90000061193E+02 0.  0.
         12    1    1    2    0    0  0.23403101530E+00  0.85847949838E-01 -0.11535744045E+01  0.11802009546E+01  0.00000000000E+00 0. -1.
         11    1    3    3    0    0 -0.21774636434E+02 -0.28090068427E+02 -0.13107942628E+02  0.37881458476E+02  0.51100000000E-03 0. -1.
        -11    1    3    3    0    0  0.67619006578E+01 -0.65231497895E+01 -0.41827825817E+01  0.10284476363E+02  0.51100000000E-03 0.  1.
        -12    1    3    3    0    0  0.14778704761E+02  0.34527370267E+02  0.18444299614E+02  0.41841864206E+02  0.00000000000E+00 0.  1.
</event>
<event>
 7    1  0.3707147E-015  0.9000775E+02  0.7816164E-02  0.1186339E+00
        -11   -1    0    0    0    0  0.00000000000E+00  0.00000000000E+00  0.45593999997E+02  0.45594000000E+02  0.51100000000E-03 0.  1.
         11   -1    0    0    0    0 -0.00000000000E+00 -0.00000000000E+00 -0.45593999997E+02  0.45594000000E+02  0.51100000000E-03 0. -1.
    9900012    2    1    2    0    0  0.88630814601E+00 -0.19636987357E-01  0.77914958487E+00  0.90007745021E+02  0.90000006455E+02 0.  0.
         12    1    1    2    0    0 -0.88630814601E+00  0.19636987357E-01 -0.77914958487E+00  0.11802549795E+01  0.00000000000E+00 0. -1.
         11    1    3    3    0    0  0.56338989286E+00  0.88552652220E+01  0.15908606896E+00  0.88745951436E+01  0.51100000000E-03 0. -1.
        -11    1    3    3    0    0  0.60723101289E+01 -0.31925406850E+02  0.29394177535E+02  0.43819199286E+02  0.51100000000E-03 0.  1.
         12    1    3    3    0    0 -0.57493918758E+01  0.23050504641E+02 -0.28774114019E+02  0.37313950591E+02  0.00000000000E+00 0. -1.
</event>
<event>
 7    1  0.3707147E-015  0.9000775E+02  0.7816164E-02  0.1186339E+00
        -11   -1    0    0    0    0  0.00000000000E+00  0.00000000000E+00  0.45593999997E+02  0.45594000000E+02  0.51100000000E-03 0.  1.
         11   -1    0    0    0    0 -0.00000000000E+00 -0.00000000000E+00 -0.45593999997E+02  0.45594000000E+02  0.51100000000E-03 0. -1.
    9900012    2    1    2    0    0  0.11343603726E+01  0.27248941379E+00 -0.17881248168E+00  0.90007746706E+02  0.90000008162E+02 0.  0.
         12    1    1    2    0    0 -0.11343603726E+01 -0.27248941379E+00  0.17881248168E+00  0.11802532945E+01  0.00000000000E+00 0. -1.
         11    1    3    3    0    0 -0.23142830633E+02 -0.14196963020E+02 -0.23236740914E+02  0.35736402971E+02  0.51100000000E-03 0. -1.
        -11    1    3    3    0    0 -0.48362363786E+01 -0.37715659380E+01 -0.65098808316E+01  0.89438493188E+01  0.51100000000E-03 0.  1.
        -12    1    3    3    0    0  0.29113427385E+02  0.18241018372E+02  0.29567809264E+02  0.45327494416E+02  0.00000000000E+00 0.  1.
</event>
<event>
 7    1  0.3707147E-015  0.9000771E+02  0.7816164E-02  0.1186339E+00
        -11   -1    0    0    0    0  0.00000000000E+00  0.00000000000E+00  0.45593999997E+02  0.45594000000E+02  0.51100000000E-03 0.  1.
         11   -1    0    0    0    0 -0.00000000000E+00 -0.00000000000E+00 -0.45593999997E+02  0.45594000000E+02  0.51100000000E-03 0. -1.
    9900012    2    1    2    0    0  0.91480394512E+00  0.45025694750E+00  0.59454891790E+00  0.90007709361E+02  0.89999970325E+02 0.  0.
         12    1    1    2    0    0 -0.91480394512E+00 -0.45025694750E+00 -0.59454891790E+00  0.11802906390E+01  0.00000000000E+00 0. -1.
         11    1    3    3    0    0 -0.29132206605E+02 -0.18371282530E+02 -0.21791943726E+02  0.40756328283E+02  0.51100000000E-03 0. -1.
        -11    1    3    3    0    0  0.58443835648E+01 -0.62197266880E+01  0.75576824475E+01  0.11400016823E+02  0.51100000000E-03 0.  1.
        -12    1    3    3    0    0  0.24202626985E+02  0.25041266166E+02  0.14828810197E+02  0.37851364255E+02  0.00000000000E+00 0.  1.
</event>
<event>
 7    1  0.3707147E-015  0.9000758E+02  0.7816164E-02  0.1186339E+00
        -11   -1    0    0    0    0  0.00000000000E+00  0.00000000000E+00  0.45593999997E+02  0.45594000000E+02  0.51100000000E-03 0. -1.
         11   -1    0    0    0    0 -0.00000000000E+00 -0.00000000000E+00 -0.45593999997E+02  0.45594000000E+02  0.51100000000E-03 0.  1.
    9900012    2    1    2    0    0  0.23782607567E-01  0.11483085136E+01 -0.27240355545E+00  0.90007584077E+02  0.89999843386E+02 0.  0.
         12    1    1    2    0    0 -0.23782607567E-01 -0.11483085136E+01  0.27240355545E+00  0.11804159232E+01  0.00000000000E+00 0. -1.
         11    1    3    3    0    0 -0.77936020610E+01  0.41202307000E+01  0.26738588357E+01  0.92122774296E+01  0.51100000000E-03 0. -1.
        -11    1    3    3    0    0  0.74285613275E+01  0.37758459108E+02  0.63837759919E+01  0.39008170346E+02  0.51100000000E-03 0.  1.
         12    1    3    3    0    0  0.38882334099E+00 -0.40730381294E+02 -0.93300383831E+01  0.41787136301E+02  0.00000000000E+00 0. -1.
</event>
<event>
 7    1  0.3707147E-015  0.9000781E+02  0.7816164E-02  0.1186339E+00
        -11   -1    0    0    0    0  0.00000000000E+00  0.00000000000E+00  0.45593999997E+02  0.45594000000E+02  0.51100000000E-03 0. -1.
         11   -1    0    0    0    0 -0.00000000000E+00 -0.00000000000E+00 -0.45593999997E+02  0.45594000000E+02  0.51100000000E-03 0.  1.
    9900012    2    1    2    0    0 -0.54475023526E+00 -0.92083885203E+00  0.49814440137E+00  0.90007811517E+02  0.90000073829E+02 0.  0.
         12    1    1    2    0    0  0.54475023526E+00  0.92083885203E+00 -0.49814440137E+00  0.11801884828E+01  0.00000000000E+00 0. -1.
         11    1    3    3    0    0 -0.72614062714E+01  0.13170722006E+02  0.29500189293E+02  0.33112793717E+02  0.51100000000E-03 0. -1.
        -11    1    3    3    0    0  0.77729506321E+00 -0.76375814443E+01  0.12394520565E+02  0.14579471123E+02  0.51100000000E-03 0.  1.
        -12    1    3    3    0    0  0.59393609729E+01 -0.64539794140E+01 -0.41396565456E+02  0.42315546677E+02  0.00000000000E+00 0.  1.
</event>
<event>
 7    1  0.3707147E-015  0.9000778E+02  0.7816164E-02  0.1186339E+00
        -11   -1    0    0    0    0  0.00000000000E+00  0.00000000000E+00  0.45593999997E+02  0.45594000000E+02  0.51100000000E-03 0. -1.
         11   -1    0    0    0    0 -0.00000000000E+00 -0.00000000000E+00 -0.45593999997E+02  0.45594000000E+02  0.51100000000E-03 0.  1.
    9900012    2    1    2    0    0  0.11020771666E+01 -0.38346188180E+00 -0.17694402415E+00  0.90007777020E+02  0.90000038876E+02 0.  0.
         12    1    1    2    0    0 -0.11020771666E+01  0.38346188180E+00  0.17694402415E+00  0.11802229804E+01  0.00000000000E+00 0. -1.
         11    1    3    3    0    0  0.31251351162E+02 -0.22988131246E+02 -0.97586352952E+00  0.38807904317E+02  0.51100000000E-03 0. -1.
        -11    1    3    3    0    0  0.56049352435E+01  0.18815788446E+01 -0.69810509939E+01  0.91482627462E+01  0.51100000000E-03 0.  1.
        -12    1    3    3    0    0 -0.35754209238E+02  0.20723090519E+02  0.77799704993E+01  0.42051609956E+02  0.00000000000E+00 0.  1.
</event>
<event>
 7    1  0.3707147E-015  0.9000778E+02  0.7816164E-02  0.1186339E+00
        -11   -1    0    0    0    0  0.00000000000E+00  0.00000000000E+00  0.45593999997E+02  0.45594000000E+02  0.51100000000E-03 0. -1.
         11   -1    0    0    0    0 -0.00000000000E+00 -0.00000000000E+00 -0.45593999997E+02  0.45594000000E+02  0.51100000000E-03 0.  1.
    9900012    2    1    2    0    0 -0.70582773807E+00 -0.66512708924E+00  0.67255905525E+00  0.90007778613E+02  0.90000040490E+02 0.  0.
         12    1    1    2    0    0  0.70582773807E+00  0.66512708924E+00 -0.67255905525E+00  0.11802213875E+01  0.00000000000E+00 0. -1.
         11    1    3    3    0    0  0.34725855459E+01 -0.72717046509E+01  0.50337144535E+01  0.95013062452E+01  0.51100000000E-03 0. -1.
        -11    1    3    3    0    0  0.15033300516E+02  0.39028702561E+02 -0.82157184211E+01  0.42623207029E+02  0.51100000000E-03 0.  1.
         12    1    3    3    0    0 -0.19211713800E+02 -0.32422124999E+02  0.38545630228E+01  0.37883265338E+02  0.00000000000E+00 0. -1.
</event>
<event>
 7    1  0.3707147E-015  0.9000808E+02  0.7816164E-02  0.1186338E+00
        -11   -1    0    0    0    0  0.00000000000E+00  0.00000000000E+00  0.45593999997E+02  0.45594000000E+02  0.51100000000E-03 0.  1.
         11   -1    0    0    0    0 -0.00000000000E+00 -0.00000000000E+00 -0.45593999997E+02  0.45594000000E+02  0.51100000000E-03 0. -1.
    9900012    2    1    2    0    0  0.45537671371E+00  0.21864777372E+00  0.10663233478E+01  0.90008076154E+02  0.90000341959E+02 0.  0.
         12    1    1    2    0    0 -0.45537671371E+00 -0.21864777372E+00 -0.10663233478E+01  0.11799238460E+01  0.00000000000E+00 0. -1.
         11    1    3    3    0    0 -0.69994644056E+01  0.36492383584E+02  0.14013189744E+02  0.39712164996E+02  0.51100000000E-03 0. -1.
        -11    1    3    3    0    0  0.93573857446E-01  0.47921897593E+01 -0.65063457570E+01  0.80812359282E+01  0.51100000000E-03 0.  1.
        -12    1    3    3    0    0  0.73612672619E+01 -0.41065925570E+02 -0.64405206390E+01  0.42214675229E+02  0.00000000000E+00 0.  1.
</event>
<event>
 7    1  0.3707147E-015  0.9000770E+02  0.7816164E-02  0.1186339E+00
        -11   -1    0    0    0    0  0.00000000000E+00  0.00000000000E+00  0.45593999997E+02  0.45594000000E+02  0.51100000000E-03 0.  1.
         11   -1    0    0    0    0 -0.00000000000E+00 -0.00000000000E+00 -0.45593999997E+02  0.45594000000E+02  0.51100000000E-03 0. -1.
    9900012    2    1    2    0    0 -0.31951123577E+00  0.95468461574E+00  0.61611985998E+00  0.90007697570E+02  0.89999958378E+02 0.  0.
         12    1    1    2    0    0  0.31951123577E+00 -0.95468461574E+00 -0.61611985998E+00  0.11803024304E+01  0.00000000000E+00 0. -1.
         11    1    3    3    0    0  0.29000568980E+02  0.11830091395E+02 -0.13725627107E+02  0.34196153341E+02  0.51100000000E-03 0. -1.
        -11    1    3    3    0    0  0.74029280253E+01  0.82845330752E+01 -0.19905009695E+01  0.11287113271E+02  0.51100000000E-03 0.  1.
        -12    1    3    3    0    0 -0.36723008241E+02 -0.19159939854E+02  0.16332247936E+02  0.44524430958E+02  0.00000000000E+00 0.  1.
</event>
<event>
 7    1  0.3707147E-015  0.9000767E+02  0.7816164E-02  0.1186339E+00
        -11   -1    0    0    0    0  0.00000000000E+00  0.00000000000E+00  0.45593999997E+02  0.45594000000E+02  0.51100000000E-03 0.  1.
         11   -1    0    0    0    0 -0.00000000000E+00 -0.00000000000E+00 -0.45593999997E+02  0.45594000000E+02  0.51100000000E-03 0. -1.
    9900012    2    1    2    0    0 -0.13959266645E+00 -0.10813911215E+00  0.11670422942E+01  0.90007674665E+02  0.89999935171E+02 0.  0.
         12    1    1    2    0    0  0.13959266645E+00  0.10813911215E+00 -0.11670422942E+01  0.11803253350E+01  0.00000000000E+00 0. -1.
         11    1    3    3    0    0 -0.30363374641E+02  0.15350190294E+02  0.11956853325E+02  0.36062850738E+02  0.51100000000E-03 0. -1.
        -11    1    3    3    0    0 -0.93108941979E+01  0.17657203466E+01  0.60345182821E-01  0.94770333390E+01  0.51100000000E-03 0.  1.
        -12    1    3    3    0    0  0.39534676172E+02 -0.17224049753E+02 -0.10850156214E+02  0.44467790588E+02  0.00000000000E+00 0.  1.
</event>
<event>
 7    1  0.3707147E-015  0.9000780E+02  0.7816164E-02  0.1186339E+00
        -11   -1    0    0    0    0  0.00000000000E+00  0.00000000000E+00  0.45593999997E+02  0.45594000000E+02  0.51100000000E-03 0. -1.
         11   -1    0    0    0    0 -0.00000000000E+00 -0.00000000000E+00 -0.45593999997E+02  0.45594000000E+02  0.51100000000E-03 0.  1.
    9900012    2    1    2    0    0 -0.94425087845E+00 -0.85676661418E-02 -0.70795356500E+00  0.90007796045E+02  0.90000058152E+02 0.  0.
         12    1    1    2    0    0  0.94425087845E+00  0.85676661418E-02  0.70795356500E+00  0.11802039555E+01  0.00000000000E+00 0. -1.
         11    1    3    3    0    0  0.66045051712E+01  0.38290762618E+02  0.35140210957E+01  0.39014745097E+02  0.51100000000E-03 0. -1.
        -11    1    3    3    0    0  0.24317120832E+01  0.18909309196E+01 -0.88059326291E+01  0.93291635814E+01  0.51100000000E-03 0.  1.
        -12    1    3    3    0    0 -0.99804681328E+01 -0.40190261204E+02  0.45839579684E+01  0.41663887366E+02  0.00000000000E+00 0.  1.
</event>
<event>
 7    1  0.3707147E-015  0.9000774E+02  0.7816164E-02  0.1186339E+00
        -11   -1    0    0    0    0  0.00000000000E+00  0.00000000000E+00  0.45593999997E+02  0.45594000000E+02  0.51100000000E-03 0.  1.
         11   -1    0    0    0    0 -0.00000000000E+00 -0.00000000000E+00 -0.45593999997E+02  0.45594000000E+02  0.51100000000E-03 0. -1.
    9900012    2    1    2    0    0 -0.39922687280E+00  0.77781704397E+00  0.79285615400E+00  0.90007744803E+02  0.90000006234E+02 0.  0.
         12    1    1    2    0    0  0.39922687280E+00 -0.77781704397E+00 -0.79285615400E+00  0.11802551973E+01  0.00000000000E+00 0. -1.
         11    1    3    3    0    0  0.94369504554E+01  0.38193116721E+02 -0.81094908223E+01  0.40168819256E+02  0.51100000000E-03 0. -1.
        -11    1    3    3    0    0  0.73398558686E+01  0.38617736687E-01  0.39571917842E+01  0.83387254770E+01  0.51100000000E-03 0.  1.
        -12    1    3    3    0    0 -0.17176033197E+02 -0.37453917413E+02  0.49451551921E+01  0.41500200070E+02  0.00000000000E+00 0.  1.
</event>
<event>
 7    1  0.3707147E-015  0.9000776E+02  0.7816164E-02  0.1186339E+00
        -11   -1    0    0    0    0  0.00000000000E+00  0.00000000000E+00  0.45593999997E+02  0.45594000000E+02  0.51100000000E-03 0.  1.
         11   -1    0    0    0    0 -0.00000000000E+00 -0.00000000000E+00 -0.45593999997E+02  0.45594000000E+02  0.51100000000E-03 0. -1.
    9900012    2    1    2    0    0  0.42303663052E+00  0.92582161502E+00  0.59738090661E+00  0.90007758668E+02  0.90000020283E+02 0.  0.
         12    1    1    2    0    0 -0.42303663052E+00 -0.92582161502E+00 -0.59738090661E+00  0.11802413318E+01  0.00000000000E+00 0. -1.
         11    1    3    3    0    0  0.23859588641E+01  0.21193860140E+00  0.10270325165E+02  0.10545961167E+02  0.51100000000E-03 0. -1.
        -11    1    3    3    0    0  0.34657877681E+02 -0.95391345274E+01  0.90576406291E+01  0.37070263378E+02  0.51100000000E-03 0.  1.
         12    1    3    3    0    0 -0.36620799915E+02  0.10253017541E+02 -0.18730584888E+02  0.42391534123E+02  0.00000000000E+00 0. -1.
</event>
<event>
 7    1  0.3707147E-015  0.9000772E+02  0.7816164E-02  0.1186339E+00
        -11   -1    0    0    0    0  0.00000000000E+00  0.00000000000E+00  0.45593999997E+02  0.45594000000E+02  0.51100000000E-03 0. -1.
         11   -1    0    0    0    0 -0.00000000000E+00 -0.00000000000E+00 -0.45593999997E+02  0.45594000000E+02  0.51100000000E-03 0.  1.
    9900012    2    1    2    0    0  0.98523957992E+00  0.60455749009E+00 -0.23850279631E+00  0.90007715978E+02  0.89999977029E+02 0.  0.
         12    1    1    2    0    0 -0.98523957992E+00 -0.60455749009E+00  0.23850279631E+00  0.11802840220E+01  0.00000000000E+00 0. -1.
         11    1    3    3    0    0 -0.82175694479E+01  0.23006572548E+02  0.28232457161E+02  0.37335003222E+02  0.51100000000E-03 0. -1.
        -11    1    3    3    0    0  0.17228025593E+01 -0.95263644701E+00  0.88039158823E+01  0.90213358203E+01  0.51100000000E-03 0.  1.
        -12    1    3    3    0    0  0.74800064685E+01 -0.21449378610E+02 -0.37274875839E+02  0.43651376936E+02  0.00000000000E+00 0.  1.
</event>
<event>
 7    1  0.3707147E-015  0.9000768E+02  0.7816164E-02  0.1186339E+00
        -11   -1    0    0    0    0  0.00000000000E+00  0.00000000000E+00  0.45593999997E+02  0.45594000000E+02  0.51100000000E-03 0. -1.
         11   -1    0    0    0    0 -0.00000000000E+00 -0.00000000000E+00 -0.45593999997E+02  0.45594000000E+02  0.51100000000E-03 0.  1.
    9900012    2    1    2    0    0  0.11416591630E+00 -0.18011090230E+00 -0.11608932821E+01  0.90007683514E+02  0.89999944137E+02 0.  0.
         12    1    1    2    0    0 -0.11416591630E+00  0.18011090230E+00  0.11608932821E+01  0.11803164855E+01  0.00000000000E+00 0. -1.
         11    1    3    3    0    0 -0.14702739701E+02 -0.37120783639E+02 -0.96160237554E+01  0.41068126884E+02  0.51100000000E-03 0. -1.
        -11    1    3    3    0    0 -0.49529767327E+01  0.51011175555E+01 -0.54568195189E+01  0.89627148985E+01  0.51100000000E-03 0.  1.
        -12    1    3    3    0    0  0.19769882350E+02  0.31839555181E+02  0.13911949992E+02  0.39976841732E+02  0.00000000000E+00 0.  1.
</event>
<event>
 7    1  0.3707147E-015  0.9000768E+02  0.7816164E-02  0.1186339E+00
        -11   -1    0    0    0    0  0.00000000000E+00  0.00000000000E+00  0.45593999997E+02  0.45594000000E+02  0.51100000000E-03 0. -1.
         11   -1    0    0    0    0 -0.00000000000E+00 -0.00000000000E+00 -0.45593999997E+02  0.45594000000E+02  0.51100000000E-03 0.  1.
    9900012    2    1    2    0    0 -0.55377393065E+00  0.10249057334E+01  0.18989496744E+00  0.90007679100E+02  0.89999939664E+02 0.  0.
         12    1    1    2    0    0  0.55377393065E+00 -0.10249057334E+01 -0.18989496744E+00  0.11803209001E+01  0.00000000000E+00 0. -1.
         11    1    3    3    0    0 -0.13764376425E+02 -0.87616627658E+00  0.13843424882E+02  0.19541395509E+02  0.51100000000E-03 0. -1.
        -11    1    3    3    0    0  0.14025316937E+02  0.30424768175E+02 -0.22773083000E+02  0.40509126666E+02  0.51100000000E-03 0.  1.
         12    1    3    3    0    0 -0.81471444244E+00 -0.28523696165E+02  0.91195530854E+01  0.29957156925E+02  0.00000000000E+00 0. -1.
</event>
<event>
 7    1  0.3707147E-015  0.9000779E+02  0.7816164E-02  0.1186339E+00
        -11   -1    0    0    0    0  0.00000000000E+00  0.00000000000E+00  0.45593999997E+02  0.45594000000E+02  0.51100000000E-03 0.  1.
         11   -1    0    0    0    0 -0.00000000000E+00 -0.00000000000E+00 -0.45593999997E+02  0.45594000000E+02  0.51100000000E-03 0. -1.
    9900012    2    1    2    0    0  0.75843744381E+00 -0.20663434642E+00  0.88032394607E+00  0.90007790121E+02  0.90000052150E+02 0.  0.
         12    1    1    2    0    0 -0.75843744381E+00  0.20663434642E+00 -0.88032394607E+00  0.11802098793E+01  0.00000000000E+00 0. -1.
         11    1    3    3    0    0  0.94310719113E+00 -0.82778181791E+01 -0.11390930105E+01  0.84088797189E+01  0.51100000000E-03 0. -1.
        -11    1    3    3    0    0  0.18225871021E+01 -0.36700981491E+02  0.25622904599E+00  0.36747102195E+02  0.51100000000E-03 0.  1.
         12    1    3    3    0    0 -0.20072568494E+01  0.44772165324E+02  0.17631879105E+01  0.44851808207E+02  0.00000000000E+00 0. -1.
</event>
<event>
 7    1  0.3707147E-015  0.9000776E+02  0.7816164E-02  0.1186339E+00
        -11   -1    0    0    0    0  0.00000000000E+00  0.00000000000E+00  0.45593999997E+02  0.45594000000E+02  0.51100000000E-03 0.  1.
         11   -1    0    0    0    0 -0.00000000000E+00 -0.00000000000E+00 -0.45593999997E+02  0.45594000000E+02  0.51100000000E-03 0. -1.
    9900012    2    1    2    0    0  0.73093780923E+00 -0.50605357376E+00  0.77627728606E+00  0.90007759887E+02  0.90000021517E+02 0.  0.
         12    1    1    2    0    0 -0.73093780923E+00  0.50605357376E+00 -0.77627728606E+00  0.11802401134E+01  0.00000000000E+00 0. -1.
         11    1    3    3    0    0  0.20320407598E+02 -0.16663262310E+02 -0.19329446024E+02  0.32622243326E+02  0.51100000000E-03 0. -1.
        -11    1    3    3    0    0 -0.29319993434E+01 -0.91612844118E+01 -0.10550695293E+02  0.14277357026E+02  0.51100000000E-03 0.  1.
        -12    1    3    3    0    0 -0.16657470445E+02  0.25318493148E+02  0.30656418603E+02  0.43108159535E+02  0.00000000000E+00 0.  1.
</event>
<event>
 7    1  0.3707147E-015  0.9000776E+02  0.7816164E-02  0.1186339E+00
        -11   -1    0    0    0    0  0.00000000000E+00  0.00000000000E+00  0.45593999997E+02  0.45594000000E+02  0.51100000000E-03 0. -1.
         11   -1    0    0    0    0 -0.00000000000E+00 -0.00000000000E+00 -0.45593999997E+02  0.45594000000E+02  0.51100000000E-03 0.  1.
    9900012    2    1    2    0    0  0.76036148716E+00  0.72966645793E+00 -0.53142424623E+00  0.90007756610E+02  0.90000018197E+02 0.  0.
         12    1    1    2    0    0 -0.76036148716E+00 -0.72966645793E+00  0.53142424623E+00  0.11802433903E+01  0.00000000000E+00 0. -1.
         11    1    3    3    0    0 -0.85043544720E+01  0.16867234833E+02  0.12582420702E+02  0.22696805214E+02  0.51100000000E-03 0. -1.
        -11    1    3    3    0    0 -0.15359300782E+02  0.17503144839E+02 -0.10485206166E+02  0.25538358373E+02  0.51100000000E-03 0.  1.
        -12    1    3    3    0    0  0.24624016741E+02 -0.33640713214E+02 -0.26286387824E+01  0.41772593023E+02  0.00000000000E+00 0.  1.
</event>
<event>
 7    1  0.3707147E-015  0.9000775E+02  0.7816164E-02  0.1186339E+00
        -11   -1    0    0    0    0  0.00000000000E+00  0.00000000000E+00  0.45593999997E+02  0.45594000000E+02  0.51100000000E-03 0. -1.
         11   -1    0    0    0    0 -0.00000000000E+00 -0.00000000000E+00 -0.45593999997E+02  0.45594000000E+02  0.51100000000E-03 0.  1.
    9900012    2    1    2    0    0  0.16043107529E-01  0.10637324769E+01  0.51108504526E+00  0.90007749142E+02  0.90000010631E+02 0.  0.
         12    1    1    2    0    0 -0.16043107529E-01 -0.10637324769E+01 -0.51108504526E+00  0.11802508577E+01  0.00000000000E+00 0. -1.
         11    1    3    3    0    0  0.10871998418E+02 -0.20386258387E+02  0.31062866897E+02  0.38713067313E+02  0.51100000000E-03 0. -1.
        -11    1    3    3    0    0  0.16439090261E+01 -0.84361017429E+01 -0.43673017704E+01  0.96407247921E+01  0.51100000000E-03 0.  1.
        -12    1    3    3    0    0 -0.12499864337E+02  0.29886092607E+02 -0.26184480081E+02  0.41653957037E+02  0.00000000000E+00 0.  1.
</event>
<event>
 7    1  0.3707147E-015  0.9000678E+02  0.7816164E-02  0.1186341E+00
        -11   -1    0    0    0    0  0.00000000000E+00  0.00000000000E+00  0.45593999997E+02  0.45594000000E+02  0.51100000000E-03 0.  1.
         11   -1    0    0    0    0 -0.00000000000E+00 -0.00000000000E+00 -0.45593999997E+02  0.45594000000E+02  0.51100000000E-03 0. -1.
    9900012    2    1    2    0    0  0.55901848564E-01 -0.11191197253E+01 -0.37379134983E+00  0.90006782853E+02  0.89999031581E+02 0.  0.
         12    1    1    2    0    0 -0.55901848564E-01  0.11191197253E+01  0.37379134983E+00  0.11812171474E+01  0.00000000000E+00 0. -1.
         11    1    3    3    0    0 -0.10134604557E+02 -0.13921251165E+02 -0.99600232634E+01  0.19892549037E+02  0.51100000000E-03 0. -1.
        -11    1    3    3    0    0 -0.28168708522E+02  0.12409580527E+02  0.75797338123E+01  0.31700570872E+02  0.51100000000E-03 0.  1.
        -12    1    3    3    0    0  0.38359214928E+02  0.39255091320E+00  0.20064981013E+01  0.38413662943E+02  0.00000000000E+00 0.  1.
</event>
<event>
 7    1  0.3707147E-015  0.9000770E+02  0.7816164E-02  0.1186339E+00
        -11   -1    0    0    0    0  0.00000000000E+00  0.00000000000E+00  0.45593999997E+02  0.45594000000E+02  0.51100000000E-03 0.  1.
         11   -1    0    0    0    0 -0.00000000000E+00 -0.00000000000E+00 -0.45593999997E+02  0.45594000000E+02  0.51100000000E-03 0. -1.
    9900012    2    1    2    0    0 -0.32786393260E-01 -0.11015309501E+01 -0.42267685206E+00  0.90007702960E+02  0.89999963839E+02 0.  0.
         12    1    1    2    0    0  0.32786393260E-01  0.11015309501E+01  0.42267685206E+00  0.11802970401E+01  0.00000000000E+00 0. -1.
         11    1    3    3    0    0  0.15869543331E+01  0.49831751824E+01  0.76884428808E+01  0.92985274719E+01  0.51100000000E-03 0. -1.
        -11    1    3    3    0    0 -0.36391851001E+00  0.12450594914E+02  0.33174739170E+02  0.35436041958E+02  0.51100000000E-03 0.  1.
         12    1    3    3    0    0 -0.12558222163E+01 -0.18535301046E+02 -0.41285858903E+02  0.45273133530E+02  0.00000000000E+00 0. -1.
</event>
<event>
 7    1  0.3707147E-015  0.9000784E+02  0.7816164E-02  0.1186339E+00
        -11   -1    0    0    0    0  0.00000000000E+00  0.00000000000E+00  0.45593999997E+02  0.45594000000E+02  0.51100000000E-03 0.  1.
         11   -1    0    0    0    0 -0.00000000000E+00 -0.00000000000E+00 -0.45593999997E+02  0.45594000000E+02  0.51100000000E-03 0. -1.
    9900012    2    1    2    0    0  0.21336077065E+00 -0.51143260366E+00  0.10419670133E+01  0.90007838408E+02  0.90000101075E+02 0.  0.
         12    1    1    2    0    0 -0.21336077065E+00  0.51143260366E+00 -0.10419670133E+01  0.11801615920E+01  0.00000000000E+00 0. -1.
         11    1    3    3    0    0 -0.10008902662E+02 -0.23970664689E+02  0.26714270694E+02  0.37261550653E+02  0.51100000000E-03 0. -1.
        -11    1    3    3    0    0 -0.23522291302E+01 -0.77752645893E+01  0.28603168768E+01  0.86121503826E+01  0.51100000000E-03 0.  1.
        -12    1    3    3    0    0  0.12574492562E+02  0.31234496674E+02 -0.28532620558E+02  0.44134137372E+02  0.00000000000E+00 0.  1.
</event>
<event>
 7    1  0.3707147E-015  0.9000782E+02  0.7816164E-02  0.1186339E+00
        -11   -1    0    0    0    0  0.00000000000E+00  0.00000000000E+00  0.45593999997E+02  0.45594000000E+02  0.51100000000E-03 0.  1.
         11   -1    0    0    0    0 -0.00000000000E+00 -0.00000000000E+00 -0.45593999997E+02  0.45594000000E+02  0.51100000000E-03 0. -1.
    9900012    2    1    2    0    0  0.50601348275E-01 -0.89850406549E+00  0.76351310181E+00  0.90007821069E+02  0.90000083507E+02 0.  0.
         12    1    1    2    0    0 -0.50601348275E-01  0.89850406549E+00 -0.76351310181E+00  0.11801789308E+01  0.00000000000E+00 0. -1.
         11    1    3    3    0    0  0.77775070734E+01 -0.43788805127E+01  0.74037652292E+01  0.11596549084E+02  0.51100000000E-03 0. -1.
        -11    1    3    3    0    0  0.23654681646E+02  0.25219468484E+02 -0.17455298355E+02  0.38733099480E+02  0.51100000000E-03 0.  1.
         12    1    3    3    0    0 -0.31381587371E+02 -0.21739092037E+02  0.10815046227E+02  0.39678172506E+02  0.00000000000E+00 0. -1.
</event>
<event>
 7    1  0.3707147E-015  0.9000775E+02  0.7816164E-02  0.1186339E+00
        -11   -1    0    0    0    0  0.00000000000E+00  0.00000000000E+00  0.45593999997E+02  0.45594000000E+02  0.51100000000E-03 0. -1.
         11   -1    0    0    0    0 -0.00000000000E+00 -0.00000000000E+00 -0.45593999997E+02  0.45594000000E+02  0.51100000000E-03 0.  1.
    9900012    2    1    2    0    0  0.59291893736E+00 -0.58523710407E+00 -0.83602871838E+00  0.90007746065E+02  0.90000007513E+02 0.  0.
         12    1    1    2    0    0 -0.59291893736E+00  0.58523710407E+00  0.83602871838E+00  0.11802539355E+01  0.00000000000E+00 0. -1.
         11    1    3    3    0    0  0.10086583265E+02 -0.34102128726E+02  0.23859708891E+01  0.35642491537E+02  0.51100000000E-03 0. -1.
        -11    1    3    3    0    0  0.17570688123E+01 -0.90565895613E+01 -0.46000386943E+01  0.10308708044E+02  0.51100000000E-03 0.  1.
        -12    1    3    3    0    0 -0.11250733140E+02  0.42573481184E+02  0.13780390868E+01  0.44056546483E+02  0.00000000000E+00 0.  1.
</event>
<event>
 7    1  0.3707147E-015  0.9000771E+02  0.7816164E-02  0.1186339E+00
        -11   -1    0    0    0    0  0.00000000000E+00  0.00000000000E+00  0.45593999997E+02  0.45594000000E+02  0.51100000000E-03 0.  1.
         11   -1    0    0    0    0 -0.00000000000E+00 -0.00000000000E+00 -0.45593999997E+02  0.45594000000E+02  0.51100000000E-03 0. -1.
    9900012    2    1    2    0    0 -0.93881520999E-01 -0.12700825516E+00  0.11696701317E+01  0.90007714842E+02  0.89999975878E+02 0.  0.
         12    1    1    2    0    0  0.93881520999E-01  0.12700825516E+00 -0.11696701317E+01  0.11802851578E+01  0.00000000000E+00 0. -1.
         11    1    3    3    0    0  0.22015584481E+01 -0.47561979891E+01 -0.71159934148E+01  0.88377396122E+01  0.51100000000E-03 0. -1.
        -11    1    3    3    0    0  0.28521674738E+02 -0.24279646293E+02 -0.25670484241E+01  0.37544332353E+02  0.51100000000E-03 0.  1.
         12    1    3    3    0    0 -0.30817114707E+02  0.28908836027E+02  0.10852711971E+02  0.43625642877E+02  0.00000000000E+00 0. -1.
</event>
<event>
 7    1  0.3707147E-015  0.9000766E+02  0.7816164E-02  0.1186339E+00
        -11   -1    0    0    0    0  0.00000000000E+00  0.00000000000E+00  0.45593999997E+02  0.45594000000E+02  0.51100000000E-03 0. -1.
         11   -1    0    0    0    0 -0.00000000000E+00 -0.00000000000E+00 -0.45593999997E+02  0.45594000000E+02  0.51100000000E-03 0.  1.
    9900012    2    1    2    0    0  0.11595892597E+01  0.15080953502E+00  0.16066186671E+00  0.90007659794E+02  0.89999920103E+02 0.  0.
         12    1    1    2    0    0 -0.11595892597E+01 -0.15080953502E+00 -0.16066186671E+00  0.11803402062E+01  0.00000000000E+00 0. -1.
         11    1    3    3    0    0  0.59119092128E+01 -0.54490318542E+01  0.72144134190E+01  0.10802332152E+02  0.51100000000E-03 0. -1.
        -11    1    3    3    0    0 -0.41660721366E+02  0.50026626309E+01 -0.45817478434E+01  0.42209415439E+02  0.51100000000E-03 0.  1.
         12    1    3    3    0    0  0.36908401413E+02  0.59717875841E+00 -0.24720037089E+01  0.36995912202E+02  0.00000000000E+00 0. -1.
</event>
<event>
 7    1  0.3707147E-015  0.9000779E+02  0.7816164E-02  0.1186339E+00
        -11   -1    0    0    0    0  0.00000000000E+00  0.00000000000E+00  0.45593999997E+02  0.45594000000E+02  0.51100000000E-03 0.  1.
         11   -1    0    0    0    0 -0.00000000000E+00 -0.00000000000E+00 -0.45593999997E+02  0.45594000000E+02  0.51100000000E-03 0. -1.
    9900012    2    1    2    0    0  0.50602415634E+00 -0.42394167956E+00  0.97831446047E+00  0.90007794010E+02  0.90000056091E+02 0.  0.
         12    1    1    2    0    0 -0.50602415634E+00  0.42394167956E+00 -0.97831446047E+00  0.11802059897E+01  0.00000000000E+00 0. -1.
         11    1    3    3    0    0 -0.25364231587E+02  0.27018859470E+02  0.16393706732E+02  0.40523038284E+02  0.51100000000E-03 0. -1.
        -11    1    3    3    0    0 -0.89634892253E+00 -0.12160596148E+00 -0.10938431800E+02  0.10975769673E+02  0.51100000000E-03 0.  1.
        -12    1    3    3    0    0  0.26766604666E+02 -0.27321195188E+02 -0.44769604714E+01  0.38508986054E+02  0.00000000000E+00 0.  1.
</event>
<event>
 7    1  0.3707147E-015  0.9000775E+02  0.7816164E-02  0.1186339E+00
        -11   -1    0    0    0    0  0.00000000000E+00  0.00000000000E+00  0.45593999997E+02  0.45594000000E+02  0.51100000000E-03 0.  1.
         11   -1    0    0    0    0 -0.00000000000E+00 -0.00000000000E+00 -0.45593999997E+02  0.45594000000E+02  0.51100000000E-03 0. -1.
    9900012    2    1    2    0    0 -0.11900587142E+00 -0.10790927441E+01 -0.46300790033E+00  0.90007754321E+02  0.90000015878E+02 0.  0.
         12    1    1    2    0    0  0.11900587142E+00  0.10790927441E+01  0.46300790033E+00  0.11802456793E+01  0.00000000000E+00 0. -1.
         11    1    3    3    0    0  0.28117822917E+01  0.42638756675E+01  0.11678285681E+02  0.12746337203E+02  0.51100000000E-03 0. -1.
        -11    1    3    3    0    0  0.54292650720E+01  0.34211058520E+02  0.12832301615E+01  0.34662950310E+02  0.51100000000E-03 0.  1.
         12    1    3    3    0    0 -0.83600532352E+01 -0.39554026932E+02 -0.13424523743E+02  0.42598466808E+02  0.00000000000E+00 0. -1.
</event>
<event>
 7    1  0.3707147E-015  0.9000782E+02  0.7816164E-02  0.1186339E+00
        -11   -1    0    0    0    0  0.00000000000E+00  0.00000000000E+00  0.45593999997E+02  0.45594000000E+02  0.51100000000E-03 0. -1.
         11   -1    0    0    0    0 -0.00000000000E+00 -0.00000000000E+00 -0.45593999997E+02  0.45594000000E+02  0.51100000000E-03 0.  1.
    9900012    2    1    2    0    0  0.81388963858E+00 -0.15775074687E+00 -0.83995567516E+00  0.90007819006E+02  0.90000081417E+02 0.  0.
         12    1    1    2    0    0 -0.81388963858E+00  0.15775074687E+00  0.83995567516E+00  0.11801809938E+01  0.00000000000E+00 0. -1.
         11    1    3    3    0    0 -0.33908471437E+02 -0.11670562280E+02 -0.27816155700E+01  0.35968372837E+02  0.51100000000E-03 0. -1.
        -11    1    3    3    0    0 -0.65178392543E+01 -0.38915623522E+01 -0.55230471224E+01  0.93877865263E+01  0.51100000000E-03 0.  1.
        -12    1    3    3    0    0  0.41240200330E+02  0.15404373885E+02  0.74647070172E+01  0.44651659643E+02  0.00000000000E+00 0.  1.
</event>
<event>
 7    1  0.3707147E-015  0.9000774E+02  0.7816164E-02  0.1186339E+00
        -11   -1    0    0    0    0  0.00000000000E+00  0.00000000000E+00  0.45593999997E+02  0.45594000000E+02  0.51100000000E-03 0. -1.
         11   -1    0    0    0    0 -0.00000000000E+00 -0.00000000000E+00 -0.45593999997E+02  0.45594000000E+02  0.51100000000E-03 0.  1.
    9900012    2    1    2    0    0  0.93015596300E+00  0.69730573141E+00 -0.20392888575E+00  0.90007740542E+02  0.90000001917E+02 0.  0.
         12    1    1    2    0    0 -0.93015596300E+00 -0.69730573141E+00  0.20392888575E+00  0.11802594583E+01  0.00000000000E+00 0. -1.
         11    1    3    3    0    0  0.19980101677E+02 -0.29158736561E+02  0.13540225799E+02  0.37852002533E+02  0.51100000000E-03 0. -1.
        -11    1    3    3    0    0 -0.39177466599E+01 -0.15737854576E+01  0.93922147875E+01  0.10297535551E+02  0.51100000000E-03 0.  1.
        -12    1    3    3    0    0 -0.15132199054E+02  0.31429827750E+02 -0.23136369472E+02  0.41858202457E+02  0.00000000000E+00 0.  1.
</event>
<event>
 7    1  0.3707147E-015  0.9000792E+02  0.7816164E-02  0.1186339E+00
        -11   -1    0    0    0    0  0.00000000000E+00  0.00000000000E+00  0.45593999997E+02  0.45594000000E+02  0.51100000000E-03 0. -1.
         11   -1    0    0    0    0 -0.00000000000E+00 -0.00000000000E+00 -0.45593999997E+02  0.45594000000E+02  0.51100000000E-03 0.  1.
    9900012    2    1    2    0    0  0.10402771884E+01  0.21682378336E+00 -0.51322275646E+00  0.90007920859E+02  0.90000184614E+02 0.  0.
         12    1    1    2    0    0 -0.10402771884E+01 -0.21682378336E+00  0.51322275646E+00  0.11800791412E+01  0.00000000000E+00 0. -1.
         11    1    3    3    0    0  0.40841567018E+02  0.65087695141E+01 -0.44489120637E+01  0.41595558608E+02  0.51100000000E-03 0. -1.
        -11    1    3    3    0    0 -0.34888170427E+01  0.73449916514E+01 -0.36096054647E+01  0.88966284956E+01  0.51100000000E-03 0.  1.
        -12    1    3    3    0    0 -0.36312472787E+02 -0.13636937382E+02  0.75452947719E+01  0.39515733756E+02  0.00000000000E+00 0.  1.
</event>
<event>
 7    1  0.4310022E-015  0.9000760E+02  0.7816164E-02  0.1186339E+00
        -11   -1    0    0    0    0  0.00000000000E+00  0.00000000000E+00  0.45593999997E+02  0.45594000000E+02  0.51100000000E-03 0. -1.
         11   -1    0    0    0    0 -0.00000000000E+00 -0.00000000000E+00 -0.45593999997E+02  0.45594000000E+02  0.51100000000E-03 0.  1.
    9900012    2    1    2    0    0  0.10772508909E+01  0.39340545774E+00 -0.27948958491E+00  0.90007596779E+02  0.89999856256E+02 0.  0.
         12    1    1    2    0    0 -0.10772508909E+01 -0.39340545774E+00  0.27948958491E+00  0.11804032210E+01  0.00000000000E+00 0. -1.
         11    1    3    3    0    0 -0.87985449397E+01 -0.81367050721E+00  0.31672150614E+01  0.93865704203E+01  0.51100000000E-03 0. -1.
        -11    1    3    3    0    0 -0.24842853012E+02 -0.48862998019E+01 -0.27934025788E+02  0.37700836443E+02  0.51100000000E-03 0.  1.
         12    1    3    3    0    0  0.34718648843E+02  0.60933757669E+01  0.24487321141E+02  0.42920189916E+02  0.00000000000E+00 0. -1.
</event>
<event>
 7    1  0.3707147E-015  0.9000770E+02  0.7816164E-02  0.1186339E+00
        -11   -1    0    0    0    0  0.00000000000E+00  0.00000000000E+00  0.45593999997E+02  0.45594000000E+02  0.51100000000E-03 0.  1.
         11   -1    0    0    0    0 -0.00000000000E+00 -0.00000000000E+00 -0.45593999997E+02  0.45594000000E+02  0.51100000000E-03 0. -1.
    9900012    2    1    2    0    0 -0.10236084848E+00  0.11698169835E+01 -0.11901705682E+00  0.90007697252E+02  0.89999958055E+02 0.  0.
         12    1    1    2    0    0  0.10236084848E+00 -0.11698169835E+01  0.11901705682E+00  0.11803027484E+01  0.00000000000E+00 0. -1.
         11    1    3    3    0    0  0.12252182974E+02 -0.20167529557E+01 -0.39506473822E+02  0.41411891459E+02  0.51100000000E-03 0. -1.
        -11    1    3    3    0    0  0.72564219995E+01  0.31442655719E+01  0.62075336403E+01  0.10053633193E+02  0.51100000000E-03 0.  1.
        -12    1    3    3    0    0 -0.19610965822E+02  0.42304367310E-01  0.33179923125E+02  0.38542172600E+02  0.00000000000E+00 0.  1.
</event>
<event>
 7    1  0.3707147E-015  0.9000783E+02  0.7816164E-02  0.1186339E+00
        -11   -1    0    0    0    0  0.00000000000E+00  0.00000000000E+00  0.45593999997E+02  0.45594000000E+02  0.51100000000E-03 0.  1.
         11   -1    0    0    0    0 -0.00000000000E+00 -0.00000000000E+00 -0.45593999997E+02  0.45594000000E+02  0.51100000000E-03 0. -1.
    9900012    2    1    2    0    0 -0.53687048154E+00 -0.70264716053E-01  0.10486291330E+01  0.90007834714E+02  0.90000097332E+02 0.  0.
         12    1    1    2    0    0  0.53687048154E+00  0.70264716053E-01 -0.10486291330E+01  0.11801652863E+01  0.00000000000E+00 0. -1.
         11    1    3    3    0    0 -0.19541564640E+02 -0.25621074175E+02  0.20325552812E+02  0.38097772741E+02  0.51100000000E-03 0. -1.
        -11    1    3    3    0    0 -0.95990065410E+01 -0.23833874206E+00 -0.26479185868E+01  0.99603817715E+01  0.51100000000E-03 0.  1.
        -12    1    3    3    0    0  0.28603700700E+02  0.25789148201E+02 -0.16629005092E+02  0.41949680201E+02  0.00000000000E+00 0.  1.
</event>
<event>
 7    1  0.3707147E-015  0.9000771E+02  0.7816164E-02  0.1186339E+00
        -11   -1    0    0    0    0  0.00000000000E+00  0.00000000000E+00  0.45593999997E+02  0.45594000000E+02  0.51100000000E-03 0.  1.
         11   -1    0    0    0    0 -0.00000000000E+00 -0.00000000000E+00 -0.45593999997E+02  0.45594000000E+02  0.51100000000E-03 0. -1.
    9900012    2    1    2    0    0 -0.64191278253E+00  0.87954453078E+00  0.45545918186E+00  0.90007706109E+02  0.89999967030E+02 0.  0.
         12    1    1    2    0    0  0.64191278253E+00 -0.87954453078E+00 -0.45545918186E+00  0.11802938907E+01  0.00000000000E+00 0. -1.
         11    1    3    3    0    0 -0.98072750976E+01  0.40174236003E+01 -0.93777805345E+01  0.14151505405E+02  0.51100000000E-03 0. -1.
        -11    1    3    3    0    0  0.18562828498E+02 -0.32197457165E+02 -0.11149415771E+02  0.38801602055E+02  0.51100000000E-03 0.  1.
         12    1    3    3    0    0 -0.93974661834E+01  0.29059578095E+02  0.20982655487E+02  0.37054598649E+02  0.00000000000E+00 0. -1.
</event>
<event>
 7    1  0.4111104E-015  0.9000779E+02  0.7816164E-02  0.1186339E+00
        -11   -1    0    0    0    0  0.00000000000E+00  0.00000000000E+00  0.45593999997E+02  0.45594000000E+02  0.51100000000E-03 0.  1.
         11   -1    0    0    0    0 -0.00000000000E+00 -0.00000000000E+00 -0.45593999997E+02  0.45594000000E+02  0.51100000000E-03 0. -1.
    9900012    2    1    2    0    0 -0.61345460126E+00  0.90752030019E+00  0.43927800526E+00  0.90007794590E+02  0.90000056679E+02 0.  0.
         12    1    1    2    0    0  0.61345460126E+00 -0.90752030019E+00 -0.43927800526E+00  0.11802054097E+01  0.00000000000E+00 0. -1.
         11    1    3    3    0    0  0.25880599243E-02 -0.20006578425E+00 -0.92877720955E+01  0.92899270059E+01  0.51100000000E-03 0. -1.
        -11    1    3    3    0    0 -0.38348965846E+02  0.51126204632E+00 -0.77534240476E+01  0.39128252645E+02  0.51100000000E-03 0.  1.
         12    1    3    3    0    0  0.37732923184E+02  0.59632403812E+00  0.17480474148E+02  0.41589614940E+02  0.00000000000E+00 0. -1.
</event>
<event>
 7    1  0.3707147E-015  0.9000774E+02  0.7816164E-02  0.1186339E+00
        -11   -1    0    0    0    0  0.00000000000E+00  0.00000000000E+00  0.45593999997E+02  0.45594000000E+02  0.51100000000E-03 0.  1.
         11   -1    0    0    0    0 -0.00000000000E+00 -0.00000000000E+00 -0.45593999997E+02  0.45594000000E+02  0.51100000000E-03 0. -1.
    9900012    2    1    2    0    0 -0.36416767742E+00  0.10126968105E+01 -0.48460753506E+00  0.90007738423E+02  0.89999999770E+02 0.  0.
         12    1    1    2    0    0  0.36416767742E+00 -0.10126968105E+01  0.48460753506E+00  0.11802615771E+01  0.00000000000E+00 0. -1.
         11    1    3    3    0    0  0.80966692459E+00  0.10436720498E+02 -0.12206661569E+01  0.10539009508E+02  0.51100000000E-03 0. -1.
        -11    1    3    3    0    0  0.47542006707E+01  0.32455736540E+02  0.13222697970E+02  0.35366891300E+02  0.51100000000E-03 0.  1.
         12    1    3    3    0    0 -0.59280352727E+01 -0.41879760227E+02 -0.12486639348E+02  0.44101837615E+02  0.00000000000E+00 0. -1.
</event>
<event>
 7    1  0.3707147E-015  0.9000786E+02  0.7816164E-02  0.1186339E+00
        -11   -1    0    0    0    0  0.00000000000E+00  0.00000000000E+00  0.45593999997E+02  0.45594000000E+02  0.51100000000E-03 0.  1.
         11   -1    0    0    0    0 -0.00000000000E+00 -0.00000000000E+00 -0.45593999997E+02  0.45594000000E+02  0.51100000000E-03 0. -1.
    9900012    2    1    2    0    0 -0.61807957597E-01 -0.88165508801E+00  0.78204055180E+00  0.90007862998E+02  0.90000125990E+02 0.  0.
         12    1    1    2    0    0  0.61807957597E-01  0.88165508801E+00 -0.78204055180E+00  0.11801370016E+01  0.00000000000E+00 0. -1.
         11    1    3    3    0    0 -0.38483874064E+01 -0.98446129565E+00  0.85803328770E+01  0.94552293580E+01  0.51100000000E-03 0. -1.
        -11    1    3    3    0    0 -0.12364005965E+02  0.32825022825E+01  0.33626329796E+02  0.35977402915E+02  0.51100000000E-03 0.  1.
         12    1    3    3    0    0  0.16150585414E+02 -0.31796960748E+01 -0.41424622121E+02  0.44575230725E+02  0.00000000000E+00 0. -1.
</event>
<event>
 7    1  0.3707147E-015  0.9000774E+02  0.7816164E-02  0.1186339E+00
        -11   -1    0    0    0    0  0.00000000000E+00  0.00000000000E+00  0.45593999997E+02  0.45594000000E+02  0.51100000000E-03 0.  1.
         11   -1    0    0    0    0 -0.00000000000E+00 -0.00000000000E+00 -0.45593999997E+02  0.45594000000E+02  0.51100000000E-03 0. -1.
    9900012    2    1    2    0    0 -0.26127036783E+00 -0.49861142729E+00  0.10373651816E+01  0.90007744909E+02  0.90000006341E+02 0.  0.
         12    1    1    2    0    0  0.26127036783E+00  0.49861142729E+00 -0.10373651816E+01  0.11802550913E+01  0.00000000000E+00 0. -1.
         11    1    3    3    0    0  0.22319084599E+02  0.71790330044E+01 -0.30350461056E+02  0.38351408564E+02  0.51100000000E-03 0. -1.
        -11    1    3    3    0    0 -0.75059147995E+00  0.93781130279E+01 -0.49297392927E+00  0.94210092395E+01  0.51100000000E-03 0.  1.
        -12    1    3    3    0    0 -0.21829763487E+02 -0.17055757460E+02  0.31880800167E+02  0.42235327106E+02  0.00000000000E+00 0.  1.
</event>
<event>
 7    1  0.3707147E-015  0.9000773E+02  0.7816164E-02  0.1186339E+00
        -11   -1    0    0    0    0  0.00000000000E+00  0.00000000000E+00  0.45593999997E+02  0.45594000000E+02  0.51100000000E-03 0.  1.
         11   -1    0    0    0    0 -0.00000000000E+00 -0.00000000000E+00 -0.45593999997E+02  0.45594000000E+02  0.51100000000E-03 0. -1.
    9900012    2    1    2    0    0 -0.90492204131E+00  0.72745613452E+00  0.21206556288E+00  0.90007725400E+02  0.89999986575E+02 0.  0.
         12    1    1    2    0    0  0.90492204131E+00 -0.72745613452E+00 -0.21206556288E+00  0.11802746000E+01  0.00000000000E+00 0. -1.
         11    1    3    3    0    0  0.13173546288E+01  0.91609543840E+01 -0.45908338715E+00  0.92665671239E+01  0.51100000000E-03 0. -1.
        -11    1    3    3    0    0  0.10902087073E+01 -0.52471295491E+01  0.40396681100E+02  0.40750616776E+02  0.51100000000E-03 0.  1.
         12    1    3    3    0    0 -0.33124853774E+01 -0.31863687004E+01 -0.39725532150E+02  0.39990541500E+02  0.00000000000E+00 0. -1.
</event>
<event>
 7    1  0.3707147E-015  0.9000770E+02  0.7816164E-02  0.1186339E+00
        -11   -1    0    0    0    0  0.00000000000E+00  0.00000000000E+00  0.45593999997E+02  0.45594000000E+02  0.51100000000E-03 0.  1.
         11   -1    0    0    0    0 -0.00000000000E+00 -0.00000000000E+00 -0.45593999997E+02  0.45594000000E+02  0.51100000000E-03 0. -1.
    9900012    2    1    2    0    0 -0.10143443533E+00 -0.11397508254E+01 -0.28945033535E+00  0.90007702417E+02  0.89999963288E+02 0.  0.
         12    1    1    2    0    0  0.10143443533E+00  0.11397508254E+01  0.28945033535E+00  0.11802975834E+01  0.00000000000E+00 0. -1.
         11    1    3    3    0    0  0.23723099763E-01 -0.11260808361E+02 -0.81650710293E+00  0.11290396443E+02  0.51100000000E-03 0. -1.
        -11    1    3    3    0    0 -0.95241885351E+01 -0.23213420902E+02  0.25687646080E+02  0.35908609533E+02  0.51100000000E-03 0.  1.
         12    1    3    3    0    0  0.93990310000E+01  0.33334478437E+02 -0.25160589313E+02  0.42808696441E+02  0.00000000000E+00 0. -1.
</event>
<event>
 7    1  0.3707147E-015  0.9000783E+02  0.7816164E-02  0.1186339E+00
        -11   -1    0    0    0    0  0.00000000000E+00  0.00000000000E+00  0.45593999997E+02  0.45594000000E+02  0.51100000000E-03 0. -1.
         11   -1    0    0    0    0 -0.00000000000E+00 -0.00000000000E+00 -0.45593999997E+02  0.45594000000E+02  0.51100000000E-03 0.  1.
    9900012    2    1    2    0    0  0.81336120886E+00 -0.34599385587E+00  0.78200569838E+00  0.90007830048E+02  0.90000092604E+02 0.  0.
         12    1    1    2    0    0 -0.81336120886E+00  0.34599385587E+00 -0.78200569838E+00  0.11801699525E+01  0.00000000000E+00 0. -1.
         11    1    3    3    0    0 -0.30791729010E+02  0.23708435083E+02  0.12252119933E+02  0.40747207421E+02  0.51100000000E-03 0. -1.
        -11    1    3    3    0    0  0.57048428637E+01  0.58687810092E+01 -0.34426643125E+01  0.88791756635E+01  0.51100000000E-03 0.  1.
        -12    1    3    3    0    0  0.25900247355E+02 -0.29923209948E+02 -0.80274499218E+01  0.40381446963E+02  0.00000000000E+00 0.  1.
</event>
<event>
 7    1  0.3707147E-015  0.9000766E+02  0.7816164E-02  0.1186339E+00
        -11   -1    0    0    0    0  0.00000000000E+00  0.00000000000E+00  0.45593999997E+02  0.45594000000E+02  0.51100000000E-03 0.  1.
         11   -1    0    0    0    0 -0.00000000000E+00 -0.00000000000E+00 -0.45593999997E+02  0.45594000000E+02  0.51100000000E-03 0. -1.
    9900012    2    1    2    0    0 -0.11207520420E+01 -0.36684251724E+00  0.50531109785E-01  0.90007655997E+02  0.89999916256E+02 0.  0.
         12    1    1    2    0    0  0.11207520420E+01  0.36684251724E+00 -0.50531109785E-01  0.11803440029E+01  0.00000000000E+00 0. -1.
         11    1    3    3    0    0  0.19445698207E+01  0.78083181383E+01  0.83457718531E+01  0.11593234752E+02  0.51100000000E-03 0. -1.
        -11    1    3    3    0    0  0.27196855842E+02 -0.36355378487E+01  0.22138607263E+02  0.35256262351E+02  0.51100000000E-03 0.  1.
         12    1    3    3    0    0 -0.30262177704E+02 -0.45396228068E+01 -0.30433848007E+02  0.43158158894E+02  0.00000000000E+00 0. -1.
</event>
<event>
 7    1  0.3707147E-015  0.9000776E+02  0.7816164E-02  0.1186339E+00
        -11   -1    0    0    0    0  0.00000000000E+00  0.00000000000E+00  0.45593999997E+02  0.45594000000E+02  0.51100000000E-03 0. -1.
         11   -1    0    0    0    0 -0.00000000000E+00 -0.00000000000E+00 -0.45593999997E+02  0.45594000000E+02  0.51100000000E-03 0.  1.
    9900012    2    1    2    0    0  0.88281106339E+00  0.63059923416E+00 -0.46471443101E+00  0.90007758385E+02  0.90000019996E+02 0.  0.
         12    1    1    2    0    0 -0.88281106339E+00 -0.63059923416E+00  0.46471443101E+00  0.11802416152E+01  0.00000000000E+00 0. -1.
         11    1    3    3    0    0  0.37376696287E+01  0.34067951306E+02  0.78388729702E+01  0.35157409037E+02  0.51100000000E-03 0. -1.
        -11    1    3    3    0    0 -0.30246426750E+01  0.10037711424E+02  0.48830989348E+00  0.10494882598E+02  0.51100000000E-03 0.  1.
        -12    1    3    3    0    0  0.16978410966E+00 -0.43475063496E+02 -0.87918972947E+01  0.44355466750E+02  0.00000000000E+00 0.  1.
</event>
<event>
 7    1  0.3707147E-015  0.9000775E+02  0.7816164E-02  0.1186339E+00
        -11   -1    0    0    0    0  0.00000000000E+00  0.00000000000E+00  0.45593999997E+02  0.45594000000E+02  0.51100000000E-03 0.  1.
         11   -1    0    0    0    0 -0.00000000000E+00 -0.00000000000E+00 -0.45593999997E+02  0.45594000000E+02  0.51100000000E-03 0. -1.
    9900012    2    1    2    0    0  0.54453897693E+00  0.78931670319E+00  0.68807504766E+00  0.90007749676E+02  0.90000011172E+02 0.  0.
         12    1    1    2    0    0 -0.54453897693E+00 -0.78931670319E+00 -0.68807504766E+00  0.11802503237E+01  0.00000000000E+00 0. -1.
         11    1    3    3    0    0 -0.23623890283E+02  0.17702562995E+02 -0.28339687880E+02  0.40921960340E+02  0.51100000000E-03 0. -1.
        -11    1    3    3    0    0  0.94993064947E+01  0.19821471987E+01 -0.19995999933E+01  0.99077813759E+01  0.51100000000E-03 0.  1.
        -12    1    3    3    0    0  0.14669122765E+02 -0.18895393490E+02  0.31027362921E+02  0.39178007960E+02  0.00000000000E+00 0.  1.
</event>
<event>
 7    1  0.3707147E-015  0.9000773E+02  0.7816164E-02  0.1186339E+00
        -11   -1    0    0    0    0  0.00000000000E+00  0.00000000000E+00  0.45593999997E+02  0.45594000000E+02  0.51100000000E-03 0. -1.
         11   -1    0    0    0    0 -0.00000000000E+00 -0.00000000000E+00 -0.45593999997E+02  0.45594000000E+02  0.51100000000E-03 0.  1.
    9900012    2    1    2    0    0  0.34428831412E+00 -0.90071467926E+00 -0.68060334203E+00  0.90007727876E+02  0.89999989084E+02 0.  0.
         12    1    1    2    0    0 -0.34428831412E+00  0.90071467926E+00  0.68060334203E+00  0.11802721236E+01  0.00000000000E+00 0. -1.
         11    1    3    3    0    0 -0.10583865384E+02  0.21085262382E+00 -0.37866611661E+01  0.11242840760E+02  0.51100000000E-03 0. -1.
        -11    1    3    3    0    0 -0.17222826943E+02  0.29517882577E+02 -0.91820676048E+01  0.35387024818E+02  0.51100000000E-03 0.  1.
         12    1    3    3    0    0  0.28150980641E+02 -0.30629449880E+02  0.12288125429E+02  0.43377862298E+02  0.00000000000E+00 0. -1.
</event>
<event>
 7    1  0.3707147E-015  0.9000777E+02  0.7816164E-02  0.1186339E+00
        -11   -1    0    0    0    0  0.00000000000E+00  0.00000000000E+00  0.45593999997E+02  0.45594000000E+02  0.51100000000E-03 0. -1.
         11   -1    0    0    0    0 -0.00000000000E+00 -0.00000000000E+00 -0.45593999997E+02  0.45594000000E+02  0.51100000000E-03 0.  1.
    9900012    2    1    2    0    0 -0.11048990158E+01 -0.54934343926E-01 -0.41125758889E+00  0.90007765946E+02  0.90000027657E+02 0.  0.
         12    1    1    2    0    0  0.11048990158E+01  0.54934343926E-01  0.41125758889E+00  0.11802340538E+01  0.00000000000E+00 0. -1.
         11    1    3    3    0    0 -0.68153465009E+00  0.36084335414E+02  0.21889684584E+02  0.42210212546E+02  0.51100000000E-03 0. -1.
        -11    1    3    3    0    0  0.46643947487E+01 -0.60573052488E+01  0.29497586877E+01  0.81944250455E+01  0.51100000000E-03 0.  1.
        -12    1    3    3    0    0 -0.50877591145E+01 -0.30081964509E+02 -0.25250700861E+02  0.39603128355E+02  0.00000000000E+00 0.  1.
</event>
<event>
 7    1  0.5395439E-015  0.9000837E+02  0.7816164E-02  0.1186338E+00
        -11   -1    0    0    0    0  0.00000000000E+00  0.00000000000E+00  0.45593999997E+02  0.45594000000E+02  0.51100000000E-03 0.  1.
         11   -1    0    0    0    0 -0.00000000000E+00 -0.00000000000E+00 -0.45593999997E+02  0.45594000000E+02  0.51100000000E-03 0. -1.
    9900012    2    1    2    0    0 -0.10000204191E+01  0.35432143194E+00 -0.51569618175E+00  0.90008369945E+02  0.90000639626E+02 0.  0.
         12    1    1    2    0    0  0.10000204191E+01 -0.35432143194E+00  0.51569618175E+00  0.11796300554E+01  0.00000000000E+00 0. -1.
         11    1    3    3    0    0  0.93208268032E+01 -0.54192052540E+00 -0.85458852864E+00  0.93755966192E+01  0.51100000000E-03 0. -1.
        -11    1    3    3    0    0  0.31217233583E+02  0.11861104238E+02 -0.12713505950E+02  0.35732823848E+02  0.51100000000E-03 0.  1.
         12    1    3    3    0    0 -0.41538080805E+02 -0.10964862281E+02  0.13052398297E+02  0.44899949478E+02  0.00000000000E+00 0. -1.
</event>
<event>
 7    1  0.3707147E-015  0.9000762E+02  0.7816164E-02  0.1186339E+00
        -11   -1    0    0    0    0  0.00000000000E+00  0.00000000000E+00  0.45593999997E+02  0.45594000000E+02  0.51100000000E-03 0. -1.
         11   -1    0    0    0    0 -0.00000000000E+00 -0.00000000000E+00 -0.45593999997E+02  0.45594000000E+02  0.51100000000E-03 0.  1.
    9900012    2    1    2    0    0  0.28367115173E-01  0.21884841688E+00 -0.11595714124E+01  0.90007616510E+02  0.89999876248E+02 0.  0.
         12    1    1    2    0    0 -0.28367115173E-01 -0.21884841688E+00  0.11595714124E+01  0.11803834899E+01  0.00000000000E+00 0. -1.
         11    1    3    3    0    0 -0.10749749369E+02  0.27209065969E+02  0.23929011010E+02  0.37795342975E+02  0.51100000000E-03 0. -1.
        -11    1    3    3    0    0  0.28789025118E+01 -0.86223406759E+01  0.89365061477E+01  0.12747312689E+02  0.51100000000E-03 0.  1.
        -12    1    3    3    0    0  0.78992139720E+01 -0.18367876877E+02 -0.34025088570E+02  0.39464960846E+02  0.00000000000E+00 0.  1.
</event>
<event>
 7    1  0.3707147E-015  0.9000775E+02  0.7816164E-02  0.1186339E+00
        -11   -1    0    0    0    0  0.00000000000E+00  0.00000000000E+00  0.45593999997E+02  0.45594000000E+02  0.51100000000E-03 0. -1.
         11   -1    0    0    0    0 -0.00000000000E+00 -0.00000000000E+00 -0.45593999997E+02  0.45594000000E+02  0.51100000000E-03 0.  1.
    9900012    2    1    2    0    0  0.99268824248E-01  0.11317840801E+01  0.31970069559E+00  0.90007746621E+02  0.90000008077E+02 0.  0.
         12    1    1    2    0    0 -0.99268824248E-01 -0.11317840801E+01 -0.31970069559E+00  0.11802533788E+01  0.00000000000E+00 0. -1.
         11    1    3    3    0    0 -0.35015665702E+01  0.77352826551E+01  0.29178028959E+01  0.89782593079E+01  0.51100000000E-03 0. -1.
        -11    1    3    3    0    0  0.15137131950E+02  0.26755349168E+02 -0.24655940120E+02  0.39406812307E+02  0.51100000000E-03 0.  1.
         12    1    3    3    0    0 -0.11536296555E+02 -0.33358847743E+02  0.22057837920E+02  0.41622675006E+02  0.00000000000E+00 0. -1.
</event>
<event>
 7    1  0.3707147E-015  0.9000775E+02  0.7816164E-02  0.1186339E+00
        -11   -1    0    0    0    0  0.00000000000E+00  0.00000000000E+00  0.45593999997E+02  0.45594000000E+02  0.51100000000E-03 0.  1.
         11   -1    0    0    0    0 -0.00000000000E+00 -0.00000000000E+00 -0.45593999997E+02  0.45594000000E+02  0.51100000000E-03 0. -1.
    9900012    2    1    2    0    0 -0.23179017230E+00 -0.48485709006E+00  0.10507964059E+01  0.90007751650E+02  0.90000013171E+02 0.  0.
         12    1    1    2    0    0  0.23179017230E+00  0.48485709006E+00 -0.10507964059E+01  0.11802483503E+01  0.00000000000E+00 0. -1.
         11    1    3    3    0    0 -0.11283140347E+02  0.83544515459E+01 -0.39298615753E+02  0.41731131270E+02  0.51100000000E-03 0. -1.
        -11    1    3    3    0    0  0.10712123377E+02 -0.11091412899E+01  0.46192546344E+01  0.11718246254E+02  0.51100000000E-03 0.  1.
        -12    1    3    3    0    0  0.33922679768E+00 -0.77301673460E+01  0.35730157524E+02  0.36558374126E+02  0.00000000000E+00 0.  1.
</event>
<event>
 7    1  0.3707147E-015  0.9000799E+02  0.7816164E-02  0.1186339E+00
        -11   -1    0    0    0    0  0.00000000000E+00  0.00000000000E+00  0.45593999997E+02  0.45594000000E+02  0.51100000000E-03 0. -1.
         11   -1    0    0    0    0 -0.00000000000E+00 -0.00000000000E+00 -0.45593999997E+02  0.45594000000E+02  0.51100000000E-03 0.  1.
    9900012    2    1    2    0    0  0.53983897700E+00 -0.64667151719E+00 -0.82632139876E+00  0.90007992701E+02  0.90000257404E+02 0.  0.
         12    1    1    2    0    0 -0.53983897700E+00  0.64667151719E+00  0.82632139876E+00  0.11800072992E+01  0.00000000000E+00 0. -1.
         11    1    3    3    0    0  0.15436393611E+02  0.51311801985E+01  0.13950706487E+02  0.21429733308E+02  0.51100000000E-03 0. -1.
        -11    1    3    3    0    0 -0.75989418416E+00  0.28217996301E+02 -0.14554747061E+02  0.31759619279E+02  0.51100000000E-03 0.  1.
         12    1    3    3    0    0 -0.14136660449E+02 -0.33995848017E+02 -0.22228082417E+00  0.36818640114E+02  0.00000000000E+00 0. -1.
</event>
<event>
 7    1  0.3707147E-015  0.9000765E+02  0.7816164E-02  0.1186339E+00
        -11   -1    0    0    0    0  0.00000000000E+00  0.00000000000E+00  0.45593999997E+02  0.45594000000E+02  0.51100000000E-03 0.  1.
         11   -1    0    0    0    0 -0.00000000000E+00 -0.00000000000E+00 -0.45593999997E+02  0.45594000000E+02  0.51100000000E-03 0. -1.
    9900012    2    1    2    0    0 -0.79641592591E+00 -0.60187660520E+00  0.62983489758E+00  0.90007650148E+02  0.89999910330E+02 0.  0.
         12    1    1    2    0    0  0.79641592591E+00  0.60187660520E+00 -0.62983489758E+00  0.11803498520E+01  0.00000000000E+00 0. -1.
         11    1    3    3    0    0  0.54016785233E+01  0.53366483958E+01 -0.54472667947E+01  0.93450876273E+01  0.51100000000E-03 0. -1.
        -11    1    3    3    0    0  0.19875696608E+02  0.54849192579E+01 -0.28940485844E+02  0.35534200090E+02  0.51100000000E-03 0.  1.
         12    1    3    3    0    0 -0.26073791057E+02 -0.11423444259E+02  0.35017587536E+02  0.45128362431E+02  0.00000000000E+00 0. -1.
</event>
<event>
 7    1  0.3707147E-015  0.9000777E+02  0.7816164E-02  0.1186339E+00
        -11   -1    0    0    0    0  0.00000000000E+00  0.00000000000E+00  0.45593999997E+02  0.45594000000E+02  0.51100000000E-03 0.  1.
         11   -1    0    0    0    0 -0.00000000000E+00 -0.00000000000E+00 -0.45593999997E+02  0.45594000000E+02  0.51100000000E-03 0. -1.
    9900012    2    1    2    0    0 -0.11335099454E+01 -0.32858174973E+00 -0.11692722512E-01  0.90007768039E+02  0.90000029777E+02 0.  0.
         12    1    1    2    0    0  0.11335099454E+01  0.32858174973E+00  0.11692722512E-01  0.11802319612E+01  0.00000000000E+00 0. -1.
         11    1    3    3    0    0  0.22021117561E+02  0.10881454511E+02 -0.31227472125E+02  0.39730223841E+02  0.51100000000E-03 0. -1.
        -11    1    3    3    0    0  0.29950077765E+01 -0.47556138487E+01 -0.32836826379E+01  0.65091095080E+01  0.51100000000E-03 0.  1.
        -12    1    3    3    0    0 -0.26149635283E+02 -0.64544224117E+01  0.34499462040E+02  0.43768434690E+02  0.00000000000E+00 0.  1.
</event>
<event>
 7    1  0.3707147E-015  0.9000776E+02  0.7816164E-02  0.1186339E+00
        -11   -1    0    0    0    0  0.00000000000E+00  0.00000000000E+00  0.45593999997E+02  0.45594000000E+02  0.51100000000E-03 0.  1.
         11   -1    0    0    0    0 -0.00000000000E+00 -0.00000000000E+00 -0.45593999997E+02  0.45594000000E+02  0.51100000000E-03 0. -1.
    9900012    2    1    2    0    0  0.23138205784E+00 -0.11238494984E+01  0.27637397969E+00  0.90007763613E+02  0.90000025293E+02 0.  0.
         12    1    1    2    0    0 -0.23138205784E+00  0.11238494984E+01 -0.27637397969E+00  0.11802363867E+01  0.00000000000E+00 0. -1.
         11    1    3    3    0    0 -0.69832937829E+01 -0.34414032439E+02  0.48312552146E+01  0.35446199344E+02  0.51100000000E-03 0. -1.
        -11    1    3    3    0    0  0.24544562049E+01 -0.10150364158E+02  0.10825513992E+01  0.10498864967E+02  0.51100000000E-03 0.  1.
        -12    1    3    3    0    0  0.47602196358E+01  0.43440547098E+02 -0.56374326341E+01  0.44062699303E+02  0.00000000000E+00 0.  1.
</event>
<event>
 7    1  0.3707147E-015  0.9000775E+02  0.7816164E-02  0.1186339E+00
        -11   -1    0    0    0    0  0.00000000000E+00  0.00000000000E+00  0.45593999997E+02  0.45594000000E+02  0.51100000000E-03 0. -1.
         11   -1    0    0    0    0 -0.00000000000E+00 -0.00000000000E+00 -0.45593999997E+02  0.45594000000E+02  0.51100000000E-03 0.  1.
    9900012    2    1    2    0    0 -0.98293636225E+00 -0.63854712367E+00 -0.13812313104E+00  0.90007752432E+02  0.90000013965E+02 0.  0.
         12    1    1    2    0    0  0.98293636225E+00  0.63854712367E+00  0.13812313104E+00  0.11802475676E+01  0.00000000000E+00 0. -1.
         11    1    3    3    0    0  0.57511702576E+01 -0.93741583500E+00  0.66041745004E+01  0.88073735513E+01  0.51100000000E-03 0. -1.
        -11    1    3    3    0    0  0.21516275486E+02 -0.39650418692E+01  0.28437977240E+02  0.35880220423E+02  0.51100000000E-03 0.  1.
         12    1    3    3    0    0 -0.28250382106E+02  0.42639105805E+01 -0.35180274872E+02  0.45320158458E+02  0.00000000000E+00 0. -1.
</event>
<event>
 7    1  0.3707147E-015  0.9000782E+02  0.7816164E-02  0.1186339E+00
        -11   -1    0    0    0    0  0.00000000000E+00  0.00000000000E+00  0.45593999997E+02  0.45594000000E+02  0.51100000000E-03 0.  1.
         11   -1    0    0    0    0 -0.00000000000E+00 -0.00000000000E+00 -0.45593999997E+02  0.45594000000E+02  0.51100000000E-03 0. -1.
    9900012    2    1    2    0    0 -0.80033342686E+00  0.61576270855E-01  0.86515637630E+00  0.90007821714E+02  0.90000084161E+02 0.  0.
         12    1    1    2    0    0  0.80033342686E+00 -0.61576270855E-01 -0.86515637630E+00  0.11801782860E+01  0.00000000000E+00 0. -1.
         11    1    3    3    0    0 -0.23088230194E+02  0.84381405653E+01 -0.28968949831E+01  0.24751981547E+02  0.51100000000E-03 0. -1.
        -11    1    3    3    0    0 -0.27740677202E-01  0.24272797723E+02  0.78193632180E+01  0.25501214094E+02  0.51100000000E-03 0.  1.
        -12    1    3    3    0    0  0.22315637445E+02 -0.32649362018E+02 -0.40573118586E+01  0.39754626073E+02  0.00000000000E+00 0.  1.
</event>
<event>
 7    1  0.3707147E-015  0.9000777E+02  0.7816164E-02  0.1186339E+00
        -11   -1    0    0    0    0  0.00000000000E+00  0.00000000000E+00  0.45593999997E+02  0.45594000000E+02  0.51100000000E-03 0.  1.
         11   -1    0    0    0    0 -0.00000000000E+00 -0.00000000000E+00 -0.45593999997E+02  0.45594000000E+02  0.51100000000E-03 0. -1.
    9900012    2    1    2    0    0 -0.87137045898E+00 -0.78640134762E+00  0.12342487640E+00  0.90007768134E+02  0.90000029874E+02 0.  0.
         12    1    1    2    0    0  0.87137045898E+00  0.78640134762E+00 -0.12342487640E+00  0.11802318655E+01  0.00000000000E+00 0. -1.
         11    1    3    3    0    0  0.85676275585E+00  0.73499465608E+01  0.95803406039E+01  0.12105316320E+02  0.51100000000E-03 0. -1.
        -11    1    3    3    0    0  0.38277244446E+00  0.17120622869E+02  0.27913592410E+02  0.32747990529E+02  0.51100000000E-03 0.  1.
         12    1    3    3    0    0 -0.21109056593E+01 -0.25256970778E+02 -0.37370508137E+02  0.45154461286E+02  0.00000000000E+00 0. -1.
</event>
<event>
 7    1  0.3707147E-015  0.9000762E+02  0.7816164E-02  0.1186339E+00
        -11   -1    0    0    0    0  0.00000000000E+00  0.00000000000E+00  0.45593999997E+02  0.45594000000E+02  0.51100000000E-03 0. -1.
         11   -1    0    0    0    0 -0.00000000000E+00 -0.00000000000E+00 -0.45593999997E+02  0.45594000000E+02  0.51100000000E-03 0.  1.
    9900012    2    1    2    0    0  0.66091895663E+00  0.17410692856E-01  0.97784930375E+00  0.90007616054E+02  0.89999875786E+02 0.  0.
         12    1    1    2    0    0 -0.66091895663E+00 -0.17410692856E-01 -0.97784930375E+00  0.11803839461E+01  0.00000000000E+00 0. -1.
         11    1    3    3    0    0 -0.18801479059E+02 -0.11900221372E+02  0.34670748825E+02  0.41196743899E+02  0.51100000000E-03 0. -1.
        -11    1    3    3    0    0 -0.16170822550E+00 -0.76219887457E+01 -0.71927500758E+01  0.10481245914E+02  0.51100000000E-03 0.  1.
        -12    1    3    3    0    0  0.19624106241E+02  0.19539620810E+02 -0.26500149445E+02  0.38329626241E+02  0.00000000000E+00 0.  1.
</event>
<event>
 7    1  0.3707147E-015  0.9000792E+02  0.7816164E-02  0.1186339E+00
        -11   -1    0    0    0    0  0.00000000000E+00  0.00000000000E+00  0.45593999997E+02  0.45594000000E+02  0.51100000000E-03 0.  1.
         11   -1    0    0    0    0 -0.00000000000E+00 -0.00000000000E+00 -0.45593999997E+02  0.45594000000E+02  0.51100000000E-03 0. -1.
    9900012    2    1    2    0    0  0.71976797870E+00  0.49138048824E+00  0.79566297563E+00  0.90007915131E+02  0.90000178810E+02 0.  0.
         12    1    1    2    0    0 -0.71976797870E+00 -0.49138048824E+00 -0.79566297563E+00  0.11800848691E+01  0.00000000000E+00 0. -1.
         11    1    3    3    0    0  0.49643318707E+01 -0.39560637722E+01 -0.84668221550E+01  0.10582159948E+02  0.51100000000E-03 0. -1.
        -11    1    3    3    0    0 -0.40814512854E+02 -0.13324625402E+01  0.11221748238E+02  0.42350059619E+02  0.51100000000E-03 0.  1.
         12    1    3    3    0    0  0.36569948962E+02  0.57799068007E+01 -0.19592631076E+01  0.37075695565E+02  0.00000000000E+00 0. -1.
</event>
<event>
 7    1  0.3707147E-015  0.9000774E+02  0.7816164E-02  0.1186339E+00
        -11   -1    0    0    0    0  0.00000000000E+00  0.00000000000E+00  0.45593999997E+02  0.45594000000E+02  0.51100000000E-03 0.  1.
         11   -1    0    0    0    0 -0.00000000000E+00 -0.00000000000E+00 -0.45593999997E+02  0.45594000000E+02  0.51100000000E-03 0. -1.
    9900012    2    1    2    0    0 -0.31382021533E+00  0.11134527339E+01  0.23401808869E+00  0.90007735375E+02  0.89999996682E+02 0.  0.
         12    1    1    2    0    0  0.31382021533E+00 -0.11134527339E+01 -0.23401808869E+00  0.11802646246E+01  0.00000000000E+00 0. -1.
         11    1    3    3    0    0  0.68423028963E+01  0.27991746909E+01  0.10043495410E+01  0.74606438151E+01  0.51100000000E-03 0. -1.
        -11    1    3    3    0    0 -0.38861327823E+02  0.19405023534E+02  0.60678222917E+01  0.43858593298E+02  0.51100000000E-03 0.  1.
         12    1    3    3    0    0  0.31705204711E+02 -0.21090745491E+02 -0.68381537440E+01  0.38688498262E+02  0.00000000000E+00 0. -1.
</event>
<event>
 7    1  0.3707147E-015  0.9000770E+02  0.7816164E-02  0.1186339E+00
        -11   -1    0    0    0    0  0.00000000000E+00  0.00000000000E+00  0.45593999997E+02  0.45594000000E+02  0.51100000000E-03 0.  1.
         11   -1    0    0    0    0 -0.00000000000E+00 -0.00000000000E+00 -0.45593999997E+02  0.45594000000E+02  0.51100000000E-03 0. -1.
    9900012    2    1    2    0    0  0.83484538908E+00  0.67406318509E+00 -0.49170934164E+00  0.90007700852E+02  0.89999961704E+02 0.  0.
         12    1    1    2    0    0 -0.83484538908E+00 -0.67406318509E+00  0.49170934164E+00  0.11802991476E+01  0.00000000000E+00 0. -1.
         11    1    3    3    0    0 -0.46426787152E+01 -0.39157378718E+01  0.11000590752E+02  0.12565845212E+02  0.51100000000E-03 0. -1.
        -11    1    3    3    0    0 -0.33444587563E+02 -0.47584577663E+01 -0.15586938038E+02  0.37203978218E+02  0.51100000000E-03 0.  1.
         12    1    3    3    0    0  0.38922111667E+02  0.93482588232E+01  0.40946379448E+01  0.40237877423E+02  0.00000000000E+00 0. -1.
</event>
<event>
 7    1  0.3707147E-015  0.9000771E+02  0.7816164E-02  0.1186339E+00
        -11   -1    0    0    0    0  0.00000000000E+00  0.00000000000E+00  0.45593999997E+02  0.45594000000E+02  0.51100000000E-03 0.  1.
         11   -1    0    0    0    0 -0.00000000000E+00 -0.00000000000E+00 -0.45593999997E+02  0.45594000000E+02  0.51100000000E-03 0. -1.
    9900012    2    1    2    0    0  0.34274722546E+00 -0.11206736446E+01 -0.14037375209E+00  0.90007707719E+02  0.89999968661E+02 0.  0.
         12    1    1    2    0    0 -0.34274722546E+00  0.11206736446E+01  0.14037375209E+00  0.11802922810E+01  0.00000000000E+00 0. -1.
         11    1    3    3    0    0 -0.18292886469E+02 -0.38107184758E+02  0.26613234621E+01  0.42354100963E+02  0.51100000000E-03 0. -1.
        -11    1    3    3    0    0 -0.30244567607E+01  0.69093319014E+01  0.59062564215E+01  0.95796696811E+01  0.51100000000E-03 0.  1.
        -12    1    3    3    0    0  0.21660090455E+02  0.30077179212E+02 -0.87079536357E+01  0.38073937075E+02  0.00000000000E+00 0.  1.
</event>
<event>
 7    1  0.3707147E-015  0.9000782E+02  0.7816164E-02  0.1186339E+00
        -11   -1    0    0    0    0  0.00000000000E+00  0.00000000000E+00  0.45593999997E+02  0.45594000000E+02  0.51100000000E-03 0.  1.
         11   -1    0    0    0    0 -0.00000000000E+00 -0.00000000000E+00 -0.45593999997E+02  0.45594000000E+02  0.51100000000E-03 0. -1.
    9900012    2    1    2    0    0  0.53853316855E-01  0.11650337823E+01 -0.18062822060E+00  0.90007817621E+02  0.90000080014E+02 0.  0.
         12    1    1    2    0    0 -0.53853316855E-01 -0.11650337823E+01  0.18062822060E+00  0.11801823790E+01  0.00000000000E+00 0. -1.
         11    1    3    3    0    0 -0.36041384776E+01 -0.35698385255E+02  0.90264481254E+01  0.36997855208E+02  0.51100000000E-03 0. -1.
        -11    1    3    3    0    0  0.97201285319E+00 -0.21621623096E+01  0.93984447921E+01  0.96928076227E+01  0.51100000000E-03 0.  1.
        -12    1    3    3    0    0  0.26859789413E+01  0.39025581347E+02 -0.18605521138E+02  0.43317154790E+02  0.00000000000E+00 0.  1.
</event>
<event>
 7    1  0.3707147E-015  0.9000889E+02  0.7816164E-02  0.1186337E+00
        -11   -1    0    0    0    0  0.00000000000E+00  0.00000000000E+00  0.45593999997E+02  0.45594000000E+02  0.51100000000E-03 0. -1.
         11   -1    0    0    0    0 -0.00000000000E+00 -0.00000000000E+00 -0.45593999997E+02  0.45594000000E+02  0.51100000000E-03 0.  1.
    9900012    2    1    2    0    0 -0.11203458599E+01  0.32516281510E+00  0.17142357988E+00  0.90008893666E+02  0.90001170255E+02 0.  0.
         12    1    1    2    0    0  0.11203458599E+01 -0.32516281510E+00 -0.17142357988E+00  0.11791063336E+01  0.00000000000E+00 0. -1.
         11    1    3    3    0    0 -0.41729370780E+02 -0.85919008487E+01 -0.10533909900E+02  0.43887633838E+02  0.51100000000E-03 0. -1.
        -11    1    3    3    0    0  0.42737349488E+01  0.26529365874E+01  0.76073877855E+01  0.91200456210E+01  0.51100000000E-03 0.  1.
        -12    1    3    3    0    0  0.36335289971E+02  0.62641270764E+01  0.30979456947E+01  0.37001214207E+02  0.00000000000E+00 0.  1.
</event>
<event>
 7    1  0.3707147E-015  0.9000763E+02  0.7816164E-02  0.1186339E+00
        -11   -1    0    0    0    0  0.00000000000E+00  0.00000000000E+00  0.45593999997E+02  0.45594000000E+02  0.51100000000E-03 0.  1.
         11   -1    0    0    0    0 -0.00000000000E+00 -0.00000000000E+00 -0.45593999997E+02  0.45594000000E+02  0.51100000000E-03 0. -1.
    9900012    2    1    2    0    0 -0.61317262025E+00  0.89864668307E+00  0.45796124588E+00  0.90007629285E+02  0.89999889191E+02 0.  0.
         12    1    1    2    0    0  0.61317262025E+00 -0.89864668307E+00 -0.45796124588E+00  0.11803707155E+01  0.00000000000E+00 0. -1.
         11    1    3    3    0    0 -0.10466065773E+01 -0.10699793495E+02  0.76175565078E+00  0.10777812305E+02  0.51100000000E-03 0. -1.
        -11    1    3    3    0    0  0.11365393576E+02  0.19231879153E+02  0.34983453598E+02  0.41507582112E+02  0.51100000000E-03 0.  1.
         12    1    3    3    0    0 -0.10931959619E+02 -0.76334389751E+01 -0.35287248003E+02  0.37722234867E+02  0.00000000000E+00 0. -1.
</event>
<event>
 7    1  0.3707147E-015  0.9000775E+02  0.7816164E-02  0.1186339E+00
        -11   -1    0    0    0    0  0.00000000000E+00  0.00000000000E+00  0.45593999997E+02  0.45594000000E+02  0.51100000000E-03 0.  1.
         11   -1    0    0    0    0 -0.00000000000E+00 -0.00000000000E+00 -0.45593999997E+02  0.45594000000E+02  0.51100000000E-03 0. -1.
    9900012    2    1    2    0    0 -0.10046245143E+01  0.13848635485E+00 -0.60376744585E+00  0.90007752562E+02  0.90000014096E+02 0.  0.
         12    1    1    2    0    0  0.10046245143E+01 -0.13848635485E+00  0.60376744585E+00  0.11802474376E+01  0.00000000000E+00 0. -1.
         11    1    3    3    0    0  0.79728637510E+01 -0.17617433287E+01  0.41003875135E+01  0.91369291324E+01  0.51100000000E-03 0. -1.
        -11    1    3    3    0    0  0.30240584015E+02 -0.13439134187E+02  0.12508738373E+02  0.35377560476E+02  0.51100000000E-03 0.  1.
         12    1    3    3    0    0 -0.39218072281E+02  0.15339363871E+02 -0.17212893332E+02  0.45493262954E+02  0.00000000000E+00 0. -1.
</event>
<event>
 7    1  0.6226137E-015  0.9000796E+02  0.7816164E-02  0.1186339E+00
        -11   -1    0    0    0    0  0.00000000000E+00  0.00000000000E+00  0.45593999997E+02  0.45594000000E+02  0.51100000000E-03 0. -1.
         11   -1    0    0    0    0 -0.00000000000E+00 -0.00000000000E+00 -0.45593999997E+02  0.45594000000E+02  0.51100000000E-03 0.  1.
    9900012    2    1    2    0    0  0.49670199514E+00  0.79400360961E+00 -0.71786366908E+00  0.90007964894E+02  0.90000229230E+02 0.  0.
         12    1    1    2    0    0 -0.49670199514E+00 -0.79400360961E+00  0.71786366908E+00  0.11800351060E+01  0.00000000000E+00 0. -1.
         11    1    3    3    0    0 -0.79432670781E+01 -0.46479524885E+01 -0.23970075016E+01  0.95102365603E+01  0.51100000000E-03 0. -1.
        -11    1    3    3    0    0 -0.22166318374E+02  0.23159207868E+02 -0.21148935637E+02  0.38405364966E+02  0.51100000000E-03 0.  1.
         12    1    3    3    0    0  0.30606287448E+02 -0.17717251770E+02  0.22828079469E+02  0.42092363368E+02  0.00000000000E+00 0. -1.
</event>
<event>
 7    1  0.3707147E-015  0.9000774E+02  0.7816164E-02  0.1186339E+00
        -11   -1    0    0    0    0  0.00000000000E+00  0.00000000000E+00  0.45593999997E+02  0.45594000000E+02  0.51100000000E-03 0.  1.
         11   -1    0    0    0    0 -0.00000000000E+00 -0.00000000000E+00 -0.45593999997E+02  0.45594000000E+02  0.51100000000E-03 0. -1.
    9900012    2    1    2    0    0  0.53313314566E+00  0.95340436138E+00  0.44700597156E+00  0.90007735129E+02  0.89999996433E+02 0.  0.
         12    1    1    2    0    0 -0.53313314566E+00 -0.95340436138E+00 -0.44700597156E+00  0.11802648711E+01  0.00000000000E+00 0. -1.
         11    1    3    3    0    0  0.33720218124E+01  0.75406163777E+01 -0.58658761617E+01  0.10131136652E+02  0.51100000000E-03 0. -1.
        -11    1    3    3    0    0 -0.50204921061E+01  0.28278125754E+02 -0.20962024768E+02  0.35556493356E+02  0.51100000000E-03 0.  1.
         12    1    3    3    0    0  0.21816034394E+01 -0.34865337771E+02  0.27274906901E+02  0.44320105121E+02  0.00000000000E+00 0. -1.
</event>
<event>
 7    1  0.3707147E-015  0.9000815E+02  0.7816164E-02  0.1186338E+00
        -11   -1    0    0    0    0  0.00000000000E+00  0.00000000000E+00  0.45593999997E+02  0.45594000000E+02  0.51100000000E-03 0. -1.
         11   -1    0    0    0    0 -0.00000000000E+00 -0.00000000000E+00 -0.45593999997E+02  0.45594000000E+02  0.51100000000E-03 0.  1.
    9900012    2    1    2    0    0 -0.61297378618E+00  0.19107249162E+00 -0.98984611660E+00  0.90008152173E+02  0.90000418981E+02 0.  0.
         12    1    1    2    0    0  0.61297378618E+00 -0.19107249162E+00  0.98984611660E+00  0.11798478267E+01  0.00000000000E+00 0. -1.
         11    1    3    3    0    0 -0.16781393381E+02  0.23362238213E+00  0.34063016680E+02  0.37973133251E+02  0.51100000000E-03 0. -1.
        -11    1    3    3    0    0  0.18154604452E+01  0.15661887771E+02 -0.81879183554E+01  0.17766052810E+02  0.51100000000E-03 0.  1.
        -12    1    3    3    0    0  0.14352959150E+02 -0.15704437661E+02 -0.26864944442E+02  0.34268966113E+02  0.00000000000E+00 0.  1.
</event>
<event>
 7    1  0.3707147E-015  0.9000783E+02  0.7816164E-02  0.1186339E+00
        -11   -1    0    0    0    0  0.00000000000E+00  0.00000000000E+00  0.45593999997E+02  0.45594000000E+02  0.51100000000E-03 0.  1.
         11   -1    0    0    0    0 -0.00000000000E+00 -0.00000000000E+00 -0.45593999997E+02  0.45594000000E+02  0.51100000000E-03 0. -1.
    9900012    2    1    2    0    0 -0.92088157309E-01 -0.86492800025E+00  0.79763629988E+00  0.90007828681E+02  0.90000091220E+02 0.  0.
         12    1    1    2    0    0  0.92088157309E-01  0.86492800025E+00 -0.79763629988E+00  0.11801713186E+01  0.00000000000E+00 0. -1.
         11    1    3    3    0    0  0.24116437961E+02  0.29440585044E+02  0.37195501895E+01  0.38238536603E+02  0.51100000000E-03 0. -1.
        -11    1    3    3    0    0  0.43052922699E+01  0.22328125076E+01  0.58768065440E+01  0.76195701086E+01  0.51100000000E-03 0.  1.
        -12    1    3    3    0    0 -0.28513818388E+02 -0.32538325552E+02 -0.87987204336E+01  0.44149721970E+02  0.00000000000E+00 0.  1.
</event>
<event>
 7    1  0.3707147E-015  0.9000769E+02  0.7816164E-02  0.1186339E+00
        -11   -1    0    0    0    0  0.00000000000E+00  0.00000000000E+00  0.45593999997E+02  0.45594000000E+02  0.51100000000E-03 0.  1.
         11   -1    0    0    0    0 -0.00000000000E+00 -0.00000000000E+00 -0.45593999997E+02  0.45594000000E+02  0.51100000000E-03 0. -1.
    9900012    2    1    2    0    0 -0.16570907505E+00 -0.10650555968E+01  0.48097557692E+00  0.90007686301E+02  0.89999946960E+02 0.  0.
         12    1    1    2    0    0  0.16570907505E+00  0.10650555968E+01 -0.48097557692E+00  0.11803136987E+01  0.00000000000E+00 0. -1.
         11    1    3    3    0    0 -0.46355241479E+01  0.83455321019E+01  0.22970253806E+01  0.98189773423E+01  0.51100000000E-03 0. -1.
        -11    1    3    3    0    0  0.11787547911E+01 -0.32324106033E+02  0.27764261423E+02  0.42627356314E+02  0.51100000000E-03 0.  1.
         12    1    3    3    0    0  0.32910602818E+01  0.22913518334E+02 -0.29580311227E+02  0.37561352645E+02  0.00000000000E+00 0. -1.
</event>
<event>
 7    1  0.3707147E-015  0.9000773E+02  0.7816164E-02  0.1186339E+00
        -11   -1    0    0    0    0  0.00000000000E+00  0.00000000000E+00  0.45593999997E+02  0.45594000000E+02  0.51100000000E-03 0.  1.
         11   -1    0    0    0    0 -0.00000000000E+00 -0.00000000000E+00 -0.45593999997E+02  0.45594000000E+02  0.51100000000E-03 0. -1.
    9900012    2    1    2    0    0  0.48298165134E-01 -0.25703798054E+00  0.11509328227E+01  0.90007725626E+02  0.89999986804E+02 0.  0.
         12    1    1    2    0    0 -0.48298165134E-01  0.25703798054E+00 -0.11509328227E+01  0.11802743743E+01  0.00000000000E+00 0. -1.
         11    1    3    3    0    0  0.30815983422E+02  0.15550237409E+02 -0.11480660373E+02  0.36376369811E+02  0.51100000000E-03 0. -1.
        -11    1    3    3    0    0 -0.64552355961E+00  0.10380648188E+02 -0.29067019740E+01  0.10799234885E+02  0.51100000000E-03 0.  1.
        -12    1    3    3    0    0 -0.30122161697E+02 -0.26187923577E+02  0.15538295170E+02  0.42832120930E+02  0.00000000000E+00 0.  1.
</event>
<event>
 7    1  0.3707147E-015  0.9000773E+02  0.7816164E-02  0.1186339E+00
        -11   -1    0    0    0    0  0.00000000000E+00  0.00000000000E+00  0.45593999997E+02  0.45594000000E+02  0.51100000000E-03 0.  1.
         11   -1    0    0    0    0 -0.00000000000E+00 -0.00000000000E+00 -0.45593999997E+02  0.45594000000E+02  0.51100000000E-03 0. -1.
    9900012    2    1    2    0    0 -0.16976282328E+00 -0.78564603744E+00  0.86428119191E+00  0.90007728383E+02  0.89999989597E+02 0.  0.
         12    1    1    2    0    0  0.16976282328E+00  0.78564603744E+00 -0.86428119191E+00  0.11802716175E+01  0.00000000000E+00 0. -1.
         11    1    3    3    0    0  0.10418445235E+02  0.19986353999E+02 -0.30972101818E+02  0.38304953186E+02  0.51100000000E-03 0. -1.
        -11    1    3    3    0    0 -0.66102980508E+01 -0.34498852953E+01 -0.62139687869E+01  0.97062432082E+01  0.51100000000E-03 0.  1.
        -12    1    3    3    0    0 -0.39779100070E+01 -0.17322114741E+02  0.38050351797E+02  0.41996531988E+02  0.00000000000E+00 0.  1.
</event>
<event>
 7    1  0.3707147E-015  0.9000825E+02  0.7816164E-02  0.1186338E+00
        -11   -1    0    0    0    0  0.00000000000E+00  0.00000000000E+00  0.45593999997E+02  0.45594000000E+02  0.51100000000E-03 0. -1.
         11   -1    0    0    0    0 -0.00000000000E+00 -0.00000000000E+00 -0.45593999997E+02  0.45594000000E+02  0.51100000000E-03 0.  1.
    9900012    2    1    2    0    0  0.21722689118E+00  0.11577772938E+01  0.64654712995E-01  0.90008247477E+02  0.90000515542E+02 0.  0.
         12    1    1    2    0    0 -0.21722689118E+00 -0.11577772938E+01 -0.64654712995E-01  0.11797525232E+01  0.00000000000E+00 0. -1.
         11    1    3    3    0    0  0.22502142097E+02 -0.67639945986E+01  0.26695306064E+02  0.35563146486E+02  0.51100000000E-03 0. -1.
        -11    1    3    3    0    0  0.59424152437E+01 -0.29976242149E+00  0.73856381732E+01  0.94841872569E+01  0.51100000000E-03 0.  1.
        -12    1    3    3    0    0 -0.28227330450E+02  0.82215343139E+01 -0.34016289524E+02  0.44960913734E+02  0.00000000000E+00 0.  1.
</event>
<event>
 7    1  0.3707147E-015  0.9000763E+02  0.7816164E-02  0.1186339E+00
        -11   -1    0    0    0    0  0.00000000000E+00  0.00000000000E+00  0.45593999997E+02  0.45594000000E+02  0.51100000000E-03 0.  1.
         11   -1    0    0    0    0 -0.00000000000E+00 -0.00000000000E+00 -0.45593999997E+02  0.45594000000E+02  0.51100000000E-03 0. -1.
    9900012    2    1    2    0    0  0.11374507472E+00  0.37560465328E-01  0.11742770398E+01  0.90007629170E+02  0.89999889075E+02 0.  0.
         12    1    1    2    0    0 -0.11374507472E+00 -0.37560465328E-01 -0.11742770398E+01  0.11803708302E+01  0.00000000000E+00 0. -1.
         11    1    3    3    0    0 -0.24845101304E+02  0.22568512391E+02 -0.88385070977E+01  0.34709307373E+02  0.51100000000E-03 0. -1.
        -11    1    3    3    0    0 -0.12049018325E+02 -0.69629340682E+01 -0.13791196473E-01  0.13916230951E+02  0.51100000000E-03 0.  1.
         12    1    3    3    0    0  0.37007864703E+02 -0.15568017857E+02  0.10026575334E+02  0.41382090846E+02  0.00000000000E+00 0. -1.
</event>
<event>
 7    1  0.3707147E-015  0.9000784E+02  0.7816164E-02  0.1186339E+00
        -11   -1    0    0    0    0  0.00000000000E+00  0.00000000000E+00  0.45593999997E+02  0.45594000000E+02  0.51100000000E-03 0. -1.
         11   -1    0    0    0    0 -0.00000000000E+00 -0.00000000000E+00 -0.45593999997E+02  0.45594000000E+02  0.51100000000E-03 0.  1.
    9900012    2    1    2    0    0  0.74161382114E+00 -0.84102389193E+00  0.36805228962E+00  0.90007841225E+02  0.90000103929E+02 0.  0.
         12    1    1    2    0    0 -0.74161382114E+00  0.84102389193E+00 -0.36805228962E+00  0.11801587751E+01  0.00000000000E+00 0. -1.
         11    1    3    3    0    0  0.38738539369E+02  0.10836445374E+02 -0.16271973244E+02  0.43392166278E+02  0.51100000000E-03 0. -1.
        -11    1    3    3    0    0 -0.61158125793E+01  0.44937407874E+01  0.46985720646E+01  0.89259985143E+01  0.51100000000E-03 0.  1.
        -12    1    3    3    0    0 -0.31881112968E+02 -0.16171210053E+02  0.11941453469E+02  0.37689676433E+02  0.00000000000E+00 0.  1.
</event>
<event>
 7    1  0.3707147E-015  0.9000762E+02  0.7816164E-02  0.1186339E+00
        -11   -1    0    0    0    0  0.00000000000E+00  0.00000000000E+00  0.45593999997E+02  0.45594000000E+02  0.51100000000E-03 0.  1.
         11   -1    0    0    0    0 -0.00000000000E+00 -0.00000000000E+00 -0.45593999997E+02  0.45594000000E+02  0.51100000000E-03 0. -1.
    9900012    2    1    2    0    0 -0.44304327414E+00  0.20082640101E+00  0.10754857268E+01  0.90007623732E+02  0.89999883565E+02 0.  0.
         12    1    1    2    0    0  0.44304327414E+00 -0.20082640101E+00 -0.10754857268E+01  0.11803762682E+01  0.00000000000E+00 0. -1.
         11    1    3    3    0    0  0.10916986917E+01  0.15038315696E+02  0.38607816677E+01  0.15564330386E+02  0.51100000000E-03 0. -1.
        -11    1    3    3    0    0  0.12366657038E+02 -0.20605042972E+02  0.29958692607E+02  0.38406057662E+02  0.51100000000E-03 0.  1.
         12    1    3    3    0    0 -0.13901399004E+02  0.57675536761E+01 -0.32743988548E+02  0.36037235683E+02  0.00000000000E+00 0. -1.
</event>
<event>
 7    1  0.3707147E-015  0.9000905E+02  0.7816164E-02  0.1186336E+00
        -11   -1    0    0    0    0  0.00000000000E+00  0.00000000000E+00  0.45593999997E+02  0.45594000000E+02  0.51100000000E-03 0.  1.
         11   -1    0    0    0    0 -0.00000000000E+00 -0.00000000000E+00 -0.45593999997E+02  0.45594000000E+02  0.51100000000E-03 0. -1.
    9900012    2    1    2    0    0  0.62093452027E-01 -0.10521045224E+01  0.52834750948E+00  0.90009046814E+02  0.90001325423E+02 0.  0.
         12    1    1    2    0    0 -0.62093452027E-01  0.10521045224E+01 -0.52834750948E+00  0.11789531855E+01  0.00000000000E+00 0. -1.
         11    1    3    3    0    0 -0.67126976369E+01  0.37690817430E+02  0.17020234422E+02  0.41896854394E+02  0.51100000000E-03 0. -1.
        -11    1    3    3    0    0 -0.37887718555E+00 -0.67198561192E+01  0.54323047045E+01  0.86492744695E+01  0.51100000000E-03 0.  1.
        -12    1    3    3    0    0  0.71536682745E+01 -0.32023065833E+02 -0.21924191617E+02  0.39462917951E+02  0.00000000000E+00 0.  1.
</event>
<event>
 7    1  0.3707147E-015  0.9000763E+02  0.7816164E-02  0.1186339E+00
        -11   -1    0    0    0    0  0.00000000000E+00  0.00000000000E+00  0.45593999997E+02  0.45594000000E+02  0.51100000000E-03 0.  1.
         11   -1    0    0    0    0 -0.00000000000E+00 -0.00000000000E+00 -0.45593999997E+02  0.45594000000E+02  0.51100000000E-03 0. -1.
    9900012    2    1    2    0    0 -0.34478363038E+00  0.88948081505E+00 -0.69513357581E+00  0.90007634565E+02  0.89999894541E+02 0.  0.
         12    1    1    2    0    0  0.34478363038E+00 -0.88948081505E+00  0.69513357581E+00  0.11803654351E+01  0.00000000000E+00 0. -1.
         11    1    3    3    0    0 -0.63339464407E+01 -0.80192608552E+01 -0.63045938992E+00  0.10238403268E+02  0.51100000000E-03 0. -1.
        -11    1    3    3    0    0 -0.15249635707E+02  0.29200018494E+02  0.24840559948E+02  0.41258282660E+02  0.51100000000E-03 0.  1.
         12    1    3    3    0    0  0.21238798517E+02 -0.20291276824E+02 -0.24905234134E+02  0.38510948637E+02  0.00000000000E+00 0. -1.
</event>
<event>
 7    1  0.3707147E-015  0.9000749E+02  0.7816164E-02  0.1186340E+00
        -11   -1    0    0    0    0  0.00000000000E+00  0.00000000000E+00  0.45593999997E+02  0.45594000000E+02  0.51100000000E-03 0. -1.
         11   -1    0    0    0    0 -0.00000000000E+00 -0.00000000000E+00 -0.45593999997E+02  0.45594000000E+02  0.51100000000E-03 0.  1.
    9900012    2    1    2    0    0 -0.80236134813E+00 -0.76689016681E+00  0.40210673953E+00  0.90007494138E+02  0.89999752260E+02 0.  0.
         12    1    1    2    0    0  0.80236134813E+00  0.76689016681E+00 -0.40210673953E+00  0.11805058623E+01  0.00000000000E+00 0. -1.
         11    1    3    3    0    0 -0.28606937363E+02 -0.16991780611E+02  0.17305027836E+02  0.37503885963E+02  0.51100000000E-03 0. -1.
        -11    1    3    3    0    0 -0.43275904863E+01 -0.75498199332E+01 -0.73879333090E+01  0.11415313368E+02  0.51100000000E-03 0.  1.
        -12    1    3    3    0    0  0.32132166501E+02  0.23774710377E+02 -0.95149877873E+01  0.41088294808E+02  0.00000000000E+00 0.  1.
</event>
<event>
 7    1  0.3707147E-015  0.9000775E+02  0.7816164E-02  0.1186339E+00
        -11   -1    0    0    0    0  0.00000000000E+00  0.00000000000E+00  0.45593999997E+02  0.45594000000E+02  0.51100000000E-03 0.  1.
         11   -1    0    0    0    0 -0.00000000000E+00 -0.00000000000E+00 -0.45593999997E+02  0.45594000000E+02  0.51100000000E-03 0. -1.
    9900012    2    1    2    0    0  0.16894324265E+00 -0.15033369983E+00  0.11583866075E+01  0.90007745124E+02  0.90000006559E+02 0.  0.
         12    1    1    2    0    0 -0.16894324265E+00  0.15033369983E+00 -0.11583866075E+01  0.11802548763E+01  0.00000000000E+00 0. -1.
         11    1    3    3    0    0 -0.30151873641E+02 -0.13903735434E+01 -0.22701882821E+02  0.37768294991E+02  0.51100000000E-03 0. -1.
        -11    1    3    3    0    0 -0.14880462862E+01 -0.10430622688E+02 -0.43772135944E+00  0.10545319893E+02  0.51100000000E-03 0.  1.
        -12    1    3    3    0    0  0.31808863170E+02  0.11670662531E+02  0.24297990788E+02  0.41694130239E+02  0.00000000000E+00 0.  1.
</event>
<event>
 7    1  0.3707147E-015  0.9000771E+02  0.7816164E-02  0.1186339E+00
        -11   -1    0    0    0    0  0.00000000000E+00  0.00000000000E+00  0.45593999997E+02  0.45594000000E+02  0.51100000000E-03 0.  1.
         11   -1    0    0    0    0 -0.00000000000E+00 -0.00000000000E+00 -0.45593999997E+02  0.45594000000E+02  0.51100000000E-03 0. -1.
    9900012    2    1    2    0    0 -0.85294650052E+00  0.61165521210E+00 -0.53985156674E+00  0.90007712092E+02  0.89999973092E+02 0.  0.
         12    1    1    2    0    0  0.85294650052E+00 -0.61165521210E+00  0.53985156674E+00  0.11802879078E+01  0.00000000000E+00 0. -1.
         11    1    3    3    0    0  0.29318610613E+01 -0.74339624069E+01  0.53067478437E+01  0.95927670298E+01  0.51100000000E-03 0. -1.
        -11    1    3    3    0    0 -0.10536367757E+02  0.25088669358E+02  0.29785429938E+02  0.40343874536E+02  0.51100000000E-03 0.  1.
         12    1    3    3    0    0  0.67515601952E+01 -0.17043051739E+02 -0.35632029349E+02  0.40071070527E+02  0.00000000000E+00 0. -1.
</event>
<event>
 7    1  0.3707147E-015  0.9000777E+02  0.7816164E-02  0.1186339E+00
        -11   -1    0    0    0    0  0.00000000000E+00  0.00000000000E+00  0.45593999997E+02  0.45594000000E+02  0.51100000000E-03 0.  1.
         11   -1    0    0    0    0 -0.00000000000E+00 -0.00000000000E+00 -0.45593999997E+02  0.45594000000E+02  0.51100000000E-03 0. -1.
    9900012    2    1    2    0    0  0.81350310267E+00 -0.31201304969E+00  0.79611946059E+00  0.90007768821E+02  0.90000030569E+02 0.  0.
         12    1    1    2    0    0 -0.81350310267E+00  0.31201304969E+00 -0.79611946059E+00  0.11802311794E+01  0.00000000000E+00 0. -1.
         11    1    3    3    0    0  0.16319969089E+02  0.14809299148E+02  0.19940346469E+02  0.29719928498E+02  0.51100000000E-03 0. -1.
        -11    1    3    3    0    0  0.13597771988E+02  0.75281727332E+01  0.48602030976E+01  0.16284789288E+02  0.51100000000E-03 0.  1.
         12    1    3    3    0    0 -0.29104237974E+02 -0.22649484931E+02 -0.24004430107E+02  0.44003051035E+02  0.00000000000E+00 0. -1.
</event>
<event>
 7    1  0.3707147E-015  0.9000773E+02  0.7816164E-02  0.1186339E+00
        -11   -1    0    0    0    0  0.00000000000E+00  0.00000000000E+00  0.45593999997E+02  0.45594000000E+02  0.51100000000E-03 0. -1.
         11   -1    0    0    0    0 -0.00000000000E+00 -0.00000000000E+00 -0.45593999997E+02  0.45594000000E+02  0.51100000000E-03 0.  1.
    9900012    2    1    2    0    0 -0.59713484942E+00  0.80290826565E+00 -0.62594963262E+00  0.90007726873E+02  0.89999988068E+02 0.  0.
         12    1    1    2    0    0  0.59713484942E+00 -0.80290826565E+00  0.62594963262E+00  0.11802731269E+01  0.00000000000E+00 0. -1.
         11    1    3    3    0    0 -0.23667753309E+01  0.67638040144E+01  0.36640209183E+02  0.37334375574E+02  0.51100000000E-03 0. -1.
        -11    1    3    3    0    0  0.59706753627E+01  0.79891948534E+01  0.25338756895E+01  0.10290613440E+02  0.51100000000E-03 0.  1.
        -12    1    3    3    0    0 -0.42010348812E+01 -0.13950090602E+02 -0.39800034505E+02  0.42382737860E+02  0.00000000000E+00 0.  1.
</event>
<event>
 7    1  0.3707147E-015  0.9000776E+02  0.7816164E-02  0.1186339E+00
        -11   -1    0    0    0    0  0.00000000000E+00  0.00000000000E+00  0.45593999997E+02  0.45594000000E+02  0.51100000000E-03 0. -1.
         11   -1    0    0    0    0 -0.00000000000E+00 -0.00000000000E+00 -0.45593999997E+02  0.45594000000E+02  0.51100000000E-03 0.  1.
    9900012    2    1    2    0    0 -0.73767553228E-01 -0.55545426163E+00 -0.10387470369E+01  0.90007759984E+02  0.90000021616E+02 0.  0.
         12    1    1    2    0    0  0.73767553228E-01  0.55545426163E+00  0.10387470369E+01  0.11802400159E+01  0.00000000000E+00 0. -1.
         11    1    3    3    0    0 -0.72082544428E+01  0.42435532501E+01 -0.33097336297E+01  0.89956107775E+01  0.51100000000E-03 0. -1.
        -11    1    3    3    0    0  0.12392369799E+02 -0.41804328356E+02  0.10337997765E+01  0.43614692946E+02  0.51100000000E-03 0.  1.
         12    1    3    3    0    0 -0.52578829094E+01  0.37005320845E+02  0.12371868164E+01  0.37397456260E+02  0.00000000000E+00 0. -1.
</event>
<event>
 7    1  0.3707147E-015  0.9000778E+02  0.7816164E-02  0.1186339E+00
        -11   -1    0    0    0    0  0.00000000000E+00  0.00000000000E+00  0.45593999997E+02  0.45594000000E+02  0.51100000000E-03 0. -1.
         11   -1    0    0    0    0 -0.00000000000E+00 -0.00000000000E+00 -0.45593999997E+02  0.45594000000E+02  0.51100000000E-03 0.  1.
    9900012    2    1    2    0    0 -0.11486841105E+01  0.26494017836E+00  0.56953577012E-01  0.90007782989E+02  0.90000044924E+02 0.  0.
         12    1    1    2    0    0  0.11486841105E+01 -0.26494017836E+00 -0.56953577012E-01  0.11802170113E+01  0.00000000000E+00 0. -1.
         11    1    3    3    0    0  0.13355240711E+02 -0.27902143927E+02  0.15817380049E+02  0.34743079915E+02  0.51100000000E-03 0. -1.
        -11    1    3    3    0    0  0.73307847309E+01 -0.55713417234E+01  0.45117886026E+01  0.10253608634E+02  0.51100000000E-03 0.  1.
        -12    1    3    3    0    0 -0.21834709552E+02  0.33738425828E+02 -0.20272215074E+02  0.45011094439E+02  0.00000000000E+00 0.  1.
</event>
<event>
 7    1  0.3707147E-015  0.9000776E+02  0.7816164E-02  0.1186339E+00
        -11   -1    0    0    0    0  0.00000000000E+00  0.00000000000E+00  0.45593999997E+02  0.45594000000E+02  0.51100000000E-03 0.  1.
         11   -1    0    0    0    0 -0.00000000000E+00 -0.00000000000E+00 -0.45593999997E+02  0.45594000000E+02  0.51100000000E-03 0. -1.
    9900012    2    1    2    0    0 -0.68555191302E+00 -0.56572472388E+00 -0.77648763795E+00  0.90007763185E+02  0.90000024859E+02 0.  0.
         12    1    1    2    0    0  0.68555191302E+00  0.56572472388E+00  0.77648763795E+00  0.11802368154E+01  0.00000000000E+00 0. -1.
         11    1    3    3    0    0 -0.14378481720E+00  0.62601936341E+01  0.58028483792E+01  0.85371979000E+01  0.51100000000E-03 0. -1.
        -11    1    3    3    0    0 -0.27091866901E+02  0.91675530617E-01  0.26904592048E+02  0.38181601985E+02  0.51100000000E-03 0.  1.
         12    1    3    3    0    0  0.26550099805E+02 -0.69175938886E+01 -0.33483928065E+02  0.43288963300E+02  0.00000000000E+00 0. -1.
</event>
<event>
 7    1  0.3707147E-015  0.9000766E+02  0.7816164E-02  0.1186339E+00
        -11   -1    0    0    0    0  0.00000000000E+00  0.00000000000E+00  0.45593999997E+02  0.45594000000E+02  0.51100000000E-03 0. -1.
         11   -1    0    0    0    0 -0.00000000000E+00 -0.00000000000E+00 -0.45593999997E+02  0.45594000000E+02  0.51100000000E-03 0.  1.
    9900012    2    1    2    0    0  0.10811476941E+01  0.42245477760E-01  0.47173229096E+00  0.90007662603E+02  0.89999922949E+02 0.  0.
         12    1    1    2    0    0 -0.10811476941E+01 -0.42245477760E-01 -0.47173229096E+00  0.11803373972E+01  0.00000000000E+00 0. -1.
         11    1    3    3    0    0 -0.11050804669E+02 -0.34452696877E+02  0.58456609845E+01  0.36650789331E+02  0.51100000000E-03 0. -1.
        -11    1    3    3    0    0 -0.25419013310E+01 -0.78394491138E+01 -0.15781143857E+01  0.83909874305E+01  0.51100000000E-03 0.  1.
        -12    1    3    3    0    0  0.14673853694E+02  0.42334391469E+02 -0.37958143078E+01  0.44965885842E+02  0.00000000000E+00 0.  1.
</event>
<event>
 7    1  0.3707147E-015  0.9000773E+02  0.7816164E-02  0.1186339E+00
        -11   -1    0    0    0    0  0.00000000000E+00  0.00000000000E+00  0.45593999997E+02  0.45594000000E+02  0.51100000000E-03 0. -1.
         11   -1    0    0    0    0 -0.00000000000E+00 -0.00000000000E+00 -0.45593999997E+02  0.45594000000E+02  0.51100000000E-03 0.  1.
    9900012    2    1    2    0    0  0.11394744674E+01  0.19203879454E-01  0.30703477733E+00  0.90007728334E+02  0.89999989548E+02 0.  0.
         12    1    1    2    0    0 -0.11394744674E+01 -0.19203879454E-01 -0.30703477733E+00  0.11802716659E+01  0.00000000000E+00 0. -1.
         11    1    3    3    0    0  0.20085391271E+02 -0.29036028024E+02 -0.12706516741E+01  0.35328861033E+02  0.51100000000E-03 0. -1.
        -11    1    3    3    0    0  0.59452232789E+01 -0.69089476012E+01 -0.50838850729E+01  0.10436720006E+02  0.51100000000E-03 0.  1.
        -12    1    3    3    0    0 -0.24891140083E+02  0.35964179505E+02  0.66615715243E+01  0.44242147295E+02  0.00000000000E+00 0.  1.
</event>
<event>
 7    1  0.3707147E-015  0.9000773E+02  0.7816164E-02  0.1186339E+00
        -11   -1    0    0    0    0  0.00000000000E+00  0.00000000000E+00  0.45593999997E+02  0.45594000000E+02  0.51100000000E-03 0. -1.
         11   -1    0    0    0    0 -0.00000000000E+00 -0.00000000000E+00 -0.45593999997E+02  0.45594000000E+02  0.51100000000E-03 0.  1.
    9900012    2    1    2    0    0 -0.46195662840E-01 -0.20256204508E-01 -0.11791906728E+01  0.90007730965E+02  0.89999992213E+02 0.  0.
         12    1    1    2    0    0  0.46195662840E-01  0.20256204508E-01  0.11791906728E+01  0.11802690354E+01  0.00000000000E+00 0. -1.
         11    1    3    3    0    0 -0.70544517919E+01  0.16362140051E+01 -0.54660977391E+01  0.90730761657E+01  0.51100000000E-03 0. -1.
        -11    1    3    3    0    0 -0.73570550295E+01  0.77496782789E+01 -0.35780995865E+02  0.37342515147E+02  0.51100000000E-03 0.  1.
         12    1    3    3    0    0  0.14365311159E+02 -0.94061484884E+01  0.40067902932E+02  0.43592139652E+02  0.00000000000E+00 0. -1.
</event>
<event>
 7    1  0.3707147E-015  0.9000776E+02  0.7816164E-02  0.1186339E+00
        -11   -1    0    0    0    0  0.00000000000E+00  0.00000000000E+00  0.45593999997E+02  0.45594000000E+02  0.51100000000E-03 0.  1.
         11   -1    0    0    0    0 -0.00000000000E+00 -0.00000000000E+00 -0.45593999997E+02  0.45594000000E+02  0.51100000000E-03 0. -1.
    9900012    2    1    2    0    0  0.82933620149E+00 -0.75226209274E+00  0.37319475038E+00  0.90007758028E+02  0.90000019634E+02 0.  0.
         12    1    1    2    0    0 -0.82933620149E+00  0.75226209274E+00 -0.37319475038E+00  0.11802419722E+01  0.00000000000E+00 0. -1.
         11    1    3    3    0    0  0.39382035742E+01 -0.29269370951E+02 -0.19555868684E+02  0.35420862828E+02  0.51100000000E-03 0. -1.
        -11    1    3    3    0    0 -0.19695402776E+01 -0.59588284377E+01 -0.80248311560E+01  0.10187474692E+02  0.51100000000E-03 0.  1.
        -12    1    3    3    0    0 -0.11393270951E+01  0.34475937296E+02  0.27953894591E+02  0.44399420508E+02  0.00000000000E+00 0.  1.
</event>
<event>
 7    1  0.3707147E-015  0.9000773E+02  0.7816164E-02  0.1186339E+00
        -11   -1    0    0    0    0  0.00000000000E+00  0.00000000000E+00  0.45593999997E+02  0.45594000000E+02  0.51100000000E-03 0.  1.
         11   -1    0    0    0    0 -0.00000000000E+00 -0.00000000000E+00 -0.45593999997E+02  0.45594000000E+02  0.51100000000E-03 0. -1.
    9900012    2    1    2    0    0  0.56109057649E+00  0.91598057666E+00 -0.48907879502E+00  0.90007728370E+02  0.89999989585E+02 0.  0.
         12    1    1    2    0    0 -0.56109057649E+00 -0.91598057666E+00  0.48907879502E+00  0.11802716296E+01  0.00000000000E+00 0. -1.
         11    1    3    3    0    0  0.24222979617E+01 -0.52479345287E+01  0.82023098455E+01  0.10034252902E+02  0.51100000000E-03 0. -1.
        -11    1    3    3    0    0  0.19670381996E+02 -0.30497396457E+02  0.12418042162E+01  0.36311942891E+02  0.51100000000E-03 0.  1.
         12    1    3    3    0    0 -0.21531589382E+02  0.36661311562E+02 -0.99331928568E+01  0.43661532578E+02  0.00000000000E+00 0. -1.
</event>
<event>
 7    1  0.3707147E-015  0.9000755E+02  0.7816164E-02  0.1186339E+00
        -11   -1    0    0    0    0  0.00000000000E+00  0.00000000000E+00  0.45593999997E+02  0.45594000000E+02  0.51100000000E-03 0. -1.
         11   -1    0    0    0    0 -0.00000000000E+00 -0.00000000000E+00 -0.45593999997E+02  0.45594000000E+02  0.51100000000E-03 0.  1.
    9900012    2    1    2    0    0 -0.45820015508E+00 -0.79137440711E+00 -0.74649368281E+00  0.90007545150E+02  0.89999803946E+02 0.  0.
         12    1    1    2    0    0  0.45820015508E+00  0.79137440711E+00  0.74649368281E+00  0.11804548500E+01  0.00000000000E+00 0. -1.
         11    1    3    3    0    0 -0.44665114122E+01  0.81867891048E+01 -0.32557295345E+01  0.98779054007E+01  0.51100000000E-03 0. -1.
        -11    1    3    3    0    0 -0.16238367269E+02  0.30979930118E+02  0.46401137950E+01  0.35284150804E+02  0.51100000000E-03 0.  1.
         12    1    3    3    0    0  0.20246678527E+02 -0.39958093630E+02 -0.21308779433E+01  0.44845488945E+02  0.00000000000E+00 0. -1.
</event>
<event>
 7    1  0.3707147E-015  0.9000772E+02  0.7816164E-02  0.1186339E+00
        -11   -1    0    0    0    0  0.00000000000E+00  0.00000000000E+00  0.45593999997E+02  0.45594000000E+02  0.51100000000E-03 0. -1.
         11   -1    0    0    0    0 -0.00000000000E+00 -0.00000000000E+00 -0.45593999997E+02  0.45594000000E+02  0.51100000000E-03 0.  1.
    9900012    2    1    2    0    0 -0.16174801118E+00 -0.96813026138E+00 -0.65545286590E+00  0.90007721608E+02  0.89999982734E+02 0.  0.
         12    1    1    2    0    0  0.16174801118E+00  0.96813026138E+00  0.65545286590E+00  0.11802783915E+01  0.00000000000E+00 0. -1.
         11    1    3    3    0    0 -0.36017802400E+01 -0.20310483639E+01  0.89924047183E+01  0.98975411710E+01  0.51100000000E-03 0. -1.
        -11    1    3    3    0    0 -0.92966482577E+01 -0.37610583728E+02 -0.63562887983E+01  0.39260490124E+02  0.51100000000E-03 0.  1.
         12    1    3    3    0    0  0.12736680487E+02  0.38673501831E+02 -0.32915687859E+01  0.40849690314E+02  0.00000000000E+00 0. -1.
</event>
<event>
 7    1  0.3707147E-015  0.9000773E+02  0.7816164E-02  0.1186339E+00
        -11   -1    0    0    0    0  0.00000000000E+00  0.00000000000E+00  0.45593999997E+02  0.45594000000E+02  0.51100000000E-03 0. -1.
         11   -1    0    0    0    0 -0.00000000000E+00 -0.00000000000E+00 -0.45593999997E+02  0.45594000000E+02  0.51100000000E-03 0.  1.
    9900012    2    1    2    0    0  0.95837789609E-01  0.92346839582E+00 -0.72872954148E+00  0.90007734985E+02  0.89999996287E+02 0.  0.
         12    1    1    2    0    0 -0.95837789609E-01 -0.92346839582E+00  0.72872954148E+00  0.11802650146E+01  0.00000000000E+00 0. -1.
         11    1    3    3    0    0  0.35357054266E+02 -0.16086624468E+02 -0.75347430866E+01  0.39568587627E+02  0.51100000000E-03 0. -1.
        -11    1    3    3    0    0 -0.20339830131E+01 -0.82884116398E+00 -0.92084192462E+01  0.94667338532E+01  0.51100000000E-03 0.  1.
        -12    1    3    3    0    0 -0.33227233463E+02  0.17838934028E+02  0.16014432791E+02  0.40972413506E+02  0.00000000000E+00 0.  1.
</event>
<event>
 7    1  0.3707147E-015  0.9000773E+02  0.7816164E-02  0.1186339E+00
        -11   -1    0    0    0    0  0.00000000000E+00  0.00000000000E+00  0.45593999997E+02  0.45594000000E+02  0.51100000000E-03 0.  1.
         11   -1    0    0    0    0 -0.00000000000E+00 -0.00000000000E+00 -0.45593999997E+02  0.45594000000E+02  0.51100000000E-03 0. -1.
    9900012    2    1    2    0    0  0.46737814243E+00 -0.98735005051E+00 -0.44691793041E+00  0.90007729655E+02  0.89999990887E+02 0.  0.
         12    1    1    2    0    0 -0.46737814243E+00  0.98735005051E+00  0.44691793041E+00  0.11802703448E+01  0.00000000000E+00 0. -1.
         11    1    3    3    0    0 -0.32777557907E+02  0.75693620419E+01 -0.29148543053E+02  0.44511808618E+02  0.51100000000E-03 0. -1.
        -11    1    3    3    0    0  0.35757757013E+01 -0.76780566696E+00  0.70741310017E+01  0.79636064129E+01  0.51100000000E-03 0.  1.
        -12    1    3    3    0    0  0.29669160349E+02 -0.77889064254E+01  0.21627494121E+02  0.37532314624E+02  0.00000000000E+00 0.  1.
</event>
<event>
 7    1  0.3707147E-015  0.9000783E+02  0.7816164E-02  0.1186339E+00
        -11   -1    0    0    0    0  0.00000000000E+00  0.00000000000E+00  0.45593999997E+02  0.45594000000E+02  0.51100000000E-03 0. -1.
         11   -1    0    0    0    0 -0.00000000000E+00 -0.00000000000E+00 -0.45593999997E+02  0.45594000000E+02  0.51100000000E-03 0.  1.
    9900012    2    1    2    0    0 -0.44069416271E+00 -0.43280818323E+00 -0.10056233814E+01  0.90007825160E+02  0.90000087652E+02 0.  0.
         12    1    1    2    0    0  0.44069416271E+00  0.43280818323E+00  0.10056233814E+01  0.11801748403E+01  0.00000000000E+00 0. -1.
         11    1    3    3    0    0  0.83297221067E+01 -0.45864165616E+01 -0.12066186766E+01  0.95851664641E+01  0.51100000000E-03 0. -1.
        -11    1    3    3    0    0  0.23561400084E+02 -0.26755739372E+02  0.13744857020E+01  0.35677701362E+02  0.51100000000E-03 0.  1.
         12    1    3    3    0    0 -0.32331816354E+02  0.30909347750E+02 -0.11734904068E+01  0.44744957334E+02  0.00000000000E+00 0. -1.
</event>
<event>
 7    1  0.3707147E-015  0.9000814E+02  0.7816164E-02  0.1186338E+00
        -11   -1    0    0    0    0  0.00000000000E+00  0.00000000000E+00  0.45593999997E+02  0.45594000000E+02  0.51100000000E-03 0.  1.
         11   -1    0    0    0    0 -0.00000000000E+00 -0.00000000000E+00 -0.45593999997E+02  0.45594000000E+02  0.51100000000E-03 0. -1.
    9900012    2    1    2    0    0  0.14152280912E+00  0.20803104023E+00  0.11527165013E+01  0.90008143673E+02  0.90000410369E+02 0.  0.
         12    1    1    2    0    0 -0.14152280912E+00 -0.20803104023E+00 -0.11527165013E+01  0.11798563267E+01  0.00000000000E+00 0. -1.
         11    1    3    3    0    0 -0.16866402545E+01 -0.69484682813E+01  0.94172375847E+01  0.11824141863E+02  0.51100000000E-03 0. -1.
        -11    1    3    3    0    0  0.47966302730E+01 -0.80388712914E+01  0.32899087908E+02  0.34204986465E+02  0.51100000000E-03 0.  1.
         12    1    3    3    0    0 -0.29684672094E+01  0.15195370613E+02 -0.41163608991E+02  0.43979015346E+02  0.00000000000E+00 0. -1.
</event>
<event>
 7    1  0.3707147E-015  0.9000771E+02  0.7816164E-02  0.1186339E+00
        -11   -1    0    0    0    0  0.00000000000E+00  0.00000000000E+00  0.45593999997E+02  0.45594000000E+02  0.51100000000E-03 0. -1.
         11   -1    0    0    0    0 -0.00000000000E+00 -0.00000000000E+00 -0.45593999997E+02  0.45594000000E+02  0.51100000000E-03 0.  1.
    9900012    2    1    2    0    0  0.38469252140E+00 -0.10795184652E+01  0.28235701839E+00  0.90007714467E+02  0.89999975498E+02 0.  0.
         12    1    1    2    0    0 -0.38469252140E+00  0.10795184652E+01 -0.28235701839E+00  0.11802855326E+01  0.00000000000E+00 0. -1.
         11    1    3    3    0    0 -0.59295125324E+01  0.48926786464E+01  0.32125291424E+01  0.83317325306E+01  0.51100000000E-03 0. -1.
        -11    1    3    3    0    0 -0.27369960443E+02  0.10698557856E+02  0.21883682475E+02  0.36639724805E+02  0.51100000000E-03 0.  1.
         12    1    3    3    0    0  0.33684165497E+02 -0.16670754967E+02 -0.24813854599E+02  0.45036257132E+02  0.00000000000E+00 0. -1.
</event>
<event>
 7    1  0.3707147E-015  0.9000774E+02  0.7816164E-02  0.1186339E+00
        -11   -1    0    0    0    0  0.00000000000E+00  0.00000000000E+00  0.45593999997E+02  0.45594000000E+02  0.51100000000E-03 0.  1.
         11   -1    0    0    0    0 -0.00000000000E+00 -0.00000000000E+00 -0.45593999997E+02  0.45594000000E+02  0.51100000000E-03 0. -1.
    9900012    2    1    2    0    0  0.90889941949E+00  0.65083798964E-01  0.75012614119E+00  0.90007735926E+02  0.89999997241E+02 0.  0.
         12    1    1    2    0    0 -0.90889941949E+00 -0.65083798964E-01 -0.75012614119E+00  0.11802640736E+01  0.00000000000E+00 0. -1.
         11    1    3    3    0    0 -0.22372002393E+02  0.70417118214E+01  0.22270494984E+02  0.32342961267E+02  0.51100000000E-03 0. -1.
        -11    1    3    3    0    0 -0.14823501631E+02 -0.13417284340E+01 -0.44685672491E+01  0.15540415996E+02  0.51100000000E-03 0.  1.
        -12    1    3    3    0    0  0.38104403444E+02 -0.56348995884E+01 -0.17051801594E+02  0.42124358663E+02  0.00000000000E+00 0.  1.
</event>
<event>
 7    1  0.3707147E-015  0.9000778E+02  0.7816164E-02  0.1186339E+00
        -11   -1    0    0    0    0  0.00000000000E+00  0.00000000000E+00  0.45593999997E+02  0.45594000000E+02  0.51100000000E-03 0.  1.
         11   -1    0    0    0    0 -0.00000000000E+00 -0.00000000000E+00 -0.45593999997E+02  0.45594000000E+02  0.51100000000E-03 0. -1.
    9900012    2    1    2    0    0 -0.93141453608E+00  0.71560600541E+00 -0.11525788104E+00  0.90007784184E+02  0.90000046135E+02 0.  0.
         12    1    1    2    0    0  0.93141453608E+00 -0.71560600541E+00  0.11525788104E+00  0.11802158159E+01  0.00000000000E+00 0. -1.
         11    1    3    3    0    0  0.43513692693E+01 -0.31327207511E+02 -0.17260288016E+02  0.36031179381E+02  0.51100000000E-03 0. -1.
        -11    1    3    3    0    0 -0.31947705092E+01 -0.82778149305E+01 -0.22959656902E+01  0.91651643379E+01  0.51100000000E-03 0.  1.
        -12    1    3    3    0    0 -0.20880132962E+01  0.40320628447E+02  0.19440995825E+02  0.44811440465E+02  0.00000000000E+00 0.  1.
</event>
<event>
 7    1  0.3707147E-015  0.9000788E+02  0.7816164E-02  0.1186339E+00
        -11   -1    0    0    0    0  0.00000000000E+00  0.00000000000E+00  0.45593999997E+02  0.45594000000E+02  0.51100000000E-03 0.  1.
         11   -1    0    0    0    0 -0.00000000000E+00 -0.00000000000E+00 -0.45593999997E+02  0.45594000000E+02  0.51100000000E-03 0. -1.
    9900012    2    1    2    0    0 -0.10005454445E+01 -0.36686966111E+00 -0.50695090906E+00  0.90007879769E+02  0.90000142982E+02 0.  0.
         12    1    1    2    0    0  0.10005454445E+01  0.36686966111E+00  0.50695090906E+00  0.11801202308E+01  0.00000000000E+00 0. -1.
         11    1    3    3    0    0  0.31332412201E+02  0.17573287129E+02 -0.92710402206E+01  0.37101114025E+02  0.51100000000E-03 0. -1.
        -11    1    3    3    0    0  0.89080209068E+00  0.66416037379E+01 -0.60250697201E+01  0.90114312942E+01  0.51100000000E-03 0.  1.
        -12    1    3    3    0    0 -0.33223759736E+02 -0.24581760528E+02  0.14789159032E+02  0.43895334450E+02  0.00000000000E+00 0.  1.
</event>
<event>
 7    1  0.3707147E-015  0.9000770E+02  0.7816164E-02  0.1186339E+00
        -11   -1    0    0    0    0  0.00000000000E+00  0.00000000000E+00  0.45593999997E+02  0.45594000000E+02  0.51100000000E-03 0.  1.
         11   -1    0    0    0    0 -0.00000000000E+00 -0.00000000000E+00 -0.45593999997E+02  0.45594000000E+02  0.51100000000E-03 0. -1.
    9900012    2    1    2    0    0 -0.92492668853E+00 -0.35516404501E+00 -0.64146834050E+00  0.90007698128E+02  0.89999958943E+02 0.  0.
         12    1    1    2    0    0  0.92492668853E+00  0.35516404501E+00  0.64146834050E+00  0.11803018724E+01  0.00000000000E+00 0. -1.
         11    1    3    3    0    0 -0.52333642641E+01  0.65531732164E+01  0.19817521652E+01  0.86173965111E+01  0.51100000000E-03 0. -1.
        -11    1    3    3    0    0  0.36170692170E+02  0.18427892111E+02  0.55187291986E-01  0.40594448212E+02  0.51100000000E-03 0.  1.
         12    1    3    3    0    0 -0.31862254595E+02 -0.25336229372E+02 -0.26784077977E+01  0.40795853404E+02  0.00000000000E+00 0. -1.
</event>
<event>
 7    1  0.3707147E-015  0.9000655E+02  0.7816164E-02  0.1186341E+00
        -11   -1    0    0    0    0  0.00000000000E+00  0.00000000000E+00  0.45593999997E+02  0.45594000000E+02  0.51100000000E-03 0.  1.
         11   -1    0    0    0    0 -0.00000000000E+00 -0.00000000000E+00 -0.45593999997E+02  0.45594000000E+02  0.51100000000E-03 0. -1.
    9900012    2    1    2    0    0  0.11156188459E+01  0.24583163870E+00  0.30130475026E+00  0.90006550400E+02  0.89998796058E+02 0.  0.
         12    1    1    2    0    0 -0.11156188459E+01 -0.24583163870E+00 -0.30130475026E+00  0.11814495996E+01  0.00000000000E+00 0. -1.
         11    1    3    3    0    0 -0.71637561223E+01  0.51160418124E+01  0.24257061824E+01  0.91311191182E+01  0.51100000000E-03 0. -1.
        -11    1    3    3    0    0  0.72162130283E+01  0.25100622479E+02  0.28054398421E+02  0.38329678453E+02  0.51100000000E-03 0.  1.
         12    1    3    3    0    0  0.10631619399E+01 -0.29970832653E+02 -0.30178799853E+02  0.42545752829E+02  0.00000000000E+00 0. -1.
</event>
<event>
 7    1  0.3707147E-015  0.9000779E+02  0.7816164E-02  0.1186339E+00
        -11   -1    0    0    0    0  0.00000000000E+00  0.00000000000E+00  0.45593999997E+02  0.45594000000E+02  0.51100000000E-03 0.  1.
         11   -1    0    0    0    0 -0.00000000000E+00 -0.00000000000E+00 -0.45593999997E+02  0.45594000000E+02  0.51100000000E-03 0. -1.
    9900012    2    1    2    0    0  0.10270774412E+01  0.51838913895E+00  0.26320712492E+00  0.90007790968E+02  0.90000053008E+02 0.  0.
         12    1    1    2    0    0 -0.10270774412E+01 -0.51838913895E+00 -0.26320712492E+00  0.11802090324E+01  0.00000000000E+00 0. -1.
         11    1    3    3    0    0  0.18543911573E+01  0.17012673965E+01 -0.95780791626E+01  0.99031650508E+01  0.51100000000E-03 0. -1.
        -11    1    3    3    0    0  0.38383280091E+02  0.53357822570E+01  0.11181538052E+02  0.40333281001E+02  0.51100000000E-03 0.  1.
         12    1    3    3    0    0 -0.39210593807E+02 -0.65186605145E+01 -0.13402517644E+01  0.39771344916E+02  0.00000000000E+00 0. -1.
</event>
<event>
 7    1  0.3707147E-015  0.9000775E+02  0.7816164E-02  0.1186339E+00
        -11   -1    0    0    0    0  0.00000000000E+00  0.00000000000E+00  0.45593999997E+02  0.45594000000E+02  0.51100000000E-03 0.  1.
         11   -1    0    0    0    0 -0.00000000000E+00 -0.00000000000E+00 -0.45593999997E+02  0.45594000000E+02  0.51100000000E-03 0. -1.
    9900012    2    1    2    0    0 -0.11086225676E+01 -0.28655253013E+00  0.28607031476E+00  0.90007748936E+02  0.90000010422E+02 0.  0.
         12    1    1    2    0    0  0.11086225676E+01  0.28655253013E+00 -0.28607031476E+00  0.11802510643E+01  0.00000000000E+00 0. -1.
         11    1    3    3    0    0  0.82964938308E+01 -0.59483111713E+01 -0.70559095361E+01  0.12409676681E+02  0.51100000000E-03 0. -1.
        -11    1    3    3    0    0 -0.41520176199E+02 -0.47121999278E+01  0.12128619756E+02  0.43511300569E+02  0.51100000000E-03 0.  1.
         12    1    3    3    0    0  0.32115059801E+02  0.10373958569E+02 -0.47866399048E+01  0.34086771686E+02  0.00000000000E+00 0. -1.
</event>
<event>
 7    1  0.3707147E-015  0.9000767E+02  0.7816164E-02  0.1186339E+00
        -11   -1    0    0    0    0  0.00000000000E+00  0.00000000000E+00  0.45593999997E+02  0.45594000000E+02  0.51100000000E-03 0. -1.
         11   -1    0    0    0    0 -0.00000000000E+00 -0.00000000000E+00 -0.45593999997E+02  0.45594000000E+02  0.51100000000E-03 0.  1.
    9900012    2    1    2    0    0  0.16162608808E+00  0.66888308945E+00 -0.95898374339E+00  0.90007670639E+02  0.89999931092E+02 0.  0.
         12    1    1    2    0    0 -0.16162608808E+00 -0.66888308945E+00  0.95898374339E+00  0.11803293607E+01  0.00000000000E+00 0. -1.
         11    1    3    3    0    0 -0.30769576684E+02  0.18735682732E+02  0.78016739640E+01  0.36859988791E+02  0.51100000000E-03 0. -1.
        -11    1    3    3    0    0 -0.86306187310E+01 -0.33336343352E+01  0.22449750183E+01  0.95205362588E+01  0.51100000000E-03 0.  1.
        -12    1    3    3    0    0  0.39561821503E+02 -0.14733165308E+02 -0.11005632726E+02  0.43627145590E+02  0.00000000000E+00 0.  1.
</event>
<event>
 7    1  0.3707147E-015  0.9000765E+02  0.7816164E-02  0.1186339E+00
        -11   -1    0    0    0    0  0.00000000000E+00  0.00000000000E+00  0.45593999997E+02  0.45594000000E+02  0.51100000000E-03 0.  1.
         11   -1    0    0    0    0 -0.00000000000E+00 -0.00000000000E+00 -0.45593999997E+02  0.45594000000E+02  0.51100000000E-03 0. -1.
    9900012    2    1    2    0    0  0.23916919043E+00  0.58297070330E+00  0.99808264465E+00  0.90007650176E+02  0.89999910358E+02 0.  0.
         12    1    1    2    0    0 -0.23916919043E+00 -0.58297070330E+00 -0.99808264465E+00  0.11803498245E+01  0.00000000000E+00 0. -1.
         11    1    3    3    0    0  0.32492310505E+01 -0.23667246777E+01  0.10998324297E+02  0.11709911431E+02  0.51100000000E-03 0. -1.
        -11    1    3    3    0    0 -0.11566542709E+02  0.23116736435E+02  0.25674988117E+02  0.36433136411E+02  0.51100000000E-03 0.  1.
         12    1    3    3    0    0  0.85564808489E+01 -0.20167041054E+02 -0.35675229770E+02  0.41864602333E+02  0.00000000000E+00 0. -1.
</event>
<event>
 7    1  0.3707147E-015  0.9000731E+02  0.7816164E-02  0.1186340E+00
        -11   -1    0    0    0    0  0.00000000000E+00  0.00000000000E+00  0.45593999997E+02  0.45594000000E+02  0.51100000000E-03 0. -1.
         11   -1    0    0    0    0 -0.00000000000E+00 -0.00000000000E+00 -0.45593999997E+02  0.45594000000E+02  0.51100000000E-03 0.  1.
    9900012    2    1    2    0    0 -0.42375135734E+00 -0.28306786983E+00 -0.10650487384E+01  0.90007313146E+02  0.89999568879E+02 0.  0.
         12    1    1    2    0    0  0.42375135734E+00  0.28306786983E+00  0.10650487384E+01  0.11806868539E+01  0.00000000000E+00 0. -1.
         11    1    3    3    0    0  0.44238327060E+01  0.37544533059E+01  0.77097635354E+01  0.96491797304E+01  0.51100000000E-03 0. -1.
        -11    1    3    3    0    0  0.33234243149E+02 -0.18856368275E+02  0.14371307737E+01  0.38237977030E+02  0.51100000000E-03 0.  1.
         12    1    3    3    0    0 -0.38081827212E+02  0.14818847100E+02 -0.10211943048E+02  0.42120156386E+02  0.00000000000E+00 0. -1.
</event>
<event>
 7    1  0.3707147E-015  0.9000774E+02  0.7816164E-02  0.1186339E+00
        -11   -1    0    0    0    0  0.00000000000E+00  0.00000000000E+00  0.45593999997E+02  0.45594000000E+02  0.51100000000E-03 0.  1.
         11   -1    0    0    0    0 -0.00000000000E+00 -0.00000000000E+00 -0.45593999997E+02  0.45594000000E+02  0.51100000000E-03 0. -1.
    9900012    2    1    2    0    0 -0.91564819146E+00  0.47181420099E+00  0.57619435422E+00  0.90007737239E+02  0.89999998571E+02 0.  0.
         12    1    1    2    0    0  0.91564819146E+00 -0.47181420099E+00 -0.57619435422E+00  0.11802627608E+01  0.00000000000E+00 0. -1.
         11    1    3    3    0    0 -0.33600716676E+01  0.12339324562E+01 -0.93901691375E+01  0.10049275974E+02  0.51100000000E-03 0. -1.
        -11    1    3    3    0    0  0.24424920447E+02 -0.31787662582E+02 -0.18834541690E+01  0.40132027499E+02  0.51100000000E-03 0.  1.
         12    1    3    3    0    0 -0.21980496971E+02  0.31025544327E+02  0.11849817661E+02  0.39826433766E+02  0.00000000000E+00 0. -1.
</event>
<event>
 7    1  0.3707147E-015  0.9000756E+02  0.7816164E-02  0.1186339E+00
        -11   -1    0    0    0    0  0.00000000000E+00  0.00000000000E+00  0.45593999997E+02  0.45594000000E+02  0.51100000000E-03 0.  1.
         11   -1    0    0    0    0 -0.00000000000E+00 -0.00000000000E+00 -0.45593999997E+02  0.45594000000E+02  0.51100000000E-03 0. -1.
    9900012    2    1    2    0    0  0.77141919964E+00 -0.79266092301E+00 -0.41235193593E+00  0.90007562353E+02  0.89999821375E+02 0.  0.
         12    1    1    2    0    0 -0.77141919964E+00  0.79266092301E+00  0.41235193593E+00  0.11804376474E+01  0.00000000000E+00 0. -1.
         11    1    3    3    0    0 -0.10161553753E+02 -0.16602630146E+02 -0.36089496028E+02  0.41004343993E+02  0.51100000000E-03 0. -1.
        -11    1    3    3    0    0 -0.34010162827E+01  0.68561772909E+01 -0.18256961807E+01  0.78681157595E+01  0.51100000000E-03 0.  1.
        -12    1    3    3    0    0  0.14333989236E+02  0.89537919322E+01  0.37502840273E+02  0.41135102600E+02  0.00000000000E+00 0.  1.
</event>
<event>
 7    1  0.3707147E-015  0.9000770E+02  0.7816164E-02  0.1186339E+00
        -11   -1    0    0    0    0  0.00000000000E+00  0.00000000000E+00  0.45593999997E+02  0.45594000000E+02  0.51100000000E-03 0. -1.
         11   -1    0    0    0    0 -0.00000000000E+00 -0.00000000000E+00 -0.45593999997E+02  0.45594000000E+02  0.51100000000E-03 0.  1.
    9900012    2    1    2    0    0  0.33029613092E+00 -0.50479260676E+00 -0.10144974966E+01  0.90007696530E+02  0.89999957324E+02 0.  0.
         12    1    1    2    0    0 -0.33029613092E+00  0.50479260676E+00  0.10144974966E+01  0.11803034697E+01  0.00000000000E+00 0. -1.
         11    1    3    3    0    0 -0.10515695873E+02  0.25815576120E+01 -0.27409323121E+01  0.11169467741E+02  0.51100000000E-03 0. -1.
        -11    1    3    3    0    0  0.48864032681E+01 -0.40003877702E+02 -0.57303477548E+01  0.40706560328E+02  0.51100000000E-03 0.  1.
         12    1    3    3    0    0  0.59595887363E+01  0.36917527483E+02  0.74567825702E+01  0.38131668462E+02  0.00000000000E+00 0. -1.
</event>
<event>
 7    1  0.3707147E-015  0.9000771E+02  0.7816164E-02  0.1186339E+00
        -11   -1    0    0    0    0  0.00000000000E+00  0.00000000000E+00  0.45593999997E+02  0.45594000000E+02  0.51100000000E-03 0.  1.
         11   -1    0    0    0    0 -0.00000000000E+00 -0.00000000000E+00 -0.45593999997E+02  0.45594000000E+02  0.51100000000E-03 0. -1.
    9900012    2    1    2    0    0 -0.10758981555E+01  0.42917292970E+00  0.22658237225E+00  0.90007709436E+02  0.89999970400E+02 0.  0.
         12    1    1    2    0    0  0.10758981555E+01 -0.42917292970E+00 -0.22658237225E+00  0.11802905642E+01  0.00000000000E+00 0. -1.
         11    1    3    3    0    0 -0.72216720038E+01 -0.42071936772E+01  0.37637514017E+01  0.91661796863E+01  0.51100000000E-03 0. -1.
        -11    1    3    3    0    0 -0.24902915278E+02 -0.35551623135E+01  0.26736193781E+02  0.36709922727E+02  0.51100000000E-03 0.  1.
         12    1    3    3    0    0  0.31048689127E+02  0.81915289203E+01 -0.30273362811E+02  0.44131607023E+02  0.00000000000E+00 0. -1.
</event>
<event>
 7    1  0.3707147E-015  0.9000776E+02  0.7816164E-02  0.1186339E+00
        -11   -1    0    0    0    0  0.00000000000E+00  0.00000000000E+00  0.45593999997E+02  0.45594000000E+02  0.51100000000E-03 0.  1.
         11   -1    0    0    0    0 -0.00000000000E+00 -0.00000000000E+00 -0.45593999997E+02  0.45594000000E+02  0.51100000000E-03 0. -1.
    9900012    2    1    2    0    0  0.52566612500E+00 -0.33831760505E+00  0.10010948133E+01  0.90007756592E+02  0.90000018179E+02 0.  0.
         12    1    1    2    0    0 -0.52566612500E+00  0.33831760505E+00 -0.10010948133E+01  0.11802434080E+01  0.00000000000E+00 0. -1.
         11    1    3    3    0    0  0.32068686073E+02  0.47298210432E+01 -0.14934674401E+02  0.35690563644E+02  0.51100000000E-03 0. -1.
        -11    1    3    3    0    0  0.91901701174E+01  0.23337878967E+01 -0.11069641380E+01  0.95462643268E+01  0.51100000000E-03 0.  1.
        -12    1    3    3    0    0 -0.40733190065E+02 -0.74019265450E+01  0.17042733352E+02  0.44770928621E+02  0.00000000000E+00 0.  1.
</event>
<event>
 7    1  0.3707147E-015  0.9000769E+02  0.7816164E-02  0.1186339E+00
        -11   -1    0    0    0    0  0.00000000000E+00  0.00000000000E+00  0.45593999997E+02  0.45594000000E+02  0.51100000000E-03 0. -1.
         11   -1    0    0    0    0 -0.00000000000E+00 -0.00000000000E+00 -0.45593999997E+02  0.45594000000E+02  0.51100000000E-03 0.  1.
    9900012    2    1    2    0    0 -0.58061597752E+00 -0.31937251926E+00 -0.97674385132E+00  0.90007685521E+02  0.89999946169E+02 0.  0.
         12    1    1    2    0    0  0.58061597752E+00  0.31937251926E+00  0.97674385132E+00  0.11803144795E+01  0.00000000000E+00 0. -1.
         11    1    3    3    0    0 -0.21532917304E+02 -0.24740817198E+02 -0.19402934301E+02  0.38108377334E+02  0.51100000000E-03 0. -1.
        -11    1    3    3    0    0  0.24381895947E+01 -0.82110826130E+01  0.10503458513E+02  0.13553202100E+02  0.51100000000E-03 0.  1.
        -12    1    3    3    0    0  0.18514111732E+02  0.32632527292E+02  0.79227319371E+01  0.38346106087E+02  0.00000000000E+00 0.  1.
</event>
<event>
 7    1  0.3707147E-015  0.9000773E+02  0.7816164E-02  0.1186339E+00
        -11   -1    0    0    0    0  0.00000000000E+00  0.00000000000E+00  0.45593999997E+02  0.45594000000E+02  0.51100000000E-03 0. -1.
         11   -1    0    0    0    0 -0.00000000000E+00 -0.00000000000E+00 -0.45593999997E+02  0.45594000000E+02  0.51100000000E-03 0.  1.
    9900012    2    1    2    0    0 -0.56582350271E+00  0.48324039355E+00 -0.91617131322E+00  0.90007725714E+02  0.89999986894E+02 0.  0.
         12    1    1    2    0    0  0.56582350271E+00 -0.48324039355E+00  0.91617131322E+00  0.11802742856E+01  0.00000000000E+00 0. -1.
         11    1    3    3    0    0  0.34997420260E+02  0.27889042882E+01  0.24531927833E+02  0.42830046643E+02  0.51100000000E-03 0. -1.
        -11    1    3    3    0    0 -0.10860174092E+01  0.10214626352E+01 -0.84751360964E+01  0.86052746523E+01  0.51100000000E-03 0.  1.
        -12    1    3    3    0    0 -0.34477226353E+02 -0.33271265299E+01 -0.16972963050E+02  0.38572404419E+02  0.00000000000E+00 0.  1.
</event>
<event>
 7    1  0.3707147E-015  0.9000692E+02  0.7816164E-02  0.1186341E+00
        -11   -1    0    0    0    0  0.00000000000E+00  0.00000000000E+00  0.45593999997E+02  0.45594000000E+02  0.51100000000E-03 0. -1.
         11   -1    0    0    0    0 -0.00000000000E+00 -0.00000000000E+00 -0.45593999997E+02  0.45594000000E+02  0.51100000000E-03 0.  1.
    9900012    2    1    2    0    0  0.84013356402E+00 -0.75000918397E+00 -0.35583667787E+00  0.90006916632E+02  0.89999167127E+02 0.  0.
         12    1    1    2    0    0 -0.84013356402E+00  0.75000918397E+00  0.35583667787E+00  0.11810833682E+01  0.00000000000E+00 0. -1.
         11    1    3    3    0    0 -0.91973243176E+01  0.41762376580E+02 -0.75035888197E+01  0.43416479793E+02  0.51100000000E-03 0. -1.
        -11    1    3    3    0    0 -0.36801810108E+01 -0.79667605748E+01  0.25432141847E+01  0.91367907374E+01  0.51100000000E-03 0.  1.
        -12    1    3    3    0    0  0.13717638892E+02 -0.34545625189E+02  0.46045379571E+01  0.37453646101E+02  0.00000000000E+00 0.  1.
</event>
<event>
 7    1  0.3707147E-015  0.9000772E+02  0.7816164E-02  0.1186339E+00
        -11   -1    0    0    0    0  0.00000000000E+00  0.00000000000E+00  0.45593999997E+02  0.45594000000E+02  0.51100000000E-03 0.  1.
         11   -1    0    0    0    0 -0.00000000000E+00 -0.00000000000E+00 -0.45593999997E+02  0.45594000000E+02  0.51100000000E-03 0. -1.
    9900012    2    1    2    0    0  0.58350316769E+00  0.90551581295E+00  0.48232258389E+00  0.90007716174E+02  0.89999977228E+02 0.  0.
         12    1    1    2    0    0 -0.58350316769E+00 -0.90551581295E+00 -0.48232258389E+00  0.11802838257E+01  0.00000000000E+00 0. -1.
         11    1    3    3    0    0 -0.93296863221E+01  0.11469182255E+02 -0.58061909829E+01  0.15883861069E+02  0.51100000000E-03 0. -1.
        -11    1    3    3    0    0  0.11507370565E+02  0.14033389869E+02  0.33072217567E+02  0.37724357961E+02  0.51100000000E-03 0.  1.
         12    1    3    3    0    0 -0.15941810748E+01 -0.24597056310E+02 -0.26783704000E+02  0.36399497145E+02  0.00000000000E+00 0. -1.
</event>
<event>
 7    1  0.3707147E-015  0.9000776E+02  0.7816164E-02  0.1186339E+00
        -11   -1    0    0    0    0  0.00000000000E+00  0.00000000000E+00  0.45593999997E+02  0.45594000000E+02  0.51100000000E-03 0.  1.
         11   -1    0    0    0    0 -0.00000000000E+00 -0.00000000000E+00 -0.45593999997E+02  0.45594000000E+02  0.51100000000E-03 0. -1.
    9900012    2    1    2    0    0  0.38296354767E+00  0.21015955435E+00  0.10964258719E+01  0.90007755191E+02  0.90000016759E+02 0.  0.
         12    1    1    2    0    0 -0.38296354767E+00 -0.21015955435E+00 -0.10964258719E+01  0.11802448093E+01  0.00000000000E+00 0. -1.
         11    1    3    3    0    0 -0.22778448874E+02  0.20788232480E+02 -0.21027328696E+02  0.37325017014E+02  0.51100000000E-03 0. -1.
        -11    1    3    3    0    0 -0.83103255081E+01  0.19631805185E+01  0.10401869458E+01  0.86021844285E+01  0.51100000000E-03 0.  1.
        -12    1    3    3    0    0  0.31471737929E+02 -0.22541253444E+02  0.21083567622E+02  0.44080553749E+02  0.00000000000E+00 0.  1.
</event>
<event>
 7    1  0.3707147E-015  0.9000773E+02  0.7816164E-02  0.1186339E+00
        -11   -1    0    0    0    0  0.00000000000E+00  0.00000000000E+00  0.45593999997E+02  0.45594000000E+02  0.51100000000E-03 0. -1.
         11   -1    0    0    0    0 -0.00000000000E+00 -0.00000000000E+00 -0.45593999997E+02  0.45594000000E+02  0.51100000000E-03 0.  1.
    9900012    2    1    2    0    0  0.40308974421E+00  0.52115205926E+00 -0.97926046690E+00  0.90007732288E+02  0.89999993554E+02 0.  0.
         12    1    1    2    0    0 -0.40308974421E+00 -0.52115205926E+00  0.97926046690E+00  0.11802677123E+01  0.00000000000E+00 0. -1.
         11    1    3    3    0    0  0.16267838390E+01 -0.34273909742E+01 -0.84583552942E+01  0.92702324185E+01  0.51100000000E-03 0. -1.
        -11    1    3    3    0    0 -0.40671535786E+02  0.40334019804E+01  0.21053370632E+01  0.40925231815E+02  0.51100000000E-03 0.  1.
         12    1    3    3    0    0  0.39447841691E+02 -0.84858946846E-01  0.53737577640E+01  0.39812268054E+02  0.00000000000E+00 0. -1.
</event>
<event>
 7    1  0.3707147E-015  0.9000770E+02  0.7816164E-02  0.1186339E+00
        -11   -1    0    0    0    0  0.00000000000E+00  0.00000000000E+00  0.45593999997E+02  0.45594000000E+02  0.51100000000E-03 0.  1.
         11   -1    0    0    0    0 -0.00000000000E+00 -0.00000000000E+00 -0.45593999997E+02  0.45594000000E+02  0.51100000000E-03 0. -1.
    9900012    2    1    2    0    0 -0.10621695403E+01 -0.88115940396E-01 -0.50707986916E+00  0.90007704043E+02  0.89999964937E+02 0.  0.
         12    1    1    2    0    0  0.10621695403E+01  0.88115940396E-01  0.50707986916E+00  0.11802959565E+01  0.00000000000E+00 0. -1.
         11    1    3    3    0    0 -0.63620258341E+01 -0.27220285717E+01  0.43735495829E+01  0.81861314718E+01  0.51100000000E-03 0. -1.
        -11    1    3    3    0    0  0.29874041282E+00  0.41265672563E+02  0.51763983891E+01  0.41590144006E+02  0.51100000000E-03 0.  1.
         12    1    3    3    0    0  0.50011158810E+01 -0.38631759931E+02 -0.10057027841E+02  0.40231428566E+02  0.00000000000E+00 0. -1.
</event>
<event>
 7    1  0.3707147E-015  0.9000770E+02  0.7816164E-02  0.1186339E+00
        -11   -1    0    0    0    0  0.00000000000E+00  0.00000000000E+00  0.45593999997E+02  0.45594000000E+02  0.51100000000E-03 0.  1.
         11   -1    0    0    0    0 -0.00000000000E+00 -0.00000000000E+00 -0.45593999997E+02  0.45594000000E+02  0.51100000000E-03 0. -1.
    9900012    2    1    2    0    0  0.43699722054E+00  0.10224385041E+01  0.39593540669E+00  0.90007698381E+02  0.89999959200E+02 0.  0.
         12    1    1    2    0    0 -0.43699722054E+00 -0.10224385041E+01 -0.39593540669E+00  0.11803016190E+01  0.00000000000E+00 0. -1.
         11    1    3    3    0    0  0.34087931862E+01 -0.17987513496E+01 -0.84669849709E+01  0.93029679223E+01  0.51100000000E-03 0. -1.
        -11    1    3    3    0    0 -0.10570226500E+01  0.45313406033E+01 -0.35733151740E+02  0.36034823131E+02  0.51100000000E-03 0.  1.
         12    1    3    3    0    0 -0.19147733157E+01 -0.17101507497E+01  0.44596072117E+02  0.44669907328E+02  0.00000000000E+00 0. -1.
</event>
<event>
 7    1  0.3707147E-015  0.9000773E+02  0.7816164E-02  0.1186339E+00
        -11   -1    0    0    0    0  0.00000000000E+00  0.00000000000E+00  0.45593999997E+02  0.45594000000E+02  0.51100000000E-03 0. -1.
         11   -1    0    0    0    0 -0.00000000000E+00 -0.00000000000E+00 -0.45593999997E+02  0.45594000000E+02  0.51100000000E-03 0.  1.
    9900012    2    1    2    0    0  0.54517671029E+00 -0.12030069531E+00 -0.10398778288E+01  0.90007730623E+02  0.89999991868E+02 0.  0.
         12    1    1    2    0    0 -0.54517671029E+00  0.12030069531E+00  0.10398778288E+01  0.11802693767E+01  0.00000000000E+00 0. -1.
         11    1    3    3    0    0 -0.29504391732E+01 -0.67374224439E+01 -0.19285966604E+01  0.76037778664E+01  0.51100000000E-03 0. -1.
        -11    1    3    3    0    0 -0.42670055890E+01 -0.37267991844E+02  0.40281962005E+01  0.37727137682E+02  0.51100000000E-03 0.  1.
         12    1    3    3    0    0  0.77626214725E+01  0.43885113592E+02 -0.31394773689E+01  0.44676815075E+02  0.00000000000E+00 0. -1.
</event>
<event>
 7    1  0.3707147E-015  0.9000771E+02  0.7816164E-02  0.1186339E+00
        -11   -1    0    0    0    0  0.00000000000E+00  0.00000000000E+00  0.45593999997E+02  0.45594000000E+02  0.51100000000E-03 0.  1.
         11   -1    0    0    0    0 -0.00000000000E+00 -0.00000000000E+00 -0.45593999997E+02  0.45594000000E+02  0.51100000000E-03 0. -1.
    9900012    2    1    2    0    0 -0.11176144860E+01 -0.96026629117E-01  0.36716647494E+00  0.90007705768E+02  0.89999966684E+02 0.  0.
         12    1    1    2    0    0  0.11176144860E+01  0.96026629117E-01 -0.36716647494E+00  0.11802942316E+01  0.00000000000E+00 0. -1.
         11    1    3    3    0    0  0.11558250244E+02  0.14450057974E+02  0.53014198640E+01  0.19248438300E+02  0.51100000000E-03 0. -1.
        -11    1    3    3    0    0  0.12538487116E+02  0.15628913365E+02  0.16515919686E+02  0.25966366620E+02  0.51100000000E-03 0.  1.
         12    1    3    3    0    0 -0.25214351846E+02 -0.30174997968E+02 -0.21450173075E+02  0.44792900848E+02  0.00000000000E+00 0. -1.
</event>
<event>
 7    1  0.3707147E-015  0.9000772E+02  0.7816164E-02  0.1186339E+00
        -11   -1    0    0    0    0  0.00000000000E+00  0.00000000000E+00  0.45593999997E+02  0.45594000000E+02  0.51100000000E-03 0.  1.
         11   -1    0    0    0    0 -0.00000000000E+00 -0.00000000000E+00 -0.45593999997E+02  0.45594000000E+02  0.51100000000E-03 0. -1.
    9900012    2    1    2    0    0 -0.69836294282E+00  0.95030407747E+00  0.47668660700E-01  0.90007719974E+02  0.89999981077E+02 0.  0.
         12    1    1    2    0    0  0.69836294282E+00 -0.95030407747E+00 -0.47668660700E-01  0.11802800264E+01  0.00000000000E+00 0. -1.
         11    1    3    3    0    0  0.36054278266E+01  0.40830965854E+00 -0.38508430460E+02  0.38679000031E+02  0.51100000000E-03 0. -1.
        -11    1    3    3    0    0  0.76419780064E+01  0.12164967172E+01 -0.28363994704E+01  0.82416536162E+01  0.51100000000E-03 0.  1.
        -12    1    3    3    0    0 -0.11945768776E+02 -0.67450229825E+00  0.41392498591E+02  0.43087066327E+02  0.00000000000E+00 0.  1.
</event>
<event>
 7    1  0.3707147E-015  0.9000791E+02  0.7816164E-02  0.1186339E+00
        -11   -1    0    0    0    0  0.00000000000E+00  0.00000000000E+00  0.45593999997E+02  0.45594000000E+02  0.51100000000E-03 0. -1.
         11   -1    0    0    0    0 -0.00000000000E+00 -0.00000000000E+00 -0.45593999997E+02  0.45594000000E+02  0.51100000000E-03 0.  1.
    9900012    2    1    2    0    0 -0.28934570581E+00 -0.86029797633E+00 -0.75418211463E+00  0.90007905001E+02  0.90000168546E+02 0.  0.
         12    1    1    2    0    0  0.28934570581E+00  0.86029797633E+00  0.75418211463E+00  0.11800949994E+01  0.00000000000E+00 0. -1.
         11    1    3    3    0    0 -0.20716300207E+02 -0.24389429553E+02 -0.79830244410E+01  0.32980873968E+02  0.51100000000E-03 0. -1.
        -11    1    3    3    0    0  0.16163459978E+01 -0.14003948615E+02  0.50965570048E+01  0.14989931447E+02  0.51100000000E-03 0.  1.
        -12    1    3    3    0    0  0.18810608504E+02  0.37533080192E+02  0.21322853215E+01  0.42037099587E+02  0.00000000000E+00 0.  1.
</event>
<event>
 7    1  0.3707147E-015  0.9000698E+02  0.7816164E-02  0.1186341E+00
        -11   -1    0    0    0    0  0.00000000000E+00  0.00000000000E+00  0.45593999997E+02  0.45594000000E+02  0.51100000000E-03 0. -1.
         11   -1    0    0    0    0 -0.00000000000E+00 -0.00000000000E+00 -0.45593999997E+02  0.45594000000E+02  0.51100000000E-03 0.  1.
    9900012    2    1    2    0    0 -0.82275823674E+00  0.59586972985E+00 -0.60234883716E+00  0.90006976726E+02  0.89999228016E+02 0.  0.
         12    1    1    2    0    0  0.82275823674E+00 -0.59586972985E+00  0.60234883716E+00  0.11810232736E+01  0.00000000000E+00 0. -1.
         11    1    3    3    0    0  0.58238116812E+01 -0.76515235445E+01  0.54616634280E+01  0.11058587736E+02  0.51100000000E-03 0. -1.
        -11    1    3    3    0    0 -0.26814838492E+02  0.33427777206E+02 -0.15114786708E+02  0.45441265715E+02  0.51100000000E-03 0.  1.
         12    1    3    3    0    0  0.20168268574E+02 -0.25180383931E+02  0.90507744432E+01  0.33507123276E+02  0.00000000000E+00 0. -1.
</event>
<event>
 7    1  0.3707147E-015  0.9000767E+02  0.7816164E-02  0.1186339E+00
        -11   -1    0    0    0    0  0.00000000000E+00  0.00000000000E+00  0.45593999997E+02  0.45594000000E+02  0.51100000000E-03 0.  1.
         11   -1    0    0    0    0 -0.00000000000E+00 -0.00000000000E+00 -0.45593999997E+02  0.45594000000E+02  0.51100000000E-03 0. -1.
    9900012    2    1    2    0    0 -0.50608494502E+00 -0.89475402948E+00 -0.58005348058E+00  0.90007674289E+02  0.89999934789E+02 0.  0.
         12    1    1    2    0    0  0.50608494502E+00  0.89475402948E+00  0.58005348058E+00  0.11803257115E+01  0.00000000000E+00 0. -1.
         11    1    3    3    0    0  0.65269017783E+01 -0.30757369644E+01  0.40251737415E+01  0.82621201037E+01  0.51100000000E-03 0. -1.
        -11    1    3    3    0    0  0.40492844694E+01  0.29488501586E+02  0.25808243521E+02  0.39395861006E+02  0.51100000000E-03 0.  1.
         12    1    3    3    0    0 -0.11082271193E+02 -0.27307518651E+02 -0.30413470743E+02  0.42349693179E+02  0.00000000000E+00 0. -1.
</event>
<event>
 7    1  0.3707147E-015  0.9000778E+02  0.7816164E-02  0.1186339E+00
        -11   -1    0    0    0    0  0.00000000000E+00  0.00000000000E+00  0.45593999997E+02  0.45594000000E+02  0.51100000000E-03 0.  1.
         11   -1    0    0    0    0 -0.00000000000E+00 -0.00000000000E+00 -0.45593999997E+02  0.45594000000E+02  0.51100000000E-03 0. -1.
    9900012    2    1    2    0    0  0.71117716015E-01  0.11480157028E+01 -0.26442888911E+00  0.90007779503E+02  0.90000041393E+02 0.  0.
         12    1    1    2    0    0 -0.71117716015E-01 -0.11480157028E+01  0.26442888911E+00  0.11802204967E+01  0.00000000000E+00 0. -1.
         11    1    3    3    0    0  0.73711370838E+01  0.39101585102E+01  0.42830488811E+01  0.93790996083E+01  0.51100000000E-03 0. -1.
        -11    1    3    3    0    0  0.17561216494E+02  0.16281152847E+02  0.27059647887E+02  0.36134426892E+02  0.51100000000E-03 0.  1.
         12    1    3    3    0    0 -0.24861235862E+02 -0.19043295655E+02 -0.31607125657E+02  0.44494253003E+02  0.00000000000E+00 0. -1.
</event>
<event>
 7    1  0.3707147E-015  0.9000776E+02  0.7816164E-02  0.1186339E+00
        -11   -1    0    0    0    0  0.00000000000E+00  0.00000000000E+00  0.45593999997E+02  0.45594000000E+02  0.51100000000E-03 0.  1.
         11   -1    0    0    0    0 -0.00000000000E+00 -0.00000000000E+00 -0.45593999997E+02  0.45594000000E+02  0.51100000000E-03 0. -1.
    9900012    2    1    2    0    0 -0.11375568121E+01 -0.31430921550E+00 -0.11712114990E-01  0.90007761483E+02  0.90000023134E+02 0.  0.
         12    1    1    2    0    0  0.11375568121E+01  0.31430921550E+00  0.11712114990E-01  0.11802385171E+01  0.00000000000E+00 0. -1.
         11    1    3    3    0    0 -0.36529370135E+02  0.10827095021E+02 -0.93680725384E+01  0.39234954472E+02  0.51100000000E-03 0. -1.
        -11    1    3    3    0    0 -0.60667552713E+00 -0.49171405201E+00 -0.89656336367E+01  0.89995791387E+01  0.51100000000E-03 0.  1.
        -12    1    3    3    0    0  0.35998488850E+02 -0.10649690184E+02  0.18321994060E+02  0.41773227872E+02  0.00000000000E+00 0.  1.
</event>
<event>
 7    1  0.3707147E-015  0.9000778E+02  0.7816164E-02  0.1186339E+00
        -11   -1    0    0    0    0  0.00000000000E+00  0.00000000000E+00  0.45593999997E+02  0.45594000000E+02  0.51100000000E-03 0. -1.
         11   -1    0    0    0    0 -0.00000000000E+00 -0.00000000000E+00 -0.45593999997E+02  0.45594000000E+02  0.51100000000E-03 0.  1.
    9900012    2    1    2    0    0  0.46156089767E+00 -0.67281673662E+00 -0.85275760989E+00  0.90007781222E+02  0.90000043134E+02 0.  0.
         12    1    1    2    0    0 -0.46156089767E+00  0.67281673662E+00  0.85275760989E+00  0.11802187783E+01  0.00000000000E+00 0. -1.
         11    1    3    3    0    0  0.31183733878E+01 -0.61552750425E+01 -0.85940183030E+01  0.11021289139E+02  0.51100000000E-03 0. -1.
        -11    1    3    3    0    0  0.11824356685E+02 -0.93939236811E+01 -0.31308848500E+02  0.34760684801E+02  0.51100000000E-03 0.  1.
         12    1    3    3    0    0 -0.14481169175E+02  0.14876381987E+02  0.39050109193E+02  0.44225807282E+02  0.00000000000E+00 0. -1.
</event>
<event>
 7    1  0.3707147E-015  0.9000774E+02  0.7816164E-02  0.1186339E+00
        -11   -1    0    0    0    0  0.00000000000E+00  0.00000000000E+00  0.45593999997E+02  0.45594000000E+02  0.51100000000E-03 0.  1.
         11   -1    0    0    0    0 -0.00000000000E+00 -0.00000000000E+00 -0.45593999997E+02  0.45594000000E+02  0.51100000000E-03 0. -1.
    9900012    2    1    2    0    0  0.14832517829E+00  0.10373247471E+01 -0.54312147422E+00  0.90007735655E+02  0.89999996965E+02 0.  0.
         12    1    1    2    0    0 -0.14832517829E+00 -0.10373247471E+01  0.54312147422E+00  0.11802643455E+01  0.00000000000E+00 0. -1.
         11    1    3    3    0    0 -0.55355976523E+01 -0.17842878236E+01  0.64908555117E+01  0.87153731957E+01  0.51100000000E-03 0. -1.
        -11    1    3    3    0    0  0.13249797472E+01  0.25574020649E+02  0.28852612664E+02  0.38577964712E+02  0.51100000000E-03 0.  1.
         12    1    3    3    0    0  0.43589430834E+01 -0.22752408078E+02 -0.35886589650E+02  0.42714397747E+02  0.00000000000E+00 0. -1.
</event>
<event>
 7    1  0.3707147E-015  0.9000773E+02  0.7816164E-02  0.1186339E+00
        -11   -1    0    0    0    0  0.00000000000E+00  0.00000000000E+00  0.45593999997E+02  0.45594000000E+02  0.51100000000E-03 0. -1.
         11   -1    0    0    0    0 -0.00000000000E+00 -0.00000000000E+00 -0.45593999997E+02  0.45594000000E+02  0.51100000000E-03 0.  1.
    9900012    2    1    2    0    0 -0.69565120942E-01 -0.11644979172E+01 -0.17925643566E+00  0.90007734108E+02  0.89999995399E+02 0.  0.
         12    1    1    2    0    0  0.69565120942E-01  0.11644979172E+01  0.17925643566E+00  0.11802658916E+01  0.00000000000E+00 0. -1.
         11    1    3    3    0    0 -0.13941041022E+02  0.29763758337E+02  0.13106050688E+02  0.35383647353E+02  0.51100000000E-03 0. -1.
        -11    1    3    3    0    0  0.17824120214E+02  0.22576567867E+01  0.16018712271E+01  0.18037801065E+02  0.51100000000E-03 0.  1.
        -12    1    3    3    0    0 -0.39526443126E+01 -0.33185913040E+02 -0.14887178351E+02  0.36586285691E+02  0.00000000000E+00 0.  1.
</event>
<event>
 7    1  0.3707147E-015  0.9000767E+02  0.7816164E-02  0.1186339E+00
        -11   -1    0    0    0    0  0.00000000000E+00  0.00000000000E+00  0.45593999997E+02  0.45594000000E+02  0.51100000000E-03 0. -1.
         11   -1    0    0    0    0 -0.00000000000E+00 -0.00000000000E+00 -0.45593999997E+02  0.45594000000E+02  0.51100000000E-03 0.  1.
    9900012    2    1    2    0    0  0.20238045243E+00  0.85073065459E+00 -0.79276601323E+00  0.90007670196E+02  0.89999930643E+02 0.  0.
         12    1    1    2    0    0 -0.20238045243E+00 -0.85073065459E+00  0.79276601323E+00  0.11803298039E+01  0.00000000000E+00 0. -1.
         11    1    3    3    0    0  0.50086125812E+01 -0.79318741856E+01 -0.32293684147E+01  0.99211717404E+01  0.51100000000E-03 0. -1.
        -11    1    3    3    0    0 -0.17291230703E+02  0.32751632125E+02 -0.22482533878E+02  0.43325747494E+02  0.51100000000E-03 0.  1.
         12    1    3    3    0    0  0.12484998574E+02 -0.23969027285E+02  0.24919136279E+02  0.36760750962E+02  0.00000000000E+00 0. -1.
</event>
<event>
 7    1  0.3707147E-015  0.9000822E+02  0.7816164E-02  0.1186338E+00
        -11   -1    0    0    0    0  0.00000000000E+00  0.00000000000E+00  0.45593999997E+02  0.45594000000E+02  0.51100000000E-03 0. -1.
         11   -1    0    0    0    0 -0.00000000000E+00 -0.00000000000E+00 -0.45593999997E+02  0.45594000000E+02  0.51100000000E-03 0.  1.
    9900012    2    1    2    0    0 -0.60396744981E-01  0.12002256044E+00 -0.11721040442E+01  0.90008219905E+02  0.90000487607E+02 0.  0.
         12    1    1    2    0    0  0.60396744981E-01 -0.12002256044E+00  0.11721040442E+01  0.11797800948E+01  0.00000000000E+00 0. -1.
         11    1    3    3    0    0 -0.71280848068E+01  0.35482520694E+01 -0.42743605645E+01  0.90371369502E+01  0.51100000000E-03 0. -1.
        -11    1    3    3    0    0  0.94502938847E+01  0.31660924395E+02 -0.20251369126E+02  0.38753582283E+02  0.51100000000E-03 0.  1.
         12    1    3    3    0    0 -0.23826058229E+01 -0.35089153904E+02  0.23353625646E+02  0.42217500672E+02  0.00000000000E+00 0. -1.
</event>
<event>
 7    1  0.3830149E-015  0.9000775E+02  0.7816164E-02  0.1186339E+00
        -11   -1    0    0    0    0  0.00000000000E+00  0.00000000000E+00  0.45593999997E+02  0.45594000000E+02  0.51100000000E-03 0. -1.
         11   -1    0    0    0    0 -0.00000000000E+00 -0.00000000000E+00 -0.45593999997E+02  0.45594000000E+02  0.51100000000E-03 0.  1.
    9900012    2    1    2    0    0 -0.34676864909E-01 -0.55138387532E+00 -0.10429623539E+01  0.90007747004E+02  0.90000008464E+02 0.  0.
         12    1    1    2    0    0  0.34676864909E-01  0.55138387532E+00  0.10429623539E+01  0.11802529960E+01  0.00000000000E+00 0. -1.
         11    1    3    3    0    0 -0.14987590107E+01 -0.48116001824E+01 -0.78523500395E+01  0.93304435206E+01  0.51100000000E-03 0. -1.
        -11    1    3    3    0    0  0.19088331652E+02 -0.15146465784E+02 -0.27988517806E+02  0.37109796015E+02  0.51100000000E-03 0.  1.
         12    1    3    3    0    0 -0.17624249506E+02  0.19406682092E+02  0.34797905491E+02  0.43567507469E+02  0.00000000000E+00 0. -1.
</event>
<event>
 7    1  0.3707147E-015  0.9000770E+02  0.7816164E-02  0.1186339E+00
        -11   -1    0    0    0    0  0.00000000000E+00  0.00000000000E+00  0.45593999997E+02  0.45594000000E+02  0.51100000000E-03 0. -1.
         11   -1    0    0    0    0 -0.00000000000E+00 -0.00000000000E+00 -0.45593999997E+02  0.45594000000E+02  0.51100000000E-03 0.  1.
    9900012    2    1    2    0    0  0.11476444574E+01 -0.60835767510E-01  0.26891689777E+00  0.90007701271E+02  0.89999962128E+02 0.  0.
         12    1    1    2    0    0 -0.11476444574E+01  0.60835767510E-01 -0.26891689777E+00  0.11802987288E+01  0.00000000000E+00 0. -1.
         11    1    3    3    0    0  0.12343218458E+02 -0.10558401832E+02  0.36061952345E+02  0.39551223727E+02  0.51100000000E-03 0. -1.
        -11    1    3    3    0    0  0.73545943603E+01  0.53184927637E+01  0.79302347145E+00  0.91107249970E+01  0.51100000000E-03 0.  1.
        -12    1    3    3    0    0 -0.18550168361E+02  0.51790733003E+01 -0.36586058919E+02  0.41345752547E+02  0.00000000000E+00 0.  1.
</event>
<event>
 7    1  0.3707147E-015  0.9000770E+02  0.7816164E-02  0.1186339E+00
        -11   -1    0    0    0    0  0.00000000000E+00  0.00000000000E+00  0.45593999997E+02  0.45594000000E+02  0.51100000000E-03 0.  1.
         11   -1    0    0    0    0 -0.00000000000E+00 -0.00000000000E+00 -0.45593999997E+02  0.45594000000E+02  0.51100000000E-03 0. -1.
    9900012    2    1    2    0    0  0.87585790487E+00 -0.59178090798E+00  0.52514799364E+00  0.90007698290E+02  0.89999959107E+02 0.  0.
         12    1    1    2    0    0 -0.87585790487E+00  0.59178090798E+00 -0.52514799364E+00  0.11803017105E+01  0.00000000000E+00 0. -1.
         11    1    3    3    0    0  0.28021902550E+02  0.26202399344E+02  0.16045211171E+02  0.41584150294E+02  0.51100000000E-03 0. -1.
        -11    1    3    3    0    0  0.39291995517E+01  0.10255919166E+01 -0.23154096554E+01  0.46745662932E+01  0.51100000000E-03 0.  1.
        -12    1    3    3    0    0 -0.31075244197E+02 -0.27819772168E+02 -0.13204653522E+02  0.43748981703E+02  0.00000000000E+00 0.  1.
</event>
<event>
 7    1  0.3707147E-015  0.9000768E+02  0.7816164E-02  0.1186339E+00
        -11   -1    0    0    0    0  0.00000000000E+00  0.00000000000E+00  0.45593999997E+02  0.45594000000E+02  0.51100000000E-03 0. -1.
         11   -1    0    0    0    0 -0.00000000000E+00 -0.00000000000E+00 -0.45593999997E+02  0.45594000000E+02  0.51100000000E-03 0.  1.
    9900012    2    1    2    0    0 -0.50973258854E+00  0.23764635347E-01 -0.10643129888E+01  0.90007680464E+02  0.89999941046E+02 0.  0.
         12    1    1    2    0    0  0.50973258854E+00 -0.23764635347E-01  0.10643129888E+01  0.11803195363E+01  0.00000000000E+00 0. -1.
         11    1    3    3    0    0  0.37602130700E+02 -0.13554187735E+02  0.73503403524E+01  0.40640666110E+02  0.51100000000E-03 0. -1.
        -11    1    3    3    0    0 -0.56387032245E+01 -0.67502703524E+01  0.31594119416E+01  0.93457481222E+01  0.51100000000E-03 0.  1.
        -12    1    3    3    0    0 -0.32473160064E+02  0.20328222723E+02 -0.11574065283E+02  0.40021266231E+02  0.00000000000E+00 0.  1.
</event>
<event>
 7    1  0.3707147E-015  0.9000779E+02  0.7816164E-02  0.1186339E+00
        -11   -1    0    0    0    0  0.00000000000E+00  0.00000000000E+00  0.45593999997E+02  0.45594000000E+02  0.51100000000E-03 0. -1.
         11   -1    0    0    0    0 -0.00000000000E+00 -0.00000000000E+00 -0.45593999997E+02  0.45594000000E+02  0.51100000000E-03 0.  1.
    9900012    2    1    2    0    0 -0.11437501294E+01 -0.13411050991E+00 -0.25835489807E+00  0.90007789324E+02  0.90000051343E+02 0.  0.
         12    1    1    2    0    0  0.11437501294E+01  0.13411050991E+00  0.25835489807E+00  0.11802106765E+01  0.00000000000E+00 0. -1.
         11    1    3    3    0    0 -0.81100553613E+01  0.11136190812E+02 -0.89797944530E+01  0.16444587330E+02  0.51100000000E-03 0. -1.
        -11    1    3    3    0    0  0.36100828010E+01  0.21526964242E+02 -0.20175080809E+02  0.29723337182E+02  0.51100000000E-03 0.  1.
         12    1    3    3    0    0  0.33562224308E+01 -0.32797265565E+02  0.28896520364E+02  0.43839864811E+02  0.00000000000E+00 0. -1.
</event>
<event>
 7    1  0.3707147E-015  0.9000777E+02  0.7816164E-02  0.1186339E+00
        -11   -1    0    0    0    0  0.00000000000E+00  0.00000000000E+00  0.45593999997E+02  0.45594000000E+02  0.51100000000E-03 0. -1.
         11   -1    0    0    0    0 -0.00000000000E+00 -0.00000000000E+00 -0.45593999997E+02  0.45594000000E+02  0.51100000000E-03 0.  1.
    9900012    2    1    2    0    0  0.37246028611E+00  0.75761634708E+00  0.82475663494E+00  0.90007774301E+02  0.90000036122E+02 0.  0.
         12    1    1    2    0    0 -0.37246028611E+00 -0.75761634708E+00 -0.82475663494E+00  0.11802256992E+01  0.00000000000E+00 0. -1.
         11    1    3    3    0    0 -0.15767805064E+02  0.27190158066E+02 -0.17318972223E+02  0.35886977740E+02  0.51100000000E-03 0. -1.
        -11    1    3    3    0    0 -0.22604434823E+01  0.87737238470E+01 -0.24354940631E+01  0.93818690287E+01  0.51100000000E-03 0.  1.
        -12    1    3    3    0    0  0.18400708833E+02 -0.35206265566E+02  0.20579222921E+02  0.44738927532E+02  0.00000000000E+00 0.  1.
</event>
<event>
 7    1  0.3707147E-015  0.9000775E+02  0.7816164E-02  0.1186339E+00
        -11   -1    0    0    0    0  0.00000000000E+00  0.00000000000E+00  0.45593999997E+02  0.45594000000E+02  0.51100000000E-03 0. -1.
         11   -1    0    0    0    0 -0.00000000000E+00 -0.00000000000E+00 -0.45593999997E+02  0.45594000000E+02  0.51100000000E-03 0.  1.
    9900012    2    1    2    0    0  0.70728127153E+00 -0.28748497580E+00  0.90005259629E+00  0.90007750414E+02  0.90000011920E+02 0.  0.
         12    1    1    2    0    0 -0.70728127153E+00  0.28748497580E+00 -0.90005259629E+00  0.11802495857E+01  0.00000000000E+00 0. -1.
         11    1    3    3    0    0  0.66028827774E+00 -0.54873877552E+01  0.75657394118E+01  0.93695153607E+01  0.51100000000E-03 0. -1.
        -11    1    3    3    0    0 -0.15426217517E+01 -0.36078213881E+02 -0.13912819200E+02  0.38698627069E+02  0.51100000000E-03 0.  1.
         12    1    3    3    0    0  0.15896147455E+01  0.41278116660E+02  0.72471323841E+01  0.41939607984E+02  0.00000000000E+00 0. -1.
</event>
<event>
 7    1  0.3707147E-015  0.9000775E+02  0.7816164E-02  0.1186339E+00
        -11   -1    0    0    0    0  0.00000000000E+00  0.00000000000E+00  0.45593999997E+02  0.45594000000E+02  0.51100000000E-03 0.  1.
         11   -1    0    0    0    0 -0.00000000000E+00 -0.00000000000E+00 -0.45593999997E+02  0.45594000000E+02  0.51100000000E-03 0. -1.
    9900012    2    1    2    0    0  0.86340347522E+00 -0.20659292205E+00  0.77771345483E+00  0.90007752393E+02  0.90000013924E+02 0.  0.
         12    1    1    2    0    0 -0.86340347522E+00  0.20659292205E+00 -0.77771345483E+00  0.11802476072E+01  0.00000000000E+00 0. -1.
         11    1    3    3    0    0  0.37735146562E+02  0.25041110553E+01  0.24887400875E+01  0.37899943083E+02  0.51100000000E-03 0. -1.
        -11    1    3    3    0    0  0.69476066851E+01 -0.15300184266E+01  0.35629473655E+01  0.79564306838E+01  0.51100000000E-03 0.  1.
        -12    1    3    3    0    0 -0.43819349772E+02 -0.11806855507E+01 -0.52739739981E+01  0.44151378626E+02  0.00000000000E+00 0.  1.
</event>
<event>
 7    1  0.3707147E-015  0.9000793E+02  0.7816164E-02  0.1186339E+00
        -11   -1    0    0    0    0  0.00000000000E+00  0.00000000000E+00  0.45593999997E+02  0.45594000000E+02  0.51100000000E-03 0.  1.
         11   -1    0    0    0    0 -0.00000000000E+00 -0.00000000000E+00 -0.45593999997E+02  0.45594000000E+02  0.51100000000E-03 0. -1.
    9900012    2    1    2    0    0  0.32588184450E-01  0.81454741262E+00  0.85323763373E+00  0.90007930537E+02  0.90000194420E+02 0.  0.
         12    1    1    2    0    0 -0.32588184450E-01 -0.81454741262E+00 -0.85323763373E+00  0.11800694627E+01  0.00000000000E+00 0. -1.
         11    1    3    3    0    0 -0.24374030611E+02 -0.24760990854E+02 -0.70895831936E+01  0.35460713845E+02  0.51100000000E-03 0. -1.
        -11    1    3    3    0    0 -0.72240934810E+01 -0.58965207389E+01  0.19399800340E+01  0.95247050474E+01  0.51100000000E-03 0.  1.
        -12    1    3    3    0    0  0.31630712276E+02  0.31472059006E+02  0.60028407933E+01  0.45022511644E+02  0.00000000000E+00 0.  1.
</event>
<event>
 7    1  0.3707147E-015  0.9000773E+02  0.7816164E-02  0.1186339E+00
        -11   -1    0    0    0    0  0.00000000000E+00  0.00000000000E+00  0.45593999997E+02  0.45594000000E+02  0.51100000000E-03 0. -1.
         11   -1    0    0    0    0 -0.00000000000E+00 -0.00000000000E+00 -0.45593999997E+02  0.45594000000E+02  0.51100000000E-03 0.  1.
    9900012    2    1    2    0    0  0.57112939268E+00 -0.54004747603E+00 -0.88045878707E+00  0.90007725568E+02  0.89999986745E+02 0.  0.
         12    1    1    2    0    0 -0.57112939268E+00  0.54004747603E+00  0.88045878707E+00  0.11802744322E+01  0.00000000000E+00 0. -1.
         11    1    3    3    0    0  0.18208388356E+02 -0.34932072841E+02 -0.23278792463E+01  0.39461552701E+02  0.51100000000E-03 0. -1.
        -11    1    3    3    0    0  0.17501418387E+01  0.40199382081E+00 -0.96952516397E+01  0.98601470631E+01  0.51100000000E-03 0.  1.
        -12    1    3    3    0    0 -0.19387400802E+02  0.33990031544E+02  0.11142672099E+02  0.40686025804E+02  0.00000000000E+00 0.  1.
</event>
<event>
 7    1  0.3707147E-015  0.9000745E+02  0.7816164E-02  0.1186340E+00
        -11   -1    0    0    0    0  0.00000000000E+00  0.00000000000E+00  0.45593999997E+02  0.45594000000E+02  0.51100000000E-03 0.  1.
         11   -1    0    0    0    0 -0.00000000000E+00 -0.00000000000E+00 -0.45593999997E+02  0.45594000000E+02  0.51100000000E-03 0. -1.
    9900012    2    1    2    0    0  0.43528685980E+00  0.98236627230E+00  0.48907252597E+00  0.90007445012E+02  0.89999702486E+02 0.  0.
         12    1    1    2    0    0 -0.43528685980E+00 -0.98236627230E+00 -0.48907252597E+00  0.11805549877E+01  0.00000000000E+00 0. -1.
         11    1    3    3    0    0 -0.12363182539E+02 -0.27362490230E+02 -0.26885065176E+02  0.40303360702E+02  0.51100000000E-03 0. -1.
        -11    1    3    3    0    0  0.30778781021E+01 -0.52463706206E+01  0.68324646903E+01  0.91476943711E+01  0.51100000000E-03 0.  1.
        -12    1    3    3    0    0  0.97205912972E+01  0.33591227123E+02  0.20541673012E+02  0.40556389939E+02  0.00000000000E+00 0.  1.
</event>
<event>
 7    1  0.3707147E-015  0.9000771E+02  0.7816164E-02  0.1186339E+00
        -11   -1    0    0    0    0  0.00000000000E+00  0.00000000000E+00  0.45593999997E+02  0.45594000000E+02  0.51100000000E-03 0.  1.
         11   -1    0    0    0    0 -0.00000000000E+00 -0.00000000000E+00 -0.45593999997E+02  0.45594000000E+02  0.51100000000E-03 0. -1.
    9900012    2    1    2    0    0  0.46424936324E+00 -0.96071835841E+00 -0.50456344543E+00  0.90007707025E+02  0.89999967958E+02 0.  0.
         12    1    1    2    0    0 -0.46424936324E+00  0.96071835841E+00  0.50456344543E+00  0.11802929746E+01  0.00000000000E+00 0. -1.
         11    1    3    3    0    0  0.16306560525E+02  0.20856449556E+02 -0.34402535137E+02  0.43410019908E+02  0.51100000000E-03 0. -1.
        -11    1    3    3    0    0  0.18579208803E+00  0.86999640496E+00  0.97514745216E+01  0.97919695696E+01  0.51100000000E-03 0.  1.
        -12    1    3    3    0    0 -0.16028103250E+02 -0.22687164319E+02  0.24146497170E+02  0.36805717548E+02  0.00000000000E+00 0.  1.
</event>
<event>
 7    1  0.3707147E-015  0.9000712E+02  0.7816164E-02  0.1186340E+00
        -11   -1    0    0    0    0  0.00000000000E+00  0.00000000000E+00  0.45593999997E+02  0.45594000000E+02  0.51100000000E-03 0.  1.
         11   -1    0    0    0    0 -0.00000000000E+00 -0.00000000000E+00 -0.45593999997E+02  0.45594000000E+02  0.51100000000E-03 0. -1.
    9900012    2    1    2    0    0 -0.12541017764E+00  0.47150919585E+00  0.10753713562E+01  0.90007122281E+02  0.89999375493E+02 0.  0.
         12    1    1    2    0    0  0.12541017764E+00 -0.47150919585E+00 -0.10753713562E+01  0.11808777194E+01  0.00000000000E+00 0. -1.
         11    1    3    3    0    0 -0.35898563304E+01 -0.23016005320E+01  0.65803298511E+01  0.78412482866E+01  0.51100000000E-03 0. -1.
        -11    1    3    3    0    0  0.38487052326E+02 -0.11561260128E+02 -0.15425033460E+02  0.43044716168E+02  0.51100000000E-03 0.  1.
         12    1    3    3    0    0 -0.35022606173E+02  0.14334369856E+02  0.99200749654E+01  0.39121157826E+02  0.00000000000E+00 0. -1.
</event>
<event>
 7    1  0.3707147E-015  0.9000774E+02  0.7816164E-02  0.1186339E+00
        -11   -1    0    0    0    0  0.00000000000E+00  0.00000000000E+00  0.45593999997E+02  0.45594000000E+02  0.51100000000E-03 0.  1.
         11   -1    0    0    0    0 -0.00000000000E+00 -0.00000000000E+00 -0.45593999997E+02  0.45594000000E+02  0.51100000000E-03 0. -1.
    9900012    2    1    2    0    0  0.22203432376E+00 -0.70790995138E+00  0.91792459905E+00  0.90007736763E+02  0.89999998088E+02 0.  0.
         12    1    1    2    0    0 -0.22203432376E+00  0.70790995138E+00 -0.91792459905E+00  0.11802632375E+01  0.00000000000E+00 0. -1.
         11    1    3    3    0    0 -0.82193125140E-01  0.70067428132E+01  0.66037189477E+01  0.96286190475E+01  0.51100000000E-03 0. -1.
        -11    1    3    3    0    0 -0.85057410185E+01  0.33544111217E+02  0.89142306116E+01  0.35735396112E+02  0.51100000000E-03 0.  1.
         12    1    3    3    0    0  0.88099684674E+01 -0.41258763982E+02 -0.14600024960E+02  0.44643721603E+02  0.00000000000E+00 0. -1.
</event>
<event>
 7    1  0.3707147E-015  0.9000770E+02  0.7816164E-02  0.1186339E+00
        -11   -1    0    0    0    0  0.00000000000E+00  0.00000000000E+00  0.45593999997E+02  0.45594000000E+02  0.51100000000E-03 0. -1.
         11   -1    0    0    0    0 -0.00000000000E+00 -0.00000000000E+00 -0.45593999997E+02  0.45594000000E+02  0.51100000000E-03 0.  1.
    9900012    2    1    2    0    0 -0.10343510561E+01  0.64040638515E-01 -0.56490829997E+00  0.90007701437E+02  0.89999962296E+02 0.  0.
         12    1    1    2    0    0  0.10343510561E+01 -0.64040638515E-01  0.56490829997E+00  0.11802985631E+01  0.00000000000E+00 0. -1.
         11    1    3    3    0    0 -0.24860374801E+01  0.80533147558E+01 -0.70054853318E+01  0.10959611576E+02  0.51100000000E-03 0. -1.
        -11    1    3    3    0    0 -0.26302407380E+01 -0.71161384591E+01 -0.35803401255E+02  0.36598376119E+02  0.51100000000E-03 0.  1.
         12    1    3    3    0    0  0.40819271620E+01 -0.87313565820E+00  0.42243978287E+02  0.42449713741E+02  0.00000000000E+00 0. -1.
</event>
<event>
 7    1  0.3707147E-015  0.9000772E+02  0.7816164E-02  0.1186339E+00
        -11   -1    0    0    0    0  0.00000000000E+00  0.00000000000E+00  0.45593999997E+02  0.45594000000E+02  0.51100000000E-03 0.  1.
         11   -1    0    0    0    0 -0.00000000000E+00 -0.00000000000E+00 -0.45593999997E+02  0.45594000000E+02  0.51100000000E-03 0. -1.
    9900012    2    1    2    0    0  0.11487171775E+01 -0.26239562974E+00 -0.68337184054E-01  0.90007715038E+02  0.89999976077E+02 0.  0.
         12    1    1    2    0    0 -0.11487171775E+01  0.26239562974E+00  0.68337184054E-01  0.11802849618E+01  0.00000000000E+00 0. -1.
         11    1    3    3    0    0  0.41489985268E+01  0.82535720640E+00 -0.83107207207E+01  0.93254213015E+01  0.51100000000E-03 0. -1.
        -11    1    3    3    0    0 -0.24895675517E+02  0.32019423189E+02  0.35744967079E+01  0.40716276202E+02  0.51100000000E-03 0.  1.
         12    1    3    3    0    0  0.21895394168E+02 -0.33107176025E+02  0.46678868287E+01  0.39966017534E+02  0.00000000000E+00 0. -1.
</event>
<event>
 7    1  0.3707147E-015  0.9000772E+02  0.7816164E-02  0.1186339E+00
        -11   -1    0    0    0    0  0.00000000000E+00  0.00000000000E+00  0.45593999997E+02  0.45594000000E+02  0.51100000000E-03 0.  1.
         11   -1    0    0    0    0 -0.00000000000E+00 -0.00000000000E+00 -0.45593999997E+02  0.45594000000E+02  0.51100000000E-03 0. -1.
    9900012    2    1    2    0    0 -0.93976040708E+00  0.70710724444E+00  0.99520159262E-01  0.90007722685E+02  0.89999983825E+02 0.  0.
         12    1    1    2    0    0  0.93976040708E+00 -0.70710724444E+00 -0.99520159262E-01  0.11802773148E+01  0.00000000000E+00 0. -1.
         11    1    3    3    0    0 -0.82051313273E+01 -0.59856941751E+01  0.15387553990E+01  0.10272316355E+02  0.51100000000E-03 0. -1.
        -11    1    3    3    0    0  0.20993953059E+02 -0.22413161278E+02 -0.25205768422E+02  0.39729417634E+02  0.51100000000E-03 0.  1.
         12    1    3    3    0    0 -0.13728582139E+02  0.29105962698E+02  0.23766533182E+02  0.40005988697E+02  0.00000000000E+00 0. -1.
</event>
<event>
 7    1  0.3707147E-015  0.9000777E+02  0.7816164E-02  0.1186339E+00
        -11   -1    0    0    0    0  0.00000000000E+00  0.00000000000E+00  0.45593999997E+02  0.45594000000E+02  0.51100000000E-03 0.  1.
         11   -1    0    0    0    0 -0.00000000000E+00 -0.00000000000E+00 -0.45593999997E+02  0.45594000000E+02  0.51100000000E-03 0. -1.
    9900012    2    1    2    0    0 -0.16940073095E+00  0.86200425292E+00  0.78816433007E+00  0.90007766569E+02  0.90000028288E+02 0.  0.
         12    1    1    2    0    0  0.16940073095E+00 -0.86200425292E+00 -0.78816433007E+00  0.11802334307E+01  0.00000000000E+00 0. -1.
         11    1    3    3    0    0  0.17311910612E+01 -0.87787253115E+01 -0.58798506511E+01  0.10706805524E+02  0.51100000000E-03 0. -1.
        -11    1    3    3    0    0  0.35142220759E+02 -0.98671454051E+01 -0.19669941436E+01  0.36554142098E+02  0.51100000000E-03 0.  1.
         12    1    3    3    0    0 -0.37042812551E+02  0.19507874970E+02  0.86350091247E+01  0.42746818947E+02  0.00000000000E+00 0. -1.
</event>
<event>
 7    1  0.3707147E-015  0.9000775E+02  0.7816164E-02  0.1186339E+00
        -11   -1    0    0    0    0  0.00000000000E+00  0.00000000000E+00  0.45593999997E+02  0.45594000000E+02  0.51100000000E-03 0.  1.
         11   -1    0    0    0    0 -0.00000000000E+00 -0.00000000000E+00 -0.45593999997E+02  0.45594000000E+02  0.51100000000E-03 0. -1.
    9900012    2    1    2    0    0  0.73415669445E+00 -0.90350796992E+00  0.19411392001E+00  0.90007748790E+02  0.90000010274E+02 0.  0.
         12    1    1    2    0    0 -0.73415669445E+00  0.90350796992E+00 -0.19411392001E+00  0.11802512096E+01  0.00000000000E+00 0. -1.
         11    1    3    3    0    0  0.20888565545E+01  0.54360261014E+01 -0.78389408837E+01  0.97653825280E+01  0.51100000000E-03 0. -1.
        -11    1    3    3    0    0  0.46257259800E+01 -0.30693881862E+02 -0.24231002242E+02  0.39378334075E+02  0.51100000000E-03 0.  1.
         12    1    3    3    0    0 -0.59804258401E+01  0.24354347791E+02  0.32264057046E+02  0.40864032187E+02  0.00000000000E+00 0. -1.
</event>
<event>
 7    1  0.3707147E-015  0.9000776E+02  0.7816164E-02  0.1186339E+00
        -11   -1    0    0    0    0  0.00000000000E+00  0.00000000000E+00  0.45593999997E+02  0.45594000000E+02  0.51100000000E-03 0.  1.
         11   -1    0    0    0    0 -0.00000000000E+00 -0.00000000000E+00 -0.45593999997E+02  0.45594000000E+02  0.51100000000E-03 0. -1.
    9900012    2    1    2    0    0 -0.59638238996E+00 -0.46667536062E+00  0.90526946264E+00  0.90007758225E+02  0.90000019834E+02 0.  0.
         12    1    1    2    0    0  0.59638238996E+00  0.46667536062E+00 -0.90526946264E+00  0.11802417749E+01  0.00000000000E+00 0. -1.
         11    1    3    3    0    0  0.22491716783E+01  0.55318964016E+01 -0.70604145921E+01  0.92471674317E+01  0.51100000000E-03 0. -1.
        -11    1    3    3    0    0  0.20275910004E+02  0.30783429624E+02  0.20989142141E+01  0.36920692126E+02  0.51100000000E-03 0.  1.
         12    1    3    3    0    0 -0.23121464072E+02 -0.36782001386E+02  0.58667698407E+01  0.43839898668E+02  0.00000000000E+00 0. -1.
</event>
<event>
 7    1  0.3707147E-015  0.9000777E+02  0.7816164E-02  0.1186339E+00
        -11   -1    0    0    0    0  0.00000000000E+00  0.00000000000E+00  0.45593999997E+02  0.45594000000E+02  0.51100000000E-03 0.  1.
         11   -1    0    0    0    0 -0.00000000000E+00 -0.00000000000E+00 -0.45593999997E+02  0.45594000000E+02  0.51100000000E-03 0. -1.
    9900012    2    1    2    0    0  0.77518362871E+00 -0.59812596333E+00  0.65899812097E+00  0.90007770001E+02  0.90000031765E+02 0.  0.
         12    1    1    2    0    0 -0.77518362871E+00  0.59812596333E+00 -0.65899812097E+00  0.11802299986E+01  0.00000000000E+00 0. -1.
         11    1    3    3    0    0  0.66739421212E+01 -0.25369581266E+02 -0.30920787249E+02  0.40549380284E+02  0.51100000000E-03 0. -1.
        -11    1    3    3    0    0 -0.10158562704E+02 -0.21057571884E+01  0.53939929240E+01  0.11692979495E+02  0.51100000000E-03 0.  1.
        -12    1    3    3    0    0  0.42598042114E+01  0.26877212491E+02  0.26185792446E+02  0.37765410222E+02  0.00000000000E+00 0.  1.
</event>
<event>
 7    1  0.3707147E-015  0.9000774E+02  0.7816164E-02  0.1186339E+00
        -11   -1    0    0    0    0  0.00000000000E+00  0.00000000000E+00  0.45593999997E+02  0.45594000000E+02  0.51100000000E-03 0.  1.
         11   -1    0    0    0    0 -0.00000000000E+00 -0.00000000000E+00 -0.45593999997E+02  0.45594000000E+02  0.51100000000E-03 0. -1.
    9900012    2    1    2    0    0 -0.41781283686E+00 -0.34675986250E+00  0.10479531258E+01  0.90007739129E+02  0.90000000486E+02 0.  0.
         12    1    1    2    0    0  0.41781283686E+00  0.34675986250E+00 -0.10479531258E+01  0.11802608706E+01  0.00000000000E+00 0. -1.
         11    1    3    3    0    0 -0.26489066395E+01  0.38354913768E+01  0.77712142307E+01  0.90619794398E+01  0.51100000000E-03 0. -1.
        -11    1    3    3    0    0 -0.52984094126E+01  0.20982106887E+02  0.29261334134E+02  0.36394335099E+02  0.51100000000E-03 0.  1.
         12    1    3    3    0    0  0.75295032152E+01 -0.25164358126E+02 -0.35984595239E+02  0.44551424591E+02  0.00000000000E+00 0. -1.
</event>
<event>
 7    1  0.3707147E-015  0.9000773E+02  0.7816164E-02  0.1186339E+00
        -11   -1    0    0    0    0  0.00000000000E+00  0.00000000000E+00  0.45593999997E+02  0.45594000000E+02  0.51100000000E-03 0.  1.
         11   -1    0    0    0    0 -0.00000000000E+00 -0.00000000000E+00 -0.45593999997E+02  0.45594000000E+02  0.51100000000E-03 0. -1.
    9900012    2    1    2    0    0 -0.24000984598E+00 -0.64834443495E+00  0.95659979475E+00  0.90007729523E+02  0.89999990752E+02 0.  0.
         12    1    1    2    0    0  0.24000984598E+00  0.64834443495E+00 -0.95659979475E+00  0.11802704774E+01  0.00000000000E+00 0. -1.
         11    1    3    3    0    0  0.61213878910E+01 -0.39986125664E+01  0.60769630009E+01  0.95073535615E+01  0.51100000000E-03 0. -1.
        -11    1    3    3    0    0  0.33129498393E+02 -0.13427042349E+02  0.58270621253E+01  0.36218831888E+02  0.51100000000E-03 0.  1.
         12    1    3    3    0    0 -0.39490896130E+02  0.16777310481E+02 -0.10947425331E+02  0.44281544073E+02  0.00000000000E+00 0. -1.
</event>
<event>
 7    1  0.3707147E-015  0.9000768E+02  0.7816164E-02  0.1186339E+00
        -11   -1    0    0    0    0  0.00000000000E+00  0.00000000000E+00  0.45593999997E+02  0.45594000000E+02  0.51100000000E-03 0.  1.
         11   -1    0    0    0    0 -0.00000000000E+00 -0.00000000000E+00 -0.45593999997E+02  0.45594000000E+02  0.51100000000E-03 0. -1.
    9900012    2    1    2    0    0 -0.22851041569E+00  0.89396436222E+00  0.73605034811E+00  0.90007678262E+02  0.89999938815E+02 0.  0.
         12    1    1    2    0    0  0.22851041569E+00 -0.89396436222E+00 -0.73605034811E+00  0.11803217383E+01  0.00000000000E+00 0. -1.
         11    1    3    3    0    0  0.20447613370E+02 -0.28038158643E+02 -0.20255374620E+01  0.34761272055E+02  0.51100000000E-03 0. -1.
        -11    1    3    3    0    0  0.29373139461E+01 -0.85022721486E+01 -0.50297765045E+01  0.10306070874E+02  0.51100000000E-03 0.  1.
        -12    1    3    3    0    0 -0.23613437731E+02  0.37434395153E+02  0.77913643146E+01  0.44940335333E+02  0.00000000000E+00 0.  1.
</event>
<event>
 7    1  0.3707147E-015  0.9000778E+02  0.7816164E-02  0.1186339E+00
        -11   -1    0    0    0    0  0.00000000000E+00  0.00000000000E+00  0.45593999997E+02  0.45594000000E+02  0.51100000000E-03 0.  1.
         11   -1    0    0    0    0 -0.00000000000E+00 -0.00000000000E+00 -0.45593999997E+02  0.45594000000E+02  0.51100000000E-03 0. -1.
    9900012    2    1    2    0    0  0.83702345734E+00 -0.42697568541E+00  0.71414485693E+00  0.90007779944E+02  0.90000041839E+02 0.  0.
         12    1    1    2    0    0 -0.83702345734E+00  0.42697568541E+00 -0.71414485693E+00  0.11802200561E+01  0.00000000000E+00 0. -1.
         11    1    3    3    0    0 -0.15842523367E+02 -0.24692763386E+02 -0.26656957765E+02  0.39639771793E+02  0.51100000000E-03 0. -1.
        -11    1    3    3    0    0 -0.49499936071E+01 -0.19003670005E+01 -0.18087844791E+01  0.56022792683E+01  0.51100000000E-03 0.  1.
        -12    1    3    3    0    0  0.21629540431E+02  0.26166154702E+02  0.29179887101E+02  0.44765728882E+02  0.00000000000E+00 0.  1.
</event>
<event>
 7    1  0.3707147E-015  0.9000769E+02  0.7816164E-02  0.1186339E+00
        -11   -1    0    0    0    0  0.00000000000E+00  0.00000000000E+00  0.45593999997E+02  0.45594000000E+02  0.51100000000E-03 0.  1.
         11   -1    0    0    0    0 -0.00000000000E+00 -0.00000000000E+00 -0.45593999997E+02  0.45594000000E+02  0.51100000000E-03 0. -1.
    9900012    2    1    2    0    0  0.10363465933E+01  0.66989760006E-01  0.56091607447E+00  0.90007691256E+02  0.89999951980E+02 0.  0.
         12    1    1    2    0    0 -0.10363465933E+01 -0.66989760006E-01 -0.56091607447E+00  0.11803087443E+01  0.00000000000E+00 0. -1.
         11    1    3    3    0    0  0.30025328785E+01 -0.10390138130E+02 -0.49941027590E+01  0.11912650279E+02  0.51100000000E-03 0. -1.
        -11    1    3    3    0    0 -0.70983478602E+01 -0.25291660533E+02  0.25692837507E+02  0.36744748390E+02  0.51100000000E-03 0.  1.
         12    1    3    3    0    0  0.51321615749E+01  0.35748788422E+02 -0.20137818673E+02  0.41350292587E+02  0.00000000000E+00 0. -1.
</event>
<event>
 7    1  0.3707147E-015  0.9000777E+02  0.7816164E-02  0.1186339E+00
        -11   -1    0    0    0    0  0.00000000000E+00  0.00000000000E+00  0.45593999997E+02  0.45594000000E+02  0.51100000000E-03 0.  1.
         11   -1    0    0    0    0 -0.00000000000E+00 -0.00000000000E+00 -0.45593999997E+02  0.45594000000E+02  0.51100000000E-03 0. -1.
    9900012    2    1    2    0    0 -0.54630345152E+00  0.86107272290E+00 -0.59417578193E+00  0.90007771821E+02  0.90000033609E+02 0.  0.
         12    1    1    2    0    0  0.54630345152E+00 -0.86107272290E+00  0.59417578193E+00  0.11802281793E+01  0.00000000000E+00 0. -1.
         11    1    3    3    0    0  0.68062606728E+01  0.10910263108E+01  0.42439532830E+01  0.80948540745E+01  0.51100000000E-03 0. -1.
        -11    1    3    3    0    0 -0.36808798932E+02  0.52212303703E+01  0.20696999814E+02  0.42550143677E+02  0.51100000000E-03 0.  1.
         12    1    3    3    0    0  0.29456234807E+02 -0.54511839582E+01 -0.25535128879E+02  0.39362774069E+02  0.00000000000E+00 0. -1.
</event>
<event>
 7    1  0.3707147E-015  0.9000777E+02  0.7816164E-02  0.1186339E+00
        -11   -1    0    0    0    0  0.00000000000E+00  0.00000000000E+00  0.45593999997E+02  0.45594000000E+02  0.51100000000E-03 0.  1.
         11   -1    0    0    0    0 -0.00000000000E+00 -0.00000000000E+00 -0.45593999997E+02  0.45594000000E+02  0.51100000000E-03 0. -1.
    9900012    2    1    2    0    0 -0.38102669475E+00 -0.11142092974E+01 -0.79378789966E-01  0.90007769221E+02  0.90000030974E+02 0.  0.
         12    1    1    2    0    0  0.38102669475E+00  0.11142092974E+01  0.79378789966E-01  0.11802307794E+01  0.00000000000E+00 0. -1.
         11    1    3    3    0    0 -0.71468358508E+01 -0.48085839757E+01  0.22819477403E+01  0.89110621298E+01  0.51100000000E-03 0. -1.
        -11    1    3    3    0    0 -0.94251420398E+00 -0.32012154262E+02  0.20479805610E+02  0.38014323505E+02  0.51100000000E-03 0.  1.
         12    1    3    3    0    0  0.77083233600E+01  0.35706528940E+02 -0.22841132140E+02  0.43082383585E+02  0.00000000000E+00 0. -1.
</event>
<event>
 7    1  0.3707147E-015  0.9000771E+02  0.7816164E-02  0.1186339E+00
        -11   -1    0    0    0    0  0.00000000000E+00  0.00000000000E+00  0.45593999997E+02  0.45594000000E+02  0.51100000000E-03 0. -1.
         11   -1    0    0    0    0 -0.00000000000E+00 -0.00000000000E+00 -0.45593999997E+02  0.45594000000E+02  0.51100000000E-03 0.  1.
    9900012    2    1    2    0    0  0.11053102368E+01 -0.40627955127E-01 -0.41196992298E+00  0.90007711659E+02  0.89999972653E+02 0.  0.
         12    1    1    2    0    0 -0.11053102368E+01  0.40627955127E-01  0.41196992298E+00  0.11802883410E+01  0.00000000000E+00 0. -1.
         11    1    3    3    0    0 -0.22620962654E+01 -0.10519543978E+02  0.95800194270E+00  0.10802576220E+02  0.51100000000E-03 0. -1.
        -11    1    3    3    0    0 -0.80129405969E+01 -0.32329516401E+02 -0.84120032099E+01  0.34353553615E+02  0.51100000000E-03 0.  1.
         12    1    3    3    0    0  0.11380347099E+02  0.42808432423E+02  0.70420313442E+01  0.44851581824E+02  0.00000000000E+00 0. -1.
</event>
<event>
 7    1  0.3707147E-015  0.9000771E+02  0.7816164E-02  0.1186339E+00
        -11   -1    0    0    0    0  0.00000000000E+00  0.00000000000E+00  0.45593999997E+02  0.45594000000E+02  0.51100000000E-03 0.  1.
         11   -1    0    0    0    0 -0.00000000000E+00 -0.00000000000E+00 -0.45593999997E+02  0.45594000000E+02  0.51100000000E-03 0. -1.
    9900012    2    1    2    0    0 -0.39269754492E+00 -0.72092339195E-02  0.11130209615E+01  0.90007712325E+02  0.89999973328E+02 0.  0.
         12    1    1    2    0    0  0.39269754492E+00  0.72092339195E-02 -0.11130209615E+01  0.11802876749E+01  0.00000000000E+00 0. -1.
         11    1    3    3    0    0 -0.13180847519E+02  0.11090009006E+02 -0.52557391373E+01  0.18009603972E+02  0.51100000000E-03 0. -1.
        -11    1    3    3    0    0 -0.88852474027E-01  0.16442143025E+02  0.29516686468E+02  0.33787375487E+02  0.51100000000E-03 0.  1.
         12    1    3    3    0    0  0.12877002448E+02 -0.27539361265E+02 -0.23147926369E+02  0.38210732866E+02  0.00000000000E+00 0. -1.
</event>
<event>
 7    1  0.3707147E-015  0.9000773E+02  0.7816164E-02  0.1186339E+00
        -11   -1    0    0    0    0  0.00000000000E+00  0.00000000000E+00  0.45593999997E+02  0.45594000000E+02  0.51100000000E-03 0.  1.
         11   -1    0    0    0    0 -0.00000000000E+00 -0.00000000000E+00 -0.45593999997E+02  0.45594000000E+02  0.51100000000E-03 0. -1.
    9900012    2    1    2    0    0  0.93020717128E+00  0.14466921133E+00  0.71191482390E+00  0.90007729998E+02  0.89999991234E+02 0.  0.
         12    1    1    2    0    0 -0.93020717128E+00 -0.14466921133E+00 -0.71191482390E+00  0.11802700025E+01  0.00000000000E+00 0. -1.
         11    1    3    3    0    0  0.22521877354E+02 -0.13365726708E+02  0.27969878386E+02  0.38316989798E+02  0.51100000000E-03 0. -1.
        -11    1    3    3    0    0  0.51409352407E+00 -0.65532399994E+01  0.46063567742E+01  0.80266910763E+01  0.51100000000E-03 0.  1.
        -12    1    3    3    0    0 -0.22105763707E+02  0.20063635919E+02 -0.31864320336E+02  0.43664049123E+02  0.00000000000E+00 0.  1.
</event>
<event>
 7    1  0.3707147E-015  0.9000780E+02  0.7816164E-02  0.1186339E+00
        -11   -1    0    0    0    0  0.00000000000E+00  0.00000000000E+00  0.45593999997E+02  0.45594000000E+02  0.51100000000E-03 0. -1.
         11   -1    0    0    0    0 -0.00000000000E+00 -0.00000000000E+00 -0.45593999997E+02  0.45594000000E+02  0.51100000000E-03 0.  1.
    9900012    2    1    2    0    0 -0.31237452880E+00 -0.73587080222E+00 -0.86821212166E+00  0.90007798334E+02  0.90000060472E+02 0.  0.
         12    1    1    2    0    0  0.31237452880E+00  0.73587080222E+00  0.86821212166E+00  0.11802016658E+01  0.00000000000E+00 0. -1.
         11    1    3    3    0    0 -0.25346857154E+01 -0.37465601921E+01  0.33309607674E+02  0.33615343351E+02  0.51100000000E-03 0. -1.
        -11    1    3    3    0    0 -0.97335789279E+01  0.41183436458E+01  0.75388448131E+01  0.12982199140E+02  0.51100000000E-03 0.  1.
        -12    1    3    3    0    0  0.11955890114E+02 -0.11076542560E+01 -0.41716664608E+02  0.43410255844E+02  0.00000000000E+00 0.  1.
</event>
<event>
 7    1  0.3707147E-015  0.9000751E+02  0.7816164E-02  0.1186340E+00
        -11   -1    0    0    0    0  0.00000000000E+00  0.00000000000E+00  0.45593999997E+02  0.45594000000E+02  0.51100000000E-03 0. -1.
         11   -1    0    0    0    0 -0.00000000000E+00 -0.00000000000E+00 -0.45593999997E+02  0.45594000000E+02  0.51100000000E-03 0.  1.
    9900012    2    1    2    0    0  0.10114271634E+01 -0.46594216703E+00  0.39175161979E+00  0.90007510127E+02  0.89999768460E+02 0.  0.
         12    1    1    2    0    0 -0.10114271634E+01  0.46594216703E+00 -0.39175161979E+00  0.11804898735E+01  0.00000000000E+00 0. -1.
         11    1    3    3    0    0  0.23726251328E+02 -0.30524941526E+02 -0.10212697238E+02  0.39987576100E+02  0.51100000000E-03 0. -1.
        -11    1    3    3    0    0  0.42852425133E+01  0.54076700468E+01 -0.66583822377E+01  0.95885480140E+01  0.51100000000E-03 0.  1.
        -12    1    3    3    0    0 -0.27000066677E+02  0.24651329312E+02  0.17262831096E+02  0.40431386012E+02  0.00000000000E+00 0.  1.
</event>
<event>
 7    1  0.3707147E-015  0.9000775E+02  0.7816164E-02  0.1186339E+00
        -11   -1    0    0    0    0  0.00000000000E+00  0.00000000000E+00  0.45593999997E+02  0.45594000000E+02  0.51100000000E-03 0. -1.
         11   -1    0    0    0    0 -0.00000000000E+00 -0.00000000000E+00 -0.45593999997E+02  0.45594000000E+02  0.51100000000E-03 0.  1.
    9900012    2    1    2    0    0  0.23942411542E+00 -0.11370756686E+01 -0.20670164313E+00  0.90007749792E+02  0.90000011290E+02 0.  0.
         12    1    1    2    0    0 -0.23942411542E+00  0.11370756686E+01  0.20670164313E+00  0.11802502075E+01  0.00000000000E+00 0. -1.
         11    1    3    3    0    0  0.87737013944E+01 -0.40628293896E+01  0.25421710318E+01  0.99973522806E+01  0.51100000000E-03 0. -1.
        -11    1    3    3    0    0  0.87168665772E+00  0.40863268401E+02 -0.98332000502E+00  0.40884391405E+02  0.51100000000E-03 0.  1.
         12    1    3    3    0    0 -0.94059639367E+01 -0.37937514680E+02 -0.17655526699E+01  0.39126006107E+02  0.00000000000E+00 0. -1.
</event>
<event>
 7    1  0.3707147E-015  0.9000776E+02  0.7816164E-02  0.1186339E+00
        -11   -1    0    0    0    0  0.00000000000E+00  0.00000000000E+00  0.45593999997E+02  0.45594000000E+02  0.51100000000E-03 0.  1.
         11   -1    0    0    0    0 -0.00000000000E+00 -0.00000000000E+00 -0.45593999997E+02  0.45594000000E+02  0.51100000000E-03 0. -1.
    9900012    2    1    2    0    0  0.23636212512E+00 -0.44729668943E+00  0.10663100354E+01  0.90007763382E+02  0.90000025059E+02 0.  0.
         12    1    1    2    0    0 -0.23636212512E+00  0.44729668943E+00 -0.10663100354E+01  0.11802366179E+01  0.00000000000E+00 0. -1.
         11    1    3    3    0    0 -0.28868385146E+01  0.75360218251E+01 -0.10570489179E+01  0.81389688680E+01  0.51100000000E-03 0. -1.
        -11    1    3    3    0    0  0.10089582329E+02 -0.16184596704E+02  0.39021866843E+02  0.43433246876E+02  0.51100000000E-03 0.  1.
         12    1    3    3    0    0 -0.69663816892E+01  0.82012781897E+01 -0.36898507889E+02  0.38435547638E+02  0.00000000000E+00 0. -1.
</event>
<event>
 7    1  0.3707147E-015  0.9000777E+02  0.7816164E-02  0.1186339E+00
        -11   -1    0    0    0    0  0.00000000000E+00  0.00000000000E+00  0.45593999997E+02  0.45594000000E+02  0.51100000000E-03 0. -1.
         11   -1    0    0    0    0 -0.00000000000E+00 -0.00000000000E+00 -0.45593999997E+02  0.45594000000E+02  0.51100000000E-03 0.  1.
    9900012    2    1    2    0    0  0.10642440181E+01  0.42297008907E+00  0.28534292720E+00  0.90007771373E+02  0.90000033155E+02 0.  0.
         12    1    1    2    0    0 -0.10642440181E+01 -0.42297008907E+00 -0.28534292720E+00  0.11802286272E+01  0.00000000000E+00 0. -1.
         11    1    3    3    0    0 -0.30230474137E+02  0.17231647439E+02 -0.10896255493E+02  0.36462852660E+02  0.51100000000E-03 0. -1.
        -11    1    3    3    0    0 -0.47061069929E+01  0.12281913584E+01 -0.76715086494E+01  0.90833882588E+01  0.51100000000E-03 0.  1.
        -12    1    3    3    0    0  0.36000825148E+02 -0.18036868709E+02  0.18853107069E+02  0.44461530454E+02  0.00000000000E+00 0.  1.
</event>
<event>
 7    1  0.3707147E-015  0.9000777E+02  0.7816164E-02  0.1186339E+00
        -11   -1    0    0    0    0  0.00000000000E+00  0.00000000000E+00  0.45593999997E+02  0.45594000000E+02  0.51100000000E-03 0.  1.
         11   -1    0    0    0    0 -0.00000000000E+00 -0.00000000000E+00 -0.45593999997E+02  0.45594000000E+02  0.51100000000E-03 0. -1.
    9900012    2    1    2    0    0  0.42746320923E+00 -0.40083950000E+00  0.10244689628E+01  0.90007773854E+02  0.90000035669E+02 0.  0.
         12    1    1    2    0    0 -0.42746320923E+00  0.40083950000E+00 -0.10244689628E+01  0.11802261460E+01  0.00000000000E+00 0. -1.
         11    1    3    3    0    0 -0.28622815239E+02  0.20371654273E+02 -0.72060633792E+01  0.35863591562E+02  0.51100000000E-03 0. -1.
        -11    1    3    3    0    0 -0.20347947646E+01  0.95930255704E+01  0.35860973395E+01  0.10441581476E+02  0.51100000000E-03 0.  1.
        -12    1    3    3    0    0  0.31085073213E+02 -0.30365519343E+02  0.46444350024E+01  0.43702600816E+02  0.00000000000E+00 0.  1.
</event>
<event>
 7    1  0.3707147E-015  0.9000776E+02  0.7816164E-02  0.1186339E+00
        -11   -1    0    0    0    0  0.00000000000E+00  0.00000000000E+00  0.45593999997E+02  0.45594000000E+02  0.51100000000E-03 0. -1.
         11   -1    0    0    0    0 -0.00000000000E+00 -0.00000000000E+00 -0.45593999997E+02  0.45594000000E+02  0.51100000000E-03 0.  1.
    9900012    2    1    2    0    0 -0.64588849215E+00  0.98448116729E+00  0.81178616783E-01  0.90007760583E+02  0.90000022223E+02 0.  0.
         12    1    1    2    0    0  0.64588849215E+00 -0.98448116729E+00 -0.81178616783E-01  0.11802394168E+01  0.00000000000E+00 0. -1.
         11    1    3    3    0    0  0.22148298764E+01  0.54797950075E+01  0.66587392626E+01  0.89035068110E+01  0.51100000000E-03 0. -1.
        -11    1    3    3    0    0 -0.19137489055E+02 -0.28447317583E+02  0.21743169995E+02  0.40598753759E+02  0.51100000000E-03 0.  1.
         12    1    3    3    0    0  0.16276770687E+02  0.23952003743E+02 -0.28320730641E+02  0.40505500014E+02  0.00000000000E+00 0. -1.
</event>
<event>
 7    1  0.3707147E-015  0.9000766E+02  0.7816164E-02  0.1186339E+00
        -11   -1    0    0    0    0  0.00000000000E+00  0.00000000000E+00  0.45593999997E+02  0.45594000000E+02  0.51100000000E-03 0. -1.
         11   -1    0    0    0    0 -0.00000000000E+00 -0.00000000000E+00 -0.45593999997E+02  0.45594000000E+02  0.51100000000E-03 0.  1.
    9900012    2    1    2    0    0  0.34370299580E+00 -0.11244812567E+01 -0.10298171376E+00  0.90007663150E+02  0.89999923504E+02 0.  0.
         12    1    1    2    0    0 -0.34370299580E+00  0.11244812567E+01  0.10298171376E+00  0.11803368499E+01  0.00000000000E+00 0. -1.
         11    1    3    3    0    0  0.24213738687E+01 -0.11888199922E+02  0.26792639618E+01  0.12424604800E+02  0.51100000000E-03 0. -1.
        -11    1    3    3    0    0 -0.16492734210E+02 -0.13500522080E+02 -0.31034715177E+02  0.37648743997E+02  0.51100000000E-03 0.  1.
         12    1    3    3    0    0  0.14415063337E+02  0.24264240745E+02  0.28252469502E+02  0.39934314353E+02  0.00000000000E+00 0. -1.
</event>
<event>
 7    1  0.3707147E-015  0.9000778E+02  0.7816164E-02  0.1186339E+00
        -11   -1    0    0    0    0  0.00000000000E+00  0.00000000000E+00  0.45593999997E+02  0.45594000000E+02  0.51100000000E-03 0.  1.
         11   -1    0    0    0    0 -0.00000000000E+00 -0.00000000000E+00 -0.45593999997E+02  0.45594000000E+02  0.51100000000E-03 0. -1.
    9900012    2    1    2    0    0  0.11098992304E+01 -0.21041654070E+00 -0.34170127512E+00  0.90007783417E+02  0.90000045358E+02 0.  0.
         12    1    1    2    0    0 -0.11098992304E+01  0.21041654070E+00  0.34170127512E+00  0.11802165834E+01  0.00000000000E+00 0. -1.
         11    1    3    3    0    0  0.27541396293E+02 -0.21935324585E+02 -0.18606021916E+02  0.39822996199E+02  0.51100000000E-03 0. -1.
        -11    1    3    3    0    0  0.65348833523E+01  0.34972720176E+01  0.84844884237E+01  0.11265973374E+02  0.51100000000E-03 0.  1.
        -12    1    3    3    0    0 -0.32966380415E+02  0.18227636027E+02  0.97798322175E+01  0.38918813844E+02  0.00000000000E+00 0.  1.
</event>
<event>
 7    1  0.3707147E-015  0.9000773E+02  0.7816164E-02  0.1186339E+00
        -11   -1    0    0    0    0  0.00000000000E+00  0.00000000000E+00  0.45593999997E+02  0.45594000000E+02  0.51100000000E-03 0.  1.
         11   -1    0    0    0    0 -0.00000000000E+00 -0.00000000000E+00 -0.45593999997E+02  0.45594000000E+02  0.51100000000E-03 0. -1.
    9900012    2    1    2    0    0  0.79967321926E+00  0.86200975808E+00  0.10244021739E+00  0.90007732200E+02  0.89999993465E+02 0.  0.
         12    1    1    2    0    0 -0.79967321926E+00 -0.86200975808E+00 -0.10244021739E+00  0.11802677996E+01  0.00000000000E+00 0. -1.
         11    1    3    3    0    0 -0.27280938702E+02  0.78726051534E+01 -0.24542523738E+02  0.37530827330E+02  0.51100000000E-03 0. -1.
        -11    1    3    3    0    0 -0.46495452936E+01 -0.10353749363E+02 -0.32827576492E-01  0.11349866749E+02  0.51100000000E-03 0.  1.
        -12    1    3    3    0    0  0.32730157215E+02  0.33431539681E+01  0.24677791531E+02  0.41127038121E+02  0.00000000000E+00 0.  1.
</event>
<event>
 7    1  0.3707147E-015  0.9000648E+02  0.7816164E-02  0.1186342E+00
        -11   -1    0    0    0    0  0.00000000000E+00  0.00000000000E+00  0.45593999997E+02  0.45594000000E+02  0.51100000000E-03 0. -1.
         11   -1    0    0    0    0 -0.00000000000E+00 -0.00000000000E+00 -0.45593999997E+02  0.45594000000E+02  0.51100000000E-03 0.  1.
    9900012    2    1    2    0    0 -0.96771840795E-01  0.10309328407E+00 -0.11730304672E+01  0.90006478315E+02  0.89998723020E+02 0.  0.
         12    1    1    2    0    0  0.96771840795E-01 -0.10309328407E+00  0.11730304672E+01  0.11815216847E+01  0.00000000000E+00 0. -1.
         11    1    3    3    0    0 -0.95854275437E+01 -0.31352162316E+02  0.15506527705E+02  0.36266939557E+02  0.51100000000E-03 0. -1.
        -11    1    3    3    0    0  0.62378739764E+01 -0.87323263483E+01 -0.43259053967E+01  0.11570568394E+02  0.51100000000E-03 0.  1.
        -12    1    3    3    0    0  0.32507817265E+01  0.40187581949E+02 -0.12353652775E+02  0.42168970364E+02  0.00000000000E+00 0.  1.
</event>
<event>
 7    1  0.3707147E-015  0.9000795E+02  0.7816164E-02  0.1186339E+00
        -11   -1    0    0    0    0  0.00000000000E+00  0.00000000000E+00  0.45593999997E+02  0.45594000000E+02  0.51100000000E-03 0.  1.
         11   -1    0    0    0    0 -0.00000000000E+00 -0.00000000000E+00 -0.45593999997E+02  0.45594000000E+02  0.51100000000E-03 0. -1.
    9900012    2    1    2    0    0 -0.53370599121E+00  0.65750446178E+00  0.82180243109E+00  0.90007951934E+02  0.90000216099E+02 0.  0.
         12    1    1    2    0    0  0.53370599121E+00 -0.65750446178E+00 -0.82180243109E+00  0.11800480660E+01  0.00000000000E+00 0. -1.
         11    1    3    3    0    0  0.79754041893E+01 -0.67429519032E+01  0.47824505420E+01  0.11486788315E+02  0.51100000000E-03 0. -1.
        -11    1    3    3    0    0 -0.25885579622E+02  0.10753663739E+02  0.29484702123E+02  0.40682332476E+02  0.51100000000E-03 0.  1.
         12    1    3    3    0    0  0.17376469442E+02 -0.33532073742E+01 -0.33445350234E+02  0.37838831142E+02  0.00000000000E+00 0. -1.
</event>
<event>
 7    1  0.3707147E-015  0.9000772E+02  0.7816164E-02  0.1186339E+00
        -11   -1    0    0    0    0  0.00000000000E+00  0.00000000000E+00  0.45593999997E+02  0.45594000000E+02  0.51100000000E-03 0.  1.
         11   -1    0    0    0    0 -0.00000000000E+00 -0.00000000000E+00 -0.45593999997E+02  0.45594000000E+02  0.51100000000E-03 0. -1.
    9900012    2    1    2    0    0 -0.18273155932E+00  0.77269206816E-01  0.11634851021E+01  0.90007720823E+02  0.89999981938E+02 0.  0.
         12    1    1    2    0    0  0.18273155932E+00 -0.77269206816E-01 -0.11634851021E+01  0.11802791771E+01  0.00000000000E+00 0. -1.
         11    1    3    3    0    0 -0.39567158918E+02 -0.93270010787E+01  0.94386100907E+01  0.41732965083E+02  0.51100000000E-03 0. -1.
        -11    1    3    3    0    0  0.20230735882E+01  0.24877563590E+01 -0.97360765651E+01  0.10250509528E+02  0.51100000000E-03 0.  1.
        -12    1    3    3    0    0  0.37361353770E+02  0.69165139265E+01  0.14609515765E+01  0.38024246211E+02  0.00000000000E+00 0.  1.
</event>
<event>
 7    1  0.3707147E-015  0.9000770E+02  0.7816164E-02  0.1186339E+00
        -11   -1    0    0    0    0  0.00000000000E+00  0.00000000000E+00  0.45593999997E+02  0.45594000000E+02  0.51100000000E-03 0.  1.
         11   -1    0    0    0    0 -0.00000000000E+00 -0.00000000000E+00 -0.45593999997E+02  0.45594000000E+02  0.51100000000E-03 0. -1.
    9900012    2    1    2    0    0  0.36880868858E-01 -0.11375703057E+01  0.31255624464E+00  0.90007695885E+02  0.89999956670E+02 0.  0.
         12    1    1    2    0    0 -0.36880868858E-01  0.11375703057E+01 -0.31255624464E+00  0.11803041155E+01  0.00000000000E+00 0. -1.
         11    1    3    3    0    0 -0.53138694296E+01 -0.12111597517E+02  0.16654368378E+01  0.13330479468E+02  0.51100000000E-03 0. -1.
        -11    1    3    3    0    0 -0.17448522739E+02  0.50575608756E+01 -0.32735462095E+02  0.37438487504E+02  0.51100000000E-03 0.  1.
         12    1    3    3    0    0  0.22799273037E+02  0.59164663358E+01  0.31382581502E+02  0.39238728912E+02  0.00000000000E+00 0. -1.
</event>
<event>
 7    1  0.3707147E-015  0.9000778E+02  0.7816164E-02  0.1186339E+00
        -11   -1    0    0    0    0  0.00000000000E+00  0.00000000000E+00  0.45593999997E+02  0.45594000000E+02  0.51100000000E-03 0.  1.
         11   -1    0    0    0    0 -0.00000000000E+00 -0.00000000000E+00 -0.45593999997E+02  0.45594000000E+02  0.51100000000E-03 0. -1.
    9900012    2    1    2    0    0 -0.85007748568E+00 -0.81484585676E+00 -0.79437447374E-01  0.90007781457E+02  0.90000043372E+02 0.  0.
         12    1    1    2    0    0  0.85007748568E+00  0.81484585676E+00  0.79437447374E-01  0.11802185433E+01  0.00000000000E+00 0. -1.
         11    1    3    3    0    0 -0.16208143852E+02  0.55032927592E+01 -0.50077893411E+01  0.17834464182E+02  0.51100000000E-03 0. -1.
        -11    1    3    3    0    0 -0.11567961488E+02 -0.32425996703E+02  0.39722533087E+01  0.34656049858E+02  0.51100000000E-03 0.  1.
         12    1    3    3    0    0  0.26926027854E+02  0.26107858087E+02  0.95609858505E+00  0.37517267416E+02  0.00000000000E+00 0. -1.
</event>
<event>
 7    1  0.3707147E-015  0.9000773E+02  0.7816164E-02  0.1186339E+00
        -11   -1    0    0    0    0  0.00000000000E+00  0.00000000000E+00  0.45593999997E+02  0.45594000000E+02  0.51100000000E-03 0.  1.
         11   -1    0    0    0    0 -0.00000000000E+00 -0.00000000000E+00 -0.45593999997E+02  0.45594000000E+02  0.51100000000E-03 0. -1.
    9900012    2    1    2    0    0  0.63133855758E+00  0.89520540896E+00  0.43939080768E+00  0.90007726565E+02  0.89999987756E+02 0.  0.
         12    1    1    2    0    0 -0.63133855758E+00 -0.89520540896E+00 -0.43939080768E+00  0.11802734346E+01  0.00000000000E+00 0. -1.
         11    1    3    3    0    0  0.32177271558E+02  0.59370817503E+01 -0.15637832803E+02  0.36265238999E+02  0.51100000000E-03 0. -1.
        -11    1    3    3    0    0 -0.25590202239E+01  0.15069003593E+02  0.82620642662E+00  0.15307059519E+02  0.51100000000E-03 0.  1.
        -12    1    3    3    0    0 -0.28986912776E+02 -0.20110879934E+02  0.15251017184E+02  0.38435428047E+02  0.00000000000E+00 0.  1.
</event>
<event>
 7    1  0.3707147E-015  0.9000772E+02  0.7816164E-02  0.1186339E+00
        -11   -1    0    0    0    0  0.00000000000E+00  0.00000000000E+00  0.45593999997E+02  0.45594000000E+02  0.51100000000E-03 0. -1.
         11   -1    0    0    0    0 -0.00000000000E+00 -0.00000000000E+00 -0.45593999997E+02  0.45594000000E+02  0.51100000000E-03 0.  1.
    9900012    2    1    2    0    0 -0.11055501123E+01  0.19421720288E+00 -0.36482449875E+00  0.90007721098E+02  0.89999982216E+02 0.  0.
         12    1    1    2    0    0  0.11055501123E+01 -0.19421720288E+00  0.36482449875E+00  0.11802789025E+01  0.00000000000E+00 0. -1.
         11    1    3    3    0    0 -0.11624699637E+01 -0.71712742833E+01  0.58315290946E+01  0.93158597620E+01  0.51100000000E-03 0. -1.
        -11    1    3    3    0    0  0.36674124727E+02 -0.11452483441E+02  0.28976823270E+01  0.38529824352E+02  0.51100000000E-03 0.  1.
         12    1    3    3    0    0 -0.36617204876E+02  0.18817974927E+02 -0.90940359204E+01  0.42162036984E+02  0.00000000000E+00 0. -1.
</event>
<event>
 7    1  0.3707147E-015  0.9000746E+02  0.7816164E-02  0.1186340E+00
        -11   -1    0    0    0    0  0.00000000000E+00  0.00000000000E+00  0.45593999997E+02  0.45594000000E+02  0.51100000000E-03 0.  1.
         11   -1    0    0    0    0 -0.00000000000E+00 -0.00000000000E+00 -0.45593999997E+02  0.45594000000E+02  0.51100000000E-03 0. -1.
    9900012    2    1    2    0    0  0.11641018530E+01 -0.67958340193E-01  0.18415061565E+00  0.90007464990E+02  0.89999722728E+02 0.  0.
         12    1    1    2    0    0 -0.11641018530E+01  0.67958340193E-01 -0.18415061565E+00  0.11805350098E+01  0.00000000000E+00 0. -1.
         11    1    3    3    0    0 -0.50552889722E+01 -0.43466719407E+01  0.62791353955E+01  0.91584411954E+01  0.51100000000E-03 0. -1.
        -11    1    3    3    0    0 -0.81761149763E+01  0.40621576791E+02 -0.11994855706E+01  0.41453589990E+02  0.51100000000E-03 0.  1.
         12    1    3    3    0    0  0.14395505801E+02 -0.36342863191E+02 -0.48954992092E+01  0.39395433805E+02  0.00000000000E+00 0. -1.
</event>
<event>
 7    1  0.3707147E-015  0.9000775E+02  0.7816164E-02  0.1186339E+00
        -11   -1    0    0    0    0  0.00000000000E+00  0.00000000000E+00  0.45593999997E+02  0.45594000000E+02  0.51100000000E-03 0.  1.
         11   -1    0    0    0    0 -0.00000000000E+00 -0.00000000000E+00 -0.45593999997E+02  0.45594000000E+02  0.51100000000E-03 0. -1.
    9900012    2    1    2    0    0 -0.61765904272E+00  0.92926714874E+00  0.38463581786E+00  0.90007752213E+02  0.90000013742E+02 0.  0.
         12    1    1    2    0    0  0.61765904272E+00 -0.92926714874E+00 -0.38463581786E+00  0.11802477872E+01  0.00000000000E+00 0. -1.
         11    1    3    3    0    0 -0.72059061513E+00  0.11310793461E+02 -0.37548056959E+01  0.11939508601E+02  0.51100000000E-03 0. -1.
        -11    1    3    3    0    0  0.72173811273E+01  0.27609457627E+02 -0.17790940680E+02  0.33628712603E+02  0.51100000000E-03 0.  1.
         12    1    3    3    0    0 -0.71144495549E+01 -0.37990983939E+02  0.21930382194E+02  0.44439531009E+02  0.00000000000E+00 0. -1.
</event>
<event>
 7    1  0.3707147E-015  0.9000769E+02  0.7816164E-02  0.1186339E+00
        -11   -1    0    0    0    0  0.00000000000E+00  0.00000000000E+00  0.45593999997E+02  0.45594000000E+02  0.51100000000E-03 0.  1.
         11   -1    0    0    0    0 -0.00000000000E+00 -0.00000000000E+00 -0.45593999997E+02  0.45594000000E+02  0.51100000000E-03 0. -1.
    9900012    2    1    2    0    0  0.10977575141E+00 -0.10851997496E+01 -0.45103138472E+00  0.90007687108E+02  0.89999947778E+02 0.  0.
         12    1    1    2    0    0 -0.10977575141E+00  0.10851997496E+01  0.45103138472E+00  0.11803128916E+01  0.00000000000E+00 0. -1.
         11    1    3    3    0    0 -0.18774332136E+02 -0.26750655032E+02 -0.12231629469E+02  0.34895355730E+02  0.51100000000E-03 0. -1.
        -11    1    3    3    0    0  0.65688518453E+01 -0.98593758969E+01  0.12876462482E+02  0.17497439640E+02  0.51100000000E-03 0.  1.
        -12    1    3    3    0    0  0.12315256042E+02  0.35524831180E+02 -0.10958643976E+01  0.37614891739E+02  0.00000000000E+00 0.  1.
</event>
<event>
 7    1  0.3707147E-015  0.9000748E+02  0.7816164E-02  0.1186340E+00
        -11   -1    0    0    0    0  0.00000000000E+00  0.00000000000E+00  0.45593999997E+02  0.45594000000E+02  0.51100000000E-03 0.  1.
         11   -1    0    0    0    0 -0.00000000000E+00 -0.00000000000E+00 -0.45593999997E+02  0.45594000000E+02  0.51100000000E-03 0. -1.
    9900012    2    1    2    0    0  0.91188628034E+00  0.74882348668E+00 -0.36958737511E-01  0.90007475053E+02  0.89999732923E+02 0.  0.
         12    1    1    2    0    0 -0.91188628034E+00 -0.74882348668E+00  0.36958737511E-01  0.11805249471E+01  0.00000000000E+00 0. -1.
         11    1    3    3    0    0 -0.20436117290E+02 -0.36354461293E+02  0.66226048613E+01  0.42227249984E+02  0.51100000000E-03 0. -1.
        -11    1    3    3    0    0  0.43800465712E+01  0.38960628651E+01 -0.86349383267E+01  0.10436775076E+02  0.51100000000E-03 0.  1.
        -12    1    3    3    0    0  0.16967956999E+02  0.33207221915E+02  0.19753747279E+01  0.37343449993E+02  0.00000000000E+00 0.  1.
</event>
<event>
 7    1  0.3707147E-015  0.9000818E+02  0.7816164E-02  0.1186338E+00
        -11   -1    0    0    0    0  0.00000000000E+00  0.00000000000E+00  0.45593999997E+02  0.45594000000E+02  0.51100000000E-03 0. -1.
         11   -1    0    0    0    0 -0.00000000000E+00 -0.00000000000E+00 -0.45593999997E+02  0.45594000000E+02  0.51100000000E-03 0.  1.
    9900012    2    1    2    0    0 -0.95843024109E+00  0.33262949269E+00 -0.60228467309E+00  0.90008178940E+02  0.90000446101E+02 0.  0.
         12    1    1    2    0    0  0.95843024109E+00 -0.33262949269E+00  0.60228467309E+00  0.11798210601E+01  0.00000000000E+00 0. -1.
         11    1    3    3    0    0  0.19304455197E+02 -0.11132325389E+02  0.31415453746E+02  0.38516508063E+02  0.51100000000E-03 0. -1.
        -11    1    3    3    0    0 -0.54186459524E+01 -0.81130810440E+01  0.15650177196E+01  0.98809457396E+01  0.51100000000E-03 0.  1.
        -12    1    3    3    0    0 -0.14844239485E+02  0.19578035925E+02 -0.33582756139E+02  0.41610725138E+02  0.00000000000E+00 0.  1.
</event>
<event>
 7    1  0.3707147E-015  0.9000786E+02  0.7816164E-02  0.1186339E+00
        -11   -1    0    0    0    0  0.00000000000E+00  0.00000000000E+00  0.45593999997E+02  0.45594000000E+02  0.51100000000E-03 0.  1.
         11   -1    0    0    0    0 -0.00000000000E+00 -0.00000000000E+00 -0.45593999997E+02  0.45594000000E+02  0.51100000000E-03 0. -1.
    9900012    2    1    2    0    0  0.10600805978E+01 -0.34384889264E+00  0.38824143521E+00  0.90007858336E+02  0.90000121266E+02 0.  0.
         12    1    1    2    0    0 -0.10600805978E+01  0.34384889264E+00 -0.38824143521E+00  0.11801416639E+01  0.00000000000E+00 0. -1.
         11    1    3    3    0    0  0.58948877352E+01  0.35821662567E+00  0.79516553688E+01  0.99048898998E+01  0.51100000000E-03 0. -1.
        -11    1    3    3    0    0 -0.74645066393E+01 -0.38547998806E+02  0.61914026308E+01  0.39749220598E+02  0.51100000000E-03 0.  1.
         12    1    3    3    0    0  0.26296995019E+01  0.37845933288E+02 -0.13754816564E+02  0.40353747839E+02  0.00000000000E+00 0. -1.
</event>
<event>
 7    1  0.3707147E-015  0.9000753E+02  0.7816164E-02  0.1186339E+00
        -11   -1    0    0    0    0  0.00000000000E+00  0.00000000000E+00  0.45593999997E+02  0.45594000000E+02  0.51100000000E-03 0.  1.
         11   -1    0    0    0    0 -0.00000000000E+00 -0.00000000000E+00 -0.45593999997E+02  0.45594000000E+02  0.51100000000E-03 0. -1.
    9900012    2    1    2    0    0  0.98384969542E+00 -0.20106576135E+00  0.62057355111E+00  0.90007534331E+02  0.89999792984E+02 0.  0.
         12    1    1    2    0    0 -0.98384969542E+00  0.20106576135E+00 -0.62057355111E+00  0.11804656691E+01  0.00000000000E+00 0. -1.
         11    1    3    3    0    0 -0.78574342065E+01 -0.16643037489E+01  0.10800931461E+02  0.13459914560E+02  0.51100000000E-03 0. -1.
        -11    1    3    3    0    0  0.10232481311E+01 -0.15619590762E+02  0.29079220152E+02  0.33024531748E+02  0.51100000000E-03 0.  1.
         12    1    3    3    0    0  0.78180357708E+01  0.17082828750E+02 -0.39259578062E+02  0.43523088022E+02  0.00000000000E+00 0. -1.
</event>
<event>
 7    1  0.3707147E-015  0.9000765E+02  0.7816164E-02  0.1186339E+00
        -11   -1    0    0    0    0  0.00000000000E+00  0.00000000000E+00  0.45593999997E+02  0.45594000000E+02  0.51100000000E-03 0. -1.
         11   -1    0    0    0    0 -0.00000000000E+00 -0.00000000000E+00 -0.45593999997E+02  0.45594000000E+02  0.51100000000E-03 0.  1.
    9900012    2    1    2    0    0 -0.49252048630E+00  0.62301234416E+00 -0.87321367600E+00  0.90007651351E+02  0.89999911548E+02 0.  0.
         12    1    1    2    0    0  0.49252048630E+00 -0.62301234416E+00  0.87321367600E+00  0.11803486495E+01  0.00000000000E+00 0. -1.
         11    1    3    3    0    0 -0.26347180910E+01 -0.62285385063E+01  0.61971349981E+01  0.91728356460E+01  0.51100000000E-03 0. -1.
        -11    1    3    3    0    0 -0.23950076483E+02  0.99161518467E+01 -0.34302836555E+02  0.42995590785E+02  0.51100000000E-03 0.  1.
         12    1    3    3    0    0  0.26092274087E+02 -0.30646009962E+01  0.27232487881E+02  0.37839224919E+02  0.00000000000E+00 0. -1.
</event>
<event>
 7    1  0.3707147E-015  0.9000776E+02  0.7816164E-02  0.1186339E+00
        -11   -1    0    0    0    0  0.00000000000E+00  0.00000000000E+00  0.45593999997E+02  0.45594000000E+02  0.51100000000E-03 0.  1.
         11   -1    0    0    0    0 -0.00000000000E+00 -0.00000000000E+00 -0.45593999997E+02  0.45594000000E+02  0.51100000000E-03 0. -1.
    9900012    2    1    2    0    0  0.62651574557E+00  0.86756978303E+00 -0.49777238988E+00  0.90007755678E+02  0.90000017253E+02 0.  0.
         12    1    1    2    0    0 -0.62651574557E+00 -0.86756978303E+00  0.49777238988E+00  0.11802443222E+01  0.00000000000E+00 0. -1.
         11    1    3    3    0    0 -0.54802971706E+01 -0.14186166620E+02  0.15462055001E+02  0.21687695257E+02  0.51100000000E-03 0. -1.
        -11    1    3    3    0    0 -0.18820356840E+02 -0.16221196911E+02  0.10295495171E+01  0.24867509591E+02  0.51100000000E-03 0.  1.
         12    1    3    3    0    0  0.24927169756E+02  0.31274933314E+02 -0.16989376908E+02  0.43452550829E+02  0.00000000000E+00 0. -1.
</event>
<event>
 7    1  0.3707147E-015  0.9000783E+02  0.7816164E-02  0.1186339E+00
        -11   -1    0    0    0    0  0.00000000000E+00  0.00000000000E+00  0.45593999997E+02  0.45594000000E+02  0.51100000000E-03 0. -1.
         11   -1    0    0    0    0 -0.00000000000E+00 -0.00000000000E+00 -0.45593999997E+02  0.45594000000E+02  0.51100000000E-03 0.  1.
    9900012    2    1    2    0    0  0.32345537705E+00  0.40209200833E+00 -0.10613678804E+01  0.90007829190E+02  0.90000091735E+02 0.  0.
         12    1    1    2    0    0 -0.32345537705E+00 -0.40209200833E+00  0.10613678804E+01  0.11801708103E+01  0.00000000000E+00 0. -1.
         11    1    3    3    0    0 -0.87021416362E+01 -0.49119116184E+01 -0.10090777015E+01  0.10043524425E+02  0.51100000000E-03 0. -1.
        -11    1    3    3    0    0 -0.27691765132E+02 -0.77167202682E+01 -0.21120680849E+02  0.35671624404E+02  0.51100000000E-03 0.  1.
         12    1    3    3    0    0  0.36717362145E+02  0.13030723895E+02  0.21068390670E+02  0.44292680361E+02  0.00000000000E+00 0. -1.
</event>
<event>
 7    1  0.3707147E-015  0.9000778E+02  0.7816164E-02  0.1186339E+00
        -11   -1    0    0    0    0  0.00000000000E+00  0.00000000000E+00  0.45593999997E+02  0.45594000000E+02  0.51100000000E-03 0. -1.
         11   -1    0    0    0    0 -0.00000000000E+00 -0.00000000000E+00 -0.45593999997E+02  0.45594000000E+02  0.51100000000E-03 0.  1.
    9900012    2    1    2    0    0  0.42628046942E-01  0.85191834949E+00 -0.81567801991E+00  0.90007782793E+02  0.90000044725E+02 0.  0.
         12    1    1    2    0    0 -0.42628046942E-01 -0.85191834949E+00  0.81567801991E+00  0.11802172074E+01  0.00000000000E+00 0. -1.
         11    1    3    3    0    0  0.31936483079E+02  0.18732553395E+02  0.14868926751E+01  0.37054802095E+02  0.51100000000E-03 0. -1.
        -11    1    3    3    0    0  0.63598301632E+01  0.38474348226E+01  0.41110115551E+01  0.84941515578E+01  0.51100000000E-03 0.  1.
        -12    1    3    3    0    0 -0.38253685195E+02 -0.21728069869E+02 -0.64135822501E+01  0.44458829140E+02  0.00000000000E+00 0.  1.
</event>
<event>
 7    1  0.7081112E-015  0.9000788E+02  0.7816164E-02  0.1186339E+00
        -11   -1    0    0    0    0  0.00000000000E+00  0.00000000000E+00  0.45593999997E+02  0.45594000000E+02  0.51100000000E-03 0. -1.
         11   -1    0    0    0    0 -0.00000000000E+00 -0.00000000000E+00 -0.45593999997E+02  0.45594000000E+02  0.51100000000E-03 0.  1.
    9900012    2    1    2    0    0 -0.73922244592E+00 -0.15984679719E+00 -0.90591362366E+00  0.90007881228E+02  0.90000144460E+02 0.  0.
         12    1    1    2    0    0  0.73922244592E+00  0.15984679719E+00  0.90591362366E+00  0.11801187723E+01  0.00000000000E+00 0. -1.
         11    1    3    3    0    0  0.68413625869E+01  0.40499416648E+01 -0.52685681452E+01  0.95375091138E+01  0.51100000000E-03 0. -1.
        -11    1    3    3    0    0 -0.27648705317E+02 -0.46808907815E+01 -0.29754220553E+02  0.40886125828E+02  0.51100000000E-03 0.  1.
         12    1    3    3    0    0  0.20068120285E+02  0.47110231946E+00  0.34116875075E+02  0.39584246286E+02  0.00000000000E+00 0. -1.
</event>
<event>
 7    1  0.3707147E-015  0.9000769E+02  0.7816164E-02  0.1186339E+00
        -11   -1    0    0    0    0  0.00000000000E+00  0.00000000000E+00  0.45593999997E+02  0.45594000000E+02  0.51100000000E-03 0.  1.
         11   -1    0    0    0    0 -0.00000000000E+00 -0.00000000000E+00 -0.45593999997E+02  0.45594000000E+02  0.51100000000E-03 0. -1.
    9900012    2    1    2    0    0 -0.10146289108E+01  0.60141681645E+00 -0.44170302400E-01  0.90007692824E+02  0.89999953569E+02 0.  0.
         12    1    1    2    0    0  0.10146289108E+01 -0.60141681645E+00  0.44170302400E-01  0.11803071758E+01  0.00000000000E+00 0. -1.
         11    1    3    3    0    0 -0.63525106174E+01 -0.24384018566E+01  0.88282211695E+01  0.11146195945E+02  0.51100000000E-03 0. -1.
        -11    1    3    3    0    0 -0.22824948124E+01  0.39864420996E+02 -0.10275004337E+02  0.41230541572E+02  0.51100000000E-03 0.  1.
         12    1    3    3    0    0  0.76203765191E+01 -0.36824602323E+02  0.14026128649E+01  0.37630955308E+02  0.00000000000E+00 0. -1.
</event>
<event>
 7    1  0.3707147E-015  0.9000751E+02  0.7816164E-02  0.1186340E+00
        -11   -1    0    0    0    0  0.00000000000E+00  0.00000000000E+00  0.45593999997E+02  0.45594000000E+02  0.51100000000E-03 0. -1.
         11   -1    0    0    0    0 -0.00000000000E+00 -0.00000000000E+00 -0.45593999997E+02  0.45594000000E+02  0.51100000000E-03 0.  1.
    9900012    2    1    2    0    0  0.70566300932E+00  0.56103645301E+00 -0.76213159761E+00  0.90007505715E+02  0.89999763990E+02 0.  0.
         12    1    1    2    0    0 -0.70566300932E+00 -0.56103645301E+00  0.76213159761E+00  0.11804942848E+01  0.00000000000E+00 0. -1.
         11    1    3    3    0    0 -0.30706315541E+01  0.33376287181E+01 -0.84707887695E+01  0.96084757501E+01  0.51100000000E-03 0. -1.
        -11    1    3    3    0    0  0.32390512966E+02  0.21840894634E+02  0.15195137552E+02  0.41917325942E+02  0.51100000000E-03 0.  1.
         12    1    3    3    0    0 -0.28614218403E+02 -0.24617486899E+02 -0.74864803803E+01  0.38481704023E+02  0.00000000000E+00 0. -1.
</event>
<event>
 7    1  0.3707147E-015  0.9000772E+02  0.7816164E-02  0.1186339E+00
        -11   -1    0    0    0    0  0.00000000000E+00  0.00000000000E+00  0.45593999997E+02  0.45594000000E+02  0.51100000000E-03 0. -1.
         11   -1    0    0    0    0 -0.00000000000E+00 -0.00000000000E+00 -0.45593999997E+02  0.45594000000E+02  0.51100000000E-03 0.  1.
    9900012    2    1    2    0    0  0.24906101613E-01  0.46951810827E+00 -0.10825825992E+01  0.90007723485E+02  0.89999984635E+02 0.  0.
         12    1    1    2    0    0 -0.24906101613E-01 -0.46951810827E+00  0.10825825992E+01  0.11802765150E+01  0.00000000000E+00 0. -1.
         11    1    3    3    0    0  0.60667992964E+01  0.16136737714E+01  0.76873402729E+01  0.99249784622E+01  0.51100000000E-03 0. -1.
        -11    1    3    3    0    0 -0.37010319677E+02  0.15633483552E+02 -0.17457973471E+02  0.43805826195E+02  0.51100000000E-03 0.  1.
         12    1    3    3    0    0  0.30968426483E+02 -0.16777639215E+02  0.86880505992E+01  0.36276918828E+02  0.00000000000E+00 0. -1.
</event>
<event>
 7    1  0.3707147E-015  0.9000775E+02  0.7816164E-02  0.1186339E+00
        -11   -1    0    0    0    0  0.00000000000E+00  0.00000000000E+00  0.45593999997E+02  0.45594000000E+02  0.51100000000E-03 0.  1.
         11   -1    0    0    0    0 -0.00000000000E+00 -0.00000000000E+00 -0.45593999997E+02  0.45594000000E+02  0.51100000000E-03 0. -1.
    9900012    2    1    2    0    0  0.14096478974E+00  0.11656306861E+01  0.12009804568E+00  0.90007750235E+02  0.90000011738E+02 0.  0.
         12    1    1    2    0    0 -0.14096478974E+00 -0.11656306861E+01 -0.12009804568E+00  0.11802497655E+01  0.00000000000E+00 0. -1.
         11    1    3    3    0    0  0.36886488316E+01  0.43372418961E+02  0.82545956390E+01  0.44304753765E+02  0.51100000000E-03 0. -1.
        -11    1    3    3    0    0 -0.58477010810E+01 -0.49955154132E+01 -0.14054016713E+01  0.78183077642E+01  0.51100000000E-03 0.  1.
        -12    1    3    3    0    0  0.23000170392E+01 -0.37211272862E+02 -0.67290959220E+01  0.37884688705E+02  0.00000000000E+00 0.  1.
</event>
<event>
 7    1  0.3707147E-015  0.9000778E+02  0.7816164E-02  0.1186339E+00
        -11   -1    0    0    0    0  0.00000000000E+00  0.00000000000E+00  0.45593999997E+02  0.45594000000E+02  0.51100000000E-03 0.  1.
         11   -1    0    0    0    0 -0.00000000000E+00 -0.00000000000E+00 -0.45593999997E+02  0.45594000000E+02  0.51100000000E-03 0. -1.
    9900012    2    1    2    0    0  0.17770298555E+00 -0.95884776399E-01  0.11628218954E+01  0.90007776715E+02  0.90000038568E+02 0.  0.
         12    1    1    2    0    0 -0.17770298555E+00  0.95884776399E-01 -0.11628218954E+01  0.11802232848E+01  0.00000000000E+00 0. -1.
         11    1    3    3    0    0  0.85501113980E+01  0.31961546274E+01 -0.22618703122E+01  0.94040346071E+01  0.51100000000E-03 0. -1.
        -11    1    3    3    0    0 -0.33157615409E+02 -0.19472568539E+02 -0.19547440568E+02  0.43135957369E+02  0.51100000000E-03 0.  1.
         12    1    3    3    0    0  0.24785206997E+02  0.16180529136E+02  0.22972132775E+02  0.37467784739E+02  0.00000000000E+00 0. -1.
</event>
<event>
 7    1  0.3707147E-015  0.9000766E+02  0.7816164E-02  0.1186339E+00
        -11   -1    0    0    0    0  0.00000000000E+00  0.00000000000E+00  0.45593999997E+02  0.45594000000E+02  0.51100000000E-03 0.  1.
         11   -1    0    0    0    0 -0.00000000000E+00 -0.00000000000E+00 -0.45593999997E+02  0.45594000000E+02  0.51100000000E-03 0. -1.
    9900012    2    1    2    0    0  0.10295708178E+01  0.48524418950E+00  0.31260555003E+00  0.90007660972E+02  0.89999921296E+02 0.  0.
         12    1    1    2    0    0 -0.10295708178E+01 -0.48524418950E+00 -0.31260555003E+00  0.11803390285E+01  0.00000000000E+00 0. -1.
         11    1    3    3    0    0  0.32952316824E+02  0.21385747316E+02 -0.28037191306E+01  0.39383577968E+02  0.51100000000E-03 0. -1.
        -11    1    3    3    0    0 -0.50696789518E+01 -0.81429666421E-01  0.14044485907E+02  0.14931706537E+02  0.51100000000E-03 0.  1.
        -12    1    3    3    0    0 -0.26853067055E+02 -0.20819073460E+02 -0.10928161226E+02  0.35692376466E+02  0.00000000000E+00 0.  1.
</event>
<event>
 7    1  0.3707147E-015  0.9000776E+02  0.7816164E-02  0.1186339E+00
        -11   -1    0    0    0    0  0.00000000000E+00  0.00000000000E+00  0.45593999997E+02  0.45594000000E+02  0.51100000000E-03 0. -1.
         11   -1    0    0    0    0 -0.00000000000E+00 -0.00000000000E+00 -0.45593999997E+02  0.45594000000E+02  0.51100000000E-03 0.  1.
    9900012    2    1    2    0    0  0.37396413806E+00  0.66420446266E+00  0.90107600170E+00  0.90007764979E+02  0.90000026676E+02 0.  0.
         12    1    1    2    0    0 -0.37396413806E+00 -0.66420446266E+00 -0.90107600170E+00  0.11802350213E+01  0.00000000000E+00 0. -1.
         11    1    3    3    0    0 -0.16307118112E+02 -0.31877257812E+02 -0.38216220722E+01  0.36009532936E+02  0.51100000000E-03 0. -1.
        -11    1    3    3    0    0 -0.82313651539E+00 -0.87883202163E+01  0.18786582653E+01  0.90244935086E+01  0.51100000000E-03 0.  1.
        -12    1    3    3    0    0  0.17504218765E+02  0.41329782491E+02  0.28440398086E+01  0.44973738534E+02  0.00000000000E+00 0.  1.
</event>
<event>
 7    1  0.3707147E-015  0.9000775E+02  0.7816164E-02  0.1186339E+00
        -11   -1    0    0    0    0  0.00000000000E+00  0.00000000000E+00  0.45593999997E+02  0.45594000000E+02  0.51100000000E-03 0. -1.
         11   -1    0    0    0    0 -0.00000000000E+00 -0.00000000000E+00 -0.45593999997E+02  0.45594000000E+02  0.51100000000E-03 0.  1.
    9900012    2    1    2    0    0 -0.23518724350E+00  0.14354155604E+00 -0.11476373494E+01  0.90007750576E+02  0.90000012083E+02 0.  0.
         12    1    1    2    0    0  0.23518724350E+00 -0.14354155604E+00  0.11476373494E+01  0.11802494243E+01  0.00000000000E+00 0. -1.
         11    1    3    3    0    0 -0.92936813030E+01 -0.88615370592E+01 -0.90460311969E+01  0.15707642468E+02  0.51100000000E-03 0. -1.
        -11    1    3    3    0    0  0.12437988723E+02 -0.13560604292E+02 -0.26958139722E+02  0.32639467670E+02  0.51100000000E-03 0.  1.
         12    1    3    3    0    0 -0.33794946633E+01  0.22565682907E+02  0.34856533570E+02  0.41660640438E+02  0.00000000000E+00 0. -1.
</event>
<event>
 7    1  0.3707147E-015  0.9000775E+02  0.7816164E-02  0.1186339E+00
        -11   -1    0    0    0    0  0.00000000000E+00  0.00000000000E+00  0.45593999997E+02  0.45594000000E+02  0.51100000000E-03 0.  1.
         11   -1    0    0    0    0 -0.00000000000E+00 -0.00000000000E+00 -0.45593999997E+02  0.45594000000E+02  0.51100000000E-03 0. -1.
    9900012    2    1    2    0    0 -0.96451812787E+00 -0.34932039925E+00  0.58366855198E+00  0.90007750476E+02  0.90000011982E+02 0.  0.
         12    1    1    2    0    0  0.96451812787E+00  0.34932039925E+00 -0.58366855198E+00  0.11802495240E+01  0.00000000000E+00 0. -1.
         11    1    3    3    0    0 -0.24605835608E+02 -0.18809558476E+02 -0.17560971095E+02  0.35603852911E+02  0.51100000000E-03 0. -1.
        -11    1    3    3    0    0  0.13494150838E+01 -0.65176711700E+01 -0.90763256248E+01  0.11255249693E+02  0.51100000000E-03 0.  1.
        -12    1    3    3    0    0  0.22291902397E+02  0.24977909247E+02  0.27220965272E+02  0.43148647872E+02  0.00000000000E+00 0.  1.
</event>
<event>
 7    1  0.3707147E-015  0.9000779E+02  0.7816164E-02  0.1186339E+00
        -11   -1    0    0    0    0  0.00000000000E+00  0.00000000000E+00  0.45593999997E+02  0.45594000000E+02  0.51100000000E-03 0.  1.
         11   -1    0    0    0    0 -0.00000000000E+00 -0.00000000000E+00 -0.45593999997E+02  0.45594000000E+02  0.51100000000E-03 0. -1.
    9900012    2    1    2    0    0 -0.77910413209E+00 -0.62939551264E+00 -0.62430969661E+00  0.90007786224E+02  0.90000048202E+02 0.  0.
         12    1    1    2    0    0  0.77910413209E+00  0.62939551264E+00  0.62430969661E+00  0.11802137761E+01  0.00000000000E+00 0. -1.
         11    1    3    3    0    0 -0.17451384961E+02  0.29443131031E+02  0.85537941119E+01  0.35279118412E+02  0.51100000000E-03 0. -1.
        -11    1    3    3    0    0 -0.54389848461E+01  0.64714181247E+01  0.48813286654E+01  0.97616176171E+01  0.51100000000E-03 0.  1.
        -12    1    3    3    0    0  0.22111265675E+02 -0.36543944669E+02 -0.14059432474E+02  0.44967050194E+02  0.00000000000E+00 0.  1.
</event>
<event>
 7    1  0.3826877E-015  0.9000778E+02  0.7816164E-02  0.1186339E+00
        -11   -1    0    0    0    0  0.00000000000E+00  0.00000000000E+00  0.45593999997E+02  0.45594000000E+02  0.51100000000E-03 0. -1.
         11   -1    0    0    0    0 -0.00000000000E+00 -0.00000000000E+00 -0.45593999997E+02  0.45594000000E+02  0.51100000000E-03 0.  1.
    9900012    2    1    2    0    0  0.68722686755E+00  0.81070535033E+00 -0.51321771860E+00  0.90007781224E+02  0.90000043136E+02 0.  0.
         12    1    1    2    0    0 -0.68722686755E+00 -0.81070535033E+00  0.51321771860E+00  0.11802187760E+01  0.00000000000E+00 0. -1.
         11    1    3    3    0    0  0.89282312540E+01  0.10298006186E+01  0.43256289143E+01  0.99742101644E+01  0.51100000000E-03 0. -1.
        -11    1    3    3    0    0  0.12357860515E+02  0.26830037757E+02 -0.26529983485E+02  0.39704000636E+02  0.51100000000E-03 0.  1.
         12    1    3    3    0    0 -0.20598864901E+02 -0.27049133025E+02  0.21691136852E+02  0.40329570424E+02  0.00000000000E+00 0. -1.
</event>
<event>
 7    1  0.3707147E-015  0.9000775E+02  0.7816164E-02  0.1186339E+00
        -11   -1    0    0    0    0  0.00000000000E+00  0.00000000000E+00  0.45593999997E+02  0.45594000000E+02  0.51100000000E-03 0. -1.
         11   -1    0    0    0    0 -0.00000000000E+00 -0.00000000000E+00 -0.45593999997E+02  0.45594000000E+02  0.51100000000E-03 0.  1.
    9900012    2    1    2    0    0 -0.39415077404E-01 -0.90250598639E+00 -0.75954932168E+00  0.90007751816E+02  0.90000013340E+02 0.  0.
         12    1    1    2    0    0  0.39415077404E-01  0.90250598639E+00  0.75954932168E+00  0.11802481840E+01  0.00000000000E+00 0. -1.
         11    1    3    3    0    0  0.30228437786E+02  0.10328235097E+02  0.16901278329E+02  0.36139785564E+02  0.51100000000E-03 0. -1.
        -11    1    3    3    0    0 -0.39953201885E+00  0.76765113285E+01  0.72945010647E+01  0.10597084413E+02  0.51100000000E-03 0.  1.
        -12    1    3    3    0    0 -0.29868320844E+02 -0.18907252412E+02 -0.24955328715E+02  0.43270881839E+02  0.00000000000E+00 0.  1.
</event>
<event>
 7    1  0.3707147E-015  0.9000786E+02  0.7816164E-02  0.1186339E+00
        -11   -1    0    0    0    0  0.00000000000E+00  0.00000000000E+00  0.45593999997E+02  0.45594000000E+02  0.51100000000E-03 0.  1.
         11   -1    0    0    0    0 -0.00000000000E+00 -0.00000000000E+00 -0.45593999997E+02  0.45594000000E+02  0.51100000000E-03 0. -1.
    9900012    2    1    2    0    0 -0.26743303013E+00 -0.63350865780E+00  0.95910187623E+00  0.90007860155E+02  0.90000123109E+02 0.  0.
         12    1    1    2    0    0  0.26743303013E+00  0.63350865780E+00 -0.95910187623E+00  0.11801398451E+01  0.00000000000E+00 0. -1.
         11    1    3    3    0    0 -0.20068168093E+02  0.22620293843E+02 -0.24035379037E+02  0.38627820413E+02  0.51100000000E-03 0. -1.
        -11    1    3    3    0    0 -0.28584905747E+01  0.66622739673E+01  0.27476935190E+01  0.77528499738E+01  0.51100000000E-03 0.  1.
        -12    1    3    3    0    0  0.22659225638E+02 -0.29916076468E+02  0.22246787394E+02  0.43627189768E+02  0.00000000000E+00 0.  1.
</event>
<event>
 7    1  0.3707147E-015  0.9000773E+02  0.7816164E-02  0.1186339E+00
        -11   -1    0    0    0    0  0.00000000000E+00  0.00000000000E+00  0.45593999997E+02  0.45594000000E+02  0.51100000000E-03 0. -1.
         11   -1    0    0    0    0 -0.00000000000E+00 -0.00000000000E+00 -0.45593999997E+02  0.45594000000E+02  0.51100000000E-03 0.  1.
    9900012    2    1    2    0    0  0.55157593419E+00 -0.99589633449E+00  0.31142028818E+00  0.90007733879E+02  0.89999995166E+02 0.  0.
         12    1    1    2    0    0 -0.55157593419E+00  0.99589633449E+00 -0.31142028818E+00  0.11802661209E+01  0.00000000000E+00 0. -1.
         11    1    3    3    0    0  0.14862400459E+02 -0.26854093620E+02 -0.24467831144E+02  0.39251854131E+02  0.51100000000E-03 0. -1.
        -11    1    3    3    0    0 -0.57166245560E+01  0.10303285591E+00 -0.69472817581E+01  0.89975072198E+01  0.51100000000E-03 0.  1.
        -12    1    3    3    0    0 -0.85941999683E+01  0.25755164430E+02  0.31726533190E+02  0.41758372528E+02  0.00000000000E+00 0.  1.
</event>
<event>
 7    1  0.3707147E-015  0.9000794E+02  0.7816164E-02  0.1186339E+00
        -11   -1    0    0    0    0  0.00000000000E+00  0.00000000000E+00  0.45593999997E+02  0.45594000000E+02  0.51100000000E-03 0. -1.
         11   -1    0    0    0    0 -0.00000000000E+00 -0.00000000000E+00 -0.45593999997E+02  0.45594000000E+02  0.51100000000E-03 0.  1.
    9900012    2    1    2    0    0  0.13165311652E+00  0.51172227648E+00 -0.10551524480E+01  0.90007941137E+02  0.90000205160E+02 0.  0.
         12    1    1    2    0    0 -0.13165311652E+00 -0.51172227648E+00  0.10551524480E+01  0.11800588629E+01  0.00000000000E+00 0. -1.
         11    1    3    3    0    0 -0.91877662659E+01 -0.27078504469E+01  0.64813913614E+01  0.11565290193E+02  0.51100000000E-03 0. -1.
        -11    1    3    3    0    0  0.79486682824E+01  0.17721669878E+02  0.31371442473E+02  0.36897239922E+02  0.51100000000E-03 0.  1.
         12    1    3    3    0    0  0.13707511000E+01 -0.14502097155E+02 -0.38907986283E+02  0.41545411023E+02  0.00000000000E+00 0. -1.
</event>
<event>
 7    1  0.3707147E-015  0.9000761E+02  0.7816164E-02  0.1186339E+00
        -11   -1    0    0    0    0  0.00000000000E+00  0.00000000000E+00  0.45593999997E+02  0.45594000000E+02  0.51100000000E-03 0.  1.
         11   -1    0    0    0    0 -0.00000000000E+00 -0.00000000000E+00 -0.45593999997E+02  0.45594000000E+02  0.51100000000E-03 0. -1.
    9900012    2    1    2    0    0  0.10293159000E+01 -0.56987964217E+00 -0.95186610088E-01  0.90007612555E+02  0.89999872241E+02 0.  0.
         12    1    1    2    0    0 -0.10293159000E+01  0.56987964217E+00  0.95186610088E-01  0.11803874445E+01  0.00000000000E+00 0. -1.
         11    1    3    3    0    0  0.13954879391E+01 -0.65230731363E+01  0.71886689161E+01  0.98068767085E+01  0.51100000000E-03 0. -1.
        -11    1    3    3    0    0  0.32617863620E+02  0.21708462650E+02  0.89718015586E+01  0.40195467421E+02  0.51100000000E-03 0.  1.
         12    1    3    3    0    0 -0.32984035659E+02 -0.15755269156E+02 -0.16255657085E+02  0.40005268425E+02  0.00000000000E+00 0. -1.
</event>
<event>
 7    1  0.3707147E-015  0.9000786E+02  0.7816164E-02  0.1186339E+00
        -11   -1    0    0    0    0  0.00000000000E+00  0.00000000000E+00  0.45593999997E+02  0.45594000000E+02  0.51100000000E-03 0. -1.
         11   -1    0    0    0    0 -0.00000000000E+00 -0.00000000000E+00 -0.45593999997E+02  0.45594000000E+02  0.51100000000E-03 0.  1.
    9900012    2    1    2    0    0 -0.51883922310E+00  0.10495249593E+01 -0.14846505846E+00  0.90007856512E+02  0.90000119418E+02 0.  0.
         12    1    1    2    0    0  0.51883922310E+00 -0.10495249593E+01  0.14846505846E+00  0.11801434884E+01  0.00000000000E+00 0. -1.
         11    1    3    3    0    0  0.48016518320E+01 -0.57394001470E+01 -0.42991376911E+01  0.86301309093E+01  0.51100000000E-03 0. -1.
        -11    1    3    3    0    0  0.16490991436E+01  0.35406927694E+02  0.26622539347E+02  0.44329782971E+02  0.51100000000E-03 0.  1.
         12    1    3    3    0    0 -0.69695901987E+01 -0.28618002587E+02 -0.22471866714E+02  0.37047942632E+02  0.00000000000E+00 0. -1.
</event>
<event>
 7    1  0.3707147E-015  0.9000781E+02  0.7816164E-02  0.1186339E+00
        -11   -1    0    0    0    0  0.00000000000E+00  0.00000000000E+00  0.45593999997E+02  0.45594000000E+02  0.51100000000E-03 0. -1.
         11   -1    0    0    0    0 -0.00000000000E+00 -0.00000000000E+00 -0.45593999997E+02  0.45594000000E+02  0.51100000000E-03 0.  1.
    9900012    2    1    2    0    0 -0.91685791349E+00 -0.74157420519E+00  0.47758614430E-01  0.90007812887E+02  0.90000075218E+02 0.  0.
         12    1    1    2    0    0  0.91685791349E+00  0.74157420519E+00 -0.47758614430E-01  0.11801871125E+01  0.00000000000E+00 0. -1.
         11    1    3    3    0    0  0.62328772020E+01  0.12266573721E+00 -0.69849997089E+01  0.93623728986E+01  0.51100000000E-03 0. -1.
        -11    1    3    3    0    0 -0.15611526068E+02  0.10251893157E+02 -0.33179838227E+02  0.38075224550E+02  0.51100000000E-03 0.  1.
         12    1    3    3    0    0  0.84617909522E+01 -0.11116133099E+02  0.40212596551E+02  0.42570215439E+02  0.00000000000E+00 0. -1.
</event>
<event>
 7    1  0.3707147E-015  0.9000763E+02  0.7816164E-02  0.1186339E+00
        -11   -1    0    0    0    0  0.00000000000E+00  0.00000000000E+00  0.45593999997E+02  0.45594000000E+02  0.51100000000E-03 0.  1.
         11   -1    0    0    0    0 -0.00000000000E+00 -0.00000000000E+00 -0.45593999997E+02  0.45594000000E+02  0.51100000000E-03 0. -1.
    9900012    2    1    2    0    0  0.41809573247E+00  0.88788972193E+00 -0.65583280601E+00  0.90007631892E+02  0.89999891833E+02 0.  0.
         12    1    1    2    0    0 -0.41809573247E+00 -0.88788972193E+00  0.65583280601E+00  0.11803681075E+01  0.00000000000E+00 0. -1.
         11    1    3    3    0    0 -0.10322310555E+02  0.22889557479E+02 -0.27530055832E+02  0.37261050860E+02  0.51100000000E-03 0. -1.
        -11    1    3    3    0    0  0.24211417373E+01  0.17380287744E+01 -0.86890243623E+01  0.91859575419E+01  0.51100000000E-03 0.  1.
        -12    1    3    3    0    0  0.83192645506E+01 -0.23739696532E+02  0.35563247388E+02  0.43560623491E+02  0.00000000000E+00 0.  1.
</event>
<event>
 7    1  0.3707147E-015  0.9000776E+02  0.7816164E-02  0.1186339E+00
        -11   -1    0    0    0    0  0.00000000000E+00  0.00000000000E+00  0.45593999997E+02  0.45594000000E+02  0.51100000000E-03 0.  1.
         11   -1    0    0    0    0 -0.00000000000E+00 -0.00000000000E+00 -0.45593999997E+02  0.45594000000E+02  0.51100000000E-03 0. -1.
    9900012    2    1    2    0    0  0.73955142435E+00 -0.48282002516E+00  0.78289377407E+00  0.90007756742E+02  0.90000018331E+02 0.  0.
         12    1    1    2    0    0 -0.73955142435E+00  0.48282002516E+00 -0.78289377407E+00  0.11802432577E+01  0.00000000000E+00 0. -1.
         11    1    3    3    0    0  0.46539390803E+01  0.34928763369E+02 -0.23873055206E+02  0.42562899626E+02  0.51100000000E-03 0. -1.
        -11    1    3    3    0    0  0.65632085144E+01 -0.80792259406E+01  0.24241218452E+01  0.10687654784E+02  0.51100000000E-03 0.  1.
        -12    1    3    3    0    0 -0.10477596170E+02 -0.27332357454E+02  0.22231827135E+02  0.36757202332E+02  0.00000000000E+00 0.  1.
</event>
<event>
 7    1  0.3707147E-015  0.9000776E+02  0.7816164E-02  0.1186339E+00
        -11   -1    0    0    0    0  0.00000000000E+00  0.00000000000E+00  0.45593999997E+02  0.45594000000E+02  0.51100000000E-03 0. -1.
         11   -1    0    0    0    0 -0.00000000000E+00 -0.00000000000E+00 -0.45593999997E+02  0.45594000000E+02  0.51100000000E-03 0.  1.
    9900012    2    1    2    0    0 -0.29644376421E+00 -0.97612160148E+00  0.59351798358E+00  0.90007764480E+02  0.90000026171E+02 0.  0.
         12    1    1    2    0    0  0.29644376421E+00  0.97612160148E+00 -0.59351798358E+00  0.11802355202E+01  0.00000000000E+00 0. -1.
         11    1    3    3    0    0  0.33807864016E+01  0.31029042824E+02 -0.18479755313E+02  0.36273028160E+02  0.51100000000E-03 0. -1.
        -11    1    3    3    0    0 -0.10477853274E+02  0.23991509527E+01 -0.43133569115E+01  0.11582157943E+02  0.51100000000E-03 0.  1.
        -12    1    3    3    0    0  0.68006231078E+01 -0.34404315378E+02  0.23386630208E+02  0.42152578376E+02  0.00000000000E+00 0.  1.
</event>
<event>
 7    1  0.3707147E-015  0.9000774E+02  0.7816164E-02  0.1186339E+00
        -11   -1    0    0    0    0  0.00000000000E+00  0.00000000000E+00  0.45593999997E+02  0.45594000000E+02  0.51100000000E-03 0. -1.
         11   -1    0    0    0    0 -0.00000000000E+00 -0.00000000000E+00 -0.45593999997E+02  0.45594000000E+02  0.51100000000E-03 0.  1.
    9900012    2    1    2    0    0 -0.85907048740E-01  0.13959993507E+00 -0.11688207392E+01  0.90007741518E+02  0.90000002906E+02 0.  0.
         12    1    1    2    0    0  0.85907048740E-01 -0.13959993507E+00  0.11688207392E+01  0.11802584816E+01  0.00000000000E+00 0. -1.
         11    1    3    3    0    0 -0.73771552409E+01  0.52527192167E+01  0.24946301674E+01  0.93934369935E+01  0.51100000000E-03 0. -1.
        -11    1    3    3    0    0  0.21948013376E+02 -0.22469058600E+02  0.27706107668E+02  0.41883198157E+02  0.51100000000E-03 0.  1.
         12    1    3    3    0    0 -0.14656765184E+02  0.17355939318E+02 -0.31369558575E+02  0.38731106368E+02  0.00000000000E+00 0. -1.
</event>
<event>
 7    1  0.3707147E-015  0.9000776E+02  0.7816164E-02  0.1186339E+00
        -11   -1    0    0    0    0  0.00000000000E+00  0.00000000000E+00  0.45593999997E+02  0.45594000000E+02  0.51100000000E-03 0. -1.
         11   -1    0    0    0    0 -0.00000000000E+00 -0.00000000000E+00 -0.45593999997E+02  0.45594000000E+02  0.51100000000E-03 0.  1.
    9900012    2    1    2    0    0 -0.40104694970E+00  0.94154060387E+00 -0.58791043120E+00  0.90007755941E+02  0.90000017519E+02 0.  0.
         12    1    1    2    0    0  0.40104694970E+00 -0.94154060387E+00  0.58791043120E+00  0.11802440594E+01  0.00000000000E+00 0. -1.
         11    1    3    3    0    0 -0.28101231039E+02  0.23127213426E+02  0.20924441187E+02  0.41980703019E+02  0.51100000000E-03 0. -1.
        -11    1    3    3    0    0 -0.42266118263E+01 -0.49352034595E+01 -0.47780510885E+01  0.80653737162E+01  0.51100000000E-03 0.  1.
        -12    1    3    3    0    0  0.31926795915E+02 -0.17250469362E+02 -0.16734300530E+02  0.39961679205E+02  0.00000000000E+00 0.  1.
</event>
<event>
 7    1  0.3707147E-015  0.9000831E+02  0.7816164E-02  0.1186338E+00
        -11   -1    0    0    0    0  0.00000000000E+00  0.00000000000E+00  0.45593999997E+02  0.45594000000E+02  0.51100000000E-03 0. -1.
         11   -1    0    0    0    0 -0.00000000000E+00 -0.00000000000E+00 -0.45593999997E+02  0.45594000000E+02  0.51100000000E-03 0.  1.
    9900012    2    1    2    0    0 -0.97288055370E+00 -0.87854783416E-01  0.66140178071E+00  0.90008310486E+02  0.90000579382E+02 0.  0.
         12    1    1    2    0    0  0.97288055370E+00  0.87854783416E-01 -0.66140178071E+00  0.11796895143E+01  0.00000000000E+00 0. -1.
         11    1    3    3    0    0  0.19739350181E+02  0.31562267180E+02 -0.11139848800E+02  0.38857623275E+02  0.51100000000E-03 0. -1.
        -11    1    3    3    0    0 -0.71251408384E+01  0.61470262821E+01  0.40485592577E+01  0.10244237229E+02  0.51100000000E-03 0.  1.
        -12    1    3    3    0    0 -0.13587089896E+02 -0.37797148245E+02  0.77526913226E+01  0.40906449981E+02  0.00000000000E+00 0.  1.
</event>
<event>
 7    1  0.3707147E-015  0.9000774E+02  0.7816164E-02  0.1186339E+00
        -11   -1    0    0    0    0  0.00000000000E+00  0.00000000000E+00  0.45593999997E+02  0.45594000000E+02  0.51100000000E-03 0.  1.
         11   -1    0    0    0    0 -0.00000000000E+00 -0.00000000000E+00 -0.45593999997E+02  0.45594000000E+02  0.51100000000E-03 0. -1.
    9900012    2    1    2    0    0  0.10985966522E+01  0.30665835352E+00  0.30342488274E+00  0.90007737059E+02  0.89999998388E+02 0.  0.
         12    1    1    2    0    0 -0.10985966522E+01 -0.30665835352E+00 -0.30342488274E+00  0.11802629408E+01  0.00000000000E+00 0. -1.
         11    1    3    3    0    0 -0.19074048801E+01 -0.79651346328E+01  0.18067499629E+01  0.83872467940E+01  0.51100000000E-03 0. -1.
        -11    1    3    3    0    0 -0.11052567851E+02 -0.27333002798E+02  0.21923684893E+02  0.36740988795E+02  0.51100000000E-03 0.  1.
         12    1    3    3    0    0  0.14058569384E+02  0.35604795784E+02 -0.23427009973E+02  0.44879501470E+02  0.00000000000E+00 0. -1.
</event>
<event>
 7    1  0.3707147E-015  0.9000791E+02  0.7816164E-02  0.1186339E+00
        -11   -1    0    0    0    0  0.00000000000E+00  0.00000000000E+00  0.45593999997E+02  0.45594000000E+02  0.51100000000E-03 0.  1.
         11   -1    0    0    0    0 -0.00000000000E+00 -0.00000000000E+00 -0.45593999997E+02  0.45594000000E+02  0.51100000000E-03 0. -1.
    9900012    2    1    2    0    0 -0.61169565731E+00  0.23530812798E+00  0.98135791940E+00  0.90007913199E+02  0.90000176853E+02 0.  0.
         12    1    1    2    0    0  0.61169565731E+00 -0.23530812798E+00 -0.98135791940E+00  0.11800868011E+01  0.00000000000E+00 0. -1.
         11    1    3    3    0    0 -0.21141483701E+02 -0.16800723033E+02  0.31672452201E+02  0.41621759408E+02  0.51100000000E-03 0. -1.
        -11    1    3    3    0    0  0.79647494239E+01  0.51662702731E+01  0.34644737641E+01  0.10105946796E+02  0.51100000000E-03 0.  1.
        -12    1    3    3    0    0  0.12565038620E+02  0.11869760887E+02 -0.34155568046E+02  0.38280206995E+02  0.00000000000E+00 0.  1.
</event>
<event>
 7    1  0.3707147E-015  0.9000775E+02  0.7816164E-02  0.1186339E+00
        -11   -1    0    0    0    0  0.00000000000E+00  0.00000000000E+00  0.45593999997E+02  0.45594000000E+02  0.51100000000E-03 0. -1.
         11   -1    0    0    0    0 -0.00000000000E+00 -0.00000000000E+00 -0.45593999997E+02  0.45594000000E+02  0.51100000000E-03 0.  1.
    9900012    2    1    2    0    0 -0.98751215529E+00 -0.60758965255E+00 -0.22057726627E+00  0.90007745886E+02  0.90000007332E+02 0.  0.
         12    1    1    2    0    0  0.98751215529E+00  0.60758965255E+00  0.22057726627E+00  0.11802541138E+01  0.00000000000E+00 0. -1.
         11    1    3    3    0    0 -0.12938576979E+02  0.22249630285E+02  0.21959522982E+02  0.33833023393E+02  0.51100000000E-03 0. -1.
        -11    1    3    3    0    0 -0.35524182025E+01  0.73140527492E+00  0.11599775946E+02  0.12153576881E+02  0.51100000000E-03 0.  1.
        -12    1    3    3    0    0  0.15503483026E+02 -0.23588625212E+02 -0.33779876194E+02  0.44021145612E+02  0.00000000000E+00 0.  1.
</event>
<event>
 7    1  0.3707147E-015  0.9000764E+02  0.7816164E-02  0.1186339E+00
        -11   -1    0    0    0    0  0.00000000000E+00  0.00000000000E+00  0.45593999997E+02  0.45594000000E+02  0.51100000000E-03 0. -1.
         11   -1    0    0    0    0 -0.00000000000E+00 -0.00000000000E+00 -0.45593999997E+02  0.45594000000E+02  0.51100000000E-03 0.  1.
    9900012    2    1    2    0    0  0.10498661753E+01 -0.47611725594E-01 -0.53737534001E+00  0.90007636446E+02  0.89999896447E+02 0.  0.
         12    1    1    2    0    0 -0.10498661753E+01  0.47611725594E-01  0.53737534001E+00  0.11803635536E+01  0.00000000000E+00 0. -1.
         11    1    3    3    0    0  0.19549897193E+02  0.22143391411E+02  0.27924240478E+02  0.40648388283E+02  0.51100000000E-03 0. -1.
        -11    1    3    3    0    0 -0.72097956599E+01 -0.70365544653E+01  0.47572670115E+01  0.11141177760E+02  0.51100000000E-03 0.  1.
        -12    1    3    3    0    0 -0.11290235358E+02 -0.15154448671E+02 -0.33218882829E+02  0.38218070404E+02  0.00000000000E+00 0.  1.
</event>
<event>
 7    1  0.3707147E-015  0.9000774E+02  0.7816164E-02  0.1186339E+00
        -11   -1    0    0    0    0  0.00000000000E+00  0.00000000000E+00  0.45593999997E+02  0.45594000000E+02  0.51100000000E-03 0.  1.
         11   -1    0    0    0    0 -0.00000000000E+00 -0.00000000000E+00 -0.45593999997E+02  0.45594000000E+02  0.51100000000E-03 0. -1.
    9900012    2    1    2    0    0 -0.62159845957E+00 -0.38000047825E+00 -0.92856394153E+00  0.90007739011E+02  0.90000000366E+02 0.  0.
         12    1    1    2    0    0  0.62159845957E+00  0.38000047825E+00  0.92856394153E+00  0.11802609889E+01  0.00000000000E+00 0. -1.
         11    1    3    3    0    0  0.18634918506E+01  0.38185961990E+01  0.80125616599E+01  0.90694775717E+01  0.51100000000E-03 0. -1.
        -11    1    3    3    0    0 -0.16346426006E+02 -0.37306111548E+02  0.75746545681E+01  0.41428577022E+02  0.51100000000E-03 0.  1.
         12    1    3    3    0    0  0.13861335696E+02  0.33107514871E+02 -0.16515780169E+02  0.39509684418E+02  0.00000000000E+00 0. -1.
</event>
<event>
 7    1  0.4992005E-015  0.9000777E+02  0.7816164E-02  0.1186339E+00
        -11   -1    0    0    0    0  0.00000000000E+00  0.00000000000E+00  0.45593999997E+02  0.45594000000E+02  0.51100000000E-03 0.  1.
         11   -1    0    0    0    0 -0.00000000000E+00 -0.00000000000E+00 -0.45593999997E+02  0.45594000000E+02  0.51100000000E-03 0. -1.
    9900012    2    1    2    0    0 -0.73461876312E+00 -0.91672724904E+00 -0.11353464460E+00  0.90007769645E+02  0.90000031404E+02 0.  0.
         12    1    1    2    0    0  0.73461876312E+00  0.91672724904E+00  0.11353464460E+00  0.11802303554E+01  0.00000000000E+00 0. -1.
         11    1    3    3    0    0 -0.77760415652E+01 -0.18907088620E+01 -0.58026993988E+01  0.98849847242E+01  0.51100000000E-03 0. -1.
        -11    1    3    3    0    0  0.23994984346E+01 -0.31171802117E+02  0.26972723405E+02  0.41291241785E+02  0.51100000000E-03 0.  1.
         12    1    3    3    0    0  0.46419243675E+01  0.32145783730E+02 -0.21283558651E+02  0.38831543136E+02  0.00000000000E+00 0. -1.
</event>
<event>
 7    1  0.3707147E-015  0.9000771E+02  0.7816164E-02  0.1186339E+00
        -11   -1    0    0    0    0  0.00000000000E+00  0.00000000000E+00  0.45593999997E+02  0.45594000000E+02  0.51100000000E-03 0.  1.
         11   -1    0    0    0    0 -0.00000000000E+00 -0.00000000000E+00 -0.45593999997E+02  0.45594000000E+02  0.51100000000E-03 0. -1.
    9900012    2    1    2    0    0 -0.19979244874E+00  0.10949554719E+01  0.39272574770E+00  0.90007712738E+02  0.89999973746E+02 0.  0.
         12    1    1    2    0    0  0.19979244874E+00 -0.10949554719E+01 -0.39272574770E+00  0.11802872621E+01  0.00000000000E+00 0. -1.
         11    1    3    3    0    0  0.54546318686E+01  0.31767299901E+02  0.22737704978E+02  0.39445121115E+02  0.51100000000E-03 0. -1.
        -11    1    3    3    0    0 -0.87951586736E+01  0.42296306434E+01 -0.17476909121E+01  0.99145859853E+01  0.51100000000E-03 0.  1.
        -12    1    3    3    0    0  0.31407343563E+01 -0.34901975073E+02 -0.20597288318E+02  0.40648005638E+02  0.00000000000E+00 0.  1.
</event>
<event>
 7    1  0.3707147E-015  0.9000788E+02  0.7816164E-02  0.1186339E+00
        -11   -1    0    0    0    0  0.00000000000E+00  0.00000000000E+00  0.45593999997E+02  0.45594000000E+02  0.51100000000E-03 0.  1.
         11   -1    0    0    0    0 -0.00000000000E+00 -0.00000000000E+00 -0.45593999997E+02  0.45594000000E+02  0.51100000000E-03 0. -1.
    9900012    2    1    2    0    0 -0.45031464138E+00  0.10034611153E+01 -0.42775028194E+00  0.90007878061E+02  0.90000141252E+02 0.  0.
         12    1    1    2    0    0  0.45031464138E+00 -0.10034611153E+01  0.42775028194E+00  0.11801219386E+01  0.00000000000E+00 0. -1.
         11    1    3    3    0    0 -0.33523004578E+02 -0.14415298136E+02 -0.69222061740E+01  0.37141750024E+02  0.51100000000E-03 0. -1.
        -11    1    3    3    0    0 -0.83810836654E+01  0.48600199545E+01  0.12356087775E+01  0.97667336749E+01  0.51100000000E-03 0.  1.
        -12    1    3    3    0    0  0.41453773602E+02  0.10558739297E+02  0.52588471146E+01  0.43099394362E+02  0.00000000000E+00 0.  1.
</event>
<event>
 7    1  0.3707147E-015  0.9000773E+02  0.7816164E-02  0.1186339E+00
        -11   -1    0    0    0    0  0.00000000000E+00  0.00000000000E+00  0.45593999997E+02  0.45594000000E+02  0.51100000000E-03 0.  1.
         11   -1    0    0    0    0 -0.00000000000E+00 -0.00000000000E+00 -0.45593999997E+02  0.45594000000E+02  0.51100000000E-03 0. -1.
    9900012    2    1    2    0    0 -0.53935778562E+00 -0.98247268877E+00 -0.36996259618E+00  0.90007732349E+02  0.89999993616E+02 0.  0.
         12    1    1    2    0    0  0.53935778562E+00  0.98247268877E+00  0.36996259618E+00  0.11802676509E+01  0.00000000000E+00 0. -1.
         11    1    3    3    0    0  0.20729213457E+00  0.10592039874E+02 -0.14270451140E+01  0.10689749143E+02  0.51100000000E-03 0. -1.
        -11    1    3    3    0    0  0.60146628002E+01 -0.14265621954E+02  0.38331462366E+02  0.41339873557E+02  0.51100000000E-03 0.  1.
         12    1    3    3    0    0 -0.67613127204E+01  0.26911093909E+01 -0.37274379848E+02  0.37978109649E+02  0.00000000000E+00 0. -1.
</event>
<event>
 7    1  0.3707147E-015  0.9000777E+02  0.7816164E-02  0.1186339E+00
        -11   -1    0    0    0    0  0.00000000000E+00  0.00000000000E+00  0.45593999997E+02  0.45594000000E+02  0.51100000000E-03 0. -1.
         11   -1    0    0    0    0 -0.00000000000E+00 -0.00000000000E+00 -0.45593999997E+02  0.45594000000E+02  0.51100000000E-03 0.  1.
    9900012    2    1    2    0    0  0.64754987094E+00 -0.37417259423E+00 -0.91302934716E+00  0.90007767585E+02  0.90000029317E+02 0.  0.
         12    1    1    2    0    0 -0.64754987094E+00  0.37417259423E+00  0.91302934716E+00  0.11802324154E+01  0.00000000000E+00 0. -1.
         11    1    3    3    0    0 -0.27821359682E+02 -0.15477069449E+02  0.20483582330E+02  0.37856900013E+02  0.51100000000E-03 0. -1.
        -11    1    3    3    0    0  0.39434517914E+01  0.41870426234E+01  0.95716667048E+01  0.11166868036E+02  0.51100000000E-03 0.  1.
        -12    1    3    3    0    0  0.24525457761E+02  0.10915854231E+02 -0.30968278382E+02  0.40983999536E+02  0.00000000000E+00 0.  1.
</event>
<event>
 7    1  0.3707147E-015  0.9000777E+02  0.7816164E-02  0.1186339E+00
        -11   -1    0    0    0    0  0.00000000000E+00  0.00000000000E+00  0.45593999997E+02  0.45594000000E+02  0.51100000000E-03 0.  1.
         11   -1    0    0    0    0 -0.00000000000E+00 -0.00000000000E+00 -0.45593999997E+02  0.45594000000E+02  0.51100000000E-03 0. -1.
    9900012    2    1    2    0    0 -0.25004243368E-01 -0.90519310068E+00  0.75693577465E+00  0.90007766325E+02  0.90000028040E+02 0.  0.
         12    1    1    2    0    0  0.25004243368E-01  0.90519310068E+00 -0.75693577465E+00  0.11802336754E+01  0.00000000000E+00 0. -1.
         11    1    3    3    0    0 -0.81209949767E+01 -0.50748251573E+01 -0.20325713881E+01  0.97895738670E+01  0.51100000000E-03 0. -1.
        -11    1    3    3    0    0  0.15385702293E+02  0.39048122046E+02 -0.85365834922E+01  0.42829299881E+02  0.51100000000E-03 0.  1.
         12    1    3    3    0    0 -0.72897115592E+01 -0.34878489989E+02  0.11326090655E+02  0.37388892576E+02  0.00000000000E+00 0. -1.
</event>
<event>
 7    1  0.3707147E-015  0.9000776E+02  0.7816164E-02  0.1186339E+00
        -11   -1    0    0    0    0  0.00000000000E+00  0.00000000000E+00  0.45593999997E+02  0.45594000000E+02  0.51100000000E-03 0.  1.
         11   -1    0    0    0    0 -0.00000000000E+00 -0.00000000000E+00 -0.45593999997E+02  0.45594000000E+02  0.51100000000E-03 0. -1.
    9900012    2    1    2    0    0 -0.11183314262E+01 -0.14122656334E+00 -0.34980082591E+00  0.90007758186E+02  0.90000019794E+02 0.  0.
         12    1    1    2    0    0  0.11183314262E+01  0.14122656334E+00  0.34980082591E+00  0.11802418137E+01  0.00000000000E+00 0. -1.
         11    1    3    3    0    0 -0.12770310344E+02  0.26106230139E+00 -0.38776075077E+01  0.13348588691E+02  0.51100000000E-03 0. -1.
        -11    1    3    3    0    0 -0.28389503476E+02  0.14677830271E+02 -0.67286335140E+01  0.32660023244E+02  0.51100000000E-03 0.  1.
         12    1    3    3    0    0  0.40041482393E+02 -0.15080119136E+02  0.10256440196E+02  0.43999146252E+02  0.00000000000E+00 0. -1.
</event>
<event>
 7    1  0.3707147E-015  0.9000774E+02  0.7816164E-02  0.1186339E+00
        -11   -1    0    0    0    0  0.00000000000E+00  0.00000000000E+00  0.45593999997E+02  0.45594000000E+02  0.51100000000E-03 0.  1.
         11   -1    0    0    0    0 -0.00000000000E+00 -0.00000000000E+00 -0.45593999997E+02  0.45594000000E+02  0.51100000000E-03 0. -1.
    9900012    2    1    2    0    0 -0.57611852176E+00 -0.42179318494E+00  0.93978303136E+00  0.90007739780E+02  0.90000001145E+02 0.  0.
         12    1    1    2    0    0  0.57611852176E+00  0.42179318494E+00 -0.93978303136E+00  0.11802602205E+01  0.00000000000E+00 0. -1.
         11    1    3    3    0    0  0.12998285059E+02  0.68276046974E+01  0.80057605161E+01  0.16723151679E+02  0.51100000000E-03 0. -1.
        -11    1    3    3    0    0  0.17722922363E+02  0.35598601502E+01  0.22522131132E+02  0.28879421261E+02  0.51100000000E-03 0.  1.
         12    1    3    3    0    0 -0.31297325944E+02 -0.10809258033E+02 -0.29588108617E+02  0.44405166839E+02  0.00000000000E+00 0. -1.
</event>
<event>
 7    1  0.3707147E-015  0.9000773E+02  0.7816164E-02  0.1186339E+00
        -11   -1    0    0    0    0  0.00000000000E+00  0.00000000000E+00  0.45593999997E+02  0.45594000000E+02  0.51100000000E-03 0.  1.
         11   -1    0    0    0    0 -0.00000000000E+00 -0.00000000000E+00 -0.45593999997E+02  0.45594000000E+02  0.51100000000E-03 0. -1.
    9900012    2    1    2    0    0  0.96398095317E+00  0.47162925230E+00  0.49125776278E+00  0.90007734090E+02  0.89999995380E+02 0.  0.
         12    1    1    2    0    0 -0.96398095317E+00 -0.47162925230E+00 -0.49125776278E+00  0.11802659104E+01  0.00000000000E+00 0. -1.
         11    1    3    3    0    0 -0.82562525149E+01 -0.93185106531E+00 -0.26195878541E+01  0.87118478398E+01  0.51100000000E-03 0. -1.
        -11    1    3    3    0    0  0.27766510405E+02  0.32935690036E+02 -0.62649969242E+01  0.43531470972E+02  0.51100000000E-03 0.  1.
         12    1    3    3    0    0 -0.18546276937E+02 -0.31532209718E+02  0.93758425410E+01  0.37764415278E+02  0.00000000000E+00 0. -1.
</event>
<event>
 7    1  0.3707147E-015  0.9000767E+02  0.7816164E-02  0.1186339E+00
        -11   -1    0    0    0    0  0.00000000000E+00  0.00000000000E+00  0.45593999997E+02  0.45594000000E+02  0.51100000000E-03 0.  1.
         11   -1    0    0    0    0 -0.00000000000E+00 -0.00000000000E+00 -0.45593999997E+02  0.45594000000E+02  0.51100000000E-03 0. -1.
    9900012    2    1    2    0    0  0.63303840898E+00 -0.54716419860E+00  0.83249906299E+00  0.90007669124E+02  0.89999929556E+02 0.  0.
         12    1    1    2    0    0 -0.63303840898E+00  0.54716419860E+00 -0.83249906299E+00  0.11803308762E+01  0.00000000000E+00 0. -1.
         11    1    3    3    0    0 -0.25967392913E+02 -0.16200853334E+01 -0.23369757680E+02  0.34972499846E+02  0.51100000000E-03 0. -1.
        -11    1    3    3    0    0 -0.10589355140E+02 -0.22343537603E+01  0.54820953771E+00  0.10836388372E+02  0.51100000000E-03 0.  1.
        -12    1    3    3    0    0  0.37189786462E+02  0.33072748951E+01  0.23654047205E+02  0.44198780905E+02  0.00000000000E+00 0.  1.
</event>
<event>
 7    1  0.3707147E-015  0.9000775E+02  0.7816164E-02  0.1186339E+00
        -11   -1    0    0    0    0  0.00000000000E+00  0.00000000000E+00  0.45593999997E+02  0.45594000000E+02  0.51100000000E-03 0. -1.
         11   -1    0    0    0    0 -0.00000000000E+00 -0.00000000000E+00 -0.45593999997E+02  0.45594000000E+02  0.51100000000E-03 0.  1.
    9900012    2    1    2    0    0  0.10792646801E+01  0.42510523421E+00 -0.21787615018E+00  0.90007747177E+02  0.90000008640E+02 0.  0.
         12    1    1    2    0    0 -0.10792646801E+01 -0.42510523421E+00  0.21787615018E+00  0.11802528232E+01  0.00000000000E+00 0. -1.
         11    1    3    3    0    0 -0.15127720840E+02  0.16180704894E+02  0.28444363866E+02  0.36051976155E+02  0.51100000000E-03 0. -1.
        -11    1    3    3    0    0 -0.93353406316E+01 -0.76769641429E+01  0.30273748367E+01  0.12459910185E+02  0.51100000000E-03 0.  1.
        -12    1    3    3    0    0  0.25542326152E+02 -0.80786355169E+01 -0.31689614853E+02  0.41495860837E+02  0.00000000000E+00 0.  1.
</event>
<event>
 7    1  0.3707147E-015  0.9000776E+02  0.7816164E-02  0.1186339E+00
        -11   -1    0    0    0    0  0.00000000000E+00  0.00000000000E+00  0.45593999997E+02  0.45594000000E+02  0.51100000000E-03 0.  1.
         11   -1    0    0    0    0 -0.00000000000E+00 -0.00000000000E+00 -0.45593999997E+02  0.45594000000E+02  0.51100000000E-03 0. -1.
    9900012    2    1    2    0    0  0.11088780307E+01  0.30350314711E+00  0.26692101705E+00  0.90007757874E+02  0.90000019478E+02 0.  0.
         12    1    1    2    0    0 -0.11088780307E+01 -0.30350314711E+00 -0.26692101705E+00  0.11802421263E+01  0.00000000000E+00 0. -1.
         11    1    3    3    0    0  0.52475210032E+01 -0.73178062786E+01  0.18159081651E+01  0.91860921036E+01  0.51100000000E-03 0. -1.
        -11    1    3    3    0    0 -0.72752021721E+01 -0.33953640986E+02  0.12377211592E+02  0.36864260061E+02  0.51100000000E-03 0.  1.
         12    1    3    3    0    0  0.31365591997E+01  0.41574950411E+02 -0.13926198740E+02  0.43957405709E+02  0.00000000000E+00 0. -1.
</event>
<event>
 7    1  0.3707147E-015  0.9000782E+02  0.7816164E-02  0.1186339E+00
        -11   -1    0    0    0    0  0.00000000000E+00  0.00000000000E+00  0.45593999997E+02  0.45594000000E+02  0.51100000000E-03 0. -1.
         11   -1    0    0    0    0 -0.00000000000E+00 -0.00000000000E+00 -0.45593999997E+02  0.45594000000E+02  0.51100000000E-03 0.  1.
    9900012    2    1    2    0    0 -0.69008244279E+00 -0.90819344319E+00 -0.30298456277E+00  0.90007818339E+02  0.90000080741E+02 0.  0.
         12    1    1    2    0    0  0.69008244279E+00  0.90819344319E+00  0.30298456277E+00  0.11801816612E+01  0.00000000000E+00 0. -1.
         11    1    3    3    0    0  0.19271145941E+01 -0.72770795217E+01 -0.48422101015E+01  0.89507908004E+01  0.51100000000E-03 0. -1.
        -11    1    3    3    0    0  0.38711314876E+02  0.80625245538E+01  0.32179773922E+01  0.39672730941E+02  0.51100000000E-03 0.  1.
         12    1    3    3    0    0 -0.41328511912E+02 -0.16936384752E+01  0.13212481466E+01  0.41384296597E+02  0.00000000000E+00 0. -1.
</event>
<event>
 7    1  0.3707147E-015  0.9000776E+02  0.7816164E-02  0.1186339E+00
        -11   -1    0    0    0    0  0.00000000000E+00  0.00000000000E+00  0.45593999997E+02  0.45594000000E+02  0.51100000000E-03 0. -1.
         11   -1    0    0    0    0 -0.00000000000E+00 -0.00000000000E+00 -0.45593999997E+02  0.45594000000E+02  0.51100000000E-03 0.  1.
    9900012    2    1    2    0    0  0.59883968252E+00 -0.77598738627E+00 -0.65741427946E+00  0.90007763192E+02  0.90000024866E+02 0.  0.
         12    1    1    2    0    0 -0.59883968252E+00  0.77598738627E+00  0.65741427946E+00  0.11802368084E+01  0.00000000000E+00 0. -1.
         11    1    3    3    0    0  0.95286485747E+01 -0.33460280937E+02  0.12403802600E+02  0.36935617813E+02  0.51100000000E-03 0. -1.
        -11    1    3    3    0    0  0.57030253899E+01 -0.41787159335E+01  0.58093139562E+01  0.91506444776E+01  0.51100000000E-03 0.  1.
        -12    1    3    3    0    0 -0.14632834282E+02  0.36863009484E+02 -0.18870530836E+02  0.43921500901E+02  0.00000000000E+00 0.  1.
</event>
<event>
 7    1  0.3707147E-015  0.9000752E+02  0.7816164E-02  0.1186339E+00
        -11   -1    0    0    0    0  0.00000000000E+00  0.00000000000E+00  0.45593999997E+02  0.45594000000E+02  0.51100000000E-03 0. -1.
         11   -1    0    0    0    0 -0.00000000000E+00 -0.00000000000E+00 -0.45593999997E+02  0.45594000000E+02  0.51100000000E-03 0.  1.
    9900012    2    1    2    0    0 -0.43819636589E+00  0.10193780202E+01  0.40296892707E+00  0.90007520623E+02  0.89999779095E+02 0.  0.
         12    1    1    2    0    0  0.43819636589E+00 -0.10193780202E+01 -0.40296892707E+00  0.11804793769E+01  0.00000000000E+00 0. -1.
         11    1    3    3    0    0 -0.36021460569E+01 -0.48588278931E+01  0.38919426832E+02  0.39386615111E+02  0.51100000000E-03 0. -1.
        -11    1    3    3    0    0  0.69624847260E+00  0.66236556936E+01  0.41692071924E+01  0.78574719571E+01  0.51100000000E-03 0.  1.
        -12    1    3    3    0    0  0.24677012184E+01 -0.74544978024E+00 -0.42685665097E+02  0.42763433555E+02  0.00000000000E+00 0.  1.
</event>
<event>
 7    1  0.3707147E-015  0.9000771E+02  0.7816164E-02  0.1186339E+00
        -11   -1    0    0    0    0  0.00000000000E+00  0.00000000000E+00  0.45593999997E+02  0.45594000000E+02  0.51100000000E-03 0.  1.
         11   -1    0    0    0    0 -0.00000000000E+00 -0.00000000000E+00 -0.45593999997E+02  0.45594000000E+02  0.51100000000E-03 0. -1.
    9900012    2    1    2    0    0  0.33672339599E+00 -0.45074417042E+00  0.10375651469E+01  0.90007705805E+02  0.89999966722E+02 0.  0.
         12    1    1    2    0    0 -0.33672339599E+00  0.45074417042E+00 -0.10375651469E+01  0.11802941950E+01  0.00000000000E+00 0. -1.
         11    1    3    3    0    0 -0.21722976666E+02 -0.28322995120E+02 -0.14211812521E+01  0.35722535244E+02  0.51100000000E-03 0. -1.
        -11    1    3    3    0    0 -0.91588656275E+01  0.90338857387E+01  0.10896981203E+02  0.16859422016E+02  0.51100000000E-03 0.  1.
        -12    1    3    3    0    0  0.31218565690E+02  0.18838365211E+02 -0.84382348036E+01  0.37425748545E+02  0.00000000000E+00 0.  1.
</event>
<event>
 7    1  0.3707147E-015  0.9000772E+02  0.7816164E-02  0.1186339E+00
        -11   -1    0    0    0    0  0.00000000000E+00  0.00000000000E+00  0.45593999997E+02  0.45594000000E+02  0.51100000000E-03 0.  1.
         11   -1    0    0    0    0 -0.00000000000E+00 -0.00000000000E+00 -0.45593999997E+02  0.45594000000E+02  0.51100000000E-03 0. -1.
    9900012    2    1    2    0    0  0.80983586923E+00  0.82376679940E+00 -0.24213953965E+00  0.90007721460E+02  0.89999982583E+02 0.  0.
         12    1    1    2    0    0 -0.80983586923E+00 -0.82376679940E+00  0.24213953965E+00  0.11802785398E+01  0.00000000000E+00 0. -1.
         11    1    3    3    0    0  0.66755574279E+01 -0.59779423117E+01 -0.13946931291E+01  0.90688494552E+01  0.51100000000E-03 0. -1.
        -11    1    3    3    0    0  0.77587255468E+01 -0.16436701018E+02  0.33942504631E+02  0.38502682808E+02  0.51100000000E-03 0.  1.
         12    1    3    3    0    0 -0.13624447105E+02  0.23238410129E+02 -0.32789951042E+02  0.42436189197E+02  0.00000000000E+00 0. -1.
</event>
<event>
 7    1  0.3707147E-015  0.9000800E+02  0.7816164E-02  0.1186339E+00
        -11   -1    0    0    0    0  0.00000000000E+00  0.00000000000E+00  0.45593999997E+02  0.45594000000E+02  0.51100000000E-03 0.  1.
         11   -1    0    0    0    0 -0.00000000000E+00 -0.00000000000E+00 -0.45593999997E+02  0.45594000000E+02  0.51100000000E-03 0. -1.
    9900012    2    1    2    0    0  0.66381823513E+00 -0.85658304443E+00  0.46690611462E+00  0.90008004033E+02  0.90000268886E+02 0.  0.
         12    1    1    2    0    0 -0.66381823513E+00  0.85658304443E+00 -0.46690611462E+00  0.11799959666E+01  0.00000000000E+00 0. -1.
         11    1    3    3    0    0 -0.13924605627E+02 -0.37062173528E+02 -0.11567721279E+02  0.41246957758E+02  0.51100000000E-03 0. -1.
        -11    1    3    3    0    0 -0.57963793477E+01  0.61213275674E+01 -0.36426216731E+01  0.91835373165E+01  0.51100000000E-03 0.  1.
        -12    1    3    3    0    0  0.20384803210E+02  0.30084262916E+02  0.15677249066E+02  0.39577508959E+02  0.00000000000E+00 0.  1.
</event>
<event>
 7    1  0.3707147E-015  0.9000764E+02  0.7816164E-02  0.1186339E+00
        -11   -1    0    0    0    0  0.00000000000E+00  0.00000000000E+00  0.45593999997E+02  0.45594000000E+02  0.51100000000E-03 0. -1.
         11   -1    0    0    0    0 -0.00000000000E+00 -0.00000000000E+00 -0.45593999997E+02  0.45594000000E+02  0.51100000000E-03 0.  1.
    9900012    2    1    2    0    0 -0.63805005151E+00  0.66421897175E+00 -0.73820282583E+00  0.90007644917E+02  0.89999905030E+02 0.  0.
         12    1    1    2    0    0  0.63805005151E+00 -0.66421897175E+00  0.73820282583E+00  0.11803550833E+01  0.00000000000E+00 0. -1.
         11    1    3    3    0    0  0.36651333316E+01 -0.11209379154E+02 -0.15751298076E+01  0.11898084616E+02  0.51100000000E-03 0. -1.
        -11    1    3    3    0    0 -0.38029952844E+02 -0.80743941280E+01 -0.87900515224E+00  0.38887604762E+02  0.51100000000E-03 0.  1.
         12    1    3    3    0    0  0.33726769461E+02  0.19947992253E+02  0.17159321340E+01  0.39221955539E+02  0.00000000000E+00 0. -1.
</event>
<event>
 7    1  0.3707147E-015  0.9000770E+02  0.7816164E-02  0.1186339E+00
        -11   -1    0    0    0    0  0.00000000000E+00  0.00000000000E+00  0.45593999997E+02  0.45594000000E+02  0.51100000000E-03 0.  1.
         11   -1    0    0    0    0 -0.00000000000E+00 -0.00000000000E+00 -0.45593999997E+02  0.45594000000E+02  0.51100000000E-03 0. -1.
    9900012    2    1    2    0    0  0.32578078463E+00  0.57914173791E+00  0.97548751975E+00  0.90007697423E+02  0.89999958229E+02 0.  0.
         12    1    1    2    0    0 -0.32578078463E+00 -0.57914173791E+00 -0.97548751975E+00  0.11803025771E+01  0.00000000000E+00 0. -1.
         11    1    3    3    0    0 -0.28584506646E+02  0.14265017181E+02 -0.11185820622E+02  0.33848003170E+02  0.51100000000E-03 0. -1.
        -11    1    3    3    0    0 -0.52274942524E+01  0.40737980547E+01 -0.98168460225E+01  0.11844534302E+02  0.51100000000E-03 0.  1.
        -12    1    3    3    0    0  0.34137781683E+02 -0.17759673498E+02  0.21978154164E+02  0.44315159950E+02  0.00000000000E+00 0.  1.
</event>
<event>
 7    1  0.3707147E-015  0.9000783E+02  0.7816164E-02  0.1186339E+00
        -11   -1    0    0    0    0  0.00000000000E+00  0.00000000000E+00  0.45593999997E+02  0.45594000000E+02  0.51100000000E-03 0.  1.
         11   -1    0    0    0    0 -0.00000000000E+00 -0.00000000000E+00 -0.45593999997E+02  0.45594000000E+02  0.51100000000E-03 0. -1.
    9900012    2    1    2    0    0 -0.11402009832E+01  0.28600069155E+00 -0.10463525338E+00  0.90007829159E+02  0.90000091704E+02 0.  0.
         12    1    1    2    0    0  0.11402009832E+01 -0.28600069155E+00  0.10463525338E+00  0.11801708410E+01  0.00000000000E+00 0. -1.
         11    1    3    3    0    0  0.25052673876E+02  0.26474751580E+02  0.23422801185E+01  0.36524446827E+02  0.51100000000E-03 0. -1.
        -11    1    3    3    0    0  0.48811332074E+01  0.58728159643E+01 -0.43598080746E+01  0.87933699710E+01  0.51100000000E-03 0.  1.
        -12    1    3    3    0    0 -0.31074008066E+02 -0.32061566853E+02  0.19128927027E+01  0.44690012362E+02  0.00000000000E+00 0.  1.
</event>
<event>
 7    1  0.3707147E-015  0.9000775E+02  0.7816164E-02  0.1186339E+00
        -11   -1    0    0    0    0  0.00000000000E+00  0.00000000000E+00  0.45593999997E+02  0.45594000000E+02  0.51100000000E-03 0. -1.
         11   -1    0    0    0    0 -0.00000000000E+00 -0.00000000000E+00 -0.45593999997E+02  0.45594000000E+02  0.51100000000E-03 0.  1.
    9900012    2    1    2    0    0  0.98663541446E+00  0.58765324178E-01 -0.64505255480E+00  0.90007747653E+02  0.90000009122E+02 0.  0.
         12    1    1    2    0    0 -0.98663541446E+00 -0.58765324178E-01  0.64505255480E+00  0.11802523471E+01  0.00000000000E+00 0. -1.
         11    1    3    3    0    0  0.44899345699E-01  0.90149564777E+01 -0.44587397046E+01  0.10057425926E+02  0.51100000000E-03 0. -1.
        -11    1    3    3    0    0  0.64329816064E+00  0.35291560150E+02 -0.18203175288E+01  0.35344329199E+02  0.51100000000E-03 0.  1.
         12    1    3    3    0    0  0.29843790812E+00 -0.44247751304E+02  0.56340046786E+01  0.44605992527E+02  0.00000000000E+00 0. -1.
</event>
<event>
 7    1  0.3707147E-015  0.9000695E+02  0.7816164E-02  0.1186341E+00
        -11   -1    0    0    0    0  0.00000000000E+00  0.00000000000E+00  0.45593999997E+02  0.45594000000E+02  0.51100000000E-03 0.  1.
         11   -1    0    0    0    0 -0.00000000000E+00 -0.00000000000E+00 -0.45593999997E+02  0.45594000000E+02  0.51100000000E-03 0. -1.
    9900012    2    1    2    0    0  0.11552957373E+01  0.24520139660E+00  0.73932391502E-02  0.90006946815E+02  0.89999197710E+02 0.  0.
         12    1    1    2    0    0 -0.11552957373E+01 -0.24520139660E+00 -0.73932391502E-02  0.11810531848E+01  0.00000000000E+00 0. -1.
         11    1    3    3    0    0  0.12844570980E+02  0.31344477954E+01 -0.76628487816E+01  0.15281590832E+02  0.51100000000E-03 0. -1.
        -11    1    3    3    0    0  0.19082752295E+02 -0.26048303204E+02  0.14862250154E+02  0.35546476828E+02  0.51100000000E-03 0.  1.
         12    1    3    3    0    0 -0.30772027538E+02  0.23159056805E+02 -0.71920081331E+01  0.39178879156E+02  0.00000000000E+00 0. -1.
</event>
<event>
 7    1  0.3707147E-015  0.9000774E+02  0.7816164E-02  0.1186339E+00
        -11   -1    0    0    0    0  0.00000000000E+00  0.00000000000E+00  0.45593999997E+02  0.45594000000E+02  0.51100000000E-03 0. -1.
         11   -1    0    0    0    0 -0.00000000000E+00 -0.00000000000E+00 -0.45593999997E+02  0.45594000000E+02  0.51100000000E-03 0.  1.
    9900012    2    1    2    0    0  0.55656658722E+00  0.77572691485E+00 -0.69389377342E+00  0.90007742748E+02  0.90000004152E+02 0.  0.
         12    1    1    2    0    0 -0.55656658722E+00 -0.77572691485E+00  0.69389377342E+00  0.11802572521E+01  0.00000000000E+00 0. -1.
         11    1    3    3    0    0 -0.28941368905E+02  0.25596022561E+02 -0.20855632238E+02  0.43905769568E+02  0.51100000000E-03 0. -1.
        -11    1    3    3    0    0  0.88905554652E+01 -0.97216862127E+00  0.50769885337E+00  0.89579487995E+01  0.51100000000E-03 0.  1.
        -12    1    3    3    0    0  0.20607380027E+02 -0.23848127025E+02  0.19654039611E+02  0.37144024381E+02  0.00000000000E+00 0.  1.
</event>
<event>
 7    1  0.3707147E-015  0.9000765E+02  0.7816164E-02  0.1186339E+00
        -11   -1    0    0    0    0  0.00000000000E+00  0.00000000000E+00  0.45593999997E+02  0.45594000000E+02  0.51100000000E-03 0. -1.
         11   -1    0    0    0    0 -0.00000000000E+00 -0.00000000000E+00 -0.45593999997E+02  0.45594000000E+02  0.51100000000E-03 0.  1.
    9900012    2    1    2    0    0  0.60658809082E+00 -0.43437382062E+00 -0.91465436059E+00  0.90007651608E+02  0.89999911809E+02 0.  0.
         12    1    1    2    0    0 -0.60658809082E+00  0.43437382062E+00  0.91465436059E+00  0.11803483923E+01  0.00000000000E+00 0. -1.
         11    1    3    3    0    0 -0.35370309678E+02  0.26403407486E+01  0.13575755811E+02  0.37978037760E+02  0.51100000000E-03 0. -1.
        -11    1    3    3    0    0  0.82646111638E+00 -0.72662900995E-01  0.93913492342E+01  0.94279244043E+01  0.51100000000E-03 0.  1.
        -12    1    3    3    0    0  0.35150436653E+02 -0.30020516682E+01 -0.23881759406E+02  0.42601689443E+02  0.00000000000E+00 0.  1.
</event>
<event>
 7    1  0.3707147E-015  0.9000782E+02  0.7816164E-02  0.1186339E+00
        -11   -1    0    0    0    0  0.00000000000E+00  0.00000000000E+00  0.45593999997E+02  0.45594000000E+02  0.51100000000E-03 0.  1.
         11   -1    0    0    0    0 -0.00000000000E+00 -0.00000000000E+00 -0.45593999997E+02  0.45594000000E+02  0.51100000000E-03 0. -1.
    9900012    2    1    2    0    0  0.34874136531E+00  0.11100123880E+01 -0.19770500662E+00  0.90007815561E+02  0.90000077926E+02 0.  0.
         12    1    1    2    0    0 -0.34874136531E+00 -0.11100123880E+01  0.19770500662E+00  0.11801844394E+01  0.00000000000E+00 0. -1.
         11    1    3    3    0    0  0.11261232339E+02  0.30668045229E+02  0.23023516367E+02  0.39967820282E+02  0.51100000000E-03 0. -1.
        -11    1    3    3    0    0 -0.51417284184E+01  0.61964776921E+01 -0.32661206256E+01  0.86891455920E+01  0.51100000000E-03 0.  1.
        -12    1    3    3    0    0 -0.57707625558E+01 -0.35754510533E+02 -0.19955100748E+02  0.41350849686E+02  0.00000000000E+00 0.  1.
</event>
<event>
 7    1  0.3707147E-015  0.9000770E+02  0.7816164E-02  0.1186339E+00
        -11   -1    0    0    0    0  0.00000000000E+00  0.00000000000E+00  0.45593999997E+02  0.45594000000E+02  0.51100000000E-03 0.  1.
         11   -1    0    0    0    0 -0.00000000000E+00 -0.00000000000E+00 -0.45593999997E+02  0.45594000000E+02  0.51100000000E-03 0. -1.
    9900012    2    1    2    0    0 -0.57693043770E+00 -0.18768839200E+00  0.10124374899E+01  0.90007701168E+02  0.89999962023E+02 0.  0.
         12    1    1    2    0    0  0.57693043770E+00  0.18768839200E+00 -0.10124374899E+01  0.11802988322E+01  0.00000000000E+00 0. -1.
         11    1    3    3    0    0  0.60302261518E+01  0.33836752357E+02  0.25049897978E+02  0.42529834545E+02  0.51100000000E-03 0. -1.
        -11    1    3    3    0    0 -0.83170016113E+01 -0.15071408835E+02 -0.51518293544E+00  0.17221651889E+02  0.51100000000E-03 0.  1.
        -12    1    3    3    0    0  0.17098450218E+01 -0.18953031913E+02 -0.23522277553E+02  0.30256214733E+02  0.00000000000E+00 0.  1.
</event>
<event>
 7    1  0.3707147E-015  0.9000768E+02  0.7816164E-02  0.1186339E+00
        -11   -1    0    0    0    0  0.00000000000E+00  0.00000000000E+00  0.45593999997E+02  0.45594000000E+02  0.51100000000E-03 0.  1.
         11   -1    0    0    0    0 -0.00000000000E+00 -0.00000000000E+00 -0.45593999997E+02  0.45594000000E+02  0.51100000000E-03 0. -1.
    9900012    2    1    2    0    0 -0.75402609088E+00 -0.33674717838E+00  0.84332848531E+00  0.90007679305E+02  0.89999939872E+02 0.  0.
         12    1    1    2    0    0  0.75402609088E+00  0.33674717838E+00 -0.84332848531E+00  0.11803206946E+01  0.00000000000E+00 0. -1.
         11    1    3    3    0    0  0.10874532887E+02  0.37794636771E+02  0.53340087040E-01  0.39328016471E+02  0.51100000000E-03 0. -1.
        -11    1    3    3    0    0  0.85199487726E+01 -0.25827441734E+01  0.38585869511E+01  0.97030298398E+01  0.51100000000E-03 0.  1.
        -12    1    3    3    0    0 -0.20148507751E+02 -0.35548639776E+02 -0.30685985528E+01  0.40976632994E+02  0.00000000000E+00 0.  1.
</event>
<event>
 7    1  0.3707147E-015  0.9000776E+02  0.7816164E-02  0.1186339E+00
        -11   -1    0    0    0    0  0.00000000000E+00  0.00000000000E+00  0.45593999997E+02  0.45594000000E+02  0.51100000000E-03 0.  1.
         11   -1    0    0    0    0 -0.00000000000E+00 -0.00000000000E+00 -0.45593999997E+02  0.45594000000E+02  0.51100000000E-03 0. -1.
    9900012    2    1    2    0    0 -0.11288509164E+01  0.28453375639E+00 -0.19415145851E+00  0.90007763312E+02  0.90000024988E+02 0.  0.
         12    1    1    2    0    0  0.11288509164E+01 -0.28453375639E+00  0.19415145851E+00  0.11802366876E+01  0.00000000000E+00 0. -1.
         11    1    3    3    0    0 -0.70772501328E+01 -0.54945315894E+00 -0.64282518156E+01  0.95766272707E+01  0.51100000000E-03 0. -1.
        -11    1    3    3    0    0 -0.15428778757E+02  0.35849777849E+02  0.70929082478E+00  0.39035328607E+02  0.51100000000E-03 0.  1.
         12    1    3    3    0    0  0.21377177973E+02 -0.35015790933E+02  0.55248095323E+01  0.41395807435E+02  0.00000000000E+00 0. -1.
</event>
<event>
 7    1  0.3707147E-015  0.9000774E+02  0.7816164E-02  0.1186339E+00
        -11   -1    0    0    0    0  0.00000000000E+00  0.00000000000E+00  0.45593999997E+02  0.45594000000E+02  0.51100000000E-03 0.  1.
         11   -1    0    0    0    0 -0.00000000000E+00 -0.00000000000E+00 -0.45593999997E+02  0.45594000000E+02  0.51100000000E-03 0. -1.
    9900012    2    1    2    0    0 -0.85914975639E+00 -0.14761903939E+00  0.79566503003E+00  0.90007740484E+02  0.90000001859E+02 0.  0.
         12    1    1    2    0    0  0.85914975639E+00  0.14761903939E+00 -0.79566503003E+00  0.11802595158E+01  0.00000000000E+00 0. -1.
         11    1    3    3    0    0  0.92996538046E+01  0.23734579088E+00  0.62507008905E+00  0.93236584444E+01  0.51100000000E-03 0. -1.
        -11    1    3    3    0    0  0.27634185552E+02 -0.17232924932E+02 -0.15966421080E+02  0.36270490970E+02  0.51100000000E-03 0.  1.
         12    1    3    3    0    0 -0.37792989113E+02  0.16847960102E+02  0.16137016021E+02  0.44413591070E+02  0.00000000000E+00 0. -1.
</event>
<event>
 7    1  0.3707147E-015  0.9000771E+02  0.7816164E-02  0.1186339E+00
        -11   -1    0    0    0    0  0.00000000000E+00  0.00000000000E+00  0.45593999997E+02  0.45594000000E+02  0.51100000000E-03 0.  1.
         11   -1    0    0    0    0 -0.00000000000E+00 -0.00000000000E+00 -0.45593999997E+02  0.45594000000E+02  0.51100000000E-03 0. -1.
    9900012    2    1    2    0    0  0.82766774547E+00  0.46937693930E+00  0.69838145171E+00  0.90007709671E+02  0.89999970639E+02 0.  0.
         12    1    1    2    0    0 -0.82766774547E+00 -0.46937693930E+00 -0.69838145171E+00  0.11802903287E+01  0.00000000000E+00 0. -1.
         11    1    3    3    0    0  0.23723116896E-01 -0.10446253787E+02  0.59179285954E+01  0.12006109282E+02  0.51100000000E-03 0. -1.
        -11    1    3    3    0    0  0.20655459791E+02 -0.26770612487E+02  0.50451126745E+01  0.34187232621E+02  0.51100000000E-03 0.  1.
         12    1    3    3    0    0 -0.19851515162E+02  0.37686243213E+02 -0.10264659818E+02  0.43814367769E+02  0.00000000000E+00 0. -1.
</event>
<event>
 7    1  0.3707147E-015  0.9000767E+02  0.7816164E-02  0.1186339E+00
        -11   -1    0    0    0    0  0.00000000000E+00  0.00000000000E+00  0.45593999997E+02  0.45594000000E+02  0.51100000000E-03 0.  1.
         11   -1    0    0    0    0 -0.00000000000E+00 -0.00000000000E+00 -0.45593999997E+02  0.45594000000E+02  0.51100000000E-03 0. -1.
    9900012    2    1    2    0    0  0.62747432577E+00  0.91708938261E+00 -0.39798878854E+00  0.90007672909E+02  0.89999933392E+02 0.  0.
         12    1    1    2    0    0 -0.62747432577E+00 -0.91708938261E+00  0.39798878854E+00  0.11803270907E+01  0.00000000000E+00 0. -1.
         11    1    3    3    0    0  0.40569077381E+01 -0.11822185220E+02 -0.85171299264E+01  0.15124948470E+02  0.51100000000E-03 0. -1.
        -11    1    3    3    0    0  0.18847547204E+02 -0.24582654387E+02  0.34237409909E+01  0.31165027434E+02  0.51100000000E-03 0.  1.
         12    1    3    3    0    0 -0.22276980616E+02  0.37321928990E+02  0.46954001470E+01  0.43717697005E+02  0.00000000000E+00 0. -1.
</event>
<event>
 7    1  0.3707147E-015  0.9000772E+02  0.7816164E-02  0.1186339E+00
        -11   -1    0    0    0    0  0.00000000000E+00  0.00000000000E+00  0.45593999997E+02  0.45594000000E+02  0.51100000000E-03 0. -1.
         11   -1    0    0    0    0 -0.00000000000E+00 -0.00000000000E+00 -0.45593999997E+02  0.45594000000E+02  0.51100000000E-03 0.  1.
    9900012    2    1    2    0    0 -0.10137961713E+01 -0.55150522689E+00  0.24720379239E+00  0.90007724436E+02  0.89999985598E+02 0.  0.
         12    1    1    2    0    0  0.10137961713E+01  0.55150522689E+00 -0.24720379239E+00  0.11802755641E+01  0.00000000000E+00 0. -1.
         11    1    3    3    0    0 -0.50108990374E+01 -0.75951164783E+01 -0.62040261728E+01  0.11012939866E+02  0.51100000000E-03 0. -1.
        -11    1    3    3    0    0 -0.14502169444E+02 -0.94842526092E+01 -0.30152428290E+02  0.34776901791E+02  0.51100000000E-03 0.  1.
         12    1    3    3    0    0  0.18499272310E+02  0.16527863861E+02  0.36603658255E+02  0.44217882779E+02  0.00000000000E+00 0. -1.
</event>
<event>
 7    1  0.3707147E-015  0.9000784E+02  0.7816164E-02  0.1186339E+00
        -11   -1    0    0    0    0  0.00000000000E+00  0.00000000000E+00  0.45593999997E+02  0.45594000000E+02  0.51100000000E-03 0. -1.
         11   -1    0    0    0    0 -0.00000000000E+00 -0.00000000000E+00 -0.45593999997E+02  0.45594000000E+02  0.51100000000E-03 0.  1.
    9900012    2    1    2    0    0  0.54372124447E-01  0.10638854523E+01 -0.50789778148E+00  0.90007843765E+02  0.90000106502E+02 0.  0.
         12    1    1    2    0    0 -0.54372124447E-01 -0.10638854523E+01  0.50789778148E+00  0.11801562354E+01  0.00000000000E+00 0. -1.
         11    1    3    3    0    0 -0.10202928251E+01  0.77446037025E+01 -0.23439413342E+01  0.81556082052E+01  0.51100000000E-03 0. -1.
        -11    1    3    3    0    0 -0.18733846844E+02  0.17276337884E+02 -0.28628268330E+02  0.38327622103E+02  0.51100000000E-03 0.  1.
         12    1    3    3    0    0  0.19808511794E+02 -0.23957056134E+02  0.30464311882E+02  0.43524613457E+02  0.00000000000E+00 0. -1.
</event>
<event>
 7    1  0.3707147E-015  0.9000777E+02  0.7816164E-02  0.1186339E+00
        -11   -1    0    0    0    0  0.00000000000E+00  0.00000000000E+00  0.45593999997E+02  0.45594000000E+02  0.51100000000E-03 0.  1.
         11   -1    0    0    0    0 -0.00000000000E+00 -0.00000000000E+00 -0.45593999997E+02  0.45594000000E+02  0.51100000000E-03 0. -1.
    9900012    2    1    2    0    0 -0.32814382931E+00  0.10148766359E+01  0.50526350602E+00  0.90007769442E+02  0.90000031199E+02 0.  0.
         12    1    1    2    0    0  0.32814382931E+00 -0.10148766359E+01 -0.50526350602E+00  0.11802305577E+01  0.00000000000E+00 0. -1.
         11    1    3    3    0    0  0.54506838731E+01 -0.23827840076E+01 -0.31639960980E+01  0.67378398527E+01  0.51100000000E-03 0. -1.
        -11    1    3    3    0    0  0.77585769228E+01 -0.38403813998E+02  0.19077158203E-01  0.39179698948E+02  0.51100000000E-03 0.  1.
         12    1    3    3    0    0 -0.13537404625E+02  0.41801474641E+02  0.36501824459E+01  0.44090230642E+02  0.00000000000E+00 0. -1.
</event>
<event>
 7    1  0.3707147E-015  0.9000775E+02  0.7816164E-02  0.1186339E+00
        -11   -1    0    0    0    0  0.00000000000E+00  0.00000000000E+00  0.45593999997E+02  0.45594000000E+02  0.51100000000E-03 0. -1.
         11   -1    0    0    0    0 -0.00000000000E+00 -0.00000000000E+00 -0.45593999997E+02  0.45594000000E+02  0.51100000000E-03 0.  1.
    9900012    2    1    2    0    0 -0.97816979894E+00  0.64984700517E+00  0.11774725541E+00  0.90007753542E+02  0.90000015089E+02 0.  0.
         12    1    1    2    0    0  0.97816979894E+00 -0.64984700517E+00 -0.11774725541E+00  0.11802464581E+01  0.00000000000E+00 0. -1.
         11    1    3    3    0    0  0.34577107180E+02  0.92804877150E+01 -0.12115772498E+02  0.37795445978E+02  0.51100000000E-03 0. -1.
        -11    1    3    3    0    0  0.69643092529E+01 -0.33215636775E+01  0.35417841843E+01  0.84899130798E+01  0.51100000000E-03 0.  1.
        -12    1    3    3    0    0 -0.42519586232E+02 -0.53090770324E+01  0.86917355695E+01  0.43722394484E+02  0.00000000000E+00 0.  1.
</event>
<event>
 7    1  0.3707147E-015  0.9000769E+02  0.7816164E-02  0.1186339E+00
        -11   -1    0    0    0    0  0.00000000000E+00  0.00000000000E+00  0.45593999997E+02  0.45594000000E+02  0.51100000000E-03 0. -1.
         11   -1    0    0    0    0 -0.00000000000E+00 -0.00000000000E+00 -0.45593999997E+02  0.45594000000E+02  0.51100000000E-03 0.  1.
    9900012    2    1    2    0    0 -0.35534657461E-02  0.46142395114E-01 -0.11794037997E+01  0.90007688571E+02  0.89999949260E+02 0.  0.
         12    1    1    2    0    0  0.35534657461E-02 -0.46142395114E-01  0.11794037997E+01  0.11803114295E+01  0.00000000000E+00 0. -1.
         11    1    3    3    0    0 -0.18564994726E+02  0.62344322926E+01  0.22055416606E+02  0.29495229735E+02  0.51100000000E-03 0. -1.
        -11    1    3    3    0    0 -0.49909613043E+01 -0.13058497301E+02  0.11420614683E+02  0.18051716996E+02  0.51100000000E-03 0.  1.
        -12    1    3    3    0    0  0.23552402564E+02  0.68702074035E+01 -0.34655435090E+02  0.42460741839E+02  0.00000000000E+00 0.  1.
</event>
<event>
 7    1  0.3707147E-015  0.9000771E+02  0.7816164E-02  0.1186339E+00
        -11   -1    0    0    0    0  0.00000000000E+00  0.00000000000E+00  0.45593999997E+02  0.45594000000E+02  0.51100000000E-03 0. -1.
         11   -1    0    0    0    0 -0.00000000000E+00 -0.00000000000E+00 -0.45593999997E+02  0.45594000000E+02  0.51100000000E-03 0.  1.
    9900012    2    1    2    0    0 -0.67934799469E+00  0.37119424834E+00 -0.89095278356E+00  0.90007705236E+02  0.89999966145E+02 0.  0.
         12    1    1    2    0    0  0.67934799469E+00 -0.37119424834E+00  0.89095278356E+00  0.11802947642E+01  0.00000000000E+00 0. -1.
         11    1    3    3    0    0  0.12022766489E+02  0.18810510488E+02  0.80723709273E+01  0.23739111010E+02  0.51100000000E-03 0. -1.
        -11    1    3    3    0    0 -0.58372795003E+01  0.22956953127E+02 -0.38049833002E+01  0.23991111417E+02  0.51100000000E-03 0.  1.
        -12    1    3    3    0    0 -0.68648349835E+01 -0.41396269367E+02 -0.51583404107E+01  0.42277482809E+02  0.00000000000E+00 0.  1.
</event>
<event>
 7    1  0.3707147E-015  0.9000772E+02  0.7816164E-02  0.1186339E+00
        -11   -1    0    0    0    0  0.00000000000E+00  0.00000000000E+00  0.45593999997E+02  0.45594000000E+02  0.51100000000E-03 0. -1.
         11   -1    0    0    0    0 -0.00000000000E+00 -0.00000000000E+00 -0.45593999997E+02  0.45594000000E+02  0.51100000000E-03 0.  1.
    9900012    2    1    2    0    0  0.50559603854E+00 -0.52967879390E+00 -0.92566985288E+00  0.90007723907E+02  0.89999985063E+02 0.  0.
         12    1    1    2    0    0 -0.50559603854E+00  0.52967879390E+00  0.92566985288E+00  0.11802760929E+01  0.00000000000E+00 0. -1.
         11    1    3    3    0    0  0.49527854150E+01  0.36587173768E+02  0.10243349435E+02  0.38315500461E+02  0.51100000000E-03 0. -1.
        -11    1    3    3    0    0 -0.24678350373E+00 -0.27195672131E+01  0.10481883235E+02  0.10831750751E+02  0.51100000000E-03 0.  1.
        -12    1    3    3    0    0 -0.42004058727E+01 -0.34397285348E+02 -0.21650902523E+02  0.40860472695E+02  0.00000000000E+00 0.  1.
</event>
<event>
 7    1  0.3707147E-015  0.9000768E+02  0.7816164E-02  0.1186339E+00
        -11   -1    0    0    0    0  0.00000000000E+00  0.00000000000E+00  0.45593999997E+02  0.45594000000E+02  0.51100000000E-03 0.  1.
         11   -1    0    0    0    0 -0.00000000000E+00 -0.00000000000E+00 -0.45593999997E+02  0.45594000000E+02  0.51100000000E-03 0. -1.
    9900012    2    1    2    0    0  0.10549597840E+01 -0.19406172157E+00  0.49248921841E+00  0.90007684056E+02  0.89999944685E+02 0.  0.
         12    1    1    2    0    0 -0.10549597840E+01  0.19406172157E+00 -0.49248921841E+00  0.11803159441E+01  0.00000000000E+00 0. -1.
         11    1    3    3    0    0 -0.67720662455E+00 -0.25464045852E+02 -0.10030063293E+02  0.27376603330E+02  0.51100000000E-03 0. -1.
        -11    1    3    3    0    0 -0.58023939235E+01 -0.16406715080E+02 -0.40032175481E+01  0.17857038555E+02  0.51100000000E-03 0.  1.
        -12    1    3    3    0    0  0.75345603321E+01  0.41676699211E+02  0.14525770060E+02  0.44774042171E+02  0.00000000000E+00 0.  1.
</event>
<event>
 7    1  0.3707147E-015  0.9000770E+02  0.7816164E-02  0.1186339E+00
        -11   -1    0    0    0    0  0.00000000000E+00  0.00000000000E+00  0.45593999997E+02  0.45594000000E+02  0.51100000000E-03 0.  1.
         11   -1    0    0    0    0 -0.00000000000E+00 -0.00000000000E+00 -0.45593999997E+02  0.45594000000E+02  0.51100000000E-03 0. -1.
    9900012    2    1    2    0    0 -0.66041073926E+00  0.82535490574E+00  0.52512000225E+00  0.90007701698E+02  0.89999962560E+02 0.  0.
         12    1    1    2    0    0  0.66041073926E+00 -0.82535490574E+00 -0.52512000225E+00  0.11802983020E+01  0.00000000000E+00 0. -1.
         11    1    3    3    0    0  0.59950981592E+00  0.23500861408E+02 -0.66849230983E+01  0.24440501141E+02  0.51100000000E-03 0. -1.
        -11    1    3    3    0    0 -0.28238731325E+01  0.11683824488E+02  0.24337291379E+02  0.27143871611E+02  0.51100000000E-03 0.  1.
         12    1    3    3    0    0  0.15639525774E+01 -0.34359330990E+02 -0.17127248278E+02  0.38423328946E+02  0.00000000000E+00 0. -1.
</event>
<event>
 7    1  0.3707147E-015  0.9000773E+02  0.7816164E-02  0.1186339E+00
        -11   -1    0    0    0    0  0.00000000000E+00  0.00000000000E+00  0.45593999997E+02  0.45594000000E+02  0.51100000000E-03 0.  1.
         11   -1    0    0    0    0 -0.00000000000E+00 -0.00000000000E+00 -0.45593999997E+02  0.45594000000E+02  0.51100000000E-03 0. -1.
    9900012    2    1    2    0    0 -0.50271778854E-01 -0.45974821803E+00  0.10858819416E+01  0.90007730850E+02  0.89999992097E+02 0.  0.
         12    1    1    2    0    0  0.50271778854E-01  0.45974821803E+00 -0.10858819416E+01  0.11802691501E+01  0.00000000000E+00 0. -1.
         11    1    3    3    0    0 -0.12686585994E+02 -0.64517571497E+01 -0.21216445248E+01  0.14390135867E+02  0.51100000000E-03 0. -1.
        -11    1    3    3    0    0  0.26449056579E+01  0.34551715436E+02  0.20997646130E+02  0.40518115810E+02  0.51100000000E-03 0.  1.
         12    1    3    3    0    0  0.99914085574E+01 -0.28559706504E+02 -0.17790119664E+02  0.35099479173E+02  0.00000000000E+00 0. -1.
</event>
<event>
 7    1  0.3707147E-015  0.9000775E+02  0.7816164E-02  0.1186339E+00
        -11   -1    0    0    0    0  0.00000000000E+00  0.00000000000E+00  0.45593999997E+02  0.45594000000E+02  0.51100000000E-03 0.  1.
         11   -1    0    0    0    0 -0.00000000000E+00 -0.00000000000E+00 -0.45593999997E+02  0.45594000000E+02  0.51100000000E-03 0. -1.
    9900012    2    1    2    0    0  0.11102121512E+01 -0.37645330266E+00  0.13678609856E+00  0.90007746406E+02  0.90000007858E+02 0.  0.
         12    1    1    2    0    0 -0.11102121512E+01  0.37645330266E+00 -0.13678609856E+00  0.11802535942E+01  0.00000000000E+00 0. -1.
         11    1    3    3    0    0  0.43062740898E+02  0.36421237143E+01 -0.11359841723E+02  0.44684569182E+02  0.51100000000E-03 0. -1.
        -11    1    3    3    0    0 -0.89945600592E+01 -0.92776064964E+00 -0.25024712418E+01  0.93821752839E+01  0.51100000000E-03 0.  1.
        -12    1    3    3    0    0 -0.32957968687E+02 -0.30908163673E+01  0.13999099064E+02  0.35941001939E+02  0.00000000000E+00 0.  1.
</event>
<event>
 7    1  0.3707147E-015  0.9000787E+02  0.7816164E-02  0.1186339E+00
        -11   -1    0    0    0    0  0.00000000000E+00  0.00000000000E+00  0.45593999997E+02  0.45594000000E+02  0.51100000000E-03 0. -1.
         11   -1    0    0    0    0 -0.00000000000E+00 -0.00000000000E+00 -0.45593999997E+02  0.45594000000E+02  0.51100000000E-03 0.  1.
    9900012    2    1    2    0    0  0.21602247861E+00  0.11534874878E+01 -0.12453191304E+00  0.90007869798E+02  0.90000132879E+02 0.  0.
         12    1    1    2    0    0 -0.21602247861E+00 -0.11534874878E+01  0.12453191304E+00  0.11801302018E+01  0.00000000000E+00 0. -1.
         11    1    3    3    0    0  0.27320893933E+00 -0.34485200437E+02 -0.12334041577E+02  0.36625568585E+02  0.51100000000E-03 0. -1.
        -11    1    3    3    0    0  0.75472073396E+01 -0.54021325857E+01 -0.15990542710E+01  0.94180863196E+01  0.51100000000E-03 0.  1.
        -12    1    3    3    0    0 -0.76043938003E+01  0.41040820510E+02  0.13808563935E+02  0.43964214893E+02  0.00000000000E+00 0.  1.
</event>
<event>
 7    1  0.3707147E-015  0.9000762E+02  0.7816164E-02  0.1186339E+00
        -11   -1    0    0    0    0  0.00000000000E+00  0.00000000000E+00  0.45593999997E+02  0.45594000000E+02  0.51100000000E-03 0. -1.
         11   -1    0    0    0    0 -0.00000000000E+00 -0.00000000000E+00 -0.45593999997E+02  0.45594000000E+02  0.51100000000E-03 0.  1.
    9900012    2    1    2    0    0  0.50375901849E+00 -0.89612249906E+00  0.58008113709E+00  0.90007617516E+02  0.89999877268E+02 0.  0.
         12    1    1    2    0    0 -0.50375901849E+00  0.89612249906E+00 -0.58008113709E+00  0.11803824836E+01  0.00000000000E+00 0. -1.
         11    1    3    3    0    0  0.31424919087E+02 -0.11503901227E+02  0.15532264075E+02  0.36893312546E+02  0.51100000000E-03 0. -1.
        -11    1    3    3    0    0  0.78460412688E+01 -0.34347164580E+01  0.15471907780E+01  0.87035303356E+01  0.51100000000E-03 0.  1.
        -12    1    3    3    0    0 -0.38767201337E+02  0.14042495186E+02 -0.16499373716E+02  0.44410774634E+02  0.00000000000E+00 0.  1.
</event>
<event>
 7    1  0.3707147E-015  0.9000793E+02  0.7816164E-02  0.1186339E+00
        -11   -1    0    0    0    0  0.00000000000E+00  0.00000000000E+00  0.45593999997E+02  0.45594000000E+02  0.51100000000E-03 0.  1.
         11   -1    0    0    0    0 -0.00000000000E+00 -0.00000000000E+00 -0.45593999997E+02  0.45594000000E+02  0.51100000000E-03 0. -1.
    9900012    2    1    2    0    0  0.18939269964E-01  0.31909717974E+00  0.11359462143E+01  0.90007934109E+02  0.90000198039E+02 0.  0.
         12    1    1    2    0    0 -0.18939269964E-01 -0.31909717974E+00 -0.11359462143E+01  0.11800658914E+01  0.00000000000E+00 0. -1.
         11    1    3    3    0    0  0.61459387438E+01  0.11855796450E+01 -0.59607332591E+01  0.86434080885E+01  0.51100000000E-03 0. -1.
        -11    1    3    3    0    0  0.14248243861E+02 -0.69981793495E+01  0.39516539053E+02  0.42585723269E+02  0.51100000000E-03 0.  1.
         12    1    3    3    0    0 -0.20375243335E+02  0.61316968842E+01 -0.32419859580E+02  0.38778802751E+02  0.00000000000E+00 0. -1.
</event>
<event>
 7    1  0.3707147E-015  0.9000787E+02  0.7816164E-02  0.1186339E+00
        -11   -1    0    0    0    0  0.00000000000E+00  0.00000000000E+00  0.45593999997E+02  0.45594000000E+02  0.51100000000E-03 0. -1.
         11   -1    0    0    0    0 -0.00000000000E+00 -0.00000000000E+00 -0.45593999997E+02  0.45594000000E+02  0.51100000000E-03 0.  1.
    9900012    2    1    2    0    0 -0.40645496331E+00 -0.10830345995E+01 -0.23355011371E+00  0.90007866433E+02  0.90000129470E+02 0.  0.
         12    1    1    2    0    0  0.40645496331E+00  0.10830345995E+01  0.23355011371E+00  0.11801335672E+01  0.00000000000E+00 0. -1.
         11    1    3    3    0    0 -0.11057636885E+01 -0.73034341414E+01  0.24020724491E+01  0.77674201576E+01  0.51100000000E-03 0. -1.
        -11    1    3    3    0    0  0.83354731852E+01  0.22700230771E+01 -0.41523940744E+02  0.42413096717E+02  0.51100000000E-03 0.  1.
         12    1    3    3    0    0 -0.76361644599E+01  0.39503764648E+01  0.38888318181E+02  0.39827349558E+02  0.00000000000E+00 0. -1.
</event>
<event>
 7    1  0.3707147E-015  0.9000774E+02  0.7816164E-02  0.1186339E+00
        -11   -1    0    0    0    0  0.00000000000E+00  0.00000000000E+00  0.45593999997E+02  0.45594000000E+02  0.51100000000E-03 0.  1.
         11   -1    0    0    0    0 -0.00000000000E+00 -0.00000000000E+00 -0.45593999997E+02  0.45594000000E+02  0.51100000000E-03 0. -1.
    9900012    2    1    2    0    0  0.11532452423E+01  0.22572155622E+00 -0.10990567715E+00  0.90007744067E+02  0.90000005489E+02 0.  0.
         12    1    1    2    0    0 -0.11532452423E+01 -0.22572155622E+00  0.10990567715E+00  0.11802559331E+01  0.00000000000E+00 0. -1.
         11    1    3    3    0    0  0.84269658459E+01  0.23611736660E+01 -0.24576071154E+01  0.90900345128E+01  0.51100000000E-03 0. -1.
        -11    1    3    3    0    0  0.36550517344E+02  0.30686968604E+01 -0.63817062462E+00  0.36684662743E+02  0.51100000000E-03 0.  1.
         12    1    3    3    0    0 -0.43824237948E+02 -0.52041489702E+01  0.29858720629E+01  0.44233046811E+02  0.00000000000E+00 0. -1.
</event>
<event>
 7    1  0.4906998E-015  0.9000780E+02  0.7816164E-02  0.1186339E+00
        -11   -1    0    0    0    0  0.00000000000E+00  0.00000000000E+00  0.45593999997E+02  0.45594000000E+02  0.51100000000E-03 0.  1.
         11   -1    0    0    0    0 -0.00000000000E+00 -0.00000000000E+00 -0.45593999997E+02  0.45594000000E+02  0.51100000000E-03 0. -1.
    9900012    2    1    2    0    0  0.18945812008E+00  0.84613418006E+00  0.80064879295E+00  0.90007798356E+02  0.90000060495E+02 0.  0.
         12    1    1    2    0    0 -0.18945812008E+00 -0.84613418006E+00 -0.80064879295E+00  0.11802016436E+01  0.00000000000E+00 0. -1.
         11    1    3    3    0    0  0.20970176962E+01 -0.84435202065E+01 -0.28218101733E+01  0.91462084828E+01  0.51100000000E-03 0. -1.
        -11    1    3    3    0    0 -0.24518128062E+02 -0.13385305736E+01  0.33740722873E+02  0.41729685453E+02  0.51100000000E-03 0.  1.
         12    1    3    3    0    0  0.22610568486E+02  0.10628184960E+02 -0.30118263907E+02  0.39131904420E+02  0.00000000000E+00 0. -1.
</event>
<event>
 7    1  0.3707147E-015  0.9000768E+02  0.7816164E-02  0.1186339E+00
        -11   -1    0    0    0    0  0.00000000000E+00  0.00000000000E+00  0.45593999997E+02  0.45594000000E+02  0.51100000000E-03 0. -1.
         11   -1    0    0    0    0 -0.00000000000E+00 -0.00000000000E+00 -0.45593999997E+02  0.45594000000E+02  0.51100000000E-03 0.  1.
    9900012    2    1    2    0    0 -0.54457668173E+00  0.37934846003E+00 -0.97605847790E+00  0.90007678362E+02  0.89999938917E+02 0.  0.
         12    1    1    2    0    0  0.54457668173E+00 -0.37934846003E+00  0.97605847790E+00  0.11803216378E+01  0.00000000000E+00 0. -1.
         11    1    3    3    0    0 -0.14543534712E+00 -0.83156542588E+01 -0.19977091036E+01  0.85534846183E+01  0.51100000000E-03 0. -1.
        -11    1    3    3    0    0  0.25818849119E+02 -0.43327743068E+01 -0.29309118131E+02  0.39298986105E+02  0.51100000000E-03 0.  1.
         12    1    3    3    0    0 -0.26217990453E+02  0.13027777026E+02  0.30330768757E+02  0.42155207638E+02  0.00000000000E+00 0. -1.
</event>
<event>
 7    1  0.3707147E-015  0.9000776E+02  0.7816164E-02  0.1186339E+00
        -11   -1    0    0    0    0  0.00000000000E+00  0.00000000000E+00  0.45593999997E+02  0.45594000000E+02  0.51100000000E-03 0.  1.
         11   -1    0    0    0    0 -0.00000000000E+00 -0.00000000000E+00 -0.45593999997E+02  0.45594000000E+02  0.51100000000E-03 0. -1.
    9900012    2    1    2    0    0  0.28177492518E+00  0.44144049282E+00  0.10576874786E+01  0.90007758660E+02  0.90000020275E+02 0.  0.
         12    1    1    2    0    0 -0.28177492518E+00 -0.44144049282E+00 -0.10576874786E+01  0.11802413395E+01  0.00000000000E+00 0. -1.
         11    1    3    3    0    0 -0.35396266647E+02 -0.15583617047E+02  0.35765567688E+01  0.38839883772E+02  0.51100000000E-03 0. -1.
        -11    1    3    3    0    0  0.21278863644E+01 -0.31405602365E+01  0.98844253424E+01  0.10587392672E+02  0.51100000000E-03 0.  1.
        -12    1    3    3    0    0  0.33550155208E+02  0.19165617776E+02 -0.12403294633E+02  0.40580482217E+02  0.00000000000E+00 0.  1.
</event>
<event>
 7    1  0.3707147E-015  0.9000773E+02  0.7816164E-02  0.1186339E+00
        -11   -1    0    0    0    0  0.00000000000E+00  0.00000000000E+00  0.45593999997E+02  0.45594000000E+02  0.51100000000E-03 0.  1.
         11   -1    0    0    0    0 -0.00000000000E+00 -0.00000000000E+00 -0.45593999997E+02  0.45594000000E+02  0.51100000000E-03 0. -1.
    9900012    2    1    2    0    0 -0.30742845084E+00  0.26970010873E+00  0.11071528054E+01  0.90007729804E+02  0.89999991037E+02 0.  0.
         12    1    1    2    0    0  0.30742845084E+00 -0.26970010873E+00 -0.11071528054E+01  0.11802701960E+01  0.00000000000E+00 0. -1.
         11    1    3    3    0    0 -0.11256043072E+02 -0.15036274756E+02 -0.31695338573E+02  0.36842672971E+02  0.51100000000E-03 0. -1.
        -11    1    3    3    0    0 -0.40105718364E+01  0.48767874652E+01 -0.69739561344E+01  0.94076461914E+01  0.51100000000E-03 0.  1.
        -12    1    3    3    0    0  0.14959186458E+02  0.10429187399E+02  0.39776447513E+02  0.43757410641E+02  0.00000000000E+00 0.  1.
</event>
<event>
 7    1  0.3707147E-015  0.9000776E+02  0.7816164E-02  0.1186339E+00
        -11   -1    0    0    0    0  0.00000000000E+00  0.00000000000E+00  0.45593999997E+02  0.45594000000E+02  0.51100000000E-03 0. -1.
         11   -1    0    0    0    0 -0.00000000000E+00 -0.00000000000E+00 -0.45593999997E+02  0.45594000000E+02  0.51100000000E-03 0.  1.
    9900012    2    1    2    0    0  0.18538839467E+00  0.47363418449E+00  0.10650231827E+01  0.90007757407E+02  0.90000019005E+02 0.  0.
         12    1    1    2    0    0 -0.18538839467E+00 -0.47363418449E+00 -0.10650231827E+01  0.11802425926E+01  0.00000000000E+00 0. -1.
         11    1    3    3    0    0 -0.38681474230E+02  0.14638673713E+02 -0.66105810637E+01  0.41883731913E+02  0.51100000000E-03 0. -1.
        -11    1    3    3    0    0  0.72188617494E+01  0.40775372584E+01 -0.47306003321E+01  0.95455149057E+01  0.51100000000E-03 0.  1.
        -12    1    3    3    0    0  0.31648000875E+02 -0.18242576787E+02  0.12406204579E+02  0.38578510589E+02  0.00000000000E+00 0.  1.
</event>
<event>
 7    1  0.3707147E-015  0.9000734E+02  0.7816164E-02  0.1186340E+00
        -11   -1    0    0    0    0  0.00000000000E+00  0.00000000000E+00  0.45593999997E+02  0.45594000000E+02  0.51100000000E-03 0.  1.
         11   -1    0    0    0    0 -0.00000000000E+00 -0.00000000000E+00 -0.45593999997E+02  0.45594000000E+02  0.51100000000E-03 0. -1.
    9900012    2    1    2    0    0  0.85005966305E+00 -0.72213622790E+00  0.38715052373E+00  0.90007335911E+02  0.89999591944E+02 0.  0.
         12    1    1    2    0    0 -0.85005966305E+00  0.72213622790E+00 -0.38715052373E+00  0.11806640887E+01  0.00000000000E+00 0. -1.
         11    1    3    3    0    0  0.29713181386E+02  0.18275522941E+02  0.15122720241E+02  0.38020580672E+02  0.51100000000E-03 0. -1.
        -11    1    3    3    0    0  0.78276129655E+01 -0.44175177021E+01 -0.78000368857E+01  0.11900695907E+02  0.51100000000E-03 0.  1.
        -12    1    3    3    0    0 -0.36690734689E+02 -0.14580141467E+02 -0.69355328313E+01  0.40086059333E+02  0.00000000000E+00 0.  1.
</event>
<event>
 7    1  0.3707147E-015  0.9000775E+02  0.7816164E-02  0.1186339E+00
        -11   -1    0    0    0    0  0.00000000000E+00  0.00000000000E+00  0.45593999997E+02  0.45594000000E+02  0.51100000000E-03 0. -1.
         11   -1    0    0    0    0 -0.00000000000E+00 -0.00000000000E+00 -0.45593999997E+02  0.45594000000E+02  0.51100000000E-03 0.  1.
    9900012    2    1    2    0    0  0.74510508804E+00  0.49402514986E+00 -0.77054738421E+00  0.90007751843E+02  0.90000013367E+02 0.  0.
         12    1    1    2    0    0 -0.74510508804E+00 -0.49402514986E+00  0.77054738421E+00  0.11802481571E+01  0.00000000000E+00 0. -1.
         11    1    3    3    0    0  0.58183046053E+01 -0.65793931173E+01 -0.14405788228E+01  0.89003567276E+01  0.51100000000E-03 0. -1.
        -11    1    3    3    0    0 -0.53966885561E+01  0.12043796560E+02 -0.38975951406E+02  0.41149751776E+02  0.51100000000E-03 0.  1.
         12    1    3    3    0    0  0.32348903881E+00 -0.49703782928E+01  0.39645982845E+02  0.39957643340E+02  0.00000000000E+00 0. -1.
</event>
<event>
 7    1  0.3707147E-015  0.9000810E+02  0.7816164E-02  0.1186338E+00
        -11   -1    0    0    0    0  0.00000000000E+00  0.00000000000E+00  0.45593999997E+02  0.45594000000E+02  0.51100000000E-03 0. -1.
         11   -1    0    0    0    0 -0.00000000000E+00 -0.00000000000E+00 -0.45593999997E+02  0.45594000000E+02  0.51100000000E-03 0.  1.
    9900012    2    1    2    0    0  0.24524481590E+00 -0.59229917475E+00 -0.99055529445E+00  0.90008100376E+02  0.90000366500E+02 0.  0.
         12    1    1    2    0    0 -0.24524481590E+00  0.59229917475E+00  0.99055529445E+00  0.11798996243E+01  0.00000000000E+00 0. -1.
         11    1    3    3    0    0 -0.33880060303E+02 -0.13537410943E+02  0.10191472885E+02  0.37881210395E+02  0.51100000000E-03 0. -1.
        -11    1    3    3    0    0 -0.10834932617E+01 -0.52545830003E+01  0.67518078838E+01  0.86238918195E+01  0.51100000000E-03 0.  1.
        -12    1    3    3    0    0  0.35208798380E+02  0.18199694769E+02 -0.17933836063E+02  0.43502998161E+02  0.00000000000E+00 0.  1.
</event>
<event>
 7    1  0.3707147E-015  0.9000773E+02  0.7816164E-02  0.1186339E+00
        -11   -1    0    0    0    0  0.00000000000E+00  0.00000000000E+00  0.45593999997E+02  0.45594000000E+02  0.51100000000E-03 0.  1.
         11   -1    0    0    0    0 -0.00000000000E+00 -0.00000000000E+00 -0.45593999997E+02  0.45594000000E+02  0.51100000000E-03 0. -1.
    9900012    2    1    2    0    0 -0.90053233757E+00 -0.11154106441E+00  0.75474648661E+00  0.90007727930E+02  0.89999989139E+02 0.  0.
         12    1    1    2    0    0  0.90053233757E+00  0.11154106441E+00 -0.75474648661E+00  0.11802720699E+01  0.00000000000E+00 0. -1.
         11    1    3    3    0    0 -0.40946310845E+02  0.10025321188E+02 -0.36595289650E+01  0.42314295330E+02  0.51100000000E-03 0. -1.
        -11    1    3    3    0    0 -0.53324471350E+00  0.25441990937E+01 -0.35898791285E+01  0.44322151766E+01  0.51100000000E-03 0.  1.
        -12    1    3    3    0    0  0.40579023221E+02 -0.12681061346E+02  0.80041545801E+01  0.43261217424E+02  0.00000000000E+00 0.  1.
</event>
<event>
 7    1  0.3707147E-015  0.9000789E+02  0.7816164E-02  0.1186339E+00
        -11   -1    0    0    0    0  0.00000000000E+00  0.00000000000E+00  0.45593999997E+02  0.45594000000E+02  0.51100000000E-03 0. -1.
         11   -1    0    0    0    0 -0.00000000000E+00 -0.00000000000E+00 -0.45593999997E+02  0.45594000000E+02  0.51100000000E-03 0.  1.
    9900012    2    1    2    0    0 -0.77516918025E+00 -0.87222002608E+00  0.17609460637E+00  0.90007887996E+02  0.90000151317E+02 0.  0.
         12    1    1    2    0    0  0.77516918025E+00  0.87222002608E+00 -0.17609460637E+00  0.11801120041E+01  0.00000000000E+00 0. -1.
         11    1    3    3    0    0  0.10249193072E+02  0.70359227547E+01  0.23505284887E+01  0.12652080938E+02  0.51100000000E-03 0. -1.
        -11    1    3    3    0    0  0.22406136768E+00  0.33657991959E+02 -0.57500935858E+01  0.34146364415E+02  0.51100000000E-03 0.  1.
         12    1    3    3    0    0 -0.11248423620E+02 -0.41566134740E+02  0.35756597034E+01  0.43209442643E+02  0.00000000000E+00 0. -1.
</event>
<event>
 7    1  0.3707147E-015  0.9000768E+02  0.7816164E-02  0.1186339E+00
        -11   -1    0    0    0    0  0.00000000000E+00  0.00000000000E+00  0.45593999997E+02  0.45594000000E+02  0.51100000000E-03 0.  1.
         11   -1    0    0    0    0 -0.00000000000E+00 -0.00000000000E+00 -0.45593999997E+02  0.45594000000E+02  0.51100000000E-03 0. -1.
    9900012    2    1    2    0    0  0.59787276149E+00  0.96636516860E+00  0.31912195353E+00  0.90007681272E+02  0.89999941865E+02 0.  0.
         12    1    1    2    0    0 -0.59787276149E+00 -0.96636516860E+00 -0.31912195353E+00  0.11803187278E+01  0.00000000000E+00 0. -1.
         11    1    3    3    0    0  0.41676673331E+01  0.34622040548E+02  0.11007127303E+02  0.36567909353E+02  0.51100000000E-03 0. -1.
        -11    1    3    3    0    0  0.12680998052E+00  0.90349912380E+01 -0.46621693719E+01  0.10167741684E+02  0.51100000000E-03 0.  1.
        -12    1    3    3    0    0 -0.36966045522E+01 -0.42690666617E+02 -0.60258359775E+01  0.43272030235E+02  0.00000000000E+00 0.  1.
</event>
<event>
 7    1  0.3707147E-015  0.9000774E+02  0.7816164E-02  0.1186339E+00
        -11   -1    0    0    0    0  0.00000000000E+00  0.00000000000E+00  0.45593999997E+02  0.45594000000E+02  0.51100000000E-03 0.  1.
         11   -1    0    0    0    0 -0.00000000000E+00 -0.00000000000E+00 -0.45593999997E+02  0.45594000000E+02  0.51100000000E-03 0. -1.
    9900012    2    1    2    0    0 -0.95552927524E+00 -0.37313859742E+00  0.58373388023E+00  0.90007739922E+02  0.90000001289E+02 0.  0.
         12    1    1    2    0    0  0.95552927524E+00  0.37313859742E+00 -0.58373388023E+00  0.11802600780E+01  0.00000000000E+00 0. -1.
         11    1    3    3    0    0  0.11735144093E+02 -0.87952577014E+01 -0.37531984087E+02  0.40295409102E+02  0.51100000000E-03 0. -1.
        -11    1    3    3    0    0  0.44508562432E+01  0.11877910047E+02  0.83366294299E+01  0.15178743653E+02  0.51100000000E-03 0.  1.
        -12    1    3    3    0    0 -0.17141529611E+02 -0.34557909429E+01  0.29779088538E+02  0.34533587167E+02  0.00000000000E+00 0.  1.
</event>
<event>
 7    1  0.3707147E-015  0.9000786E+02  0.7816164E-02  0.1186339E+00
        -11   -1    0    0    0    0  0.00000000000E+00  0.00000000000E+00  0.45593999997E+02  0.45594000000E+02  0.51100000000E-03 0.  1.
         11   -1    0    0    0    0 -0.00000000000E+00 -0.00000000000E+00 -0.45593999997E+02  0.45594000000E+02  0.51100000000E-03 0. -1.
    9900012    2    1    2    0    0 -0.30794781252E-01 -0.11439624614E+01  0.28831159869E+00  0.90007863563E+02  0.90000126562E+02 0.  0.
         12    1    1    2    0    0  0.30794781252E-01  0.11439624614E+01 -0.28831159869E+00  0.11801364368E+01  0.00000000000E+00 0. -1.
         11    1    3    3    0    0  0.37865533229E+01  0.12754736525E+02  0.15920913496E+01  0.13399852425E+02  0.51100000000E-03 0. -1.
        -11    1    3    3    0    0  0.18791496127E+02  0.24739192052E+02 -0.58442700476E+01  0.31611761145E+02  0.51100000000E-03 0.  1.
         12    1    3    3    0    0 -0.22608844231E+02 -0.38637891037E+02  0.45404902967E+01  0.44996249993E+02  0.00000000000E+00 0. -1.
</event>
<event>
 7    1  0.3707147E-015  0.9000772E+02  0.7816164E-02  0.1186339E+00
        -11   -1    0    0    0    0  0.00000000000E+00  0.00000000000E+00  0.45593999997E+02  0.45594000000E+02  0.51100000000E-03 0.  1.
         11   -1    0    0    0    0 -0.00000000000E+00 -0.00000000000E+00 -0.45593999997E+02  0.45594000000E+02  0.51100000000E-03 0. -1.
    9900012    2    1    2    0    0 -0.98189121468E+00 -0.39714808921E+00 -0.52079947566E+00  0.90007716536E+02  0.89999977594E+02 0.  0.
         12    1    1    2    0    0  0.98189121468E+00  0.39714808921E+00  0.52079947566E+00  0.11802834643E+01  0.00000000000E+00 0. -1.
         11    1    3    3    0    0 -0.53511379891E+01 -0.71457973014E+01 -0.21503255256E+01  0.91826465128E+01  0.51100000000E-03 0. -1.
        -11    1    3    3    0    0 -0.15309165856E+01 -0.32512532574E+02  0.18779078739E+02  0.37577417135E+02  0.51100000000E-03 0.  1.
         12    1    3    3    0    0  0.59001633600E+01  0.39261181786E+02 -0.17149552689E+02  0.43247652888E+02  0.00000000000E+00 0. -1.
</event>
<event>
 7    1  0.3707147E-015  0.9000769E+02  0.7816164E-02  0.1186339E+00
        -11   -1    0    0    0    0  0.00000000000E+00  0.00000000000E+00  0.45593999997E+02  0.45594000000E+02  0.51100000000E-03 0.  1.
         11   -1    0    0    0    0 -0.00000000000E+00 -0.00000000000E+00 -0.45593999997E+02  0.45594000000E+02  0.51100000000E-03 0. -1.
    9900012    2    1    2    0    0  0.48235905131E+00  0.71925312565E+00  0.80196515590E+00  0.90007685032E+02  0.89999945674E+02 0.  0.
         12    1    1    2    0    0 -0.48235905131E+00 -0.71925312565E+00 -0.80196515590E+00  0.11803149683E+01  0.00000000000E+00 0. -1.
         11    1    3    3    0    0  0.22766326138E+01  0.40652236131E+01 -0.73431590950E+01  0.86966134120E+01  0.51100000000E-03 0. -1.
        -11    1    3    3    0    0  0.25254223965E+02 -0.29628657082E+02  0.17142133947E+02  0.42538052436E+02  0.51100000000E-03 0.  1.
         12    1    3    3    0    0 -0.27048497528E+02  0.26282686594E+02 -0.89970096962E+01  0.38773019183E+02  0.00000000000E+00 0. -1.
</event>
<event>
 7    1  0.3707147E-015  0.9000772E+02  0.7816164E-02  0.1186339E+00
        -11   -1    0    0    0    0  0.00000000000E+00  0.00000000000E+00  0.45593999997E+02  0.45594000000E+02  0.51100000000E-03 0. -1.
         11   -1    0    0    0    0 -0.00000000000E+00 -0.00000000000E+00 -0.45593999997E+02  0.45594000000E+02  0.51100000000E-03 0.  1.
    9900012    2    1    2    0    0 -0.80267724485E+00 -0.55978207443E-01 -0.86350388086E+00  0.90007718986E+02  0.89999980077E+02 0.  0.
         12    1    1    2    0    0  0.80267724485E+00  0.55978207443E-01  0.86350388086E+00  0.11802810137E+01  0.00000000000E+00 0. -1.
         11    1    3    3    0    0 -0.11589339012E+02 -0.25735256458E+02  0.27787890102E+02  0.39607865889E+02  0.51100000000E-03 0. -1.
        -11    1    3    3    0    0  0.24044068059E+01 -0.56325398112E+01  0.13061890244E+01  0.62620130024E+01  0.51100000000E-03 0.  1.
        -12    1    3    3    0    0  0.83822549616E+01  0.31311818062E+02 -0.29957583008E+02  0.44137840095E+02  0.00000000000E+00 0.  1.
</event>
<event>
 7    1  0.3707147E-015  0.9000781E+02  0.7816164E-02  0.1186339E+00
        -11   -1    0    0    0    0  0.00000000000E+00  0.00000000000E+00  0.45593999997E+02  0.45594000000E+02  0.51100000000E-03 0. -1.
         11   -1    0    0    0    0 -0.00000000000E+00 -0.00000000000E+00 -0.45593999997E+02  0.45594000000E+02  0.51100000000E-03 0.  1.
    9900012    2    1    2    0    0  0.11586023639E+01  0.16425333499E+00  0.15331274536E+00  0.90007812136E+02  0.90000074457E+02 0.  0.
         12    1    1    2    0    0 -0.11586023639E+01 -0.16425333499E+00 -0.15331274536E+00  0.11801878637E+01  0.00000000000E+00 0. -1.
         11    1    3    3    0    0  0.59918856222E+00  0.50399684264E+01 -0.71480259876E+01  0.87666746520E+01  0.51100000000E-03 0. -1.
        -11    1    3    3    0    0  0.22191526376E+02 -0.92041377299E+01 -0.29676744783E+02  0.38182314956E+02  0.51100000000E-03 0.  1.
         12    1    3    3    0    0 -0.21632112575E+02  0.43284226385E+01  0.36978083516E+02  0.43058822528E+02  0.00000000000E+00 0. -1.
</event>
<event>
 7    1  0.3707147E-015  0.9000763E+02  0.7816164E-02  0.1186339E+00
        -11   -1    0    0    0    0  0.00000000000E+00  0.00000000000E+00  0.45593999997E+02  0.45594000000E+02  0.51100000000E-03 0.  1.
         11   -1    0    0    0    0 -0.00000000000E+00 -0.00000000000E+00 -0.45593999997E+02  0.45594000000E+02  0.51100000000E-03 0. -1.
    9900012    2    1    2    0    0 -0.41895772378E+00  0.10749116373E+01 -0.24963673412E+00  0.90007627558E+02  0.89999887442E+02 0.  0.
         12    1    1    2    0    0  0.41895772378E+00 -0.10749116373E+01  0.24963673412E+00  0.11803724418E+01  0.00000000000E+00 0. -1.
         11    1    3    3    0    0 -0.45304202102E+01 -0.19812437037E+00  0.34293279843E+01  0.56854420437E+01  0.51100000000E-03 0. -1.
        -11    1    3    3    0    0 -0.22783856974E+02  0.87585271236E+01  0.31220710657E+02  0.39630149005E+02  0.51100000000E-03 0.  1.
         12    1    3    3    0    0  0.26895319460E+02 -0.74854911159E+01 -0.34899675375E+02  0.44692036510E+02  0.00000000000E+00 0. -1.
</event>
<event>
 7    1  0.3707147E-015  0.9000784E+02  0.7816164E-02  0.1186339E+00
        -11   -1    0    0    0    0  0.00000000000E+00  0.00000000000E+00  0.45593999997E+02  0.45594000000E+02  0.51100000000E-03 0.  1.
         11   -1    0    0    0    0 -0.00000000000E+00 -0.00000000000E+00 -0.45593999997E+02  0.45594000000E+02  0.51100000000E-03 0. -1.
    9900012    2    1    2    0    0  0.79395129662E+00 -0.32431328091E-01  0.87255740385E+00  0.90007844555E+02  0.90000107303E+02 0.  0.
         12    1    1    2    0    0 -0.79395129662E+00  0.32431328091E-01 -0.87255740385E+00  0.11801554455E+01  0.00000000000E+00 0. -1.
         11    1    3    3    0    0 -0.94786171745E+00 -0.26723411546E+02 -0.28855092748E+02  0.39340253485E+02  0.51100000000E-03 0. -1.
        -11    1    3    3    0    0  0.82473645918E+00 -0.70071425362E+01  0.74511045929E+01  0.10261539683E+02  0.51100000000E-03 0.  1.
        -12    1    3    3    0    0  0.91707655490E+00  0.33698122755E+02  0.22276545559E+02  0.40406051386E+02  0.00000000000E+00 0.  1.
</event>
<event>
 7    1  0.3707147E-015  0.9000782E+02  0.7816164E-02  0.1186339E+00
        -11   -1    0    0    0    0  0.00000000000E+00  0.00000000000E+00  0.45593999997E+02  0.45594000000E+02  0.51100000000E-03 0.  1.
         11   -1    0    0    0    0 -0.00000000000E+00 -0.00000000000E+00 -0.45593999997E+02  0.45594000000E+02  0.51100000000E-03 0. -1.
    9900012    2    1    2    0    0 -0.52980922685E+00  0.10485435152E+01  0.11265922848E+00  0.90007816361E+02  0.90000078737E+02 0.  0.
         12    1    1    2    0    0  0.52980922685E+00 -0.10485435152E+01 -0.11265922848E+00  0.11801836390E+01  0.00000000000E+00 0. -1.
         11    1    3    3    0    0  0.79248767507E+01 -0.41261756064E+01 -0.33314759712E+01  0.95356032351E+01  0.51100000000E-03 0. -1.
        -11    1    3    3    0    0 -0.22952041651E+02 -0.31756067846E+02  0.95538869193E+01  0.40330147737E+02  0.51100000000E-03 0.  1.
         12    1    3    3    0    0  0.14497355674E+02  0.36930786968E+02 -0.61097517196E+01  0.40142065388E+02  0.00000000000E+00 0. -1.
</event>
<event>
 7    1  0.3707147E-015  0.9000805E+02  0.7816164E-02  0.1186338E+00
        -11   -1    0    0    0    0  0.00000000000E+00  0.00000000000E+00  0.45593999997E+02  0.45594000000E+02  0.51100000000E-03 0.  1.
         11   -1    0    0    0    0 -0.00000000000E+00 -0.00000000000E+00 -0.45593999997E+02  0.45594000000E+02  0.51100000000E-03 0. -1.
    9900012    2    1    2    0    0  0.91063185139E+00 -0.54131566400E+00  0.51961357066E+00  0.90008054544E+02  0.90000320063E+02 0.  0.
         12    1    1    2    0    0 -0.91063185139E+00  0.54131566400E+00 -0.51961357066E+00  0.11799454562E+01  0.00000000000E+00 0. -1.
         11    1    3    3    0    0  0.54430340384E+01  0.66737225527E+01  0.26268537250E+01  0.90036410972E+01  0.51100000000E-03 0. -1.
        -11    1    3    3    0    0  0.37457364127E+02  0.30842841889E+01 -0.35064113201E+01  0.37747342382E+02  0.51100000000E-03 0.  1.
         12    1    3    3    0    0 -0.41989766314E+02 -0.10299322406E+02  0.13991711658E+01  0.43257071064E+02  0.00000000000E+00 0. -1.
</event>
<event>
 7    1  0.3707147E-015  0.9000773E+02  0.7816164E-02  0.1186339E+00
        -11   -1    0    0    0    0  0.00000000000E+00  0.00000000000E+00  0.45593999997E+02  0.45594000000E+02  0.51100000000E-03 0. -1.
         11   -1    0    0    0    0 -0.00000000000E+00 -0.00000000000E+00 -0.45593999997E+02  0.45594000000E+02  0.51100000000E-03 0.  1.
    9900012    2    1    2    0    0  0.74535604228E+00 -0.64542279048E+00 -0.64878115510E+00  0.90007727491E+02  0.89999988694E+02 0.  0.
         12    1    1    2    0    0 -0.74535604228E+00  0.64542279048E+00  0.64878115510E+00  0.11802725090E+01  0.00000000000E+00 0. -1.
         11    1    3    3    0    0  0.39863936080E+01 -0.95643005113E+01 -0.12439240174E+00  0.10362560108E+02  0.51100000000E-03 0. -1.
        -11    1    3    3    0    0  0.29675337637E+02 -0.15121079443E+02  0.14336423483E+02  0.36260250219E+02  0.51100000000E-03 0.  1.
         12    1    3    3    0    0 -0.32916375203E+02  0.24039957164E+02 -0.14860812236E+02  0.43384917163E+02  0.00000000000E+00 0. -1.
</event>
<event>
 7    1  0.3707147E-015  0.9000772E+02  0.7816164E-02  0.1186339E+00
        -11   -1    0    0    0    0  0.00000000000E+00  0.00000000000E+00  0.45593999997E+02  0.45594000000E+02  0.51100000000E-03 0.  1.
         11   -1    0    0    0    0 -0.00000000000E+00 -0.00000000000E+00 -0.45593999997E+02  0.45594000000E+02  0.51100000000E-03 0. -1.
    9900012    2    1    2    0    0  0.10144914270E+01 -0.31833125971E+00 -0.51237578515E+00  0.90007721816E+02  0.89999982944E+02 0.  0.
         12    1    1    2    0    0 -0.10144914270E+01  0.31833125971E+00  0.51237578515E+00  0.11802781840E+01  0.00000000000E+00 0. -1.
         11    1    3    3    0    0  0.14251947146E+02 -0.24411920826E+02 -0.23377891410E+02  0.36682225708E+02  0.51100000000E-03 0. -1.
        -11    1    3    3    0    0  0.42227040351E+01 -0.23125362411E+01 -0.78551330057E+01  0.92131519054E+01  0.51100000000E-03 0.  1.
        -12    1    3    3    0    0 -0.17460159754E+02  0.26406125807E+02  0.30720648630E+02  0.44112344203E+02  0.00000000000E+00 0.  1.
</event>
<event>
 7    1  0.3707147E-015  0.9000770E+02  0.7816164E-02  0.1186339E+00
        -11   -1    0    0    0    0  0.00000000000E+00  0.00000000000E+00  0.45593999997E+02  0.45594000000E+02  0.51100000000E-03 0. -1.
         11   -1    0    0    0    0 -0.00000000000E+00 -0.00000000000E+00 -0.45593999997E+02  0.45594000000E+02  0.51100000000E-03 0.  1.
    9900012    2    1    2    0    0 -0.11387386986E+01  0.19462735349E+00 -0.24189095465E+00  0.90007696283E+02  0.89999957074E+02 0.  0.
         12    1    1    2    0    0  0.11387386986E+01 -0.19462735349E+00  0.24189095465E+00  0.11803037170E+01  0.00000000000E+00 0. -1.
         11    1    3    3    0    0 -0.42555403277E+01 -0.75963185471E+01  0.10832411416E+01  0.87742287742E+01  0.51100000000E-03 0. -1.
        -11    1    3    3    0    0  0.19650910500E+02 -0.30157941498E+02 -0.12923409506E+02  0.38244924270E+02  0.51100000000E-03 0.  1.
         12    1    3    3    0    0 -0.16534108870E+02  0.37948887399E+02  0.11598277410E+02  0.42988543239E+02  0.00000000000E+00 0. -1.
</event>
<event>
 7    1  0.3707147E-015  0.9000777E+02  0.7816164E-02  0.1186339E+00
        -11   -1    0    0    0    0  0.00000000000E+00  0.00000000000E+00  0.45593999997E+02  0.45594000000E+02  0.51100000000E-03 0.  1.
         11   -1    0    0    0    0 -0.00000000000E+00 -0.00000000000E+00 -0.45593999997E+02  0.45594000000E+02  0.51100000000E-03 0. -1.
    9900012    2    1    2    0    0  0.90157509331E-01  0.86510095436E+00  0.79775687965E+00  0.90007769482E+02  0.90000031239E+02 0.  0.
         12    1    1    2    0    0 -0.90157509331E-01 -0.86510095436E+00 -0.79775687965E+00  0.11802305185E+01  0.00000000000E+00 0. -1.
         11    1    3    3    0    0 -0.63376983018E+01  0.63832214013E+01 -0.12892132518E+01  0.90870240614E+01  0.51100000000E-03 0. -1.
        -11    1    3    3    0    0 -0.16385292524E+02 -0.83334801920E+01  0.35726149495E+02  0.40178134118E+02  0.51100000000E-03 0.  1.
         12    1    3    3    0    0  0.22813148335E+02  0.28153597451E+01 -0.33639179364E+02  0.40742611302E+02  0.00000000000E+00 0. -1.
</event>
<event>
 7    1  0.5570499E-015  0.9000769E+02  0.7816164E-02  0.1186339E+00
        -11   -1    0    0    0    0  0.00000000000E+00  0.00000000000E+00  0.45593999997E+02  0.45594000000E+02  0.51100000000E-03 0.  1.
         11   -1    0    0    0    0 -0.00000000000E+00 -0.00000000000E+00 -0.45593999997E+02  0.45594000000E+02  0.51100000000E-03 0. -1.
    9900012    2    1    2    0    0  0.23636989644E+00 -0.87666214816E+00  0.75413614774E+00  0.90007691320E+02  0.89999952046E+02 0.  0.
         12    1    1    2    0    0 -0.23636989644E+00  0.87666214816E+00 -0.75413614774E+00  0.11803086797E+01  0.00000000000E+00 0. -1.
         11    1    3    3    0    0 -0.82985035429E+01  0.27956097885E+01  0.41562822327E+01  0.96930530484E+01  0.51100000000E-03 0. -1.
        -11    1    3    3    0    0  0.10679267559E+02 -0.25674450934E+02  0.29587203840E+02  0.40603285799E+02  0.51100000000E-03 0.  1.
         12    1    3    3    0    0 -0.21443941192E+01  0.22002178997E+02 -0.32989349925E+02  0.39711352473E+02  0.00000000000E+00 0. -1.
</event>
<event>
 7    1  0.3707147E-015  0.9000766E+02  0.7816164E-02  0.1186339E+00
        -11   -1    0    0    0    0  0.00000000000E+00  0.00000000000E+00  0.45593999997E+02  0.45594000000E+02  0.51100000000E-03 0. -1.
         11   -1    0    0    0    0 -0.00000000000E+00 -0.00000000000E+00 -0.45593999997E+02  0.45594000000E+02  0.51100000000E-03 0.  1.
    9900012    2    1    2    0    0 -0.69062118637E+00 -0.42164313584E+00 -0.85933183912E+00  0.90007664553E+02  0.89999924925E+02 0.  0.
         12    1    1    2    0    0  0.69062118637E+00  0.42164313584E+00  0.85933183912E+00  0.11803354467E+01  0.00000000000E+00 0. -1.
         11    1    3    3    0    0 -0.27262561014E+02 -0.21520787048E+02  0.13338951269E+02  0.37206439354E+02  0.51100000000E-03 0. -1.
        -11    1    3    3    0    0 -0.32999960270E+00 -0.25055693399E+01  0.95305556336E+01  0.98599324745E+01  0.51100000000E-03 0.  1.
        -12    1    3    3    0    0  0.26901939431E+02  0.23604713252E+02 -0.23728838741E+02  0.42941292724E+02  0.00000000000E+00 0.  1.
</event>
<event>
 7    1  0.3707147E-015  0.9000767E+02  0.7816164E-02  0.1186339E+00
        -11   -1    0    0    0    0  0.00000000000E+00  0.00000000000E+00  0.45593999997E+02  0.45594000000E+02  0.51100000000E-03 0. -1.
         11   -1    0    0    0    0 -0.00000000000E+00 -0.00000000000E+00 -0.45593999997E+02  0.45594000000E+02  0.51100000000E-03 0.  1.
    9900012    2    1    2    0    0  0.10991011331E+01  0.42329442622E+00  0.77370247111E-01  0.90007666307E+02  0.89999926702E+02 0.  0.
         12    1    1    2    0    0 -0.10991011331E+01 -0.42329442622E+00 -0.77370247111E-01  0.11803336931E+01  0.00000000000E+00 0. -1.
         11    1    3    3    0    0 -0.51927809327E+01 -0.18486966615E+01 -0.68765493886E+01  0.88130349435E+01  0.51100000000E-03 0. -1.
        -11    1    3    3    0    0  0.16154502754E+02 -0.34716595890E+02 -0.96181310448E+01  0.39480608335E+02  0.51100000000E-03 0.  1.
         12    1    3    3    0    0 -0.98626206881E+01  0.36988586978E+02  0.16572050680E+02  0.41714023028E+02  0.00000000000E+00 0. -1.
</event>
<event>
 7    1  0.3707147E-015  0.9000783E+02  0.7816164E-02  0.1186339E+00
        -11   -1    0    0    0    0  0.00000000000E+00  0.00000000000E+00  0.45593999997E+02  0.45594000000E+02  0.51100000000E-03 0.  1.
         11   -1    0    0    0    0 -0.00000000000E+00 -0.00000000000E+00 -0.45593999997E+02  0.45594000000E+02  0.51100000000E-03 0. -1.
    9900012    2    1    2    0    0  0.48961978961E+00  0.29925113174E+00  0.10312743783E+01  0.90007828139E+02  0.90000090670E+02 0.  0.
         12    1    1    2    0    0 -0.48961978961E+00 -0.29925113174E+00 -0.10312743783E+01  0.11801718610E+01  0.00000000000E+00 0. -1.
         11    1    3    3    0    0 -0.79123574599E+01  0.30351545751E+02 -0.14988533837E+02  0.34763168395E+02  0.51100000000E-03 0. -1.
        -11    1    3    3    0    0 -0.10440249539E+02  0.60011332727E+01  0.19435736324E+01  0.12197946127E+02  0.51100000000E-03 0.  1.
        -12    1    3    3    0    0  0.18842226789E+02 -0.36053427892E+02  0.14076234583E+02  0.43046713616E+02  0.00000000000E+00 0.  1.
</event>
<event>
 7    1  0.3707147E-015  0.9000765E+02  0.7816164E-02  0.1186339E+00
        -11   -1    0    0    0    0  0.00000000000E+00  0.00000000000E+00  0.45593999997E+02  0.45594000000E+02  0.51100000000E-03 0. -1.
         11   -1    0    0    0    0 -0.00000000000E+00 -0.00000000000E+00 -0.45593999997E+02  0.45594000000E+02  0.51100000000E-03 0.  1.
    9900012    2    1    2    0    0  0.17588562899E+00  0.34617304538E-01 -0.11666623607E+01  0.90007646165E+02  0.89999906294E+02 0.  0.
         12    1    1    2    0    0 -0.17588562899E+00 -0.34617304538E-01  0.11666623607E+01  0.11803538351E+01  0.00000000000E+00 0. -1.
         11    1    3    3    0    0 -0.56607884013E+01 -0.27917865066E+02  0.21167931867E+02  0.35489900746E+02  0.51100000000E-03 0. -1.
        -11    1    3    3    0    0 -0.44302212227E+01 -0.44003959941E+01  0.71956114696E+01  0.95271805729E+01  0.51100000000E-03 0.  1.
        -12    1    3    3    0    0  0.10266895253E+02  0.32352878365E+02 -0.29530205698E+02  0.44990564846E+02  0.00000000000E+00 0.  1.
</event>
<event>
 7    1  0.3707147E-015  0.9000773E+02  0.7816164E-02  0.1186339E+00
        -11   -1    0    0    0    0  0.00000000000E+00  0.00000000000E+00  0.45593999997E+02  0.45594000000E+02  0.51100000000E-03 0.  1.
         11   -1    0    0    0    0 -0.00000000000E+00 -0.00000000000E+00 -0.45593999997E+02  0.45594000000E+02  0.51100000000E-03 0. -1.
    9900012    2    1    2    0    0  0.80432431034E+00  0.54065185085E+00  0.67363824759E+00  0.90007732866E+02  0.89999994139E+02 0.  0.
         12    1    1    2    0    0 -0.80432431034E+00 -0.54065185085E+00 -0.67363824759E+00  0.11802671344E+01  0.00000000000E+00 0. -1.
         11    1    3    3    0    0 -0.31709102313E+02 -0.10890303266E+02  0.11816892086E+02  0.35548626043E+02  0.51100000000E-03 0. -1.
        -11    1    3    3    0    0 -0.80623550756E+01  0.57984225647E+00  0.49516345091E+01  0.94792653186E+01  0.51100000000E-03 0.  1.
        -12    1    3    3    0    0  0.40575781699E+02  0.10851112861E+02 -0.16094888348E+02  0.44979841504E+02  0.00000000000E+00 0.  1.
</event>
<event>
 7    1  0.3707147E-015  0.9000837E+02  0.7816164E-02  0.1186338E+00
        -11   -1    0    0    0    0  0.00000000000E+00  0.00000000000E+00  0.45593999997E+02  0.45594000000E+02  0.51100000000E-03 0. -1.
         11   -1    0    0    0    0 -0.00000000000E+00 -0.00000000000E+00 -0.45593999997E+02  0.45594000000E+02  0.51100000000E-03 0.  1.
    9900012    2    1    2    0    0 -0.12270093181E+00  0.78662522533E+00 -0.87045668902E+00  0.90008368866E+02  0.90000638533E+02 0.  0.
         12    1    1    2    0    0  0.12270093181E+00 -0.78662522533E+00  0.87045668902E+00  0.11796311336E+01  0.00000000000E+00 0. -1.
         11    1    3    3    0    0 -0.12352603746E+02 -0.19186639897E+02  0.27227089134E+02  0.35525038393E+02  0.51100000000E-03 0. -1.
        -11    1    3    3    0    0  0.55140965111E+00 -0.10950909962E+02  0.20450589716E+00  0.10966690682E+02  0.51100000000E-03 0.  1.
        -12    1    3    3    0    0  0.11678493163E+02  0.30924175084E+02 -0.28302051720E+02  0.43516639792E+02  0.00000000000E+00 0.  1.
</event>
<event>
 7    1  0.3707147E-015  0.9000772E+02  0.7816164E-02  0.1186339E+00
        -11   -1    0    0    0    0  0.00000000000E+00  0.00000000000E+00  0.45593999997E+02  0.45594000000E+02  0.51100000000E-03 0. -1.
         11   -1    0    0    0    0 -0.00000000000E+00 -0.00000000000E+00 -0.45593999997E+02  0.45594000000E+02  0.51100000000E-03 0.  1.
    9900012    2    1    2    0    0  0.34089873635E+00 -0.11241232134E+01 -0.11484620037E+00  0.90007722661E+02  0.89999983800E+02 0.  0.
         12    1    1    2    0    0 -0.34089873635E+00  0.11241232134E+01  0.11484620037E+00  0.11802773390E+01  0.00000000000E+00 0. -1.
         11    1    3    3    0    0 -0.50523592092E+01  0.89244344711E+01 -0.17965778579E+01  0.10411510768E+02  0.51100000000E-03 0. -1.
        -11    1    3    3    0    0 -0.25249432219E+01  0.21276091587E+02 -0.28315567708E+02  0.35508010172E+02  0.51100000000E-03 0.  1.
         12    1    3    3    0    0  0.79182011675E+01 -0.31324649272E+02  0.29997299366E+02  0.44088201721E+02  0.00000000000E+00 0. -1.
</event>
<event>
 7    1  0.3707147E-015  0.9000783E+02  0.7816164E-02  0.1186339E+00
        -11   -1    0    0    0    0  0.00000000000E+00  0.00000000000E+00  0.45593999997E+02  0.45594000000E+02  0.51100000000E-03 0.  1.
         11   -1    0    0    0    0 -0.00000000000E+00 -0.00000000000E+00 -0.45593999997E+02  0.45594000000E+02  0.51100000000E-03 0. -1.
    9900012    2    1    2    0    0 -0.17482223454E+00  0.18730635602E+00  0.11520193409E+01  0.90007832619E+02  0.90000095210E+02 0.  0.
         12    1    1    2    0    0  0.17482223454E+00 -0.18730635602E+00 -0.11520193409E+01  0.11801673807E+01  0.00000000000E+00 0. -1.
         11    1    3    3    0    0 -0.33104456736E+02  0.18849437980E+02 -0.66253257962E+01  0.38666539930E+02  0.51100000000E-03 0. -1.
        -11    1    3    3    0    0 -0.53906865156E+01 -0.28146862866E+01  0.77782706996E+01  0.98733710220E+01  0.51100000000E-03 0.  1.
        -12    1    3    3    0    0  0.38320321017E+02 -0.15847445338E+02 -0.92556252894E-03  0.41467921668E+02  0.00000000000E+00 0.  1.
</event>
<event>
 7    1  0.3707147E-015  0.9000773E+02  0.7816164E-02  0.1186339E+00
        -11   -1    0    0    0    0  0.00000000000E+00  0.00000000000E+00  0.45593999997E+02  0.45594000000E+02  0.51100000000E-03 0.  1.
         11   -1    0    0    0    0 -0.00000000000E+00 -0.00000000000E+00 -0.45593999997E+02  0.45594000000E+02  0.51100000000E-03 0. -1.
    9900012    2    1    2    0    0 -0.41050540165E+00 -0.68042642191E+00 -0.87266037163E+00  0.90007732689E+02  0.89999993961E+02 0.  0.
         12    1    1    2    0    0  0.41050540165E+00  0.68042642191E+00  0.87266037163E+00  0.11802673107E+01  0.00000000000E+00 0. -1.
         11    1    3    3    0    0  0.25075701025E+02  0.83698925915E+01 -0.27568630693E+02  0.38195225911E+02  0.51100000000E-03 0. -1.
        -11    1    3    3    0    0  0.81683649689E+01  0.29351241698E+01  0.53470799655E+01  0.10194528168E+02  0.51100000000E-03 0.  1.
        -12    1    3    3    0    0 -0.33654571396E+02 -0.11985443183E+02  0.21348890356E+02  0.41617978610E+02  0.00000000000E+00 0.  1.
</event>
<event>
 7    1  0.3707147E-015  0.9000772E+02  0.7816164E-02  0.1186339E+00
        -11   -1    0    0    0    0  0.00000000000E+00  0.00000000000E+00  0.45593999997E+02  0.45594000000E+02  0.51100000000E-03 0.  1.
         11   -1    0    0    0    0 -0.00000000000E+00 -0.00000000000E+00 -0.45593999997E+02  0.45594000000E+02  0.51100000000E-03 0. -1.
    9900012    2    1    2    0    0 -0.70520642872E+00  0.85394548200E+00 -0.40807950646E+00  0.90007717035E+02  0.89999978100E+02 0.  0.
         12    1    1    2    0    0  0.70520642872E+00 -0.85394548200E+00  0.40807950646E+00  0.11802829648E+01  0.00000000000E+00 0. -1.
         11    1    3    3    0    0 -0.36990989637E+01 -0.54700813088E+01  0.13394214484E+02  0.14933522845E+02  0.51100000000E-03 0. -1.
        -11    1    3    3    0    0 -0.28597694995E+02  0.51628379874E+00  0.14675018440E+02  0.32147330752E+02  0.51100000000E-03 0.  1.
         12    1    3    3    0    0  0.31591587530E+02  0.58077429921E+01 -0.28477312430E+02  0.42926863438E+02  0.00000000000E+00 0. -1.
</event>
<event>
 7    1  0.3707147E-015  0.9000778E+02  0.7816164E-02  0.1186339E+00
        -11   -1    0    0    0    0  0.00000000000E+00  0.00000000000E+00  0.45593999997E+02  0.45594000000E+02  0.51100000000E-03 0.  1.
         11   -1    0    0    0    0 -0.00000000000E+00 -0.00000000000E+00 -0.45593999997E+02  0.45594000000E+02  0.51100000000E-03 0. -1.
    9900012    2    1    2    0    0  0.36327903117E+00 -0.48105233748E+00  0.10146593939E+01  0.90007781083E+02  0.90000042994E+02 0.  0.
         12    1    1    2    0    0 -0.36327903117E+00  0.48105233748E+00 -0.10146593939E+01  0.11802189167E+01  0.00000000000E+00 0. -1.
         11    1    3    3    0    0 -0.21192841336E+02  0.19621659478E+01 -0.10382626089E+01  0.21308791815E+02  0.51100000000E-03 0. -1.
        -11    1    3    3    0    0 -0.22468436305E+00  0.29753878093E+02  0.20704652954E+01  0.29826675500E+02  0.51100000000E-03 0.  1.
         12    1    3    3    0    0  0.21780804731E+02 -0.32197096378E+02 -0.17543292590E-01  0.38872313768E+02  0.00000000000E+00 0. -1.
</event>
<event>
 7    1  0.3707147E-015  0.9000746E+02  0.7816164E-02  0.1186340E+00
        -11   -1    0    0    0    0  0.00000000000E+00  0.00000000000E+00  0.45593999997E+02  0.45594000000E+02  0.51100000000E-03 0. -1.
         11   -1    0    0    0    0 -0.00000000000E+00 -0.00000000000E+00 -0.45593999997E+02  0.45594000000E+02  0.51100000000E-03 0.  1.
    9900012    2    1    2    0    0  0.73567893362E-02  0.11022215928E+01 -0.42275637404E+00  0.90007462193E+02  0.89999719894E+02 0.  0.
         12    1    1    2    0    0 -0.73567893362E-02 -0.11022215928E+01  0.42275637404E+00  0.11805378070E+01  0.00000000000E+00 0. -1.
         11    1    3    3    0    0 -0.56586930236E+01 -0.15245265499E+01 -0.86272237620E+01  0.10429476403E+02  0.51100000000E-03 0. -1.
        -11    1    3    3    0    0  0.88519614019E+01 -0.10842258681E+02 -0.33142003606E+02  0.35976439474E+02  0.51100000000E-03 0.  1.
         12    1    3    3    0    0 -0.31859115889E+01  0.13469006823E+02  0.41346470994E+02  0.43601546316E+02  0.00000000000E+00 0. -1.
</event>
<event>
 7    1  0.3707147E-015  0.9000775E+02  0.7816164E-02  0.1186339E+00
        -11   -1    0    0    0    0  0.00000000000E+00  0.00000000000E+00  0.45593999997E+02  0.45594000000E+02  0.51100000000E-03 0.  1.
         11   -1    0    0    0    0 -0.00000000000E+00 -0.00000000000E+00 -0.45593999997E+02  0.45594000000E+02  0.51100000000E-03 0. -1.
    9900012    2    1    2    0    0  0.97733062792E+00 -0.59877735664E+00 -0.28156560344E+00  0.90007750591E+02  0.90000012099E+02 0.  0.
         12    1    1    2    0    0 -0.97733062792E+00  0.59877735664E+00  0.28156560344E+00  0.11802494093E+01  0.00000000000E+00 0. -1.
         11    1    3    3    0    0  0.71828213289E+01 -0.36639751626E+01 -0.14434214603E+02  0.16533728790E+02  0.51100000000E-03 0. -1.
        -11    1    3    3    0    0 -0.33219086466E+02  0.20944420298E+02  0.37449244947E+01  0.39448712362E+02  0.51100000000E-03 0.  1.
         12    1    3    3    0    0  0.27013595765E+02 -0.17879222492E+02  0.10407724504E+02  0.34025309439E+02  0.00000000000E+00 0. -1.
</event>
<event>
 7    1  0.3707147E-015  0.9000779E+02  0.7816164E-02  0.1186339E+00
        -11   -1    0    0    0    0  0.00000000000E+00  0.00000000000E+00  0.45593999997E+02  0.45594000000E+02  0.51100000000E-03 0.  1.
         11   -1    0    0    0    0 -0.00000000000E+00 -0.00000000000E+00 -0.45593999997E+02  0.45594000000E+02  0.51100000000E-03 0. -1.
    9900012    2    1    2    0    0 -0.18863030195E+00  0.11057880624E+01  0.36681808970E+00  0.90007786400E+02  0.90000048381E+02 0.  0.
         12    1    1    2    0    0  0.18863030195E+00 -0.11057880624E+01 -0.36681808970E+00  0.11802135996E+01  0.00000000000E+00 0. -1.
         11    1    3    3    0    0  0.12052679130E+01  0.18799109981E+02  0.72612479853E+01  0.20188732733E+02  0.51100000000E-03 0. -1.
        -11    1    3    3    0    0 -0.25791496618E+02  0.13267108975E+02 -0.89329227098E+01  0.30348222135E+02  0.51100000000E-03 0.  1.
         12    1    3    3    0    0  0.24397598403E+02 -0.30960430893E+02  0.20384928142E+01  0.39470831533E+02  0.00000000000E+00 0. -1.
</event>
<event>
 7    1  0.3707147E-015  0.9000773E+02  0.7816164E-02  0.1186339E+00
        -11   -1    0    0    0    0  0.00000000000E+00  0.00000000000E+00  0.45593999997E+02  0.45594000000E+02  0.51100000000E-03 0.  1.
         11   -1    0    0    0    0 -0.00000000000E+00 -0.00000000000E+00 -0.45593999997E+02  0.45594000000E+02  0.51100000000E-03 0. -1.
    9900012    2    1    2    0    0 -0.22212556673E+00 -0.35012781920E+00  0.11050338357E+01  0.90007733490E+02  0.89999994772E+02 0.  0.
         12    1    1    2    0    0  0.22212556673E+00  0.35012781920E+00 -0.11050338357E+01  0.11802665102E+01  0.00000000000E+00 0. -1.
         11    1    3    3    0    0  0.32324219836E+01 -0.82763817779E+01 -0.72330078752E+01  0.11457026246E+02  0.51100000000E-03 0. -1.
        -11    1    3    3    0    0 -0.33183681827E+02  0.24539303934E+02 -0.57992104562E+01  0.41676912306E+02  0.51100000000E-03 0.  1.
         12    1    3    3    0    0  0.29729134277E+02 -0.16613049975E+02  0.14137252167E+02  0.36873794938E+02  0.00000000000E+00 0. -1.
</event>
<event>
 7    1  0.3707147E-015  0.9000790E+02  0.7816164E-02  0.1186339E+00
        -11   -1    0    0    0    0  0.00000000000E+00  0.00000000000E+00  0.45593999997E+02  0.45594000000E+02  0.51100000000E-03 0. -1.
         11   -1    0    0    0    0 -0.00000000000E+00 -0.00000000000E+00 -0.45593999997E+02  0.45594000000E+02  0.51100000000E-03 0.  1.
    9900012    2    1    2    0    0  0.81523825239E+00 -0.39972702114E-02 -0.85323450018E+00  0.90007898946E+02  0.90000162412E+02 0.  0.
         12    1    1    2    0    0 -0.81523825239E+00  0.39972702114E-02  0.85323450018E+00  0.11801010544E+01  0.00000000000E+00 0. -1.
         11    1    3    3    0    0 -0.37069061528E+01 -0.16185333228E+01 -0.14393646569E+02  0.14951182734E+02  0.51100000000E-03 0. -1.
        -11    1    3    3    0    0  0.13609949263E+02  0.17279248873E+02 -0.24500290301E+02  0.32925178598E+02  0.51100000000E-03 0.  1.
         12    1    3    3    0    0 -0.90878048580E+01 -0.15664712821E+02  0.38040702370E+02  0.42131537614E+02  0.00000000000E+00 0. -1.
</event>
<event>
 7    1  0.3707147E-015  0.9000775E+02  0.7816164E-02  0.1186339E+00
        -11   -1    0    0    0    0  0.00000000000E+00  0.00000000000E+00  0.45593999997E+02  0.45594000000E+02  0.51100000000E-03 0. -1.
         11   -1    0    0    0    0 -0.00000000000E+00 -0.00000000000E+00 -0.45593999997E+02  0.45594000000E+02  0.51100000000E-03 0.  1.
    9900012    2    1    2    0    0 -0.21057053558E+00  0.64780990594E+00 -0.96384342714E+00  0.90007749274E+02  0.90000010764E+02 0.  0.
         12    1    1    2    0    0  0.21057053558E+00 -0.64780990594E+00  0.96384342714E+00  0.11802507262E+01  0.00000000000E+00 0. -1.
         11    1    3    3    0    0  0.68572897536E+01  0.22662728714E+00 -0.13840560610E+01  0.69992423971E+01  0.51100000000E-03 0. -1.
        -11    1    3    3    0    0  0.28991415637E+02  0.12929991579E+02 -0.22112193088E+02  0.38686379338E+02  0.51100000000E-03 0.  1.
         12    1    3    3    0    0 -0.36059275926E+02 -0.12508808960E+02  0.22532405722E+02  0.44322127539E+02  0.00000000000E+00 0. -1.
</event>
<event>
 7    1  0.3707147E-015  0.9000773E+02  0.7816164E-02  0.1186339E+00
        -11   -1    0    0    0    0  0.00000000000E+00  0.00000000000E+00  0.45593999997E+02  0.45594000000E+02  0.51100000000E-03 0.  1.
         11   -1    0    0    0    0 -0.00000000000E+00 -0.00000000000E+00 -0.45593999997E+02  0.45594000000E+02  0.51100000000E-03 0. -1.
    9900012    2    1    2    0    0 -0.10765769452E+01 -0.33357398797E+00  0.35035982397E+00  0.90007728196E+02  0.89999989408E+02 0.  0.
         12    1    1    2    0    0  0.10765769452E+01  0.33357398797E+00 -0.35035982397E+00  0.11802718037E+01  0.00000000000E+00 0. -1.
         11    1    3    3    0    0  0.96804154838E+00  0.88174117908E+01  0.40473112572E+01  0.97501068611E+01  0.51100000000E-03 0. -1.
        -11    1    3    3    0    0  0.11856000664E+02  0.24910698256E+02  0.22080685758E+02  0.35336444687E+02  0.51100000000E-03 0.  1.
         12    1    3    3    0    0 -0.13900619157E+02 -0.34061684035E+02 -0.25777637191E+02  0.44921176648E+02  0.00000000000E+00 0. -1.
</event>
<event>
 7    1  0.3707147E-015  0.9000774E+02  0.7816164E-02  0.1186339E+00
        -11   -1    0    0    0    0  0.00000000000E+00  0.00000000000E+00  0.45593999997E+02  0.45594000000E+02  0.51100000000E-03 0. -1.
         11   -1    0    0    0    0 -0.00000000000E+00 -0.00000000000E+00 -0.45593999997E+02  0.45594000000E+02  0.51100000000E-03 0.  1.
    9900012    2    1    2    0    0  0.47607526196E+00 -0.26230961327E+00 -0.10476483363E+01  0.90007736883E+02  0.89999998210E+02 0.  0.
         12    1    1    2    0    0 -0.47607526196E+00  0.26230961327E+00  0.10476483363E+01  0.11802631168E+01  0.00000000000E+00 0. -1.
         11    1    3    3    0    0  0.15848062323E+02  0.39945608079E+02  0.26840138928E+01  0.43058293220E+02  0.51100000000E-03 0. -1.
        -11    1    3    3    0    0 -0.63706688582E+01 -0.35762473590E+01  0.41660286120E+01  0.84101582346E+01  0.51100000000E-03 0.  1.
        -12    1    3    3    0    0 -0.90013182025E+01 -0.36631670333E+02 -0.78976908411E+01  0.38539285429E+02  0.00000000000E+00 0.  1.
</event>
<event>
 7    1  0.3707147E-015  0.9000754E+02  0.7816164E-02  0.1186339E+00
        -11   -1    0    0    0    0  0.00000000000E+00  0.00000000000E+00  0.45593999997E+02  0.45594000000E+02  0.51100000000E-03 0. -1.
         11   -1    0    0    0    0 -0.00000000000E+00 -0.00000000000E+00 -0.45593999997E+02  0.45594000000E+02  0.51100000000E-03 0.  1.
    9900012    2    1    2    0    0  0.92313131577E+00  0.72751251932E+00 -0.10968508028E+00  0.90007543856E+02  0.89999802634E+02 0.  0.
         12    1    1    2    0    0 -0.92313131577E+00 -0.72751251932E+00  0.10968508028E+00  0.11804561444E+01  0.00000000000E+00 0. -1.
         11    1    3    3    0    0 -0.14687929743E+01 -0.59494142696E+01 -0.60719074025E+01  0.86267573699E+01  0.51100000000E-03 0. -1.
        -11    1    3    3    0    0  0.29168099621E+02  0.15696644794E+02 -0.23459208387E+02  0.40589372399E+02  0.51100000000E-03 0.  1.
         12    1    3    3    0    0 -0.26776175331E+02 -0.90197180051E+01  0.29421430710E+02  0.40791414087E+02  0.00000000000E+00 0. -1.
</event>
<event>
 7    1  0.4995114E-015  0.9000763E+02  0.7816164E-02  0.1186339E+00
        -11   -1    0    0    0    0  0.00000000000E+00  0.00000000000E+00  0.45593999997E+02  0.45594000000E+02  0.51100000000E-03 0.  1.
         11   -1    0    0    0    0 -0.00000000000E+00 -0.00000000000E+00 -0.45593999997E+02  0.45594000000E+02  0.51100000000E-03 0. -1.
    9900012    2    1    2    0    0 -0.92946427559E+00  0.31128488956E-01  0.72691020395E+00  0.90007630877E+02  0.89999890804E+02 0.  0.
         12    1    1    2    0    0  0.92946427559E+00 -0.31128488956E-01 -0.72691020395E+00  0.11803691232E+01  0.00000000000E+00 0. -1.
         11    1    3    3    0    0 -0.70644659188E+01 -0.36212663716E+01  0.45469237790E+01  0.91484842988E+01  0.51100000000E-03 0. -1.
        -11    1    3    3    0    0 -0.24768137039E+01  0.92511549622E+01  0.37282334576E+02  0.38492738873E+02  0.51100000000E-03 0.  1.
         12    1    3    3    0    0  0.86118153471E+01 -0.55987601016E+01 -0.41102348151E+02  0.42366407705E+02  0.00000000000E+00 0. -1.
</event>
<event>
 7    1  0.3707147E-015  0.9000767E+02  0.7816164E-02  0.1186339E+00
        -11   -1    0    0    0    0  0.00000000000E+00  0.00000000000E+00  0.45593999997E+02  0.45594000000E+02  0.51100000000E-03 0. -1.
         11   -1    0    0    0    0 -0.00000000000E+00 -0.00000000000E+00 -0.45593999997E+02  0.45594000000E+02  0.51100000000E-03 0.  1.
    9900012    2    1    2    0    0 -0.25203979955E-02 -0.11417690740E+01  0.29921734692E+00  0.90007672083E+02  0.89999932555E+02 0.  0.
         12    1    1    2    0    0  0.25203979955E-02  0.11417690740E+01 -0.29921734692E+00  0.11803279169E+01  0.00000000000E+00 0. -1.
         11    1    3    3    0    0  0.74586429347E+01 -0.45731773994E+01 -0.92988329908E+00  0.87982946737E+01  0.51100000000E-03 0. -1.
        -11    1    3    3    0    0  0.23119493230E+02  0.18120238574E+02 -0.24804453110E+02  0.38446259994E+02  0.51100000000E-03 0.  1.
         12    1    3    3    0    0 -0.30580656563E+02 -0.14688830249E+02  0.26033553756E+02  0.42763117415E+02  0.00000000000E+00 0. -1.
</event>
<event>
 7    1  0.3707147E-015  0.9000776E+02  0.7816164E-02  0.1186339E+00
        -11   -1    0    0    0    0  0.00000000000E+00  0.00000000000E+00  0.45593999997E+02  0.45594000000E+02  0.51100000000E-03 0. -1.
         11   -1    0    0    0    0 -0.00000000000E+00 -0.00000000000E+00 -0.45593999997E+02  0.45594000000E+02  0.51100000000E-03 0.  1.
    9900012    2    1    2    0    0  0.13079286556E+00 -0.54719703528E+00 -0.10375178901E+01  0.90007756491E+02  0.90000018076E+02 0.  0.
         12    1    1    2    0    0 -0.13079286556E+00  0.54719703528E+00  0.10375178901E+01  0.11802435094E+01  0.00000000000E+00 0. -1.
         11    1    3    3    0    0 -0.88219452018E+01 -0.26190766517E+02  0.27898035891E+02  0.39269369421E+02  0.51100000000E-03 0. -1.
        -11    1    3    3    0    0  0.41167158535E+01  0.57785493366E+01  0.66328625545E+01  0.97125613399E+01  0.51100000000E-03 0.  1.
        -12    1    3    3    0    0  0.48360222139E+01  0.19865020145E+02 -0.35568416335E+02  0.41025825730E+02  0.00000000000E+00 0.  1.
</event>
<event>
 7    1  0.3869269E-015  0.9000751E+02  0.7816164E-02  0.1186339E+00
        -11   -1    0    0    0    0  0.00000000000E+00  0.00000000000E+00  0.45593999997E+02  0.45594000000E+02  0.51100000000E-03 0.  1.
         11   -1    0    0    0    0 -0.00000000000E+00 -0.00000000000E+00 -0.45593999997E+02  0.45594000000E+02  0.51100000000E-03 0. -1.
    9900012    2    1    2    0    0 -0.78211051857E+00 -0.81045973576E+00  0.35356716202E+00  0.90007512141E+02  0.89999770501E+02 0.  0.
         12    1    1    2    0    0  0.78211051857E+00  0.81045973576E+00 -0.35356716202E+00  0.11804878587E+01  0.00000000000E+00 0. -1.
         11    1    3    3    0    0 -0.41203679070E+01 -0.42297359843E+01 -0.73476566349E+01  0.94263543574E+01  0.51100000000E-03 0. -1.
        -11    1    3    3    0    0 -0.47755749551E+01  0.40406956036E+02 -0.41587361286E+01  0.40900162575E+02  0.51100000000E-03 0.  1.
         12    1    3    3    0    0  0.81138323436E+01 -0.36987679787E+02  0.11859959925E+02  0.39680995209E+02  0.00000000000E+00 0. -1.
</event>
<event>
 7    1  0.3707147E-015  0.9000783E+02  0.7816164E-02  0.1186339E+00
        -11   -1    0    0    0    0  0.00000000000E+00  0.00000000000E+00  0.45593999997E+02  0.45594000000E+02  0.51100000000E-03 0.  1.
         11   -1    0    0    0    0 -0.00000000000E+00 -0.00000000000E+00 -0.45593999997E+02  0.45594000000E+02  0.51100000000E-03 0. -1.
    9900012    2    1    2    0    0  0.90792540364E+00  0.10179663861E+00  0.74707513990E+00  0.90007825285E+02  0.90000087778E+02 0.  0.
         12    1    1    2    0    0 -0.90792540364E+00 -0.10179663861E+00 -0.74707513990E+00  0.11801747154E+01  0.00000000000E+00 0. -1.
         11    1    3    3    0    0  0.50925141800E+01  0.48870344739E+01 -0.60661599454E+01  0.93067235570E+01  0.51100000000E-03 0. -1.
        -11    1    3    3    0    0  0.47351304278E+01  0.33021706304E+02  0.20917277672E+02  0.39374954640E+02  0.51100000000E-03 0.  1.
         12    1    3    3    0    0 -0.89197192041E+01 -0.37806944140E+02 -0.14104042586E+02  0.41326147088E+02  0.00000000000E+00 0. -1.
</event>
<event>
 7    1  0.3707147E-015  0.9000769E+02  0.7816164E-02  0.1186339E+00
        -11   -1    0    0    0    0  0.00000000000E+00  0.00000000000E+00  0.45593999997E+02  0.45594000000E+02  0.51100000000E-03 0.  1.
         11   -1    0    0    0    0 -0.00000000000E+00 -0.00000000000E+00 -0.45593999997E+02  0.45594000000E+02  0.51100000000E-03 0. -1.
    9900012    2    1    2    0    0  0.75125112273E-01 -0.11478037055E+01  0.26463933627E+00  0.90007690249E+02  0.89999950961E+02 0.  0.
         12    1    1    2    0    0 -0.75125112273E-01  0.11478037055E+01 -0.26463933627E+00  0.11803097505E+01  0.00000000000E+00 0. -1.
         11    1    3    3    0    0 -0.79340674235E+01 -0.32166728124E+01 -0.22632020770E+01  0.88554217158E+01  0.51100000000E-03 0. -1.
        -11    1    3    3    0    0 -0.12551342258E+02 -0.33539317315E+02  0.14021692389E+02  0.38458157212E+02  0.51100000000E-03 0.  1.
         12    1    3    3    0    0  0.20560534794E+02  0.35608186422E+02 -0.11493850975E+02  0.42694111321E+02  0.00000000000E+00 0. -1.
</event>
<event>
 7    1  0.3707147E-015  0.9000776E+02  0.7816164E-02  0.1186339E+00
        -11   -1    0    0    0    0  0.00000000000E+00  0.00000000000E+00  0.45593999997E+02  0.45594000000E+02  0.51100000000E-03 0. -1.
         11   -1    0    0    0    0 -0.00000000000E+00 -0.00000000000E+00 -0.45593999997E+02  0.45594000000E+02  0.51100000000E-03 0.  1.
    9900012    2    1    2    0    0  0.10083336048E+01 -0.61085358488E+00 -0.55581683147E-01  0.90007759311E+02  0.90000020934E+02 0.  0.
         12    1    1    2    0    0 -0.10083336048E+01  0.61085358488E+00  0.55581683147E-01  0.11802406891E+01  0.00000000000E+00 0. -1.
         11    1    3    3    0    0  0.25183085773E+02 -0.31002448251E+01  0.24719720551E+02  0.35424058370E+02  0.51100000000E-03 0. -1.
        -11    1    3    3    0    0  0.10247411467E+02  0.60691233101E+01  0.18931822531E+00  0.11911319876E+02  0.51100000000E-03 0.  1.
        -12    1    3    3    0    0 -0.34422163636E+02 -0.35797320699E+01 -0.24964620460E+02  0.42672381065E+02  0.00000000000E+00 0.  1.
</event>
<event>
 7    1  0.3707147E-015  0.9000779E+02  0.7816164E-02  0.1186339E+00
        -11   -1    0    0    0    0  0.00000000000E+00  0.00000000000E+00  0.45593999997E+02  0.45594000000E+02  0.51100000000E-03 0.  1.
         11   -1    0    0    0    0 -0.00000000000E+00 -0.00000000000E+00 -0.45593999997E+02  0.45594000000E+02  0.51100000000E-03 0. -1.
    9900012    2    1    2    0    0 -0.83672096357E+00  0.41214024583E+00  0.72313841402E+00  0.90007792087E+02  0.90000054142E+02 0.  0.
         12    1    1    2    0    0  0.83672096357E+00 -0.41214024583E+00 -0.72313841402E+00  0.11802079134E+01  0.00000000000E+00 0. -1.
         11    1    3    3    0    0 -0.74255694165E+01  0.16853190238E+01 -0.70565657949E+01  0.10381449920E+02  0.51100000000E-03 0. -1.
        -11    1    3    3    0    0  0.24284172995E+02  0.38530394482E+01  0.37391481576E+02  0.44751423058E+02  0.51100000000E-03 0.  1.
         12    1    3    3    0    0 -0.17695324542E+02 -0.51262182262E+01 -0.29611777367E+02  0.34874919108E+02  0.00000000000E+00 0. -1.
</event>
<event>
 7    1  0.3707147E-015  0.9000773E+02  0.7816164E-02  0.1186339E+00
        -11   -1    0    0    0    0  0.00000000000E+00  0.00000000000E+00  0.45593999997E+02  0.45594000000E+02  0.51100000000E-03 0. -1.
         11   -1    0    0    0    0 -0.00000000000E+00 -0.00000000000E+00 -0.45593999997E+02  0.45594000000E+02  0.51100000000E-03 0.  1.
    9900012    2    1    2    0    0  0.15177631220E+00  0.26366195729E+00 -0.11403891567E+01  0.90007728376E+02  0.89999989591E+02 0.  0.
         12    1    1    2    0    0 -0.15177631220E+00 -0.26366195729E+00  0.11403891567E+01  0.11802716236E+01  0.00000000000E+00 0. -1.
         11    1    3    3    0    0 -0.19284843718E+01  0.39873921947E+02  0.18890405083E+02  0.44164421290E+02  0.51100000000E-03 0. -1.
        -11    1    3    3    0    0  0.40217320190E+01 -0.10726141672E+02 -0.17059743165E+01  0.11581657577E+02  0.51100000000E-03 0.  1.
        -12    1    3    3    0    0 -0.19414713350E+01 -0.28884118318E+02 -0.18324819923E+02  0.34261649510E+02  0.00000000000E+00 0.  1.
</event>
<event>
 7    1  0.3707147E-015  0.9000778E+02  0.7816164E-02  0.1186339E+00
        -11   -1    0    0    0    0  0.00000000000E+00  0.00000000000E+00  0.45593999997E+02  0.45594000000E+02  0.51100000000E-03 0.  1.
         11   -1    0    0    0    0 -0.00000000000E+00 -0.00000000000E+00 -0.45593999997E+02  0.45594000000E+02  0.51100000000E-03 0. -1.
    9900012    2    1    2    0    0  0.86999457032E-01  0.24860163206E+00  0.11504534135E+01  0.90007781913E+02  0.90000043834E+02 0.  0.
         12    1    1    2    0    0 -0.86999457032E-01 -0.24860163206E+00 -0.11504534135E+01  0.11802180874E+01  0.00000000000E+00 0. -1.
         11    1    3    3    0    0  0.37468498457E+01  0.16062657319E+01 -0.47594324846E+01  0.62666714613E+01  0.51100000000E-03 0. -1.
        -11    1    3    3    0    0  0.10497927206E+01 -0.28062292892E+02  0.34401627243E+02  0.44407953166E+02  0.51100000000E-03 0.  1.
         12    1    3    3    0    0 -0.47096431093E+01  0.26704628792E+02 -0.28491741345E+02  0.39333157285E+02  0.00000000000E+00 0. -1.
</event>
<event>
 7    1  0.3707147E-015  0.9000778E+02  0.7816164E-02  0.1186339E+00
        -11   -1    0    0    0    0  0.00000000000E+00  0.00000000000E+00  0.45593999997E+02  0.45594000000E+02  0.51100000000E-03 0.  1.
         11   -1    0    0    0    0 -0.00000000000E+00 -0.00000000000E+00 -0.45593999997E+02  0.45594000000E+02  0.51100000000E-03 0. -1.
    9900012    2    1    2    0    0  0.11573222259E+01  0.23123290272E+00  0.76587977660E-02  0.90007778814E+02  0.90000040695E+02 0.  0.
         12    1    1    2    0    0 -0.11573222259E+01 -0.23123290272E+00 -0.76587977660E-02  0.11802211857E+01  0.00000000000E+00 0. -1.
         11    1    3    3    0    0  0.11060146635E+01  0.57719949938E+01  0.73438013621E+01  0.94058818487E+01  0.51100000000E-03 0. -1.
        -11    1    3    3    0    0 -0.18056729252E+01 -0.39820684720E+01  0.36468771833E+02  0.36729942054E+02  0.51100000000E-03 0.  1.
         12    1    3    3    0    0  0.18569804877E+01 -0.15586936191E+01 -0.43804914398E+02  0.43871954911E+02  0.00000000000E+00 0. -1.
</event>
<event>
 7    1  0.3707147E-015  0.9000772E+02  0.7816164E-02  0.1186339E+00
        -11   -1    0    0    0    0  0.00000000000E+00  0.00000000000E+00  0.45593999997E+02  0.45594000000E+02  0.51100000000E-03 0.  1.
         11   -1    0    0    0    0 -0.00000000000E+00 -0.00000000000E+00 -0.45593999997E+02  0.45594000000E+02  0.51100000000E-03 0. -1.
    9900012    2    1    2    0    0  0.30110705139E+00 -0.67394063058E+00  0.92098276872E+00  0.90007715843E+02  0.89999976893E+02 0.  0.
         12    1    1    2    0    0 -0.30110705139E+00  0.67394063058E+00 -0.92098276872E+00  0.11802841566E+01  0.00000000000E+00 0. -1.
         11    1    3    3    0    0 -0.38253425597E+02  0.42623195397E+01 -0.79853565955E+01  0.39309767972E+02  0.51100000000E-03 0. -1.
        -11    1    3    3    0    0 -0.34375377386E+01 -0.63046326024E+01  0.44499563570E+01  0.84479091967E+01  0.51100000000E-03 0.  1.
        -12    1    3    3    0    0  0.41992070387E+02  0.13683724320E+01  0.44563830072E+01  0.42250038675E+02  0.00000000000E+00 0.  1.
</event>
<event>
 7    1  0.3707147E-015  0.9000675E+02  0.7816164E-02  0.1186341E+00
        -11   -1    0    0    0    0  0.00000000000E+00  0.00000000000E+00  0.45593999997E+02  0.45594000000E+02  0.51100000000E-03 0.  1.
         11   -1    0    0    0    0 -0.00000000000E+00 -0.00000000000E+00 -0.45593999997E+02  0.45594000000E+02  0.51100000000E-03 0. -1.
    9900012    2    1    2    0    0  0.24655978901E+00  0.11501026402E+01  0.10869764599E+00  0.90006753628E+02  0.89999001971E+02 0.  0.
         12    1    1    2    0    0 -0.24655978901E+00 -0.11501026402E+01 -0.10869764599E+00  0.11812463718E+01  0.00000000000E+00 0. -1.
         11    1    3    3    0    0 -0.66660284076E+01 -0.20555959008E+01 -0.61253187048E+00  0.70026141399E+01  0.51100000000E-03 0. -1.
        -11    1    3    3    0    0  0.13962025473E+02  0.40207432395E+02  0.10997136277E+02  0.43960354658E+02  0.51100000000E-03 0.  1.
         12    1    3    3    0    0 -0.70494372768E+01 -0.37001733854E+02 -0.10275906760E+02  0.39043784830E+02  0.00000000000E+00 0. -1.
</event>
<event>
 7    1  0.3707147E-015  0.9000796E+02  0.7816164E-02  0.1186339E+00
        -11   -1    0    0    0    0  0.00000000000E+00  0.00000000000E+00  0.45593999997E+02  0.45594000000E+02  0.51100000000E-03 0. -1.
         11   -1    0    0    0    0 -0.00000000000E+00 -0.00000000000E+00 -0.45593999997E+02  0.45594000000E+02  0.51100000000E-03 0.  1.
    9900012    2    1    2    0    0  0.13163752635E+00  0.11724403805E+01 -0.23637487428E-01  0.90007956096E+02  0.90000220316E+02 0.  0.
         12    1    1    2    0    0 -0.13163752635E+00 -0.11724403805E+01  0.23637487428E-01  0.11800439039E+01  0.00000000000E+00 0. -1.
         11    1    3    3    0    0 -0.31643407355E+02  0.10765874184E+02 -0.78756277865E+01  0.34339988196E+02  0.51100000000E-03 0. -1.
        -11    1    3    3    0    0 -0.10573267523E+02  0.26936047797E+01  0.29419516539E+01  0.11300644788E+02  0.51100000000E-03 0.  1.
        -12    1    3    3    0    0  0.42348312405E+02 -0.12287038583E+02  0.49100386452E+01  0.44367323113E+02  0.00000000000E+00 0.  1.
</event>
<event>
 7    1  0.3707147E-015  0.9000769E+02  0.7816164E-02  0.1186339E+00
        -11   -1    0    0    0    0  0.00000000000E+00  0.00000000000E+00  0.45593999997E+02  0.45594000000E+02  0.51100000000E-03 0. -1.
         11   -1    0    0    0    0 -0.00000000000E+00 -0.00000000000E+00 -0.45593999997E+02  0.45594000000E+02  0.51100000000E-03 0.  1.
    9900012    2    1    2    0    0 -0.10775762873E+01  0.20179801475E+00 -0.43729629250E+00  0.90007694471E+02  0.89999955238E+02 0.  0.
         12    1    1    2    0    0  0.10775762873E+01 -0.20179801475E+00  0.43729629250E+00  0.11803055288E+01  0.00000000000E+00 0. -1.
         11    1    3    3    0    0  0.19231915574E+01 -0.58255127092E+01 -0.94851301588E+01  0.11296147949E+02  0.51100000000E-03 0. -1.
        -11    1    3    3    0    0  0.21098895883E+02 -0.76696531213E+01 -0.25789203536E+02  0.34191665735E+02  0.51100000000E-03 0.  1.
         12    1    3    3    0    0 -0.24099663728E+02  0.13696963845E+02  0.34837037402E+02  0.44519880787E+02  0.00000000000E+00 0. -1.
</event>
<event>
 7    1  0.3707147E-015  0.9000777E+02  0.7816164E-02  0.1186339E+00
        -11   -1    0    0    0    0  0.00000000000E+00  0.00000000000E+00  0.45593999997E+02  0.45594000000E+02  0.51100000000E-03 0.  1.
         11   -1    0    0    0    0 -0.00000000000E+00 -0.00000000000E+00 -0.45593999997E+02  0.45594000000E+02  0.51100000000E-03 0. -1.
    9900012    2    1    2    0    0 -0.59854838495E-01  0.11545089984E+01 -0.23763169775E+00  0.90007770170E+02  0.90000031936E+02 0.  0.
         12    1    1    2    0    0  0.59854838495E-01 -0.11545089984E+01  0.23763169775E+00  0.11802298305E+01  0.00000000000E+00 0. -1.
         11    1    3    3    0    0 -0.34397458559E+01 -0.78298014223E+01 -0.18868580781E+01  0.87577323283E+01  0.51100000000E-03 0. -1.
        -11    1    3    3    0    0 -0.12689980965E+02 -0.10355517329E+02  0.35491620166E+02  0.39088712672E+02  0.51100000000E-03 0.  1.
         12    1    3    3    0    0  0.16069871982E+02  0.19339827749E+02 -0.33842393786E+02  0.42161325170E+02  0.00000000000E+00 0. -1.
</event>
<event>
 7    1  0.3707147E-015  0.9000776E+02  0.7816164E-02  0.1186339E+00
        -11   -1    0    0    0    0  0.00000000000E+00  0.00000000000E+00  0.45593999997E+02  0.45594000000E+02  0.51100000000E-03 0.  1.
         11   -1    0    0    0    0 -0.00000000000E+00 -0.00000000000E+00 -0.45593999997E+02  0.45594000000E+02  0.51100000000E-03 0. -1.
    9900012    2    1    2    0    0  0.11102070169E+01 -0.11006098817E-01  0.40036537215E+00  0.90007757150E+02  0.90000018744E+02 0.  0.
         12    1    1    2    0    0 -0.11102070169E+01  0.11006098817E-01 -0.40036537215E+00  0.11802428504E+01  0.00000000000E+00 0. -1.
         11    1    3    3    0    0 -0.40340072200E+02  0.83823370651E+01 -0.52474413984E+00  0.41205101097E+02  0.51100000000E-03 0. -1.
        -11    1    3    3    0    0  0.30204190327E+01 -0.56179504646E+01  0.73597396106E+01  0.97390998533E+01  0.51100000000E-03 0.  1.
        -12    1    3    3    0    0  0.38429860184E+02 -0.27753926994E+01 -0.64346300986E+01  0.39063556199E+02  0.00000000000E+00 0.  1.
</event>
<event>
 7    1  0.3707147E-015  0.9000766E+02  0.7816164E-02  0.1186339E+00
        -11   -1    0    0    0    0  0.00000000000E+00  0.00000000000E+00  0.45593999997E+02  0.45594000000E+02  0.51100000000E-03 0. -1.
         11   -1    0    0    0    0 -0.00000000000E+00 -0.00000000000E+00 -0.45593999997E+02  0.45594000000E+02  0.51100000000E-03 0.  1.
    9900012    2    1    2    0    0 -0.93388232659E-01  0.78511103259E+00 -0.87640345038E+00  0.90007659497E+02  0.89999919802E+02 0.  0.
         12    1    1    2    0    0  0.93388232659E-01 -0.78511103259E+00  0.87640345038E+00  0.11803405031E+01  0.00000000000E+00 0. -1.
         11    1    3    3    0    0 -0.11516305664E+02 -0.13420783172E+02  0.14102526376E+02  0.22619106250E+02  0.51100000000E-03 0. -1.
        -11    1    3    3    0    0 -0.13864029797E+02 -0.46147051226E+01  0.17046693807E+02  0.22452095572E+02  0.51100000000E-03 0.  1.
         12    1    3    3    0    0  0.25286947228E+02  0.18820599328E+02 -0.32025623634E+02  0.44936457674E+02  0.00000000000E+00 0. -1.
</event>
<event>
 7    1  0.3707147E-015  0.9000774E+02  0.7816164E-02  0.1186339E+00
        -11   -1    0    0    0    0  0.00000000000E+00  0.00000000000E+00  0.45593999997E+02  0.45594000000E+02  0.51100000000E-03 0. -1.
         11   -1    0    0    0    0 -0.00000000000E+00 -0.00000000000E+00 -0.45593999997E+02  0.45594000000E+02  0.51100000000E-03 0.  1.
    9900012    2    1    2    0    0  0.19307976199E+00  0.60115649515E-01 -0.11628087676E+01  0.90007738200E+02  0.89999999545E+02 0.  0.
         12    1    1    2    0    0 -0.19307976199E+00 -0.60115649515E-01  0.11628087676E+01  0.11802617997E+01  0.00000000000E+00 0. -1.
         11    1    3    3    0    0  0.17864112223E+01  0.18275128727E+02  0.27829707254E+02  0.33341628651E+02  0.51100000000E-03 0. -1.
        -11    1    3    3    0    0 -0.78732138971E+01 -0.50629850126E+01  0.10797966296E+02  0.14290465027E+02  0.51100000000E-03 0.  1.
        -12    1    3    3    0    0  0.62798824368E+01 -0.13152028065E+02 -0.39790482317E+02  0.42375644522E+02  0.00000000000E+00 0.  1.
</event>
<event>
 7    1  0.3707147E-015  0.9000772E+02  0.7816164E-02  0.1186339E+00
        -11   -1    0    0    0    0  0.00000000000E+00  0.00000000000E+00  0.45593999997E+02  0.45594000000E+02  0.51100000000E-03 0. -1.
         11   -1    0    0    0    0 -0.00000000000E+00 -0.00000000000E+00 -0.45593999997E+02  0.45594000000E+02  0.51100000000E-03 0.  1.
    9900012    2    1    2    0    0  0.12871562504E+00  0.58007805522E+00 -0.10198038208E+01  0.90007721179E+02  0.89999982299E+02 0.  0.
         12    1    1    2    0    0 -0.12871562504E+00 -0.58007805522E+00  0.10198038208E+01  0.11802788209E+01  0.00000000000E+00 0. -1.
         11    1    3    3    0    0  0.46895293232E+01  0.56580089530E+01  0.98461160332E+01  0.12286201683E+02  0.51100000000E-03 0. -1.
        -11    1    3    3    0    0  0.12073465191E+02  0.72030850342E+01 -0.39770815876E+02  0.42182588723E+02  0.51100000000E-03 0.  1.
         12    1    3    3    0    0 -0.16634278889E+02 -0.12281015932E+02  0.28904896022E+02  0.35538930773E+02  0.00000000000E+00 0. -1.
</event>
<event>
 7    1  0.3707147E-015  0.9000777E+02  0.7816164E-02  0.1186339E+00
        -11   -1    0    0    0    0  0.00000000000E+00  0.00000000000E+00  0.45593999997E+02  0.45594000000E+02  0.51100000000E-03 0.  1.
         11   -1    0    0    0    0 -0.00000000000E+00 -0.00000000000E+00 -0.45593999997E+02  0.45594000000E+02  0.51100000000E-03 0. -1.
    9900012    2    1    2    0    0 -0.10968891783E+01 -0.43337836837E+00 -0.44216291139E-01  0.90007772158E+02  0.90000033950E+02 0.  0.
         12    1    1    2    0    0  0.10968891783E+01  0.43337836837E+00  0.44216291139E-01  0.11802278425E+01  0.00000000000E+00 0. -1.
         11    1    3    3    0    0  0.24716857297E+02 -0.18728496372E+02  0.22519031597E+02  0.38324749123E+02  0.51100000000E-03 0. -1.
        -11    1    3    3    0    0  0.30739546389E+01 -0.72857128925E+01 -0.40954151698E+01  0.89052363892E+01  0.51100000000E-03 0.  1.
        -12    1    3    3    0    0 -0.28887701115E+02  0.25580830896E+02 -0.18467832718E+02  0.42777786646E+02  0.00000000000E+00 0.  1.
</event>
<event>
 7    1  0.3707147E-015  0.9000772E+02  0.7816164E-02  0.1186339E+00
        -11   -1    0    0    0    0  0.00000000000E+00  0.00000000000E+00  0.45593999997E+02  0.45594000000E+02  0.51100000000E-03 0. -1.
         11   -1    0    0    0    0 -0.00000000000E+00 -0.00000000000E+00 -0.45593999997E+02  0.45594000000E+02  0.51100000000E-03 0.  1.
    9900012    2    1    2    0    0  0.88972334677E-01  0.60836849773E+00 -0.10074928944E+01  0.90007716035E+02  0.89999977087E+02 0.  0.
         12    1    1    2    0    0 -0.88972334677E-01 -0.60836849773E+00  0.10074928944E+01  0.11802839649E+01  0.00000000000E+00 0. -1.
         11    1    3    3    0    0 -0.79686145946E+01 -0.29162072416E+01 -0.50014371134E+00  0.85001898348E+01  0.51100000000E-03 0. -1.
        -11    1    3    3    0    0 -0.36542321878E+02  0.49602822142E+01 -0.70063336257E+00  0.36884096508E+02  0.51100000000E-03 0.  1.
         12    1    3    3    0    0  0.44599908807E+02 -0.14357064748E+01  0.19328417948E+00  0.44623429692E+02  0.00000000000E+00 0. -1.
</event>
<event>
 7    1  0.3707147E-015  0.9000775E+02  0.7816164E-02  0.1186339E+00
        -11   -1    0    0    0    0  0.00000000000E+00  0.00000000000E+00  0.45593999997E+02  0.45594000000E+02  0.51100000000E-03 0.  1.
         11   -1    0    0    0    0 -0.00000000000E+00 -0.00000000000E+00 -0.45593999997E+02  0.45594000000E+02  0.51100000000E-03 0. -1.
    9900012    2    1    2    0    0  0.51662803982E+00 -0.85419917078E+00  0.62962035312E+00  0.90007753185E+02  0.90000014727E+02 0.  0.
         12    1    1    2    0    0 -0.51662803982E+00  0.85419917078E+00 -0.62962035312E+00  0.11802468148E+01  0.00000000000E+00 0. -1.
         11    1    3    3    0    0  0.93675350248E+00  0.46882903755E+00  0.86470663356E+01  0.87102849703E+01  0.51100000000E-03 0. -1.
        -11    1    3    3    0    0 -0.30766160974E+01 -0.32854501853E+02  0.20376617858E+02  0.38782604531E+02  0.51100000000E-03 0.  1.
         12    1    3    3    0    0  0.26564906348E+01  0.31531473644E+02 -0.28394063841E+02  0.42514863684E+02  0.00000000000E+00 0. -1.
</event>
<event>
 7    1  0.3707147E-015  0.9000772E+02  0.7816164E-02  0.1186339E+00
        -11   -1    0    0    0    0  0.00000000000E+00  0.00000000000E+00  0.45593999997E+02  0.45594000000E+02  0.51100000000E-03 0. -1.
         11   -1    0    0    0    0 -0.00000000000E+00 -0.00000000000E+00 -0.45593999997E+02  0.45594000000E+02  0.51100000000E-03 0.  1.
    9900012    2    1    2    0    0  0.10638916949E+01  0.47797643597E+00 -0.18094724218E+00  0.90007716595E+02  0.89999977654E+02 0.  0.
         12    1    1    2    0    0 -0.10638916949E+01 -0.47797643597E+00  0.18094724218E+00  0.11802834050E+01  0.00000000000E+00 0. -1.
         11    1    3    3    0    0  0.19147069855E+02 -0.11363340185E+02  0.38450568729E+02  0.44431768140E+02  0.51100000000E-03 0. -1.
        -11    1    3    3    0    0  0.22863698988E+00  0.40836524286E+01 -0.90448187950E+01  0.99265925335E+01  0.51100000000E-03 0.  1.
        -12    1    3    3    0    0 -0.18311815150E+02  0.77576641919E+01 -0.29586697176E+02  0.35649355921E+02  0.00000000000E+00 0.  1.
</event>
<event>
 7    1  0.3707147E-015  0.9000765E+02  0.7816164E-02  0.1186339E+00
        -11   -1    0    0    0    0  0.00000000000E+00  0.00000000000E+00  0.45593999997E+02  0.45594000000E+02  0.51100000000E-03 0. -1.
         11   -1    0    0    0    0 -0.00000000000E+00 -0.00000000000E+00 -0.45593999997E+02  0.45594000000E+02  0.51100000000E-03 0.  1.
    9900012    2    1    2    0    0  0.44708372694E+00  0.99762596646E+00 -0.44505925173E+00  0.90007652947E+02  0.89999913166E+02 0.  0.
         12    1    1    2    0    0 -0.44708372694E+00 -0.99762596646E+00  0.44505925173E+00  0.11803470529E+01  0.00000000000E+00 0. -1.
         11    1    3    3    0    0  0.10575774126E+02 -0.23479704456E+01  0.20048495733E+01  0.11017231306E+02  0.51100000000E-03 0. -1.
        -11    1    3    3    0    0 -0.13384179107E+02  0.28937462286E+01 -0.39494134528E+02  0.41800677984E+02  0.51100000000E-03 0.  1.
         12    1    3    3    0    0  0.32554887077E+01  0.45185018344E+00  0.37044225703E+02  0.37189743656E+02  0.00000000000E+00 0. -1.
</event>
<event>
 7    1  0.4361535E-015  0.9000766E+02  0.7816164E-02  0.1186339E+00
        -11   -1    0    0    0    0  0.00000000000E+00  0.00000000000E+00  0.45593999997E+02  0.45594000000E+02  0.51100000000E-03 0. -1.
         11   -1    0    0    0    0 -0.00000000000E+00 -0.00000000000E+00 -0.45593999997E+02  0.45594000000E+02  0.51100000000E-03 0.  1.
    9900012    2    1    2    0    0 -0.85818469156E-01 -0.20073002599E+00 -0.11599763564E+01  0.90007660006E+02  0.89999920319E+02 0.  0.
         12    1    1    2    0    0  0.85818469156E-01  0.20073002599E+00  0.11599763564E+01  0.11803399935E+01  0.00000000000E+00 0. -1.
         11    1    3    3    0    0  0.68572706443E+01 -0.38117599018E+01  0.62616901397E+01  0.10037949886E+02  0.51100000000E-03 0. -1.
        -11    1    3    3    0    0 -0.76860448265E+01 -0.49769565774E+01 -0.42691150102E+02  0.43662108047E+02  0.51100000000E-03 0.  1.
         12    1    3    3    0    0  0.74295571302E+00  0.85879864533E+01  0.35269483606E+02  0.36307602074E+02  0.00000000000E+00 0. -1.
</event>
<event>
 7    1  0.3707147E-015  0.9000773E+02  0.7816164E-02  0.1186339E+00
        -11   -1    0    0    0    0  0.00000000000E+00  0.00000000000E+00  0.45593999997E+02  0.45594000000E+02  0.51100000000E-03 0. -1.
         11   -1    0    0    0    0 -0.00000000000E+00 -0.00000000000E+00 -0.45593999997E+02  0.45594000000E+02  0.51100000000E-03 0.  1.
    9900012    2    1    2    0    0  0.24595129861E+00  0.12274819472E+00 -0.11478147102E+01  0.90007729790E+02  0.89999991023E+02 0.  0.
         12    1    1    2    0    0 -0.24595129861E+00 -0.12274819472E+00  0.11478147102E+01  0.11802702104E+01  0.00000000000E+00 0. -1.
         11    1    3    3    0    0 -0.16637613159E+02 -0.33125838945E+02  0.87400645684E+01  0.38085694248E+02  0.51100000000E-03 0. -1.
        -11    1    3    3    0    0 -0.48963670104E+01 -0.27460716579E+01 -0.80456287860E+01  0.98105790998E+01  0.51100000000E-03 0.  1.
        -12    1    3    3    0    0  0.21779931468E+02  0.35994658798E+02 -0.18422504926E+01  0.42111456441E+02  0.00000000000E+00 0.  1.
</event>
<event>
 7    1  0.3707147E-015  0.9000769E+02  0.7816164E-02  0.1186339E+00
        -11   -1    0    0    0    0  0.00000000000E+00  0.00000000000E+00  0.45593999997E+02  0.45594000000E+02  0.51100000000E-03 0.  1.
         11   -1    0    0    0    0 -0.00000000000E+00 -0.00000000000E+00 -0.45593999997E+02  0.45594000000E+02  0.51100000000E-03 0. -1.
    9900012    2    1    2    0    0 -0.10122836330E+01 -0.60107465569E+00 -0.84406806773E-01  0.90007689276E+02  0.89999949975E+02 0.  0.
         12    1    1    2    0    0  0.10122836330E+01  0.60107465569E+00  0.84406806773E-01  0.11803107237E+01  0.00000000000E+00 0. -1.
         11    1    3    3    0    0  0.66611336803E+01 -0.10527401245E+01  0.59128203513E+01  0.89688577000E+01  0.51100000000E-03 0. -1.
        -11    1    3    3    0    0  0.14778239640E+02  0.45227181377E+01  0.32670000392E+02  0.36141116087E+02  0.51100000000E-03 0.  1.
         12    1    3    3    0    0 -0.22451656953E+02 -0.40710526688E+01 -0.38667227550E+02  0.44897715489E+02  0.00000000000E+00 0. -1.
</event>
<event>
 7    1  0.3707147E-015  0.9000749E+02  0.7816164E-02  0.1186340E+00
        -11   -1    0    0    0    0  0.00000000000E+00  0.00000000000E+00  0.45593999997E+02  0.45594000000E+02  0.51100000000E-03 0.  1.
         11   -1    0    0    0    0 -0.00000000000E+00 -0.00000000000E+00 -0.45593999997E+02  0.45594000000E+02  0.51100000000E-03 0. -1.
    9900012    2    1    2    0    0 -0.10584160766E+01 -0.32433621193E+00  0.41009257582E+00  0.90007485498E+02  0.89999743506E+02 0.  0.
         12    1    1    2    0    0  0.10584160766E+01  0.32433621193E+00 -0.41009257582E+00  0.11805145024E+01  0.00000000000E+00 0. -1.
         11    1    3    3    0    0 -0.29226901039E+02 -0.18455808248E+02 -0.76201795631E+01  0.35396267307E+02  0.51100000000E-03 0. -1.
        -11    1    3    3    0    0  0.93992960426E+01 -0.88417358387E+01  0.16237678526E+02  0.20740907957E+02  0.51100000000E-03 0.  1.
        -12    1    3    3    0    0  0.18769188920E+02  0.26973207874E+02 -0.82074063866E+01  0.33870310234E+02  0.00000000000E+00 0.  1.
</event>
<event>
 7    1  0.3707147E-015  0.9000766E+02  0.7816164E-02  0.1186339E+00
        -11   -1    0    0    0    0  0.00000000000E+00  0.00000000000E+00  0.45593999997E+02  0.45594000000E+02  0.51100000000E-03 0. -1.
         11   -1    0    0    0    0 -0.00000000000E+00 -0.00000000000E+00 -0.45593999997E+02  0.45594000000E+02  0.51100000000E-03 0.  1.
    9900012    2    1    2    0    0  0.59807807388E+00 -0.90271117704E+00  0.46970355648E+00  0.90007658404E+02  0.89999918695E+02 0.  0.
         12    1    1    2    0    0 -0.59807807388E+00  0.90271117704E+00 -0.46970355648E+00  0.11803415957E+01  0.00000000000E+00 0. -1.
         11    1    3    3    0    0  0.12639078277E+00 -0.77455156734E+01  0.11309228660E+01  0.78286636450E+01  0.51100000000E-03 0. -1.
        -11    1    3    3    0    0 -0.26338755911E+02  0.16344505060E+02 -0.28695843912E+02  0.42241263791E+02  0.51100000000E-03 0.  1.
         12    1    3    3    0    0  0.26810443202E+02 -0.95017005638E+01  0.28034624602E+02  0.39937730968E+02  0.00000000000E+00 0. -1.
</event>
<event>
 7    1  0.3707147E-015  0.9000771E+02  0.7816164E-02  0.1186339E+00
        -11   -1    0    0    0    0  0.00000000000E+00  0.00000000000E+00  0.45593999997E+02  0.45594000000E+02  0.51100000000E-03 0. -1.
         11   -1    0    0    0    0 -0.00000000000E+00 -0.00000000000E+00 -0.45593999997E+02  0.45594000000E+02  0.51100000000E-03 0.  1.
    9900012    2    1    2    0    0 -0.84251822588E+00  0.48708217052E+00 -0.66783185361E+00  0.90007709618E+02  0.89999970585E+02 0.  0.
         12    1    1    2    0    0  0.84251822588E+00 -0.48708217052E+00  0.66783185361E+00  0.11802903823E+01  0.00000000000E+00 0. -1.
         11    1    3    3    0    0 -0.94296046030E+01 -0.52877997229E+01  0.10461116500E+01  0.10861520093E+02  0.51100000000E-03 0. -1.
        -11    1    3    3    0    0 -0.15666958571E+02  0.16582258261E+02  0.30061059502E+02  0.37737145872E+02  0.51100000000E-03 0.  1.
         12    1    3    3    0    0  0.24254044948E+02 -0.10807376367E+02 -0.31775003006E+02  0.41409043653E+02  0.00000000000E+00 0. -1.
</event>
<event>
 7    1  0.3707147E-015  0.9000773E+02  0.7816164E-02  0.1186339E+00
        -11   -1    0    0    0    0  0.00000000000E+00  0.00000000000E+00  0.45593999997E+02  0.45594000000E+02  0.51100000000E-03 0. -1.
         11   -1    0    0    0    0 -0.00000000000E+00 -0.00000000000E+00 -0.45593999997E+02  0.45594000000E+02  0.51100000000E-03 0.  1.
    9900012    2    1    2    0    0  0.11213901837E+01 -0.35162119581E+00  0.10906023597E+00  0.90007725649E+02  0.89999986827E+02 0.  0.
         12    1    1    2    0    0 -0.11213901837E+01  0.35162119581E+00 -0.10906023597E+00  0.11802743514E+01  0.00000000000E+00 0. -1.
         11    1    3    3    0    0 -0.34745386455E+02 -0.12715327927E+02  0.17744910489E+02  0.41034172256E+02  0.51100000000E-03 0. -1.
        -11    1    3    3    0    0  0.68418883065E+01  0.75695053888E+01  0.54599932229E+01  0.11572397059E+02  0.51100000000E-03 0.  1.
        -12    1    3    3    0    0  0.29024888333E+02  0.47942013428E+01 -0.23095843476E+02  0.37401156334E+02  0.00000000000E+00 0.  1.
</event>
<event>
 7    1  0.3707147E-015  0.9000781E+02  0.7816164E-02  0.1186339E+00
        -11   -1    0    0    0    0  0.00000000000E+00  0.00000000000E+00  0.45593999997E+02  0.45594000000E+02  0.51100000000E-03 0.  1.
         11   -1    0    0    0    0 -0.00000000000E+00 -0.00000000000E+00 -0.45593999997E+02  0.45594000000E+02  0.51100000000E-03 0. -1.
    9900012    2    1    2    0    0  0.47609167880E+00  0.10411894718E+01 -0.28656409098E+00  0.90007806041E+02  0.90000068281E+02 0.  0.
         12    1    1    2    0    0 -0.47609167880E+00 -0.10411894718E+01  0.28656409098E+00  0.11801939591E+01  0.00000000000E+00 0. -1.
         11    1    3    3    0    0  0.25088533363E+01  0.51615191270E+01  0.59281536602E+01  0.82509775689E+01  0.51100000000E-03 0. -1.
        -11    1    3    3    0    0 -0.67871019249E+01  0.58955794848E+00  0.37205405731E+02  0.37823994329E+02  0.51100000000E-03 0.  1.
         12    1    3    3    0    0  0.47543402674E+01 -0.47098876037E+01 -0.43420123482E+02  0.43932834143E+02  0.00000000000E+00 0. -1.
</event>
<event>
 7    1  0.3707147E-015  0.9000782E+02  0.7816164E-02  0.1186339E+00
        -11   -1    0    0    0    0  0.00000000000E+00  0.00000000000E+00  0.45593999997E+02  0.45594000000E+02  0.51100000000E-03 0. -1.
         11   -1    0    0    0    0 -0.00000000000E+00 -0.00000000000E+00 -0.45593999997E+02  0.45594000000E+02  0.51100000000E-03 0.  1.
    9900012    2    1    2    0    0  0.68884606827E+00 -0.94857740967E+00  0.13606259968E+00  0.90007821607E+02  0.90000084052E+02 0.  0.
         12    1    1    2    0    0 -0.68884606827E+00  0.94857740967E+00 -0.13606259968E+00  0.11801783928E+01  0.00000000000E+00 0. -1.
         11    1    3    3    0    0  0.29181918505E+02 -0.80557702049E+01  0.46985665366E+01  0.30635866709E+02  0.51100000000E-03 0. -1.
        -11    1    3    3    0    0  0.14046188411E+02 -0.23243425832E+01  0.43714748750E+01  0.14893212218E+02  0.51100000000E-03 0.  1.
        -12    1    3    3    0    0 -0.42539260848E+02  0.94315353785E+01 -0.89339788119E+01  0.44478742681E+02  0.00000000000E+00 0.  1.
</event>
<event>
 7    1  0.3707147E-015  0.9000764E+02  0.7816164E-02  0.1186339E+00
        -11   -1    0    0    0    0  0.00000000000E+00  0.00000000000E+00  0.45593999997E+02  0.45594000000E+02  0.51100000000E-03 0.  1.
         11   -1    0    0    0    0 -0.00000000000E+00 -0.00000000000E+00 -0.45593999997E+02  0.45594000000E+02  0.51100000000E-03 0. -1.
    9900012    2    1    2    0    0 -0.41191406157E+00 -0.32844074332E+00  0.10562648340E+01  0.90007643310E+02  0.89999903402E+02 0.  0.
         12    1    1    2    0    0  0.41191406157E+00  0.32844074332E+00 -0.10562648340E+01  0.11803566900E+01  0.00000000000E+00 0. -1.
         11    1    3    3    0    0  0.71909993609E+01  0.11273773550E+01  0.62289714426E+01  0.95802681071E+01  0.51100000000E-03 0. -1.
        -11    1    3    3    0    0  0.95573705462E+01  0.33660337831E+02  0.12995626749E+02  0.37326237281E+02  0.51100000000E-03 0.  1.
         12    1    3    3    0    0 -0.17160283969E+02 -0.35116155930E+02 -0.18168333358E+02  0.43101137922E+02  0.00000000000E+00 0. -1.
</event>
<event>
 7    1  0.3707147E-015  0.9000770E+02  0.7816164E-02  0.1186339E+00
        -11   -1    0    0    0    0  0.00000000000E+00  0.00000000000E+00  0.45593999997E+02  0.45594000000E+02  0.51100000000E-03 0.  1.
         11   -1    0    0    0    0 -0.00000000000E+00 -0.00000000000E+00 -0.45593999997E+02  0.45594000000E+02  0.51100000000E-03 0. -1.
    9900012    2    1    2    0    0 -0.66103311658E-01  0.11326938086E+01  0.32519290359E+00  0.90007696930E+02  0.89999957730E+02 0.  0.
         12    1    1    2    0    0  0.66103311658E-01 -0.11326938086E+01 -0.32519290359E+00  0.11803030697E+01  0.00000000000E+00 0. -1.
         11    1    3    3    0    0 -0.26162959989E+02  0.21018980441E+02 -0.18827186734E+02  0.38480657151E+02  0.51100000000E-03 0. -1.
        -11    1    3    3    0    0 -0.15721178665E+01  0.82353383847E+01  0.33973476353E+01  0.90462325923E+01  0.51100000000E-03 0.  1.
        -12    1    3    3    0    0  0.27668974544E+02 -0.28121625018E+02  0.15755032002E+02  0.42480807188E+02  0.00000000000E+00 0.  1.
</event>
<event>
 7    1  0.3707147E-015  0.9000774E+02  0.7816164E-02  0.1186339E+00
        -11   -1    0    0    0    0  0.00000000000E+00  0.00000000000E+00  0.45593999997E+02  0.45594000000E+02  0.51100000000E-03 0. -1.
         11   -1    0    0    0    0 -0.00000000000E+00 -0.00000000000E+00 -0.45593999997E+02  0.45594000000E+02  0.51100000000E-03 0.  1.
    9900012    2    1    2    0    0 -0.76041296081E+00  0.86923744127E+00 -0.24333934663E+00  0.90007739165E+02  0.90000000522E+02 0.  0.
         12    1    1    2    0    0  0.76041296081E+00 -0.86923744127E+00  0.24333934663E+00  0.11802608347E+01  0.00000000000E+00 0. -1.
         11    1    3    3    0    0  0.40372567676E+02  0.76359211850E+01  0.14620337731E+02  0.43611991341E+02  0.51100000000E-03 0. -1.
        -11    1    3    3    0    0 -0.64221693392E+01 -0.66383570073E+01 -0.33411218383E+01  0.98221758372E+01  0.51100000000E-03 0.  1.
        -12    1    3    3    0    0 -0.34710811297E+02 -0.12832673640E+00 -0.11522555240E+02  0.36573571987E+02  0.00000000000E+00 0.  1.
</event>
<event>
 7    1  0.3714646E-015  0.9000777E+02  0.7816164E-02  0.1186339E+00
        -11   -1    0    0    0    0  0.00000000000E+00  0.00000000000E+00  0.45593999997E+02  0.45594000000E+02  0.51100000000E-03 0.  1.
         11   -1    0    0    0    0 -0.00000000000E+00 -0.00000000000E+00 -0.45593999997E+02  0.45594000000E+02  0.51100000000E-03 0. -1.
    9900012    2    1    2    0    0 -0.20127237233E+00  0.10345757933E+01  0.53111571167E+00  0.90007770557E+02  0.90000032328E+02 0.  0.
         12    1    1    2    0    0  0.20127237233E+00 -0.10345757933E+01 -0.53111571167E+00  0.11802294434E+01  0.00000000000E+00 0. -1.
         11    1    3    3    0    0 -0.83698206652E+01  0.57553652666E+01 -0.84716405368E+00  0.10192929634E+02  0.51100000000E-03 0. -1.
        -11    1    3    3    0    0 -0.11253264347E+02 -0.91427838884E+00  0.37207533010E+02  0.38882803093E+02  0.51100000000E-03 0.  1.
         12    1    3    3    0    0  0.19421812640E+02 -0.38065110845E+01 -0.35829253244E+02  0.40932037830E+02  0.00000000000E+00 0. -1.
</event>
<event>
 7    1  0.3707147E-015  0.9000772E+02  0.7816164E-02  0.1186339E+00
        -11   -1    0    0    0    0  0.00000000000E+00  0.00000000000E+00  0.45593999997E+02  0.45594000000E+02  0.51100000000E-03 0. -1.
         11   -1    0    0    0    0 -0.00000000000E+00 -0.00000000000E+00 -0.45593999997E+02  0.45594000000E+02  0.51100000000E-03 0.  1.
    9900012    2    1    2    0    0 -0.76793471361E+00  0.71023312098E+00 -0.54673088930E+00  0.90007716358E+02  0.89999977414E+02 0.  0.
         12    1    1    2    0    0  0.76793471361E+00 -0.71023312098E+00  0.54673088930E+00  0.11802836421E+01  0.00000000000E+00 0. -1.
         11    1    3    3    0    0  0.14236742742E+02  0.69693724489E+01  0.90864003303E+01  0.18270732537E+02  0.51100000000E-03 0. -1.
        -11    1    3    3    0    0 -0.28217094038E+01 -0.37218877806E+02 -0.88780117654E+00  0.37336243789E+02  0.51100000000E-03 0.  1.
         12    1    3    3    0    0 -0.12182968052E+02  0.30959738478E+02 -0.87453300431E+01  0.34400740032E+02  0.00000000000E+00 0. -1.
</event>
<event>
 7    1  0.3707147E-015  0.9000771E+02  0.7816164E-02  0.1186339E+00
        -11   -1    0    0    0    0  0.00000000000E+00  0.00000000000E+00  0.45593999997E+02  0.45594000000E+02  0.51100000000E-03 0. -1.
         11   -1    0    0    0    0 -0.00000000000E+00 -0.00000000000E+00 -0.45593999997E+02  0.45594000000E+02  0.51100000000E-03 0.  1.
    9900012    2    1    2    0    0 -0.30366136934E+00 -0.65470435849E+00 -0.93394146787E+00  0.90007705677E+02  0.89999966592E+02 0.  0.
         12    1    1    2    0    0  0.30366136934E+00  0.65470435849E+00  0.93394146787E+00  0.11802943233E+01  0.00000000000E+00 0. -1.
         11    1    3    3    0    0 -0.90759888680E+01  0.21095891392E+01  0.24861344698E+01  0.96438998922E+01  0.51100000000E-03 0. -1.
        -11    1    3    3    0    0 -0.39549348731E+01 -0.39590366389E+02  0.61050384425E+01  0.40253075849E+02  0.51100000000E-03 0.  1.
         12    1    3    3    0    0  0.12727262372E+02  0.36826072891E+02 -0.95251143801E+01  0.40110729936E+02  0.00000000000E+00 0. -1.
</event>
<event>
 7    1  0.3707147E-015  0.9000775E+02  0.7816164E-02  0.1186339E+00
        -11   -1    0    0    0    0  0.00000000000E+00  0.00000000000E+00  0.45593999997E+02  0.45594000000E+02  0.51100000000E-03 0.  1.
         11   -1    0    0    0    0 -0.00000000000E+00 -0.00000000000E+00 -0.45593999997E+02  0.45594000000E+02  0.51100000000E-03 0. -1.
    9900012    2    1    2    0    0  0.10762626147E+01  0.34178401109E+00  0.34326675503E+00  0.90007750200E+02  0.90000011702E+02 0.  0.
         12    1    1    2    0    0 -0.10762626147E+01 -0.34178401109E+00 -0.34326675503E+00  0.11802498003E+01  0.00000000000E+00 0. -1.
         11    1    3    3    0    0 -0.29046778596E+02  0.14039140773E+02 -0.20141702524E+02  0.38032893675E+02  0.51100000000E-03 0. -1.
        -11    1    3    3    0    0 -0.19510916741E+01  0.82094467760E+01  0.93180427742E+00  0.84894071973E+01  0.51100000000E-03 0.  1.
        -12    1    3    3    0    0  0.32074132885E+02 -0.21906803538E+02  0.19553165002E+02  0.43485449327E+02  0.00000000000E+00 0.  1.
</event>
<event>
 7    1  0.3707147E-015  0.9000782E+02  0.7816164E-02  0.1186339E+00
        -11   -1    0    0    0    0  0.00000000000E+00  0.00000000000E+00  0.45593999997E+02  0.45594000000E+02  0.51100000000E-03 0. -1.
         11   -1    0    0    0    0 -0.00000000000E+00 -0.00000000000E+00 -0.45593999997E+02  0.45594000000E+02  0.51100000000E-03 0.  1.
    9900012    2    1    2    0    0 -0.87536127487E+00  0.30195350359E+00 -0.73170772014E+00  0.90007818036E+02  0.90000080434E+02 0.  0.
         12    1    1    2    0    0  0.87536127487E+00 -0.30195350359E+00  0.73170772014E+00  0.11801819638E+01  0.00000000000E+00 0. -1.
         11    1    3    3    0    0  0.51382518854E+01  0.10124562611E+02  0.31725359571E+02  0.33695798561E+02  0.51100000000E-03 0. -1.
        -11    1    3    3    0    0  0.27908335481E+01 -0.94600455921E+01  0.93474805544E+01  0.13588841285E+02  0.51100000000E-03 0.  1.
        -12    1    3    3    0    0 -0.88044467084E+01 -0.36256351543E+00 -0.41804547845E+02  0.42723178190E+02  0.00000000000E+00 0.  1.
</event>
<event>
 7    1  0.3707147E-015  0.9000781E+02  0.7816164E-02  0.1186339E+00
        -11   -1    0    0    0    0  0.00000000000E+00  0.00000000000E+00  0.45593999997E+02  0.45594000000E+02  0.51100000000E-03 0.  1.
         11   -1    0    0    0    0 -0.00000000000E+00 -0.00000000000E+00 -0.45593999997E+02  0.45594000000E+02  0.51100000000E-03 0. -1.
    9900012    2    1    2    0    0 -0.11905536896E+00  0.11261965713E+01 -0.33221165483E+00  0.90007806168E+02  0.90000068409E+02 0.  0.
         12    1    1    2    0    0  0.11905536896E+00 -0.11261965713E+01  0.33221165483E+00  0.11801938322E+01  0.00000000000E+00 0. -1.
         11    1    3    3    0    0  0.54583237571E+01 -0.35591269637E+01 -0.36255276704E+02  0.36836201923E+02  0.51100000000E-03 0. -1.
        -11    1    3    3    0    0  0.47625840651E+01 -0.79407000271E+01 -0.39661552419E+01  0.10073098409E+02  0.51100000000E-03 0.  1.
        -12    1    3    3    0    0 -0.10339963191E+02  0.12626023562E+02  0.39889220291E+02  0.43098505835E+02  0.00000000000E+00 0.  1.
</event>
<event>
 7    1  0.3707147E-015  0.9000767E+02  0.7816164E-02  0.1186339E+00
        -11   -1    0    0    0    0  0.00000000000E+00  0.00000000000E+00  0.45593999997E+02  0.45594000000E+02  0.51100000000E-03 0.  1.
         11   -1    0    0    0    0 -0.00000000000E+00 -0.00000000000E+00 -0.45593999997E+02  0.45594000000E+02  0.51100000000E-03 0. -1.
    9900012    2    1    2    0    0 -0.19233582815E+00  0.89684112972E+00  0.74287739502E+00  0.90007667883E+02  0.89999928299E+02 0.  0.
         12    1    1    2    0    0  0.19233582815E+00 -0.89684112972E+00 -0.74287739502E+00  0.11803321172E+01  0.00000000000E+00 0. -1.
         11    1    3    3    0    0 -0.64881275656E+01 -0.36425267108E+01  0.47748797628E+01  0.88409997826E+01  0.51100000000E-03 0. -1.
        -11    1    3    3    0    0 -0.12720604734E+02  0.26066194510E+02 -0.30513297418E+02  0.42098950113E+02  0.51100000000E-03 0.  1.
         12    1    3    3    0    0  0.19016396472E+02 -0.21526826669E+02  0.26481295050E+02  0.39067717987E+02  0.00000000000E+00 0. -1.
</event>
<event>
 7    1  0.3707147E-015  0.9000876E+02  0.7816164E-02  0.1186337E+00
        -11   -1    0    0    0    0  0.00000000000E+00  0.00000000000E+00  0.45593999997E+02  0.45594000000E+02  0.51100000000E-03 0.  1.
         11   -1    0    0    0    0 -0.00000000000E+00 -0.00000000000E+00 -0.45593999997E+02  0.45594000000E+02  0.51100000000E-03 0. -1.
    9900012    2    1    2    0    0 -0.29958841154E+00  0.73078944361E+00  0.87567679066E+00  0.90008756060E+02  0.90001030835E+02 0.  0.
         12    1    1    2    0    0  0.29958841154E+00 -0.73078944361E+00 -0.87567679066E+00  0.11792439395E+01  0.00000000000E+00 0. -1.
         11    1    3    3    0    0  0.13689590346E+02 -0.26283942053E+02 -0.27727498092E+02  0.40584044209E+02  0.51100000000E-03 0. -1.
        -11    1    3    3    0    0 -0.11444603783E+02 -0.73058920104E+00  0.36842968678E+01  0.12045196553E+02  0.51100000000E-03 0.  1.
        -12    1    3    3    0    0 -0.25445749748E+01  0.27745320698E+02  0.24918878015E+02  0.37379515298E+02  0.00000000000E+00 0.  1.
</event>
<event>
 7    1  0.3707147E-015  0.9000762E+02  0.7816164E-02  0.1186339E+00
        -11   -1    0    0    0    0  0.00000000000E+00  0.00000000000E+00  0.45593999997E+02  0.45594000000E+02  0.51100000000E-03 0.  1.
         11   -1    0    0    0    0 -0.00000000000E+00 -0.00000000000E+00 -0.45593999997E+02  0.45594000000E+02  0.51100000000E-03 0. -1.
    9900012    2    1    2    0    0  0.79569183826E+00  0.19555952545E+00  0.84966930587E+00  0.90007615758E+02  0.89999875486E+02 0.  0.
         12    1    1    2    0    0 -0.79569183826E+00 -0.19555952545E+00 -0.84966930587E+00  0.11803842420E+01  0.00000000000E+00 0. -1.
         11    1    3    3    0    0 -0.55974712680E+01 -0.68894853104E+01 -0.99098528309E+00  0.89318947895E+01  0.51100000000E-03 0. -1.
        -11    1    3    3    0    0 -0.23357779141E+02  0.72326323286E+01  0.30955967464E+02  0.39448304637E+02  0.51100000000E-03 0.  1.
         12    1    3    3    0    0  0.29750942247E+02 -0.14758749277E+00 -0.29115312875E+02  0.41627416332E+02  0.00000000000E+00 0. -1.
</event>
<event>
 7    1  0.3707147E-015  0.9000770E+02  0.7816164E-02  0.1186339E+00
        -11   -1    0    0    0    0  0.00000000000E+00  0.00000000000E+00  0.45593999997E+02  0.45594000000E+02  0.51100000000E-03 0.  1.
         11   -1    0    0    0    0 -0.00000000000E+00 -0.00000000000E+00 -0.45593999997E+02  0.45594000000E+02  0.51100000000E-03 0. -1.
    9900012    2    1    2    0    0  0.14517789089E+00 -0.97460848127E+00 -0.64973686875E+00  0.90007704990E+02  0.89999965896E+02 0.  0.
         12    1    1    2    0    0 -0.14517789089E+00  0.97460848127E+00  0.64973686875E+00  0.11802950099E+01  0.00000000000E+00 0. -1.
         11    1    3    3    0    0 -0.75533670425E+01  0.47121565978E+01 -0.92901192424E+01  0.12867170990E+02  0.51100000000E-03 0. -1.
        -11    1    3    3    0    0  0.38472032815E+02 -0.10507798852E+02 -0.96318919948E+01  0.41027850167E+02  0.51100000000E-03 0.  1.
         12    1    3    3    0    0 -0.30773487882E+02  0.48210337731E+01  0.18272274368E+02  0.36112683833E+02  0.00000000000E+00 0. -1.
</event>
<event>
 7    1  0.3707147E-015  0.9000781E+02  0.7816164E-02  0.1186339E+00
        -11   -1    0    0    0    0  0.00000000000E+00  0.00000000000E+00  0.45593999997E+02  0.45594000000E+02  0.51100000000E-03 0.  1.
         11   -1    0    0    0    0 -0.00000000000E+00 -0.00000000000E+00 -0.45593999997E+02  0.45594000000E+02  0.51100000000E-03 0. -1.
    9900012    2    1    2    0    0 -0.34679973610E+00 -0.10015386870E+01 -0.51912952756E+00  0.90007811344E+02  0.90000073653E+02 0.  0.
         12    1    1    2    0    0  0.34679973610E+00  0.10015386870E+01  0.51912952756E+00  0.11801886565E+01  0.00000000000E+00 0. -1.
         11    1    3    3    0    0  0.24736223621E+01  0.69128956164E+01  0.91639429583E+01  0.11742435190E+02  0.51100000000E-03 0. -1.
        -11    1    3    3    0    0  0.29986597887E+02 -0.23352562120E+02  0.65016749105E+01  0.38559175138E+02  0.51100000000E-03 0.  1.
         12    1    3    3    0    0 -0.32807019985E+02  0.15438127817E+02 -0.16184747396E+02  0.39706201015E+02  0.00000000000E+00 0. -1.
</event>
<event>
 7    1  0.3707147E-015  0.9000760E+02  0.7816164E-02  0.1186339E+00
        -11   -1    0    0    0    0  0.00000000000E+00  0.00000000000E+00  0.45593999997E+02  0.45594000000E+02  0.51100000000E-03 0.  1.
         11   -1    0    0    0    0 -0.00000000000E+00 -0.00000000000E+00 -0.45593999997E+02  0.45594000000E+02  0.51100000000E-03 0. -1.
    9900012    2    1    2    0    0  0.17580846890E+00  0.42223677032E+00  0.10881923816E+01  0.90007595337E+02  0.89999854796E+02 0.  0.
         12    1    1    2    0    0 -0.17580846890E+00 -0.42223677032E+00 -0.10881923816E+01  0.11804046625E+01  0.00000000000E+00 0. -1.
         11    1    3    3    0    0  0.11818983615E+02 -0.18073176724E+02 -0.29126376169E+02  0.36258431841E+02  0.51100000000E-03 0. -1.
        -11    1    3    3    0    0  0.24190467753E+01 -0.47638209076E+00 -0.82518239543E+01  0.86122776332E+01  0.51100000000E-03 0.  1.
        -12    1    3    3    0    0 -0.14062221921E+02  0.18971795585E+02  0.38466392505E+02  0.45136885863E+02  0.00000000000E+00 0.  1.
</event>
<event>
 7    1  0.3707147E-015  0.9000763E+02  0.7816164E-02  0.1186339E+00
        -11   -1    0    0    0    0  0.00000000000E+00  0.00000000000E+00  0.45593999997E+02  0.45594000000E+02  0.51100000000E-03 0. -1.
         11   -1    0    0    0    0 -0.00000000000E+00 -0.00000000000E+00 -0.45593999997E+02  0.45594000000E+02  0.51100000000E-03 0.  1.
    9900012    2    1    2    0    0 -0.18773082741E+00 -0.11544148982E+01  0.15922194545E+00  0.90007632155E+02  0.89999892100E+02 0.  0.
         12    1    1    2    0    0  0.18773082741E+00  0.11544148982E+01 -0.15922194545E+00  0.11803678447E+01  0.00000000000E+00 0. -1.
         11    1    3    3    0    0  0.22348012482E+02  0.80196107470E+01  0.23686965996E+02  0.33538338909E+02  0.51100000000E-03 0. -1.
        -11    1    3    3    0    0 -0.90772752102E+01  0.21037448309E+01  0.12968430540E+02  0.15968808925E+02  0.51100000000E-03 0.  1.
        -12    1    3    3    0    0 -0.13458468099E+02 -0.11277770476E+02 -0.36496174591E+02  0.40500484321E+02  0.00000000000E+00 0.  1.
</event>
<event>
 7    1  0.3707147E-015  0.9000839E+02  0.7816164E-02  0.1186338E+00
        -11   -1    0    0    0    0  0.00000000000E+00  0.00000000000E+00  0.45593999997E+02  0.45594000000E+02  0.51100000000E-03 0.  1.
         11   -1    0    0    0    0 -0.00000000000E+00 -0.00000000000E+00 -0.45593999997E+02  0.45594000000E+02  0.51100000000E-03 0. -1.
    9900012    2    1    2    0    0  0.28695312516E+00 -0.66682326888E+00  0.92977424194E+00  0.90008391799E+02  0.90000661768E+02 0.  0.
         12    1    1    2    0    0 -0.28695312516E+00  0.66682326888E+00 -0.92977424194E+00  0.11796082014E+01  0.00000000000E+00 0. -1.
         11    1    3    3    0    0  0.14457569502E+02 -0.67864736152E+01 -0.31128349851E+02  0.34986450302E+02  0.51100000000E-03 0. -1.
        -11    1    3    3    0    0  0.41882476363E+01 -0.37952761655E+01 -0.80353960196E+01  0.98241095723E+01  0.51100000000E-03 0.  1.
        -12    1    3    3    0    0 -0.18358864013E+02  0.99149265118E+01  0.40093520113E+02  0.45197831924E+02  0.00000000000E+00 0.  1.
</event>
<event>
 7    1  0.3707147E-015  0.9000774E+02  0.7816164E-02  0.1186339E+00
        -11   -1    0    0    0    0  0.00000000000E+00  0.00000000000E+00  0.45593999997E+02  0.45594000000E+02  0.51100000000E-03 0.  1.
         11   -1    0    0    0    0 -0.00000000000E+00 -0.00000000000E+00 -0.45593999997E+02  0.45594000000E+02  0.51100000000E-03 0. -1.
    9900012    2    1    2    0    0 -0.29117325716E+00  0.82000283897E+00  0.79738370805E+00  0.90007742698E+02  0.90000004101E+02 0.  0.
         12    1    1    2    0    0  0.29117325716E+00 -0.82000283897E+00 -0.79738370805E+00  0.11802573022E+01  0.00000000000E+00 0. -1.
         11    1    3    3    0    0  0.72675690382E+01 -0.21021373602E+01 -0.27349817696E+01  0.80446669755E+01  0.51100000000E-03 0. -1.
        -11    1    3    3    0    0  0.16607719011E+02 -0.18909883595E+02  0.30596715738E+02  0.39617660740E+02  0.51100000000E-03 0.  1.
         12    1    3    3    0    0 -0.24166461306E+02  0.21832023794E+02 -0.27064350260E+02  0.42345414982E+02  0.00000000000E+00 0. -1.
</event>
<event>
 7    1  0.3707147E-015  0.9000760E+02  0.7816164E-02  0.1186339E+00
        -11   -1    0    0    0    0  0.00000000000E+00  0.00000000000E+00  0.45593999997E+02  0.45594000000E+02  0.51100000000E-03 0. -1.
         11   -1    0    0    0    0 -0.00000000000E+00 -0.00000000000E+00 -0.45593999997E+02  0.45594000000E+02  0.51100000000E-03 0.  1.
    9900012    2    1    2    0    0  0.54437652996E+00 -0.29106741582E+00 -0.10061214144E+01  0.90007599073E+02  0.89999858581E+02 0.  0.
         12    1    1    2    0    0 -0.54437652996E+00  0.29106741582E+00  0.10061214144E+01  0.11804009266E+01  0.00000000000E+00 0. -1.
         11    1    3    3    0    0 -0.89825364159E+01  0.10568908798E+01  0.27053715855E+01  0.94404456712E+01  0.51100000000E-03 0. -1.
        -11    1    3    3    0    0 -0.33431493509E+02  0.41824965810E+00  0.10886432984E+02  0.35161827518E+02  0.51100000000E-03 0.  1.
         12    1    3    3    0    0  0.42958406455E+02 -0.17662079537E+01 -0.14597925984E+02  0.45405325885E+02  0.00000000000E+00 0. -1.
</event>
<event>
 7    1  0.3707147E-015  0.9000778E+02  0.7816164E-02  0.1186339E+00
        -11   -1    0    0    0    0  0.00000000000E+00  0.00000000000E+00  0.45593999997E+02  0.45594000000E+02  0.51100000000E-03 0.  1.
         11   -1    0    0    0    0 -0.00000000000E+00 -0.00000000000E+00 -0.45593999997E+02  0.45594000000E+02  0.51100000000E-03 0. -1.
    9900012    2    1    2    0    0  0.73956615817E+00  0.41451282930E-01  0.91882735257E+00  0.90007779675E+02  0.90000041567E+02 0.  0.
         12    1    1    2    0    0 -0.73956615817E+00 -0.41451282930E-01 -0.91882735257E+00  0.11802203248E+01  0.00000000000E+00 0. -1.
         11    1    3    3    0    0  0.21590619976E+02  0.94017687583E+01  0.13961154284E+02  0.27376302817E+02  0.51100000000E-03 0. -1.
        -11    1    3    3    0    0 -0.20619140776E+02  0.12796758226E+02  0.13727296228E+02  0.27880901159E+02  0.51100000000E-03 0.  1.
         12    1    3    3    0    0 -0.23191304179E+00 -0.22157075702E+02 -0.26769623160E+02  0.34750575699E+02  0.00000000000E+00 0. -1.
</event>
<event>
 7    1  0.3707147E-015  0.9000774E+02  0.7816164E-02  0.1186339E+00
        -11   -1    0    0    0    0  0.00000000000E+00  0.00000000000E+00  0.45593999997E+02  0.45594000000E+02  0.51100000000E-03 0. -1.
         11   -1    0    0    0    0 -0.00000000000E+00 -0.00000000000E+00 -0.45593999997E+02  0.45594000000E+02  0.51100000000E-03 0.  1.
    9900012    2    1    2    0    0 -0.75990042787E+00  0.88919804882E+00 -0.15780035124E+00  0.90007736139E+02  0.89999997456E+02 0.  0.
         12    1    1    2    0    0  0.75990042787E+00 -0.88919804882E+00  0.15780035124E+00  0.11802638608E+01  0.00000000000E+00 0. -1.
         11    1    3    3    0    0  0.33971743052E+01  0.14128106194E+02  0.29165641326E+02  0.32584947631E+02  0.51100000000E-03 0. -1.
        -11    1    3    3    0    0 -0.18114277966E+02 -0.65567898766E+01  0.48876316613E+01  0.19874795678E+02  0.51100000000E-03 0.  1.
        -12    1    3    3    0    0  0.13957203233E+02 -0.66821182688E+01 -0.34211073338E+02  0.37547992831E+02  0.00000000000E+00 0.  1.
</event>
<event>
 7    1  0.3707147E-015  0.9000770E+02  0.7816164E-02  0.1186339E+00
        -11   -1    0    0    0    0  0.00000000000E+00  0.00000000000E+00  0.45593999997E+02  0.45594000000E+02  0.51100000000E-03 0.  1.
         11   -1    0    0    0    0 -0.00000000000E+00 -0.00000000000E+00 -0.45593999997E+02  0.45594000000E+02  0.51100000000E-03 0. -1.
    9900012    2    1    2    0    0  0.54618486445E-01 -0.53914512124E+00  0.10485418455E+01  0.90007703155E+02  0.89999964037E+02 0.  0.
         12    1    1    2    0    0 -0.54618486445E-01  0.53914512124E+00 -0.10485418455E+01  0.11802968451E+01  0.00000000000E+00 0. -1.
         11    1    3    3    0    0  0.63616206502E+01 -0.10583220035E+02 -0.15850124336E+02  0.20092317072E+02  0.51100000000E-03 0. -1.
        -11    1    3    3    0    0  0.27513307737E+02  0.17275315648E+02  0.29400125504E+01  0.32619967925E+02  0.51100000000E-03 0.  1.
        -12    1    3    3    0    0 -0.33820309901E+02 -0.72312407341E+01  0.13958653631E+02  0.37295418157E+02  0.00000000000E+00 0.  1.
</event>
<event>
 7    1  0.3707147E-015  0.9000782E+02  0.7816164E-02  0.1186339E+00
        -11   -1    0    0    0    0  0.00000000000E+00  0.00000000000E+00  0.45593999997E+02  0.45594000000E+02  0.51100000000E-03 0. -1.
         11   -1    0    0    0    0 -0.00000000000E+00 -0.00000000000E+00 -0.45593999997E+02  0.45594000000E+02  0.51100000000E-03 0.  1.
    9900012    2    1    2    0    0 -0.56984717714E+00  0.11856493225E+00 -0.10266680606E+01  0.90007817491E+02  0.90000079882E+02 0.  0.
         12    1    1    2    0    0  0.56984717714E+00 -0.11856493225E+00  0.10266680606E+01  0.11801825093E+01  0.00000000000E+00 0. -1.
         11    1    3    3    0    0  0.25663038349E+01 -0.25720982437E+02  0.25834635982E+02  0.36545632700E+02  0.51100000000E-03 0. -1.
        -11    1    3    3    0    0 -0.27171093392E+01  0.77505602707E+01  0.96750542222E+01  0.12690963011E+02  0.51100000000E-03 0.  1.
        -12    1    3    3    0    0 -0.41904167281E+00  0.18088987099E+02 -0.36536358264E+02  0.40771221780E+02  0.00000000000E+00 0.  1.
</event>
<event>
 7    1  0.3707147E-015  0.9000826E+02  0.7816164E-02  0.1186338E+00
        -11   -1    0    0    0    0  0.00000000000E+00  0.00000000000E+00  0.45593999997E+02  0.45594000000E+02  0.51100000000E-03 0. -1.
         11   -1    0    0    0    0 -0.00000000000E+00 -0.00000000000E+00 -0.45593999997E+02  0.45594000000E+02  0.51100000000E-03 0.  1.
    9900012    2    1    2    0    0  0.10212209794E+01 -0.13168902248E+00  0.57580375763E+00  0.90008260938E+02  0.90000529181E+02 0.  0.
         12    1    1    2    0    0 -0.10212209794E+01  0.13168902248E+00 -0.57580375763E+00  0.11797390621E+01  0.00000000000E+00 0. -1.
         11    1    3    3    0    0  0.23078831399E+01 -0.34310985408E+02  0.24181822155E+02  0.42039630912E+02  0.51100000000E-03 0. -1.
        -11    1    3    3    0    0 -0.28505905011E+01 -0.64458266915E+00 -0.10216990310E+02  0.10626770172E+02  0.51100000000E-03 0.  1.
        -12    1    3    3    0    0  0.15639283406E+01  0.34823879054E+02 -0.13389028087E+02  0.37341859854E+02  0.00000000000E+00 0.  1.
</event>
<event>
 7    1  0.3707147E-015  0.9000775E+02  0.7816164E-02  0.1186339E+00
        -11   -1    0    0    0    0  0.00000000000E+00  0.00000000000E+00  0.45593999997E+02  0.45594000000E+02  0.51100000000E-03 0.  1.
         11   -1    0    0    0    0 -0.00000000000E+00 -0.00000000000E+00 -0.45593999997E+02  0.45594000000E+02  0.51100000000E-03 0. -1.
    9900012    2    1    2    0    0  0.82921595328E+00 -0.65488009334E+00 -0.52584750498E+00  0.90007753148E+02  0.90000014689E+02 0.  0.
         12    1    1    2    0    0 -0.82921595328E+00  0.65488009334E+00  0.52584750498E+00  0.11802468523E+01  0.00000000000E+00 0. -1.
         11    1    3    3    0    0  0.35116341244E+01  0.24377565726E+01 -0.11142814521E+02  0.11934678339E+02  0.51100000000E-03 0. -1.
        -11    1    3    3    0    0  0.50685581955E+01 -0.39651396896E+02  0.57941316911E+01  0.40391775405E+02  0.51100000000E-03 0.  1.
         12    1    3    3    0    0 -0.77509763666E+01  0.36558760230E+02  0.48228353254E+01  0.37681299404E+02  0.00000000000E+00 0. -1.
</event>
<event>
 7    1  0.3707147E-015  0.9000780E+02  0.7816164E-02  0.1186339E+00
        -11   -1    0    0    0    0  0.00000000000E+00  0.00000000000E+00  0.45593999997E+02  0.45594000000E+02  0.51100000000E-03 0. -1.
         11   -1    0    0    0    0 -0.00000000000E+00 -0.00000000000E+00 -0.45593999997E+02  0.45594000000E+02  0.51100000000E-03 0.  1.
    9900012    2    1    2    0    0 -0.82121037677E+00  0.83861033891E+00  0.12340465943E+00  0.90007795571E+02  0.90000057673E+02 0.  0.
         12    1    1    2    0    0  0.82121037677E+00 -0.83861033891E+00 -0.12340465943E+00  0.11802044287E+01  0.00000000000E+00 0. -1.
         11    1    3    3    0    0  0.33431698106E+02 -0.87480969636E+01  0.49709029841E+01  0.34912999233E+02  0.51100000000E-03 0. -1.
        -11    1    3    3    0    0  0.41541289634E+01 -0.96766810492E+01  0.39302337947E+01  0.11240181561E+02  0.51100000000E-03 0.  1.
        -12    1    3    3    0    0 -0.38407037446E+02  0.19263388352E+02 -0.87777321193E+01  0.43854614778E+02  0.00000000000E+00 0.  1.
</event>
<event>
 7    1  0.3707147E-015  0.9000775E+02  0.7816164E-02  0.1186339E+00
        -11   -1    0    0    0    0  0.00000000000E+00  0.00000000000E+00  0.45593999997E+02  0.45594000000E+02  0.51100000000E-03 0. -1.
         11   -1    0    0    0    0 -0.00000000000E+00 -0.00000000000E+00 -0.45593999997E+02  0.45594000000E+02  0.51100000000E-03 0.  1.
    9900012    2    1    2    0    0 -0.10366792813E+00 -0.78025993326E+00 -0.87944676366E+00  0.90007754596E+02  0.90000016157E+02 0.  0.
         12    1    1    2    0    0  0.10366792813E+00  0.78025993326E+00  0.87944676366E+00  0.11802454037E+01  0.00000000000E+00 0. -1.
         11    1    3    3    0    0  0.42368457993E+01  0.81001435783E+01 -0.23321252370E+01  0.94340869563E+01  0.51100000000E-03 0. -1.
        -11    1    3    3    0    0  0.26308172473E+02  0.23925868208E+02 -0.13948101660E+01  0.35588096381E+02  0.51100000000E-03 0.  1.
         12    1    3    3    0    0 -0.30648686200E+02 -0.32806271719E+02  0.28474886393E+01  0.44985571259E+02  0.00000000000E+00 0. -1.
</event>
<event>
 7    1  0.3707147E-015  0.9000756E+02  0.7816164E-02  0.1186339E+00
        -11   -1    0    0    0    0  0.00000000000E+00  0.00000000000E+00  0.45593999997E+02  0.45594000000E+02  0.51100000000E-03 0.  1.
         11   -1    0    0    0    0 -0.00000000000E+00 -0.00000000000E+00 -0.45593999997E+02  0.45594000000E+02  0.51100000000E-03 0. -1.
    9900012    2    1    2    0    0 -0.20310550277E+00  0.99713523404E+00  0.59824468092E+00  0.90007564818E+02  0.89999823874E+02 0.  0.
         12    1    1    2    0    0  0.20310550277E+00 -0.99713523404E+00 -0.59824468092E+00  0.11804351818E+01  0.00000000000E+00 0. -1.
         11    1    3    3    0    0 -0.30624835285E+02 -0.33953954489E+01 -0.12528121194E+02  0.33262036428E+02  0.51100000000E-03 0. -1.
        -11    1    3    3    0    0 -0.22074200167E+01 -0.10105047436E+02  0.17949420467E+02  0.20716331292E+02  0.51100000000E-03 0.  1.
         12    1    3    3    0    0  0.32629149799E+02  0.14497578119E+02 -0.48230545928E+01  0.36029197098E+02  0.00000000000E+00 0. -1.
</event>
<event>
 7    1  0.3707147E-015  0.9000788E+02  0.7816164E-02  0.1186339E+00
        -11   -1    0    0    0    0  0.00000000000E+00  0.00000000000E+00  0.45593999997E+02  0.45594000000E+02  0.51100000000E-03 0. -1.
         11   -1    0    0    0    0 -0.00000000000E+00 -0.00000000000E+00 -0.45593999997E+02  0.45594000000E+02  0.51100000000E-03 0.  1.
    9900012    2    1    2    0    0 -0.61261940726E+00 -0.33149115191E+00  0.95262228222E+00  0.90007882152E+02  0.90000145397E+02 0.  0.
         12    1    1    2    0    0  0.61261940726E+00  0.33149115191E+00 -0.95262228222E+00  0.11801178477E+01  0.00000000000E+00 0. -1.
         11    1    3    3    0    0  0.30659493484E+02 -0.11468898253E+02  0.10721342469E+02  0.34445425712E+02  0.51100000000E-03 0. -1.
        -11    1    3    3    0    0  0.97605461846E+01 -0.41301261296E+01 -0.43147509710E+01  0.11443045044E+02  0.51100000000E-03 0.  1.
        -12    1    3    3    0    0 -0.41032659076E+02  0.15267533231E+02 -0.54539692159E+01  0.44119411397E+02  0.00000000000E+00 0.  1.
</event>
<event>
 7    1  0.3707147E-015  0.9000776E+02  0.7816164E-02  0.1186339E+00
        -11   -1    0    0    0    0  0.00000000000E+00  0.00000000000E+00  0.45593999997E+02  0.45594000000E+02  0.51100000000E-03 0. -1.
         11   -1    0    0    0    0 -0.00000000000E+00 -0.00000000000E+00 -0.45593999997E+02  0.45594000000E+02  0.51100000000E-03 0.  1.
    9900012    2    1    2    0    0 -0.98021853532E+00  0.13385876877E-01 -0.65723782021E+00  0.90007758876E+02  0.90000020493E+02 0.  0.
         12    1    1    2    0    0  0.98021853532E+00 -0.13385876877E-01  0.65723782021E+00  0.11802411241E+01  0.00000000000E+00 0. -1.
         11    1    3    3    0    0  0.18539339390E+02 -0.25497605469E+02  0.24561498335E+02  0.39963760964E+02  0.51100000000E-03 0. -1.
        -11    1    3    3    0    0  0.29171688987E+01 -0.40597757342E+01 -0.72443703346E+01  0.88018495330E+01  0.51100000000E-03 0.  1.
        -12    1    3    3    0    0 -0.22436726824E+02  0.29570767080E+02 -0.17974365821E+02  0.41242148379E+02  0.00000000000E+00 0.  1.
</event>
<event>
 7    1  0.3707147E-015  0.9000772E+02  0.7816164E-02  0.1186339E+00
        -11   -1    0    0    0    0  0.00000000000E+00  0.00000000000E+00  0.45593999997E+02  0.45594000000E+02  0.51100000000E-03 0.  1.
         11   -1    0    0    0    0 -0.00000000000E+00 -0.00000000000E+00 -0.45593999997E+02  0.45594000000E+02  0.51100000000E-03 0. -1.
    9900012    2    1    2    0    0 -0.11753054758E+01  0.80850786511E-01  0.72037109816E-01  0.90007716493E+02  0.89999977551E+02 0.  0.
         12    1    1    2    0    0  0.11753054758E+01 -0.80850786511E-01 -0.72037109816E-01  0.11802835067E+01  0.00000000000E+00 0. -1.
         11    1    3    3    0    0  0.19470791045E+02 -0.27975693785E+02  0.69116431637E+01  0.34778182214E+02  0.51100000000E-03 0. -1.
        -11    1    3    3    0    0  0.41038275872E+01 -0.67907226553E+01  0.67098042444E+01  0.10391188012E+02  0.51100000000E-03 0.  1.
        -12    1    3    3    0    0 -0.24749924108E+02  0.34847267226E+02 -0.13549410298E+02  0.44838346267E+02  0.00000000000E+00 0.  1.
</event>
<event>
 7    1  0.3707147E-015  0.9000727E+02  0.7816164E-02  0.1186340E+00
        -11   -1    0    0    0    0  0.00000000000E+00  0.00000000000E+00  0.45593999997E+02  0.45594000000E+02  0.51100000000E-03 0. -1.
         11   -1    0    0    0    0 -0.00000000000E+00 -0.00000000000E+00 -0.45593999997E+02  0.45594000000E+02  0.51100000000E-03 0.  1.
    9900012    2    1    2    0    0  0.11098540736E+01  0.17817221433E-01 -0.40254248770E+00  0.90007265495E+02  0.89999520598E+02 0.  0.
         12    1    1    2    0    0 -0.11098540736E+01 -0.17817221433E-01  0.40254248770E+00  0.11807345055E+01  0.00000000000E+00 0. -1.
         11    1    3    3    0    0  0.16171996398E+01  0.17061016611E+01 -0.12929618165E+02  0.13141580716E+02  0.51100000000E-03 0. -1.
        -11    1    3    3    0    0 -0.17941985140E+02 -0.69361299853E+01 -0.27113271105E+02  0.33243859587E+02  0.51100000000E-03 0.  1.
         12    1    3    3    0    0  0.17434639574E+02  0.52478455456E+01  0.39640346783E+02  0.43621825191E+02  0.00000000000E+00 0. -1.
</event>
<event>
 7    1  0.3707147E-015  0.9000774E+02  0.7816164E-02  0.1186339E+00
        -11   -1    0    0    0    0  0.00000000000E+00  0.00000000000E+00  0.45593999997E+02  0.45594000000E+02  0.51100000000E-03 0. -1.
         11   -1    0    0    0    0 -0.00000000000E+00 -0.00000000000E+00 -0.45593999997E+02  0.45594000000E+02  0.51100000000E-03 0.  1.
    9900012    2    1    2    0    0  0.51295408385E+00 -0.10170780654E+01  0.30894349016E+00  0.90007739112E+02  0.90000000468E+02 0.  0.
         12    1    1    2    0    0 -0.51295408385E+00  0.10170780654E+01 -0.30894349016E+00  0.11802608878E+01  0.00000000000E+00 0. -1.
         11    1    3    3    0    0 -0.22962403943E+01  0.53144923784E+01  0.76235919198E+01  0.95726539271E+01  0.51100000000E-03 0. -1.
        -11    1    3    3    0    0  0.13067205050E+02  0.31273223400E+02 -0.20109372910E+02  0.39410065069E+02  0.51100000000E-03 0.  1.
         12    1    3    3    0    0 -0.10258010572E+02 -0.37604793844E+02  0.12794724481E+02  0.41025020116E+02  0.00000000000E+00 0. -1.
</event>
<event>
 7    1  0.3707147E-015  0.9000781E+02  0.7816164E-02  0.1186339E+00
        -11   -1    0    0    0    0  0.00000000000E+00  0.00000000000E+00  0.45593999997E+02  0.45594000000E+02  0.51100000000E-03 0.  1.
         11   -1    0    0    0    0 -0.00000000000E+00 -0.00000000000E+00 -0.45593999997E+02  0.45594000000E+02  0.51100000000E-03 0. -1.
    9900012    2    1    2    0    0 -0.18306989947E+00 -0.71851747612E+00 -0.91819127294E+00  0.90007806302E+02  0.90000068545E+02 0.  0.
         12    1    1    2    0    0  0.18306989947E+00  0.71851747612E+00  0.91819127294E+00  0.11801936982E+01  0.00000000000E+00 0. -1.
         11    1    3    3    0    0 -0.49552594103E+01 -0.19893088062E+02 -0.29721539907E+02  0.36106224992E+02  0.51100000000E-03 0. -1.
        -11    1    3    3    0    0 -0.52878056238E+01 -0.46108904095E+01 -0.68978761264E+01  0.98387953531E+01  0.51100000000E-03 0.  1.
        -12    1    3    3    0    0  0.10059995135E+02  0.23785460996E+02  0.35701224760E+02  0.44062785957E+02  0.00000000000E+00 0.  1.
</event>
<event>
 7    1  0.3707147E-015  0.9000783E+02  0.7816164E-02  0.1186339E+00
        -11   -1    0    0    0    0  0.00000000000E+00  0.00000000000E+00  0.45593999997E+02  0.45594000000E+02  0.51100000000E-03 0.  1.
         11   -1    0    0    0    0 -0.00000000000E+00 -0.00000000000E+00 -0.45593999997E+02  0.45594000000E+02  0.51100000000E-03 0. -1.
    9900012    2    1    2    0    0  0.10313249098E+01  0.27680706805E+00  0.50253895204E+00  0.90007831105E+02  0.90000093676E+02 0.  0.
         12    1    1    2    0    0 -0.10313249098E+01 -0.27680706805E+00 -0.50253895204E+00  0.11801688950E+01  0.00000000000E+00 0. -1.
         11    1    3    3    0    0 -0.88780368512E+01 -0.36635552893E+01  0.23518556037E+01  0.98879927554E+01  0.51100000000E-03 0. -1.
        -11    1    3    3    0    0 -0.14276954085E+02  0.11399751868E+02  0.32600974880E+02  0.37371236586E+02  0.51100000000E-03 0.  1.
         12    1    3    3    0    0  0.24186315846E+02 -0.74593895112E+01 -0.34450291532E+02  0.42748601763E+02  0.00000000000E+00 0. -1.
</event>
<event>
 7    1  0.3707147E-015  0.9000786E+02  0.7816164E-02  0.1186339E+00
        -11   -1    0    0    0    0  0.00000000000E+00  0.00000000000E+00  0.45593999997E+02  0.45594000000E+02  0.51100000000E-03 0. -1.
         11   -1    0    0    0    0 -0.00000000000E+00 -0.00000000000E+00 -0.45593999997E+02  0.45594000000E+02  0.51100000000E-03 0.  1.
    9900012    2    1    2    0    0 -0.62807887013E+00  0.99742938515E+00  0.58212069889E-01  0.90007857174E+02  0.90000120088E+02 0.  0.
         12    1    1    2    0    0  0.62807887013E+00 -0.99742938515E+00 -0.58212069889E-01  0.11801428263E+01  0.00000000000E+00 0. -1.
         11    1    3    3    0    0 -0.35026639814E+01  0.14468998219E+00 -0.94751750578E+01  0.10102897248E+02  0.51100000000E-03 0. -1.
        -11    1    3    3    0    0 -0.20416445939E+01  0.88670452702E+01 -0.34088166945E+02  0.35281665641E+02  0.51100000000E-03 0.  1.
         12    1    3    3    0    0  0.49162297051E+01 -0.80143058672E+01  0.43621554073E+02  0.44623294285E+02  0.00000000000E+00 0. -1.
</event>
<event>
 7    1  0.3707147E-015  0.9000775E+02  0.7816164E-02  0.1186339E+00
        -11   -1    0    0    0    0  0.00000000000E+00  0.00000000000E+00  0.45593999997E+02  0.45594000000E+02  0.51100000000E-03 0. -1.
         11   -1    0    0    0    0 -0.00000000000E+00 -0.00000000000E+00 -0.45593999997E+02  0.45594000000E+02  0.51100000000E-03 0.  1.
    9900012    2    1    2    0    0  0.98300335190E+00  0.18806314506E+00 -0.62555349468E+00  0.90007754046E+02  0.90000015600E+02 0.  0.
         12    1    1    2    0    0 -0.98300335190E+00 -0.18806314506E+00  0.62555349468E+00  0.11802459536E+01  0.00000000000E+00 0. -1.
         11    1    3    3    0    0 -0.18533787765E+02  0.57725270808E+01  0.34651126946E+02  0.39718055802E+02  0.51100000000E-03 0. -1.
        -11    1    3    3    0    0 -0.39296032715E+01  0.21726329988E+01  0.25131917013E+01  0.51457019742E+01  0.51100000000E-03 0.  1.
        -12    1    3    3    0    0  0.23446394388E+02 -0.77570969345E+01 -0.37789872142E+02  0.45143996270E+02  0.00000000000E+00 0.  1.
</event>
<event>
 7    1  0.3707147E-015  0.9000774E+02  0.7816164E-02  0.1186339E+00
        -11   -1    0    0    0    0  0.00000000000E+00  0.00000000000E+00  0.45593999997E+02  0.45594000000E+02  0.51100000000E-03 0. -1.
         11   -1    0    0    0    0 -0.00000000000E+00 -0.00000000000E+00 -0.45593999997E+02  0.45594000000E+02  0.51100000000E-03 0.  1.
    9900012    2    1    2    0    0  0.66976308691E+00 -0.19634800299E+00 -0.95178130941E+00  0.90007736135E+02  0.89999997452E+02 0.  0.
         12    1    1    2    0    0 -0.66976308691E+00  0.19634800299E+00  0.95178130941E+00  0.11802638653E+01  0.00000000000E+00 0. -1.
         11    1    3    3    0    0  0.10054485890E+02  0.61475916163E+01 -0.55940616552E+01  0.13045270992E+02  0.51100000000E-03 0. -1.
        -11    1    3    3    0    0  0.24292626322E+02  0.76896764449E+01  0.24564541721E+02  0.35393213017E+02  0.51100000000E-03 0.  1.
         12    1    3    3    0    0 -0.33677349125E+02 -0.14033616064E+02 -0.19922261375E+02  0.41569252125E+02  0.00000000000E+00 0. -1.
</event>
<event>
 7    1  0.3707147E-015  0.9000787E+02  0.7816164E-02  0.1186339E+00
        -11   -1    0    0    0    0  0.00000000000E+00  0.00000000000E+00  0.45593999997E+02  0.45594000000E+02  0.51100000000E-03 0.  1.
         11   -1    0    0    0    0 -0.00000000000E+00 -0.00000000000E+00 -0.45593999997E+02  0.45594000000E+02  0.51100000000E-03 0. -1.
    9900012    2    1    2    0    0  0.80174932664E+00  0.70350854893E+00 -0.50495425309E+00  0.90007870745E+02  0.90000133839E+02 0.  0.
         12    1    1    2    0    0 -0.80174932664E+00 -0.70350854893E+00  0.50495425309E+00  0.11801292552E+01  0.00000000000E+00 0. -1.
         11    1    3    3    0    0  0.35984028457E+00 -0.14617821899E+02  0.10760898207E+02  0.18155085585E+02  0.51100000000E-03 0.  1.
        -11    1    3    3    0    0  0.22975124101E+02  0.14360509604E+02  0.19732441648E+02  0.33517902935E+02  0.51100000000E-03 0. -1.
         12    1    3    3    0    0 -0.22533215059E+02  0.96082084413E+00 -0.30998294108E+02  0.38334882225E+02  0.00000000000E+00 0. -1.
</event>
<event>
 7    1  0.4025551E-015  0.9000773E+02  0.7816164E-02  0.1186339E+00
        -11   -1    0    0    0    0  0.00000000000E+00  0.00000000000E+00  0.45593999997E+02  0.45594000000E+02  0.51100000000E-03 0. -1.
         11   -1    0    0    0    0 -0.00000000000E+00 -0.00000000000E+00 -0.45593999997E+02  0.45594000000E+02  0.51100000000E-03 0.  1.
    9900012    2    1    2    0    0  0.30685863073E+00  0.85510519097E+00 -0.75344167782E+00  0.90007728223E+02  0.89999989435E+02 0.  0.
         12    1    1    2    0    0 -0.30685863073E+00 -0.85510519097E+00  0.75344167782E+00  0.11802717775E+01  0.00000000000E+00 0. -1.
         11    1    3    3    0    0 -0.58826500804E+01 -0.40307794902E+01 -0.61564860226E+01  0.94209912257E+01  0.51100000000E-03 0. -1.
        -11    1    3    3    0    0 -0.30397667532E+02 -0.17581009508E+02 -0.71883228027E+01  0.35843856819E+02  0.51100000000E-03 0.  1.
         12    1    3    3    0    0  0.36587176243E+02  0.22466894189E+02  0.12591367148E+02  0.44742880178E+02  0.00000000000E+00 0. -1.
</event>
<event>
 7    1  0.6897437E-015  0.9000785E+02  0.7816164E-02  0.1186339E+00
        -11   -1    0    0    0    0  0.00000000000E+00  0.00000000000E+00  0.45593999997E+02  0.45594000000E+02  0.51100000000E-03 0.  1.
         11   -1    0    0    0    0 -0.00000000000E+00 -0.00000000000E+00 -0.45593999997E+02  0.45594000000E+02  0.51100000000E-03 0. -1.
    9900012    2    1    2    0    0  0.69291704290E+00  0.93147289785E+00  0.21206160975E+00  0.90007853435E+02  0.90000116301E+02 0.  0.
         12    1    1    2    0    0 -0.69291704290E+00 -0.93147289785E+00 -0.21206160975E+00  0.11801465647E+01  0.00000000000E+00 0. -1.
         11    1    3    3    0    0  0.94290841345E+01 -0.19958332225E+01 -0.14878714197E+01  0.97521658871E+01  0.51100000000E-03 0. -1.
        -11    1    3    3    0    0  0.34502014369E+02  0.45688578099E+01  0.99700378941E+01  0.36203109163E+02  0.51100000000E-03 0.  1.
         12    1    3    3    0    0 -0.43238181460E+02 -0.16415516896E+01 -0.82701048646E+01  0.44052578385E+02  0.00000000000E+00 0. -1.
</event>
<event>
 7    1  0.3707147E-015  0.9000779E+02  0.7816164E-02  0.1186339E+00
        -11   -1    0    0    0    0  0.00000000000E+00  0.00000000000E+00  0.45593999997E+02  0.45594000000E+02  0.51100000000E-03 0.  1.
         11   -1    0    0    0    0 -0.00000000000E+00 -0.00000000000E+00 -0.45593999997E+02  0.45594000000E+02  0.51100000000E-03 0. -1.
    9900012    2    1    2    0    0  0.60507568926E+00 -0.10132668786E+01 -0.82770374623E-02  0.90007790329E+02  0.90000052362E+02 0.  0.
         12    1    1    2    0    0 -0.60507568926E+00  0.10132668786E+01  0.82770374623E-02  0.11802096705E+01  0.00000000000E+00 0. -1.
         11    1    3    3    0    0  0.36832888655E+02  0.18148825157E+02 -0.30170341898E+01  0.41172126940E+02  0.51100000000E-03 0. -1.
        -11    1    3    3    0    0 -0.10633893034E+02  0.65274243447E+01  0.98636716718E+00  0.12516384066E+02  0.51100000000E-03 0.  1.
        -12    1    3    3    0    0 -0.25593919931E+02 -0.25689516380E+02  0.20223899852E+01  0.36319279323E+02  0.00000000000E+00 0.  1.
</event>
<event>
 7    1  0.3707147E-015  0.9000793E+02  0.7816164E-02  0.1186339E+00
        -11   -1    0    0    0    0  0.00000000000E+00  0.00000000000E+00  0.45593999997E+02  0.45594000000E+02  0.51100000000E-03 0. -1.
         11   -1    0    0    0    0 -0.00000000000E+00 -0.00000000000E+00 -0.45593999997E+02  0.45594000000E+02  0.51100000000E-03 0.  1.
    9900012    2    1    2    0    0 -0.62456415239E+00  0.90683266601E+00 -0.42442116885E+00  0.90007932547E+02  0.90000196457E+02 0.  0.
         12    1    1    2    0    0  0.62456415239E+00 -0.90683266601E+00  0.42442116885E+00  0.11800674528E+01  0.00000000000E+00 0. -1.
         11    1    3    3    0    0  0.57513335487E+01  0.75005262879E+00 -0.63238261306E+01  0.85808620619E+01  0.51100000000E-03 0. -1.
        -11    1    3    3    0    0 -0.37624438696E+01  0.26263634113E+01 -0.37549916034E+02  0.37829221021E+02  0.51100000000E-03 0.  1.
         12    1    3    3    0    0 -0.26134538315E+01 -0.24695833741E+01  0.43449320995E+02  0.43597849465E+02  0.00000000000E+00 0. -1.
</event>
<event>
 7    1  0.3707147E-015  0.9000774E+02  0.7816164E-02  0.1186339E+00
        -11   -1    0    0    0    0  0.00000000000E+00  0.00000000000E+00  0.45593999997E+02  0.45594000000E+02  0.51100000000E-03 0.  1.
         11   -1    0    0    0    0 -0.00000000000E+00 -0.00000000000E+00 -0.45593999997E+02  0.45594000000E+02  0.51100000000E-03 0. -1.
    9900012    2    1    2    0    0  0.34595159302E-02  0.11078977660E+01  0.40690698384E+00  0.90007736164E+02  0.89999997482E+02 0.  0.
         12    1    1    2    0    0 -0.34595159302E-02 -0.11078977660E+01 -0.40690698384E+00  0.11802638356E+01  0.00000000000E+00 0. -1.
         11    1    3    3    0    0 -0.24577482777E+02  0.55056643517E+00 -0.20380167620E+02  0.31932851666E+02  0.51100000000E-03 0. -1.
        -11    1    3    3    0    0 -0.89444914876E+01  0.95098474943E+01  0.19353363149E+02  0.23345102115E+02  0.51100000000E-03 0.  1.
        -12    1    3    3    0    0  0.33525433780E+02 -0.89525161635E+01  0.14337114547E+01  0.34729782383E+02  0.00000000000E+00 0.  1.
</event>
<event>
 7    1  0.3707147E-015  0.9000801E+02  0.7816164E-02  0.1186339E+00
        -11   -1    0    0    0    0  0.00000000000E+00  0.00000000000E+00  0.45593999997E+02  0.45594000000E+02  0.51100000000E-03 0.  1.
         11   -1    0    0    0    0 -0.00000000000E+00 -0.00000000000E+00 -0.45593999997E+02  0.45594000000E+02  0.51100000000E-03 0. -1.
    9900012    2    1    2    0    0 -0.23355123663E+00 -0.34327188153E+00  0.11045324393E+01  0.90008011155E+02  0.90000276102E+02 0.  0.
         12    1    1    2    0    0  0.23355123663E+00  0.34327188153E+00 -0.11045324393E+01  0.11799888450E+01  0.00000000000E+00 0. -1.
         11    1    3    3    0    0  0.12399958194E+02  0.21883985748E+02 -0.27610729434E+02  0.37349968883E+02  0.51100000000E-03 0. -1.
        -11    1    3    3    0    0  0.36363933912E+00  0.91189653818E+01  0.16989206912E+01  0.92830003221E+01  0.51100000000E-03 0.  1.
        -12    1    3    3    0    0 -0.12997148769E+02 -0.31346223012E+02  0.27016341182E+02  0.43375041949E+02  0.00000000000E+00 0.  1.
</event>
<event>
 7    1  0.3707147E-015  0.9000773E+02  0.7816164E-02  0.1186339E+00
        -11   -1    0    0    0    0  0.00000000000E+00  0.00000000000E+00  0.45593999997E+02  0.45594000000E+02  0.51100000000E-03 0. -1.
         11   -1    0    0    0    0 -0.00000000000E+00 -0.00000000000E+00 -0.45593999997E+02  0.45594000000E+02  0.51100000000E-03 0.  1.
    9900012    2    1    2    0    0 -0.58169623592E+00  0.66201426453E+00 -0.78511820701E+00  0.90007727152E+02  0.89999988350E+02 0.  0.
         12    1    1    2    0    0  0.58169623592E+00 -0.66201426453E+00  0.78511820701E+00  0.11802728482E+01  0.00000000000E+00 0. -1.
         11    1    3    3    0    0 -0.18497923959E+00 -0.47698791432E+01 -0.90251610784E+01  0.10209774587E+02  0.51100000000E-03 0. -1.
        -11    1    3    3    0    0 -0.26382498727E+02 -0.21134256999E+02 -0.13889398483E+02  0.36545977186E+02  0.51100000000E-03 0.  1.
         12    1    3    3    0    0  0.25985781731E+02  0.26566150406E+02  0.22129441355E+02  0.43251975380E+02  0.00000000000E+00 0. -1.
</event>
<event>
 7    1  0.3707147E-015  0.9000791E+02  0.7816164E-02  0.1186339E+00
        -11   -1    0    0    0    0  0.00000000000E+00  0.00000000000E+00  0.45593999997E+02  0.45594000000E+02  0.51100000000E-03 0. -1.
         11   -1    0    0    0    0 -0.00000000000E+00 -0.00000000000E+00 -0.45593999997E+02  0.45594000000E+02  0.51100000000E-03 0.  1.
    9900012    2    1    2    0    0 -0.94984366587E+00 -0.56159505900E+00 -0.41836579662E+00  0.90007905962E+02  0.90000169520E+02 0.  0.
         12    1    1    2    0    0  0.94984366587E+00  0.56159505900E+00  0.41836579662E+00  0.11800940385E+01  0.00000000000E+00 0. -1.
         11    1    3    3    0    0 -0.30885681453E+01  0.25152552882E+02  0.12927759998E+02  0.28448499934E+02  0.51100000000E-03 0. -1.
        -11    1    3    3    0    0  0.20395336140E+02 -0.55632042771E+00 -0.21277915347E+02  0.29479296302E+02  0.51100000000E-03 0.  1.
         12    1    3    3    0    0 -0.18256611661E+02 -0.25157827513E+02  0.79317895518E+01  0.32080109726E+02  0.00000000000E+00 0. -1.
</event>
<event>
 7    1  0.3707147E-015  0.9000673E+02  0.7816164E-02  0.1186341E+00
        -11   -1    0    0    0    0  0.00000000000E+00  0.00000000000E+00  0.45593999997E+02  0.45594000000E+02  0.51100000000E-03 0.  1.
         11   -1    0    0    0    0 -0.00000000000E+00 -0.00000000000E+00 -0.45593999997E+02  0.45594000000E+02  0.51100000000E-03 0. -1.
    9900012    2    1    2    0    0  0.98139963227E+00  0.32948556181E+00  0.56893446998E+00  0.90006732712E+02  0.89998980778E+02 0.  0.
         12    1    1    2    0    0 -0.98139963227E+00 -0.32948556181E+00 -0.56893446998E+00  0.11812672876E+01  0.00000000000E+00 0. -1.
         11    1    3    3    0    0 -0.81002443069E+01 -0.45601065188E+01 -0.37980994665E+01  0.10041617853E+02  0.51100000000E-03 0. -1.
        -11    1    3    3    0    0  0.22367088880E+02 -0.99601903732E+01 -0.30920488707E+02  0.39440698262E+02  0.51100000000E-03 0.  1.
         12    1    3    3    0    0 -0.13285444941E+02  0.14849782454E+02  0.35287522644E+02  0.40524416597E+02  0.00000000000E+00 0. -1.
</event>
<event>
 7    1  0.3707147E-015  0.9000771E+02  0.7816164E-02  0.1186339E+00
        -11   -1    0    0    0    0  0.00000000000E+00  0.00000000000E+00  0.45593999997E+02  0.45594000000E+02  0.51100000000E-03 0.  1.
         11   -1    0    0    0    0 -0.00000000000E+00 -0.00000000000E+00 -0.45593999997E+02  0.45594000000E+02  0.51100000000E-03 0. -1.
    9900012    2    1    2    0    0  0.32252662742E+00  0.10395784844E+01  0.45644984807E+00  0.90007706259E+02  0.89999967182E+02 0.  0.
         12    1    1    2    0    0 -0.32252662742E+00 -0.10395784844E+01 -0.45644984807E+00  0.11802937407E+01  0.00000000000E+00 0. -1.
         11    1    3    3    0    0  0.14712901325E+01 -0.46031314586E+01 -0.37192661254E+02  0.37505300496E+02  0.51100000000E-03 0. -1.
        -11    1    3    3    0    0  0.11588533368E+02  0.34873161517E+01 -0.61393701593E+00  0.12117441912E+02  0.51100000000E-03 0.  1.
        -12    1    3    3    0    0 -0.12737296873E+02  0.21553937913E+01  0.38263048118E+02  0.40384963852E+02  0.00000000000E+00 0.  1.
</event>
<event>
 7    1  0.3707147E-015  0.9000774E+02  0.7816164E-02  0.1186339E+00
        -11   -1    0    0    0    0  0.00000000000E+00  0.00000000000E+00  0.45593999997E+02  0.45594000000E+02  0.51100000000E-03 0. -1.
         11   -1    0    0    0    0 -0.00000000000E+00 -0.00000000000E+00 -0.45593999997E+02  0.45594000000E+02  0.51100000000E-03 0.  1.
    9900012    2    1    2    0    0 -0.78190269013E+00  0.87491294091E+00  0.12719477315E+00  0.90007736054E+02  0.89999997370E+02 0.  0.
         12    1    1    2    0    0  0.78190269013E+00 -0.87491294091E+00 -0.12719477315E+00  0.11802639456E+01  0.00000000000E+00 0. -1.
         11    1    3    3    0    0  0.24764927793E+02 -0.10452757406E+02  0.30777220270E+02  0.40863175033E+02  0.51100000000E-03 0. -1.
        -11    1    3    3    0    0  0.49905096601E+01  0.52296022337E+01 -0.48493910334E+01  0.87046263473E+01  0.51100000000E-03 0.  1.
        -12    1    3    3    0    0 -0.30537340143E+02  0.60980681131E+01 -0.25800634463E+02  0.40439934674E+02  0.00000000000E+00 0.  1.
</event>
<event>
 7    1  0.3707147E-015  0.9000768E+02  0.7816164E-02  0.1186339E+00
        -11   -1    0    0    0    0  0.00000000000E+00  0.00000000000E+00  0.45593999997E+02  0.45594000000E+02  0.51100000000E-03 0.  1.
         11   -1    0    0    0    0 -0.00000000000E+00 -0.00000000000E+00 -0.45593999997E+02  0.45594000000E+02  0.51100000000E-03 0. -1.
    9900012    2    1    2    0    0 -0.56112497852E+00 -0.82711551197E+00  0.62783454089E+00  0.90007679060E+02  0.89999939623E+02 0.  0.
         12    1    1    2    0    0  0.56112497852E+00  0.82711551197E+00 -0.62783454089E+00  0.11803209404E+01  0.00000000000E+00 0. -1.
         11    1    3    3    0    0  0.70843049665E+01 -0.12117700196E+02 -0.29654288590E+01  0.14346421278E+02  0.51100000000E-03 0. -1.
        -11    1    3    3    0    0 -0.12408591718E+02 -0.29920560273E+02  0.95034018469E+01  0.33756891480E+02  0.51100000000E-03 0.  1.
         12    1    3    3    0    0  0.47631617725E+01  0.41211144957E+02 -0.59101384470E+01  0.41904366302E+02  0.00000000000E+00 0. -1.
</event>
<event>
 7    1  0.3707147E-015  0.9000694E+02  0.7816164E-02  0.1186341E+00
        -11   -1    0    0    0    0  0.00000000000E+00  0.00000000000E+00  0.45593999997E+02  0.45594000000E+02  0.51100000000E-03 0. -1.
         11   -1    0    0    0    0 -0.00000000000E+00 -0.00000000000E+00 -0.45593999997E+02  0.45594000000E+02  0.51100000000E-03 0.  1.
    9900012    2    1    2    0    0  0.94579171071E+00  0.70591407374E+00  0.45556856512E-01  0.90006936045E+02  0.89999186797E+02 0.  0.
         12    1    1    2    0    0 -0.94579171071E+00 -0.70591407374E+00 -0.45556856512E-01  0.11810639554E+01  0.00000000000E+00 0. -1.
         11    1    3    3    0    0 -0.46474622301E+00 -0.34131186091E+02  0.98573056157E+01  0.35529147573E+02  0.51100000000E-03 0. -1.
        -11    1    3    3    0    0 -0.38263725324E+01 -0.85147175653E+01  0.12847555962E+01  0.94229580905E+01  0.51100000000E-03 0.  1.
        -12    1    3    3    0    0  0.52369104661E+01  0.43351817730E+02 -0.11096504355E+02  0.45054830381E+02  0.00000000000E+00 0.  1.
</event>
<event>
 7    1  0.3707147E-015  0.9000768E+02  0.7816164E-02  0.1186339E+00
        -11   -1    0    0    0    0  0.00000000000E+00  0.00000000000E+00  0.45593999997E+02  0.45594000000E+02  0.51100000000E-03 0. -1.
         11   -1    0    0    0    0 -0.00000000000E+00 -0.00000000000E+00 -0.45593999997E+02  0.45594000000E+02  0.51100000000E-03 0.  1.
    9900012    2    1    2    0    0  0.76233842887E+00 -0.18129370316E+00  0.88267963091E+00  0.90007681984E+02  0.89999942587E+02 0.  0.
         12    1    1    2    0    0 -0.76233842887E+00  0.18129370316E+00 -0.88267963091E+00  0.11803180155E+01  0.00000000000E+00 0. -1.
         11    1    3    3    0    0  0.42748346908E+01 -0.15023987535E+02  0.35458675814E+02  0.38746768947E+02  0.51100000000E-03 0. -1.
        -11    1    3    3    0    0 -0.25827792159E+01 -0.92303959864E+01 -0.59080406043E+00  0.96031249207E+01  0.51100000000E-03 0.  1.
        -12    1    3    3    0    0 -0.92971704598E+00  0.24073089818E+02 -0.33985192123E+02  0.41657788117E+02  0.00000000000E+00 0.  1.
</event>
<event>
 7    1  0.3707147E-015  0.9000774E+02  0.7816164E-02  0.1186339E+00
        -11   -1    0    0    0    0  0.00000000000E+00  0.00000000000E+00  0.45593999997E+02  0.45594000000E+02  0.51100000000E-03 0.  1.
         11   -1    0    0    0    0 -0.00000000000E+00 -0.00000000000E+00 -0.45593999997E+02  0.45594000000E+02  0.51100000000E-03 0. -1.
    9900012    2    1    2    0    0  0.11260993061E+00 -0.10922355662E+01 -0.43283430901E+00  0.90007743643E+02  0.90000005059E+02 0.  0.
         12    1    1    2    0    0 -0.11260993061E+00  0.10922355662E+01  0.43283430901E+00  0.11802563567E+01  0.00000000000E+00 0. -1.
         11    1    3    3    0    0  0.21410614087E+02  0.54455084247E+01 -0.32252509095E+02  0.39093379245E+02  0.51100000000E-03 0. -1.
        -11    1    3    3    0    0  0.20057158191E+00  0.11364445122E+02  0.60400101056E+01  0.12871385482E+02  0.51100000000E-03 0.  1.
        -12    1    3    3    0    0 -0.21498575739E+02 -0.17902189113E+02  0.25779664680E+02  0.38042978917E+02  0.00000000000E+00 0.  1.
</event>
<event>
 7    1  0.3707147E-015  0.9000776E+02  0.7816164E-02  0.1186339E+00
        -11   -1    0    0    0    0  0.00000000000E+00  0.00000000000E+00  0.45593999997E+02  0.45594000000E+02  0.51100000000E-03 0. -1.
         11   -1    0    0    0    0 -0.00000000000E+00 -0.00000000000E+00 -0.45593999997E+02  0.45594000000E+02  0.51100000000E-03 0.  1.
    9900012    2    1    2    0    0 -0.82339591800E+00  0.83715387241E+00 -0.11903103046E+00  0.90007756029E+02  0.90000017609E+02 0.  0.
         12    1    1    2    0    0  0.82339591800E+00 -0.83715387241E+00  0.11903103046E+00  0.11802439706E+01  0.00000000000E+00 0. -1.
         11    1    3    3    0    0 -0.62174916086E+01 -0.55051759368E+01  0.65225844485E+01  0.10559747731E+02  0.51100000000E-03 0. -1.
        -11    1    3    3    0    0 -0.15004673814E+02  0.35620848437E+02  0.10220658529E+02  0.39980582045E+02  0.51100000000E-03 0.  1.
         12    1    3    3    0    0  0.20398769504E+02 -0.29278518628E+02 -0.16862274008E+02  0.39467426253E+02  0.00000000000E+00 0. -1.
</event>
<event>
 7    1  0.3707147E-015  0.9000771E+02  0.7816164E-02  0.1186339E+00
        -11   -1    0    0    0    0  0.00000000000E+00  0.00000000000E+00  0.45593999997E+02  0.45594000000E+02  0.51100000000E-03 0. -1.
         11   -1    0    0    0    0 -0.00000000000E+00 -0.00000000000E+00 -0.45593999997E+02  0.45594000000E+02  0.51100000000E-03 0.  1.
    9900012    2    1    2    0    0  0.26357424041E+00  0.81849311608E+00 -0.80850037753E+00  0.90007713924E+02  0.89999974948E+02 0.  0.
         12    1    1    2    0    0 -0.26357424041E+00 -0.81849311608E+00  0.80850037753E+00  0.11802860762E+01  0.00000000000E+00 0. -1.
         11    1    3    3    0    0 -0.55476956057E+01  0.33464933277E+02 -0.95559194778E+01  0.35241939264E+02  0.51100000000E-03 0. -1.
        -11    1    3    3    0    0 -0.21441949473E+01  0.73587877020E+01 -0.76272026451E+01  0.10813119294E+02  0.51100000000E-03 0.  1.
        -12    1    3    3    0    0  0.79554647934E+01 -0.40005227863E+02  0.16374621745E+02  0.43952655366E+02  0.00000000000E+00 0.  1.
</event>
<event>
 7    1  0.3707147E-015  0.9000753E+02  0.7816164E-02  0.1186339E+00
        -11   -1    0    0    0    0  0.00000000000E+00  0.00000000000E+00  0.45593999997E+02  0.45594000000E+02  0.51100000000E-03 0. -1.
         11   -1    0    0    0    0 -0.00000000000E+00 -0.00000000000E+00 -0.45593999997E+02  0.45594000000E+02  0.51100000000E-03 0.  1.
    9900012    2    1    2    0    0 -0.66334912671E-01  0.10896407296E+01 -0.44922002258E+00  0.90007527269E+02  0.89999785829E+02 0.  0.
         12    1    1    2    0    0  0.66334912671E-01 -0.10896407296E+01  0.44922002258E+00  0.11804727311E+01  0.00000000000E+00 0. -1.
         11    1    3    3    0    0  0.59895553383E+01  0.52431010786E+01 -0.89248307412E+01  0.11958991851E+02  0.51100000000E-03 0. -1.
        -11    1    3    3    0    0  0.30966505923E+02 -0.20017562737E+02  0.81788645908E+01  0.37769314704E+02  0.51100000000E-03 0.  1.
         12    1    3    3    0    0 -0.37022396174E+02  0.15864102388E+02  0.29674612782E+00  0.40279220713E+02  0.00000000000E+00 0. -1.
</event>
<event>
 7    1  0.3707147E-015  0.9000778E+02  0.7816164E-02  0.1186339E+00
        -11   -1    0    0    0    0  0.00000000000E+00  0.00000000000E+00  0.45593999997E+02  0.45594000000E+02  0.51100000000E-03 0. -1.
         11   -1    0    0    0    0 -0.00000000000E+00 -0.00000000000E+00 -0.45593999997E+02  0.45594000000E+02  0.51100000000E-03 0.  1.
    9900012    2    1    2    0    0 -0.16984820644E+00 -0.71686611997E+00 -0.92205146846E+00  0.90007777835E+02  0.90000039703E+02 0.  0.
         12    1    1    2    0    0  0.16984820644E+00  0.71686611997E+00  0.92205146846E+00  0.11802221645E+01  0.00000000000E+00 0. -1.
         11    1    3    3    0    0 -0.11586322952E+02  0.16433887964E+02  0.27410008639E+02  0.33994472007E+02  0.51100000000E-03 0. -1.
        -11    1    3    3    0    0 -0.41619844202E+01 -0.12209969469E+02  0.86835981831E+01  0.15550252295E+02  0.51100000000E-03 0.  1.
        -12    1    3    3    0    0  0.15578459166E+02 -0.49407846146E+01 -0.37015658291E+02  0.40463053534E+02  0.00000000000E+00 0.  1.
</event>
<event>
 7    1  0.3707147E-015  0.9000779E+02  0.7816164E-02  0.1186339E+00
        -11   -1    0    0    0    0  0.00000000000E+00  0.00000000000E+00  0.45593999997E+02  0.45594000000E+02  0.51100000000E-03 0.  1.
         11   -1    0    0    0    0 -0.00000000000E+00 -0.00000000000E+00 -0.45593999997E+02  0.45594000000E+02  0.51100000000E-03 0. -1.
    9900012    2    1    2    0    0 -0.11078808721E+01 -0.36498492632E+00  0.17967654242E+00  0.90007789136E+02  0.90000051153E+02 0.  0.
         12    1    1    2    0    0  0.11078808721E+01  0.36498492632E+00 -0.17967654242E+00  0.11802108638E+01  0.00000000000E+00 0. -1.
         11    1    3    3    0    0 -0.11224458844E+02  0.37523317295E+02 -0.14711598146E+01  0.39193776657E+02  0.51100000000E-03 0. -1.
        -11    1    3    3    0    0  0.59043327623E+01  0.22595569146E+01 -0.71015900279E+01  0.95078559099E+01  0.51100000000E-03 0.  1.
        -12    1    3    3    0    0  0.42122452092E+01 -0.40147859136E+02  0.87524263849E+01  0.41306156569E+02  0.00000000000E+00 0.  1.
</event>
<event>
 7    1  0.3707147E-015  0.9000785E+02  0.7816164E-02  0.1186339E+00
        -11   -1    0    0    0    0  0.00000000000E+00  0.00000000000E+00  0.45593999997E+02  0.45594000000E+02  0.51100000000E-03 0.  1.
         11   -1    0    0    0    0 -0.00000000000E+00 -0.00000000000E+00 -0.45593999997E+02  0.45594000000E+02  0.51100000000E-03 0. -1.
    9900012    2    1    2    0    0  0.43622662482E+00  0.10596364733E+01  0.28219831354E+00  0.90007847886E+02  0.90000110678E+02 0.  0.
         12    1    1    2    0    0 -0.43622662482E+00 -0.10596364733E+01 -0.28219831354E+00  0.11801521139E+01  0.00000000000E+00 0. -1.
         11    1    3    3    0    0 -0.18716867269E+01 -0.97691076957E+01  0.16672079366E+01  0.10085547032E+02  0.51100000000E-03 0. -1.
        -11    1    3    3    0    0 -0.17910169602E+02  0.36966499246E+02  0.14099975642E+02  0.43429316769E+02  0.51100000000E-03 0.  1.
         12    1    3    3    0    0  0.20218082953E+02 -0.26137755077E+02 -0.15484985265E+02  0.36492984085E+02  0.00000000000E+00 0. -1.
</event>
<event>
 7    1  0.3707147E-015  0.9000770E+02  0.7816164E-02  0.1186339E+00
        -11   -1    0    0    0    0  0.00000000000E+00  0.00000000000E+00  0.45593999997E+02  0.45594000000E+02  0.51100000000E-03 0. -1.
         11   -1    0    0    0    0 -0.00000000000E+00 -0.00000000000E+00 -0.45593999997E+02  0.45594000000E+02  0.51100000000E-03 0.  1.
    9900012    2    1    2    0    0 -0.97892886209E+00 -0.28996006482E+00 -0.59222728871E+00  0.90007698463E+02  0.89999959283E+02 0.  0.
         12    1    1    2    0    0  0.97892886209E+00  0.28996006482E+00  0.59222728871E+00  0.11803015368E+01  0.00000000000E+00 0. -1.
         11    1    3    3    0    0  0.36925995615E+01 -0.47750967280E+01  0.28568822851E+01  0.66782195933E+01  0.51100000000E-03 0. -1.
        -11    1    3    3    0    0 -0.71411377746E+01 -0.20185880276E+02 -0.36316586214E+02  0.42158748152E+02  0.51100000000E-03 0.  1.
         12    1    3    3    0    0  0.24696093510E+01  0.24671016939E+02  0.32867476640E+02  0.41170730718E+02  0.00000000000E+00 0. -1.
</event>
<event>
 7    1  0.3707147E-015  0.9000779E+02  0.7816164E-02  0.1186339E+00
        -11   -1    0    0    0    0  0.00000000000E+00  0.00000000000E+00  0.45593999997E+02  0.45594000000E+02  0.51100000000E-03 0. -1.
         11   -1    0    0    0    0 -0.00000000000E+00 -0.00000000000E+00 -0.45593999997E+02  0.45594000000E+02  0.51100000000E-03 0.  1.
    9900012    2    1    2    0    0 -0.60479663017E+00  0.51697294282E+00 -0.87170182833E+00  0.90007786432E+02  0.90000048413E+02 0.  0.
         12    1    1    2    0    0  0.60479663017E+00 -0.51697294282E+00  0.87170182833E+00  0.11802135675E+01  0.00000000000E+00 0. -1.
         11    1    3    3    0    0 -0.18919692701E+02 -0.28495656647E+02 -0.20249734776E+02  0.39749326766E+02  0.51100000000E-03 0. -1.
        -11    1    3    3    0    0  0.90382352558E+01 -0.54772609296E+01  0.31414811781E+01  0.11025379272E+02  0.51100000000E-03 0.  1.
        -12    1    3    3    0    0  0.92766608146E+01  0.34489890519E+02  0.16236551770E+02  0.39233080395E+02  0.00000000000E+00 0.  1.
</event>
<event>
 7    1  0.3707147E-015  0.9000776E+02  0.7816164E-02  0.1186339E+00
        -11   -1    0    0    0    0  0.00000000000E+00  0.00000000000E+00  0.45593999997E+02  0.45594000000E+02  0.51100000000E-03 0.  1.
         11   -1    0    0    0    0 -0.00000000000E+00 -0.00000000000E+00 -0.45593999997E+02  0.45594000000E+02  0.51100000000E-03 0. -1.
    9900012    2    1    2    0    0  0.70606723547E+00  0.32414041968E+00  0.88846363094E+00  0.90007760373E+02  0.90000022010E+02 0.  0.
         12    1    1    2    0    0 -0.70606723547E+00 -0.32414041968E+00 -0.88846363094E+00  0.11802396266E+01  0.00000000000E+00 0. -1.
         11    1    3    3    0    0  0.18988798439E+02  0.32828812696E+02  0.58769240378E+01  0.38377645128E+02  0.51100000000E-03 0. -1.
        -11    1    3    3    0    0  0.85102053713E+01 -0.82706201010E+00 -0.54483075906E+01  0.10138623323E+02  0.51100000000E-03 0.  1.
        -12    1    3    3    0    0 -0.26792936574E+02 -0.31677610266E+02  0.45984718366E+00  0.41491491922E+02  0.00000000000E+00 0.  1.
</event>
<event>
 7    1  0.3707147E-015  0.9000775E+02  0.7816164E-02  0.1186339E+00
        -11   -1    0    0    0    0  0.00000000000E+00  0.00000000000E+00  0.45593999997E+02  0.45594000000E+02  0.51100000000E-03 0. -1.
         11   -1    0    0    0    0 -0.00000000000E+00 -0.00000000000E+00 -0.45593999997E+02  0.45594000000E+02  0.51100000000E-03 0.  1.
    9900012    2    1    2    0    0 -0.63954157875E+00  0.39796481868E+00 -0.90863024724E+00  0.90007746487E+02  0.90000007941E+02 0.  0.
         12    1    1    2    0    0  0.63954157875E+00 -0.39796481868E+00  0.90863024724E+00  0.11802535126E+01  0.00000000000E+00 0. -1.
         11    1    3    3    0    0  0.68860329292E+01 -0.12075343584E+01 -0.68805634411E+01  0.98090642906E+01  0.51100000000E-03 0. -1.
        -11    1    3    3    0    0  0.24498836946E+02 -0.87177043243E+01  0.29361174675E+02  0.39220784782E+02  0.51100000000E-03 0.  1.
         12    1    3    3    0    0 -0.32024411453E+02  0.10323203501E+02 -0.23389241481E+02  0.40977897415E+02  0.00000000000E+00 0. -1.
</event>
<event>
 7    1  0.3707147E-015  0.9000774E+02  0.7816164E-02  0.1186339E+00
        -11   -1    0    0    0    0  0.00000000000E+00  0.00000000000E+00  0.45593999997E+02  0.45594000000E+02  0.51100000000E-03 0.  1.
         11   -1    0    0    0    0 -0.00000000000E+00 -0.00000000000E+00 -0.45593999997E+02  0.45594000000E+02  0.51100000000E-03 0. -1.
    9900012    2    1    2    0    0 -0.14956729790E+00 -0.10452242690E+01  0.52740507011E+00  0.90007737208E+02  0.89999998540E+02 0.  0.
         12    1    1    2    0    0  0.14956729790E+00  0.10452242690E+01 -0.52740507011E+00  0.11802627915E+01  0.00000000000E+00 0. -1.
         11    1    3    3    0    0 -0.23761572917E+02 -0.98433650746E+01 -0.30643781759E+02  0.40006818722E+02  0.51100000000E-03 0. -1.
        -11    1    3    3    0    0 -0.39274121128E+01  0.87059067487E+01  0.17648862803E+01  0.97124766185E+01  0.51100000000E-03 0.  1.
        -12    1    3    3    0    0  0.27539417732E+02  0.92234056909E-01  0.29406300549E+02  0.40288441868E+02  0.00000000000E+00 0.  1.
</event>
<event>
 7    1  0.3707147E-015  0.9000775E+02  0.7816164E-02  0.1186339E+00
        -11   -1    0    0    0    0  0.00000000000E+00  0.00000000000E+00  0.45593999997E+02  0.45594000000E+02  0.51100000000E-03 0.  1.
         11   -1    0    0    0    0 -0.00000000000E+00 -0.00000000000E+00 -0.45593999997E+02  0.45594000000E+02  0.51100000000E-03 0. -1.
    9900012    2    1    2    0    0 -0.54038160468E-01  0.11331759217E+01 -0.32553890998E+00  0.90007752833E+02  0.90000014371E+02 0.  0.
         12    1    1    2    0    0  0.54038160468E-01 -0.11331759217E+01  0.32553890998E+00  0.11802471666E+01  0.00000000000E+00 0. -1.
         11    1    3    3    0    0  0.77564160915E+00  0.49183180015E+01  0.91022115931E+01  0.10375053157E+02  0.51100000000E-03 0. -1.
        -11    1    3    3    0    0 -0.33192784145E+02  0.12882991099E+02  0.11778791737E+02  0.37502964070E+02  0.51100000000E-03 0.  1.
         12    1    3    3    0    0  0.32363104376E+02 -0.16668133178E+02 -0.21206542240E+02  0.42129735606E+02  0.00000000000E+00 0. -1.
</event>
<event>
 7    1  0.3707147E-015  0.9000774E+02  0.7816164E-02  0.1186339E+00
        -11   -1    0    0    0    0  0.00000000000E+00  0.00000000000E+00  0.45593999997E+02  0.45594000000E+02  0.51100000000E-03 0.  1.
         11   -1    0    0    0    0 -0.00000000000E+00 -0.00000000000E+00 -0.45593999997E+02  0.45594000000E+02  0.51100000000E-03 0. -1.
    9900012    2    1    2    0    0  0.62153231614E-01  0.19190600669E+00  0.11628990332E+01  0.90007735156E+02  0.89999996460E+02 0.  0.
         12    1    1    2    0    0 -0.62153231614E-01 -0.19190600669E+00 -0.11628990332E+01  0.11802648436E+01  0.00000000000E+00 0. -1.
         11    1    3    3    0    0  0.47083625462E+01 -0.10643510255E+02 -0.41372355307E+01  0.12351911047E+02  0.51100000000E-03 0. -1.
        -11    1    3    3    0    0  0.18631218133E+02 -0.18960362556E+02  0.23693435283E+02  0.35608938669E+02  0.51100000000E-03 0.  1.
         12    1    3    3    0    0 -0.23277427448E+02  0.29795778817E+02 -0.18393300719E+02  0.42046885441E+02  0.00000000000E+00 0. -1.
</event>
<event>
 7    1  0.3707147E-015  0.9000766E+02  0.7816164E-02  0.1186339E+00
        -11   -1    0    0    0    0  0.00000000000E+00  0.00000000000E+00  0.45593999997E+02  0.45594000000E+02  0.51100000000E-03 0.  1.
         11   -1    0    0    0    0 -0.00000000000E+00 -0.00000000000E+00 -0.45593999997E+02  0.45594000000E+02  0.51100000000E-03 0. -1.
    9900012    2    1    2    0    0  0.85691696142E+00  0.38185657253E+00 -0.71630307733E+00  0.90007656313E+02  0.89999916576E+02 0.  0.
         12    1    1    2    0    0 -0.85691696142E+00 -0.38185657253E+00  0.71630307733E+00  0.11803436870E+01  0.00000000000E+00 0. -1.
         11    1    3    3    0    0 -0.33889264515E+02  0.28950048295E+01 -0.20895978522E+02  0.39918732707E+02  0.51100000000E-03 0. -1.
        -11    1    3    3    0    0  0.32723323382E+01  0.71647123065E+01 -0.43780732676E+01  0.90115918219E+01  0.51100000000E-03 0.  1.
        -12    1    3    3    0    0  0.31473849138E+02 -0.96778605635E+01  0.24557748712E+02  0.41077331784E+02  0.00000000000E+00 0.  1.
</event>
<event>
 7    1  0.3707147E-015  0.9000773E+02  0.7816164E-02  0.1186339E+00
        -11   -1    0    0    0    0  0.00000000000E+00  0.00000000000E+00  0.45593999997E+02  0.45594000000E+02  0.51100000000E-03 0. -1.
         11   -1    0    0    0    0 -0.00000000000E+00 -0.00000000000E+00 -0.45593999997E+02  0.45594000000E+02  0.51100000000E-03 0.  1.
    9900012    2    1    2    0    0 -0.46857785511E+00 -0.46292262841E+00 -0.97937672410E+00  0.90007728280E+02  0.89999989493E+02 0.  0.
         12    1    1    2    0    0  0.46857785511E+00  0.46292262841E+00  0.97937672410E+00  0.11802717204E+01  0.00000000000E+00 0. -1.
         11    1    3    3    0    0 -0.84658326969E+01 -0.60036780072E+01  0.87008611406E+01  0.13543243988E+02  0.51100000000E-03 0. -1.
        -11    1    3    3    0    0  0.28016758908E+02  0.23632335080E+02  0.15277110197E+02  0.39709144252E+02  0.51100000000E-03 0.  1.
         12    1    3    3    0    0 -0.20019504066E+02 -0.18091579701E+02 -0.24957348061E+02  0.36755340039E+02  0.00000000000E+00 0. -1.
</event>
<event>
 7    1  0.3707147E-015  0.9000774E+02  0.7816164E-02  0.1186339E+00
        -11   -1    0    0    0    0  0.00000000000E+00  0.00000000000E+00  0.45593999997E+02  0.45594000000E+02  0.51100000000E-03 0.  1.
         11   -1    0    0    0    0 -0.00000000000E+00 -0.00000000000E+00 -0.45593999997E+02  0.45594000000E+02  0.51100000000E-03 0. -1.
    9900012    2    1    2    0    0  0.34602239725E+00 -0.11282784911E+01  0.16114303815E-01  0.90007744297E+02  0.90000005722E+02 0.  0.
         12    1    1    2    0    0 -0.34602239725E+00  0.11282784911E+01 -0.16114303815E-01  0.11802557027E+01  0.00000000000E+00 0. -1.
         11    1    3    3    0    0 -0.14646474562E+02  0.25987066500E+02  0.22516317554E+01  0.29915158167E+02  0.51100000000E-03 0. -1.
        -11    1    3    3    0    0  0.20653670256E+02  0.53296900625E+01  0.11702427492E+02  0.24329539672E+02  0.51100000000E-03 0.  1.
        -12    1    3    3    0    0 -0.56611732971E+01 -0.32445035053E+02 -0.13937944943E+02  0.35763046458E+02  0.00000000000E+00 0.  1.
</event>
<event>
 7    1  0.3707147E-015  0.9000892E+02  0.7816164E-02  0.1186337E+00
        -11   -1    0    0    0    0  0.00000000000E+00  0.00000000000E+00  0.45593999997E+02  0.45594000000E+02  0.51100000000E-03 0.  1.
         11   -1    0    0    0    0 -0.00000000000E+00 -0.00000000000E+00 -0.45593999997E+02  0.45594000000E+02  0.51100000000E-03 0. -1.
    9900012    2    1    2    0    0 -0.87472136314E-01 -0.60504869003E+00  0.10082078113E+01  0.90008924819E+02  0.90001201818E+02 0.  0.
         12    1    1    2    0    0  0.87472136314E-01  0.60504869003E+00 -0.10082078113E+01  0.11790751811E+01  0.00000000000E+00 0. -1.
         11    1    3    3    0    0 -0.69762375783E+01  0.92398499729E+01 -0.49575969518E+01  0.12594462516E+02  0.51100000000E-03 0. -1.
        -11    1    3    3    0    0 -0.15019185017E+00 -0.23893351277E+02  0.36180393437E+02  0.43358224852E+02  0.51100000000E-03 0.  1.
         12    1    3    3    0    0  0.70389572921E+01  0.14048452614E+02 -0.30214588673E+02  0.34056237451E+02  0.00000000000E+00 0. -1.
</event>
<event>
 7    1  0.4850706E-015  0.9000773E+02  0.7816164E-02  0.1186339E+00
        -11   -1    0    0    0    0  0.00000000000E+00  0.00000000000E+00  0.45593999997E+02  0.45594000000E+02  0.51100000000E-03 0. -1.
         11   -1    0    0    0    0 -0.00000000000E+00 -0.00000000000E+00 -0.45593999997E+02  0.45594000000E+02  0.51100000000E-03 0.  1.
    9900012    2    1    2    0    0  0.59406421646E+00  0.33470657209E+00 -0.96337226464E+00  0.90007734393E+02  0.89999995687E+02 0.  0.
         12    1    1    2    0    0 -0.59406421646E+00 -0.33470657209E+00  0.96337226464E+00  0.11802656070E+01  0.00000000000E+00 0. -1.
         11    1    3    3    0    0 -0.36303153305E+01 -0.32128709167E+01 -0.84496880710E+01  0.97416096044E+01  0.51100000000E-03 0. -1.
        -11    1    3    3    0    0  0.66223249907E+01 -0.31912967742E+02 -0.17334232447E+02  0.36915691964E+02  0.51100000000E-03 0.  1.
         12    1    3    3    0    0 -0.23979454438E+01  0.35460545231E+02  0.24820548254E+02  0.43350432824E+02  0.00000000000E+00 0. -1.
</event>
<event>
 7    1  0.3707147E-015  0.9000784E+02  0.7816164E-02  0.1186339E+00
        -11   -1    0    0    0    0  0.00000000000E+00  0.00000000000E+00  0.45593999997E+02  0.45594000000E+02  0.51100000000E-03 0. -1.
         11   -1    0    0    0    0 -0.00000000000E+00 -0.00000000000E+00 -0.45593999997E+02  0.45594000000E+02  0.51100000000E-03 0.  1.
    9900012    2    1    2    0    0 -0.27474360852E+00 -0.72046331779E+00 -0.89343175111E+00  0.90007842495E+02  0.90000105216E+02 0.  0.
         12    1    1    2    0    0  0.27474360852E+00  0.72046331779E+00  0.89343175111E+00  0.11801575050E+01  0.00000000000E+00 0. -1.
         11    1    3    3    0    0  0.52425131971E+01 -0.88827719869E+01 -0.13781146320E+02  0.17213586986E+02  0.51100000000E-03 0. -1.
        -11    1    3    3    0    0  0.10896792916E+02 -0.22933488725E+02 -0.13570492278E+02  0.28789638099E+02  0.51100000000E-03 0.  1.
         12    1    3    3    0    0 -0.16414049721E+02  0.31095797394E+02  0.26458206847E+02  0.44004617410E+02  0.00000000000E+00 0. -1.
</event>
<event>
 7    1  0.3707147E-015  0.9000770E+02  0.7816164E-02  0.1186339E+00
        -11   -1    0    0    0    0  0.00000000000E+00  0.00000000000E+00  0.45593999997E+02  0.45594000000E+02  0.51100000000E-03 0. -1.
         11   -1    0    0    0    0 -0.00000000000E+00 -0.00000000000E+00 -0.45593999997E+02  0.45594000000E+02  0.51100000000E-03 0.  1.
    9900012    2    1    2    0    0 -0.98078948339E+00  0.50167101450E+00  0.42364582000E+00  0.90007704445E+02  0.89999965343E+02 0.  0.
         12    1    1    2    0    0  0.98078948339E+00 -0.50167101450E+00 -0.42364582000E+00  0.11802955555E+01  0.00000000000E+00 0. -1.
         11    1    3    3    0    0 -0.24307072182E+02  0.23972102295E+02 -0.17236418951E+02  0.38243817605E+02  0.51100000000E-03 0. -1.
        -11    1    3    3    0    0 -0.68970041836E+01 -0.20800244317E+01 -0.46128685306E+01  0.85541641723E+01  0.51100000000E-03 0.  1.
        -12    1    3    3    0    0  0.30223286882E+02 -0.21390406848E+02  0.22272933302E+02  0.43209722667E+02  0.00000000000E+00 0.  1.
</event>
<event>
 7    1  0.3707147E-015  0.9000775E+02  0.7816164E-02  0.1186339E+00
        -11   -1    0    0    0    0  0.00000000000E+00  0.00000000000E+00  0.45593999997E+02  0.45594000000E+02  0.51100000000E-03 0. -1.
         11   -1    0    0    0    0 -0.00000000000E+00 -0.00000000000E+00 -0.45593999997E+02  0.45594000000E+02  0.51100000000E-03 0.  1.
    9900012    2    1    2    0    0 -0.11472955347E+01 -0.21592896677E+00  0.17344605359E+00  0.90007747529E+02  0.90000008996E+02 0.  0.
         12    1    1    2    0    0  0.11472955347E+01  0.21592896677E+00 -0.17344605359E+00  0.11802524714E+01  0.00000000000E+00 0. -1.
         11    1    3    3    0    0 -0.12578527111E+01  0.17051073830E+02  0.34781920623E+02  0.38756977625E+02  0.51100000000E-03 0. -1.
        -11    1    3    3    0    0  0.48053895467E+01  0.86386177561E+01 -0.34759967311E+01  0.10478551377E+02  0.51100000000E-03 0.  1.
        -12    1    3    3    0    0 -0.46948323703E+01 -0.25905620552E+02 -0.31132477838E+02  0.40772218526E+02  0.00000000000E+00 0.  1.
</event>
<event>
 7    1  0.3707147E-015  0.9000774E+02  0.7816164E-02  0.1186339E+00
        -11   -1    0    0    0    0  0.00000000000E+00  0.00000000000E+00  0.45593999997E+02  0.45594000000E+02  0.51100000000E-03 0.  1.
         11   -1    0    0    0    0 -0.00000000000E+00 -0.00000000000E+00 -0.45593999997E+02  0.45594000000E+02  0.51100000000E-03 0. -1.
    9900012    2    1    2    0    0  0.31471622106E+00 -0.11313624378E+01  0.11824082931E+00  0.90007742334E+02  0.90000003732E+02 0.  0.
         12    1    1    2    0    0 -0.31471622106E+00  0.11313624378E+01 -0.11824082931E+00  0.11802576664E+01  0.00000000000E+00 0. -1.
         11    1    3    3    0    0 -0.24886258619E+01  0.14643996534E+02 -0.38162078253E+02  0.40950996447E+02  0.51100000000E-03 0. -1.
        -11    1    3    3    0    0 -0.21568979048E+01  0.70188837077E+01  0.96530692614E+01  0.12128424609E+02  0.51100000000E-03 0.  1.
        -12    1    3    3    0    0  0.49602399878E+01 -0.22794242680E+02  0.28627249821E+02  0.36928321277E+02  0.00000000000E+00 0.  1.
</event>
<event>
 7    1  0.3707147E-015  0.9000776E+02  0.7816164E-02  0.1186339E+00
        -11   -1    0    0    0    0  0.00000000000E+00  0.00000000000E+00  0.45593999997E+02  0.45594000000E+02  0.51100000000E-03 0. -1.
         11   -1    0    0    0    0 -0.00000000000E+00 -0.00000000000E+00 -0.45593999997E+02  0.45594000000E+02  0.51100000000E-03 0.  1.
    9900012    2    1    2    0    0  0.16763214369E+00 -0.93455882372E+00 -0.70104376734E+00  0.90007761425E+02  0.90000023076E+02 0.  0.
         12    1    1    2    0    0 -0.16763214369E+00  0.93455882372E+00  0.70104376734E+00  0.11802385752E+01  0.00000000000E+00 0. -1.
         11    1    3    3    0    0  0.79285737830E+01 -0.33593137347E+02  0.14673861262E+02  0.37505777737E+02  0.51100000000E-03 0. -1.
        -11    1    3    3    0    0 -0.65691398468E+01 -0.57952615968E+01  0.37610949175E+01  0.95333357511E+01  0.51100000000E-03 0.  1.
        -12    1    3    3    0    0 -0.11918017925E+01  0.38453840121E+02 -0.19135999947E+02  0.42968647937E+02  0.00000000000E+00 0.  1.
</event>
<event>
 7    1  0.3707147E-015  0.9000777E+02  0.7816164E-02  0.1186339E+00
        -11   -1    0    0    0    0  0.00000000000E+00  0.00000000000E+00  0.45593999997E+02  0.45594000000E+02  0.51100000000E-03 0. -1.
         11   -1    0    0    0    0 -0.00000000000E+00 -0.00000000000E+00 -0.45593999997E+02  0.45594000000E+02  0.51100000000E-03 0.  1.
    9900012    2    1    2    0    0  0.37814231101E+00  0.35006217580E+00 -0.10617971311E+01  0.90007767700E+02  0.90000029434E+02 0.  0.
         12    1    1    2    0    0 -0.37814231101E+00 -0.35006217580E+00  0.10617971311E+01  0.11802323000E+01  0.00000000000E+00 0. -1.
         11    1    3    3    0    0 -0.24425464725E+00 -0.58381151750E+01 -0.20183165302E+01  0.61819779203E+01  0.51100000000E-03 0. -1.
        -11    1    3    3    0    0  0.10359862601E+02 -0.24041291593E+02 -0.29765035103E+02  0.39639220092E+02  0.51100000000E-03 0.  1.
         12    1    3    3    0    0 -0.97374656424E+01  0.30229468944E+02  0.30721554502E+02  0.44186569688E+02  0.00000000000E+00 0. -1.
</event>
<event>
 7    1  0.3707147E-015  0.9000762E+02  0.7816164E-02  0.1186339E+00
        -11   -1    0    0    0    0  0.00000000000E+00  0.00000000000E+00  0.45593999997E+02  0.45594000000E+02  0.51100000000E-03 0. -1.
         11   -1    0    0    0    0 -0.00000000000E+00 -0.00000000000E+00 -0.45593999997E+02  0.45594000000E+02  0.51100000000E-03 0.  1.
    9900012    2    1    2    0    0 -0.42207969542E+00 -0.92347405807E+00  0.60194220479E+00  0.90007622932E+02  0.89999882754E+02 0.  0.
         12    1    1    2    0    0  0.42207969542E+00  0.92347405807E+00 -0.60194220479E+00  0.11803770682E+01  0.00000000000E+00 0. -1.
         11    1    3    3    0    0  0.45043709842E+01  0.70382386097E+01  0.49150339849E+01  0.96945201029E+01  0.51100000000E-03 0. -1.
        -11    1    3    3    0    0  0.20592868821E+02  0.16286736172E+02 -0.27609519711E+02  0.38099994755E+02  0.51100000000E-03 0.  1.
         12    1    3    3    0    0 -0.25519319500E+02 -0.24248448839E+02  0.23296427931E+02  0.42213108074E+02  0.00000000000E+00 0. -1.
</event>
<event>
 7    1  0.3707147E-015  0.9000774E+02  0.7816164E-02  0.1186339E+00
        -11   -1    0    0    0    0  0.00000000000E+00  0.00000000000E+00  0.45593999997E+02  0.45594000000E+02  0.51100000000E-03 0. -1.
         11   -1    0    0    0    0 -0.00000000000E+00 -0.00000000000E+00 -0.45593999997E+02  0.45594000000E+02  0.51100000000E-03 0.  1.
    9900012    2    1    2    0    0 -0.10598586457E+01 -0.29156361395E+00 -0.42977941646E+00  0.90007737302E+02  0.89999998634E+02 0.  0.
         12    1    1    2    0    0  0.10598586457E+01  0.29156361395E+00  0.42977941646E+00  0.11802626982E+01  0.00000000000E+00 0. -1.
         11    1    3    3    0    0  0.21766461209E+01  0.42795068928E+01  0.74776764969E+01  0.88863723551E+01  0.51100000000E-03 0. -1.
        -11    1    3    3    0    0 -0.23543944752E+02 -0.39424891143E+01 -0.37961940064E+02  0.44843834009E+02  0.51100000000E-03 0.  1.
         12    1    3    3    0    0  0.20307439986E+02 -0.62858139242E+00  0.30054484151E+02  0.36277530938E+02  0.00000000000E+00 0. -1.
</event>
<event>
 7    1  0.3707147E-015  0.9000678E+02  0.7816164E-02  0.1186341E+00
        -11   -1    0    0    0    0  0.00000000000E+00  0.00000000000E+00  0.45593999997E+02  0.45594000000E+02  0.51100000000E-03 0.  1.
         11   -1    0    0    0    0 -0.00000000000E+00 -0.00000000000E+00 -0.45593999997E+02  0.45594000000E+02  0.51100000000E-03 0. -1.
    9900012    2    1    2    0    0 -0.76247497823E+00 -0.29949902994E+00  0.85101121319E+00  0.90006776970E+02  0.89999025621E+02 0.  0.
         12    1    1    2    0    0  0.76247497823E+00  0.29949902994E+00 -0.85101121319E+00  0.11812230299E+01  0.00000000000E+00 0. -1.
         11    1    3    3    0    0 -0.16800144817E+02 -0.16469473808E+02 -0.32151487102E+02  0.39839760999E+02  0.51100000000E-03 0. -1.
        -11    1    3    3    0    0  0.49030288778E+01  0.58398397662E+01 -0.50833607791E+01  0.91642772624E+01  0.51100000000E-03 0.  1.
        -12    1    3    3    0    0  0.11134640961E+02  0.10330135012E+02  0.38085859094E+02  0.41002738709E+02  0.00000000000E+00 0.  1.
</event>
<event>
 7    1  0.3707147E-015  0.9000775E+02  0.7816164E-02  0.1186339E+00
        -11   -1    0    0    0    0  0.00000000000E+00  0.00000000000E+00  0.45593999997E+02  0.45594000000E+02  0.51100000000E-03 0.  1.
         11   -1    0    0    0    0 -0.00000000000E+00 -0.00000000000E+00 -0.45593999997E+02  0.45594000000E+02  0.51100000000E-03 0. -1.
    9900012    2    1    2    0    0 -0.41416411314E+00  0.10584224677E+01  0.31812283210E+00  0.90007749108E+02  0.90000010596E+02 0.  0.
         12    1    1    2    0    0  0.41416411314E+00 -0.10584224677E+01 -0.31812283210E+00  0.11802508924E+01  0.00000000000E+00 0. -1.
         11    1    3    3    0    0 -0.39796913724E+01  0.87863147050E+01  0.57929006603E+01  0.11251442922E+02  0.51100000000E-03 0. -1.
        -11    1    3    3    0    0 -0.29610070626E+01  0.18546627713E+02  0.29228084273E+02  0.34742277889E+02  0.51100000000E-03 0.  1.
         12    1    3    3    0    0  0.65265343219E+01 -0.26274519951E+02 -0.34702862101E+02  0.44014028297E+02  0.00000000000E+00 0. -1.
</event>
<event>
 7    1  0.3707147E-015  0.9000775E+02  0.7816164E-02  0.1186339E+00
        -11   -1    0    0    0    0  0.00000000000E+00  0.00000000000E+00  0.45593999997E+02  0.45594000000E+02  0.51100000000E-03 0. -1.
         11   -1    0    0    0    0 -0.00000000000E+00 -0.00000000000E+00 -0.45593999997E+02  0.45594000000E+02  0.51100000000E-03 0.  1.
    9900012    2    1    2    0    0 -0.14244906679E+00  0.11646954728E+01  0.12722008452E+00  0.90007749081E+02  0.90000010569E+02 0.  0.
         12    1    1    2    0    0  0.14244906679E+00 -0.11646954728E+01 -0.12722008452E+00  0.11802509186E+01  0.00000000000E+00 0. -1.
         11    1    3    3    0    0  0.21169163827E+02  0.18669147782E+02  0.13041973805E+02  0.31092823240E+02  0.51100000000E-03 0. -1.
        -11    1    3    3    0    0  0.12042779001E+02  0.68848566990E+01  0.37357915763E+01  0.14366137852E+02  0.51100000000E-03 0.  1.
        -12    1    3    3    0    0 -0.33354391895E+02 -0.24389309008E+02 -0.16650545297E+02  0.44548787989E+02  0.00000000000E+00 0.  1.
</event>
<event>
 7    1  0.3707147E-015  0.9000770E+02  0.7816164E-02  0.1186339E+00
        -11   -1    0    0    0    0  0.00000000000E+00  0.00000000000E+00  0.45593999997E+02  0.45594000000E+02  0.51100000000E-03 0.  1.
         11   -1    0    0    0    0 -0.00000000000E+00 -0.00000000000E+00 -0.45593999997E+02  0.45594000000E+02  0.51100000000E-03 0. -1.
    9900012    2    1    2    0    0  0.74452684761E+00  0.42972449586E+00  0.80878109291E+00  0.90007699095E+02  0.89999959923E+02 0.  0.
         12    1    1    2    0    0 -0.74452684761E+00 -0.42972449586E+00 -0.80878109291E+00  0.11803009046E+01  0.00000000000E+00 0. -1.
         11    1    3    3    0    0 -0.20154009052E+02 -0.11502659576E+01  0.10465286661E+02  0.22738280889E+02  0.51100000000E-03 0. -1.
        -11    1    3    3    0    0  0.22154740371E+01  0.28424812229E+02  0.86423659482E+01  0.29792092321E+02  0.51100000000E-03 0.  1.
         12    1    3    3    0    0  0.18683061863E+02 -0.26844821775E+02 -0.18298871516E+02  0.37477325885E+02  0.00000000000E+00 0. -1.
</event>
<event>
 7    1  0.3707147E-015  0.9000740E+02  0.7816164E-02  0.1186340E+00
        -11   -1    0    0    0    0  0.00000000000E+00  0.00000000000E+00  0.45593999997E+02  0.45594000000E+02  0.51100000000E-03 0. -1.
         11   -1    0    0    0    0 -0.00000000000E+00 -0.00000000000E+00 -0.45593999997E+02  0.45594000000E+02  0.51100000000E-03 0.  1.
    9900012    2    1    2    0    0 -0.77878665952E+00 -0.95528723607E-03 -0.88730063569E+00  0.90007401850E+02  0.89999658754E+02 0.  0.
         12    1    1    2    0    0  0.77878665952E+00  0.95528723606E-03  0.88730063569E+00  0.11805981500E+01  0.00000000000E+00 0. -1.
         11    1    3    3    0    0 -0.23043233138E+01  0.43286507165E+01  0.56525024662E+01  0.74831749513E+01  0.51100000000E-03 0. -1.
        -11    1    3    3    0    0 -0.25661176136E+02  0.27034351396E+02 -0.14973769684E+02  0.40169215762E+02  0.51100000000E-03 0.  1.
         12    1    3    3    0    0  0.27186712791E+02 -0.31363957399E+02  0.84339665823E+01  0.42355011137E+02  0.00000000000E+00 0. -1.
</event>
<event>
 7    1  0.3707147E-015  0.9000773E+02  0.7816164E-02  0.1186339E+00
        -11   -1    0    0    0    0  0.00000000000E+00  0.00000000000E+00  0.45593999997E+02  0.45594000000E+02  0.51100000000E-03 0.  1.
         11   -1    0    0    0    0 -0.00000000000E+00 -0.00000000000E+00 -0.45593999997E+02  0.45594000000E+02  0.51100000000E-03 0. -1.
    9900012    2    1    2    0    0 -0.67621564874E+00 -0.10498689785E+00  0.96163228278E+00  0.90007734564E+02  0.89999995860E+02 0.  0.
         12    1    1    2    0    0  0.67621564874E+00  0.10498689785E+00 -0.96163228278E+00  0.11802654361E+01  0.00000000000E+00 0. -1.
         11    1    3    3    0    0  0.31699453146E+02  0.21370942594E+02  0.95701682327E+01  0.39410159063E+02  0.51100000000E-03 0. -1.
        -11    1    3    3    0    0 -0.21713122876E+01 -0.12475821446E+02  0.79937891350E+01  0.14975359188E+02  0.51100000000E-03 0.  1.
        -12    1    3    3    0    0 -0.30204356507E+02 -0.90001080453E+01 -0.16602325085E+02  0.35622216313E+02  0.00000000000E+00 0.  1.
</event>
<event>
 7    1  0.3707147E-015  0.9000769E+02  0.7816164E-02  0.1186339E+00
        -11   -1    0    0    0    0  0.00000000000E+00  0.00000000000E+00  0.45593999997E+02  0.45594000000E+02  0.51100000000E-03 0.  1.
         11   -1    0    0    0    0 -0.00000000000E+00 -0.00000000000E+00 -0.45593999997E+02  0.45594000000E+02  0.51100000000E-03 0. -1.
    9900012    2    1    2    0    0  0.98420399793E+00 -0.25770023171E+00  0.59837767407E+00  0.90007693786E+02  0.89999954544E+02 0.  0.
         12    1    1    2    0    0 -0.98420399793E+00  0.25770023171E+00 -0.59837767407E+00  0.11803062144E+01  0.00000000000E+00 0. -1.
         11    1    3    3    0    0  0.18640928697E+02  0.10335384830E+02 -0.19022130499E+02  0.28568266508E+02  0.51100000000E-03 0. -1.
        -11    1    3    3    0    0  0.15871233134E+02  0.21832612026E+01 -0.62592952034E+01  0.17200042075E+02  0.51100000000E-03 0.  1.
        -12    1    3    3    0    0 -0.33527957833E+02 -0.12776346265E+02  0.25879803377E+02  0.44239385203E+02  0.00000000000E+00 0.  1.
</event>
<event>
 7    1  0.3707147E-015  0.9000787E+02  0.7816164E-02  0.1186339E+00
        -11   -1    0    0    0    0  0.00000000000E+00  0.00000000000E+00  0.45593999997E+02  0.45594000000E+02  0.51100000000E-03 0. -1.
         11   -1    0    0    0    0 -0.00000000000E+00 -0.00000000000E+00 -0.45593999997E+02  0.45594000000E+02  0.51100000000E-03 0.  1.
    9900012    2    1    2    0    0 -0.10351024823E+00  0.11741934547E+01  0.57110645681E-01  0.90007870233E+02  0.90000133320E+02 0.  0.
         12    1    1    2    0    0  0.10351024823E+00 -0.11741934547E+01 -0.57110645681E-01  0.11801297668E+01  0.00000000000E+00 0. -1.
         11    1    3    3    0    0 -0.31471474525E+02 -0.81879814063E+01 -0.20638670801E+02  0.38515600488E+02  0.51100000000E-03 0. -1.
        -11    1    3    3    0    0 -0.34854178721E+00 -0.36385929350E+00 -0.77656774073E+01  0.77820062206E+01  0.51100000000E-03 0.  1.
        -12    1    3    3    0    0  0.31716506064E+02  0.97260341545E+01  0.28461458854E+02  0.43710263524E+02  0.00000000000E+00 0.  1.
</event>
<event>
 7    1  0.3707147E-015  0.9000773E+02  0.7816164E-02  0.1186339E+00
        -11   -1    0    0    0    0  0.00000000000E+00  0.00000000000E+00  0.45593999997E+02  0.45594000000E+02  0.51100000000E-03 0.  1.
         11   -1    0    0    0    0 -0.00000000000E+00 -0.00000000000E+00 -0.45593999997E+02  0.45594000000E+02  0.51100000000E-03 0. -1.
    9900012    2    1    2    0    0  0.79092182800E+00 -0.47793764066E+00  0.73421158009E+00  0.90007725299E+02  0.89999986473E+02 0.  0.
         12    1    1    2    0    0 -0.79092182800E+00  0.47793764066E+00 -0.73421158009E+00  0.11802747014E+01  0.00000000000E+00 0. -1.
         11    1    3    3    0    0  0.62600124565E+01  0.35930923429E+02  0.63543834415E+01  0.37021577541E+02  0.51100000000E-03 0. -1.
        -11    1    3    3    0    0  0.39983102870E+01  0.64844883578E+01  0.30622956377E+01  0.82105255160E+01  0.51100000000E-03 0.  1.
        -12    1    3    3    0    0 -0.94674009156E+01 -0.42893349428E+02 -0.86824674992E+01  0.44775622242E+02  0.00000000000E+00 0.  1.
</event>
<event>
 7    1  0.3707147E-015  0.9000772E+02  0.7816164E-02  0.1186339E+00
        -11   -1    0    0    0    0  0.00000000000E+00  0.00000000000E+00  0.45593999997E+02  0.45594000000E+02  0.51100000000E-03 0. -1.
         11   -1    0    0    0    0 -0.00000000000E+00 -0.00000000000E+00 -0.45593999997E+02  0.45594000000E+02  0.51100000000E-03 0.  1.
    9900012    2    1    2    0    0  0.61349735254E+00  0.60023895196E-01 -0.10065199805E+01  0.90007718533E+02  0.89999979618E+02 0.  0.
         12    1    1    2    0    0 -0.61349735254E+00 -0.60023895196E-01  0.10065199805E+01  0.11802814667E+01  0.00000000000E+00 0. -1.
         11    1    3    3    0    0 -0.36105587473E+02  0.87823812433E+01  0.84083575090E+01  0.38097823341E+02  0.51100000000E-03 0. -1.
        -11    1    3    3    0    0 -0.11372371506E+01  0.89636519306E+01 -0.35871654928E+01  0.97215287277E+01  0.51100000000E-03 0.  1.
        -12    1    3    3    0    0  0.37856321977E+02 -0.17686009279E+02 -0.58277119967E+01  0.42188366464E+02  0.00000000000E+00 0.  1.
</event>
<event>
 7    1  0.3707147E-015  0.9000772E+02  0.7816164E-02  0.1186339E+00
        -11   -1    0    0    0    0  0.00000000000E+00  0.00000000000E+00  0.45593999997E+02  0.45594000000E+02  0.51100000000E-03 0. -1.
         11   -1    0    0    0    0 -0.00000000000E+00 -0.00000000000E+00 -0.45593999997E+02  0.45594000000E+02  0.51100000000E-03 0.  1.
    9900012    2    1    2    0    0  0.88420196266E+00  0.51480060291E+00 -0.58841180718E+00  0.90007719853E+02  0.89999980955E+02 0.  0.
         12    1    1    2    0    0 -0.88420196266E+00 -0.51480060291E+00  0.58841180718E+00  0.11802801474E+01  0.00000000000E+00 0. -1.
         11    1    3    3    0    0 -0.58529522152E+01  0.91686582302E+01 -0.47912772405E+00  0.10888108514E+02  0.51100000000E-03 0. -1.
        -11    1    3    3    0    0 -0.63012433785E+01  0.33824854568E+02  0.32393441479E+01  0.34558932353E+02  0.51100000000E-03 0.  1.
         12    1    3    3    0    0  0.13038397556E+02 -0.42478712195E+02 -0.33486282310E+01  0.44560678985E+02  0.00000000000E+00 0. -1.
</event>
<event>
 7    1  0.3707147E-015  0.9000784E+02  0.7816164E-02  0.1186339E+00
        -11   -1    0    0    0    0  0.00000000000E+00  0.00000000000E+00  0.45593999997E+02  0.45594000000E+02  0.51100000000E-03 0.  1.
         11   -1    0    0    0    0 -0.00000000000E+00 -0.00000000000E+00 -0.45593999997E+02  0.45594000000E+02  0.51100000000E-03 0. -1.
    9900012    2    1    2    0    0 -0.10706423500E+01  0.26603973018E+00  0.41918893097E+00  0.90007842579E+02  0.90000105301E+02 0.  0.
         12    1    1    2    0    0  0.10706423500E+01 -0.26603973018E+00 -0.41918893097E+00  0.11801574215E+01  0.00000000000E+00 0. -1.
         11    1    3    3    0    0 -0.16523947577E+02 -0.31932464847E+02  0.17459714780E+02  0.39969548349E+02  0.51100000000E-03 0. -1.
        -11    1    3    3    0    0 -0.79972280154E+01  0.52934436248E+01  0.16794187298E+01  0.97363570636E+01  0.51100000000E-03 0.  1.
        -12    1    3    3    0    0  0.23450533243E+02  0.26905060953E+02 -0.18719944579E+02  0.40301937166E+02  0.00000000000E+00 0.  1.
</event>
<event>
 7    1  0.3707147E-015  0.9000778E+02  0.7816164E-02  0.1186339E+00
        -11   -1    0    0    0    0  0.00000000000E+00  0.00000000000E+00  0.45593999997E+02  0.45594000000E+02  0.51100000000E-03 0.  1.
         11   -1    0    0    0    0 -0.00000000000E+00 -0.00000000000E+00 -0.45593999997E+02  0.45594000000E+02  0.51100000000E-03 0. -1.
    9900012    2    1    2    0    0 -0.64587610357E+00  0.37102893286E+00  0.91547617917E+00  0.90007781781E+02  0.90000043700E+02 0.  0.
         12    1    1    2    0    0  0.64587610357E+00 -0.37102893286E+00 -0.91547617917E+00  0.11802182192E+01  0.00000000000E+00 0. -1.
         11    1    3    3    0    0  0.26144620071E+02 -0.17874045000E+02 -0.25264134603E+02  0.40512950285E+02  0.51100000000E-03 0. -1.
        -11    1    3    3    0    0 -0.50036610176E+01 -0.66788078918E+01  0.22364911442E+01  0.86397332907E+01  0.51100000000E-03 0.  1.
        -12    1    3    3    0    0 -0.21786835157E+02  0.24923881824E+02  0.23943119638E+02  0.40855098205E+02  0.00000000000E+00 0.  1.
</event>
<event>
 7    1  0.3707147E-015  0.9000769E+02  0.7816164E-02  0.1186339E+00
        -11   -1    0    0    0    0  0.00000000000E+00  0.00000000000E+00  0.45593999997E+02  0.45594000000E+02  0.51100000000E-03 0.  1.
         11   -1    0    0    0    0 -0.00000000000E+00 -0.00000000000E+00 -0.45593999997E+02  0.45594000000E+02  0.51100000000E-03 0. -1.
    9900012    2    1    2    0    0 -0.47404177665E+00  0.50041009039E+00  0.95813193418E+00  0.90007685352E+02  0.89999945999E+02 0.  0.
         12    1    1    2    0    0  0.47404177665E+00 -0.50041009039E+00 -0.95813193418E+00  0.11803146478E+01  0.00000000000E+00 0. -1.
         11    1    3    3    0    0 -0.11332773087E+02  0.30515884357E+02  0.12333965378E+02  0.34810596751E+02  0.51100000000E-03 0. -1.
        -11    1    3    3    0    0 -0.11905912664E+00  0.89771026379E+01  0.63331766543E+01  0.10986886440E+02  0.51100000000E-03 0.  1.
        -12    1    3    3    0    0  0.10977790437E+02 -0.38992576904E+02 -0.17709010098E+02  0.44210202162E+02  0.00000000000E+00 0.  1.
</event>
<event>
 7    1  0.3707147E-015  0.9000774E+02  0.7816164E-02  0.1186339E+00
        -11   -1    0    0    0    0  0.00000000000E+00  0.00000000000E+00  0.45593999997E+02  0.45594000000E+02  0.51100000000E-03 0.  1.
         11   -1    0    0    0    0 -0.00000000000E+00 -0.00000000000E+00 -0.45593999997E+02  0.45594000000E+02  0.51100000000E-03 0. -1.
    9900012    2    1    2    0    0 -0.40141991377E+00  0.87715754773E+00  0.68005679334E+00  0.90007737083E+02  0.89999998413E+02 0.  0.
         12    1    1    2    0    0  0.40141991377E+00 -0.87715754773E+00 -0.68005679334E+00  0.11802629168E+01  0.00000000000E+00 0. -1.
         11    1    3    3    0    0 -0.47670468699E+01  0.21905551774E+01  0.83300218939E+01  0.98444163291E+01  0.51100000000E-03 0. -1.
        -11    1    3    3    0    0 -0.17541059898E+02  0.87863572304E+01  0.29763297518E+02  0.35647478665E+02  0.51100000000E-03 0.  1.
         12    1    3    3    0    0  0.21906686854E+02 -0.10099754860E+02 -0.37413262619E+02  0.44515842090E+02  0.00000000000E+00 0. -1.
</event>
<event>
 7    1  0.3707147E-015  0.9000773E+02  0.7816164E-02  0.1186339E+00
        -11   -1    0    0    0    0  0.00000000000E+00  0.00000000000E+00  0.45593999997E+02  0.45594000000E+02  0.51100000000E-03 0. -1.
         11   -1    0    0    0    0 -0.00000000000E+00 -0.00000000000E+00 -0.45593999997E+02  0.45594000000E+02  0.51100000000E-03 0.  1.
    9900012    2    1    2    0    0  0.28935007174E+00 -0.10696918620E+01  0.40628060192E+00  0.90007733898E+02  0.89999995186E+02 0.  0.
         12    1    1    2    0    0 -0.28935007174E+00  0.10696918620E+01 -0.40628060192E+00  0.11802661018E+01  0.00000000000E+00 0. -1.
         11    1    3    3    0    0  0.54969577645E+01 -0.43721564424E+01  0.80319335828E+01  0.10669782283E+02  0.51100000000E-03 0. -1.
        -11    1    3    3    0    0  0.15928785720E+01  0.39583216515E+02  0.58451661134E+01  0.40044153868E+02  0.51100000000E-03 0.  1.
         12    1    3    3    0    0 -0.68004862647E+01 -0.36280751935E+02 -0.13470819094E+02  0.39293797748E+02  0.00000000000E+00 0. -1.
</event>
<event>
 7    1  0.3707147E-015  0.9000776E+02  0.7816164E-02  0.1186339E+00
        -11   -1    0    0    0    0  0.00000000000E+00  0.00000000000E+00  0.45593999997E+02  0.45594000000E+02  0.51100000000E-03 0.  1.
         11   -1    0    0    0    0 -0.00000000000E+00 -0.00000000000E+00 -0.45593999997E+02  0.45594000000E+02  0.51100000000E-03 0. -1.
    9900012    2    1    2    0    0  0.14950250929E+00 -0.60181324305E+00  0.10042149664E+01  0.90007755162E+02  0.90000016730E+02 0.  0.
         12    1    1    2    0    0 -0.14950250929E+00  0.60181324305E+00 -0.10042149664E+01  0.11802448384E+01  0.00000000000E+00 0. -1.
         11    1    3    3    0    0  0.11300233683E+02 -0.28107099405E+01 -0.16889685559E+02  0.20514795885E+02  0.51100000000E-03 0. -1.
        -11    1    3    3    0    0 -0.15923261703E+02  0.33648920661E+01 -0.23071583315E+02  0.28234211850E+02  0.51100000000E-03 0.  1.
        -12    1    3    3    0    0  0.47725305291E+01 -0.11559953686E+01  0.40965483840E+02  0.41258747426E+02  0.00000000000E+00 0.  1.
</event>
<event>
 7    1  0.3707147E-015  0.9000775E+02  0.7816164E-02  0.1186339E+00
        -11   -1    0    0    0    0  0.00000000000E+00  0.00000000000E+00  0.45593999997E+02  0.45594000000E+02  0.51100000000E-03 0.  1.
         11   -1    0    0    0    0 -0.00000000000E+00 -0.00000000000E+00 -0.45593999997E+02  0.45594000000E+02  0.51100000000E-03 0. -1.
    9900012    2    1    2    0    0  0.18396246797E+00  0.10463676997E+01  0.51406812725E+00  0.90007748505E+02  0.90000009985E+02 0.  0.
         12    1    1    2    0    0 -0.18396246797E+00 -0.10463676997E+01 -0.51406812725E+00  0.11802514953E+01  0.00000000000E+00 0. -1.
         11    1    3    3    0    0 -0.54284900901E+01 -0.98924678688E+01  0.29184652067E+01  0.11655336315E+02  0.51100000000E-03 0. -1.
        -11    1    3    3    0    0  0.46229378008E+01 -0.23630758958E+02  0.24638668658E+02  0.34450664962E+02  0.51100000000E-03 0.  1.
         12    1    3    3    0    0  0.98951475733E+00  0.34569594526E+02 -0.27043065737E+02  0.43901747228E+02  0.00000000000E+00 0. -1.
</event>
<event>
 7    1  0.3707147E-015  0.9000772E+02  0.7816164E-02  0.1186339E+00
        -11   -1    0    0    0    0  0.00000000000E+00  0.00000000000E+00  0.45593999997E+02  0.45594000000E+02  0.51100000000E-03 0.  1.
         11   -1    0    0    0    0 -0.00000000000E+00 -0.00000000000E+00 -0.45593999997E+02  0.45594000000E+02  0.51100000000E-03 0. -1.
    9900012    2    1    2    0    0  0.77894750785E+00 -0.15984652512E+00  0.87221688396E+00  0.90007715109E+02  0.89999976148E+02 0.  0.
         12    1    1    2    0    0 -0.77894750785E+00  0.15984652512E+00 -0.87221688396E+00  0.11802848911E+01  0.00000000000E+00 0. -1.
         11    1    3    3    0    0 -0.66700554136E+01 -0.78607864231E+01 -0.17147389075E+01  0.10450929729E+02  0.51100000000E-03 0. -1.
        -11    1    3    3    0    0  0.25468117058E+02 -0.52798992851E+01  0.32925047121E+02  0.41959040160E+02  0.51100000000E-03 0.  1.
         12    1    3    3    0    0 -0.18019114136E+02  0.12980839183E+02 -0.30338091330E+02  0.37597745221E+02  0.00000000000E+00 0. -1.
</event>
<event>
 7    1  0.3707147E-015  0.9000782E+02  0.7816164E-02  0.1186339E+00
        -11   -1    0    0    0    0  0.00000000000E+00  0.00000000000E+00  0.45593999997E+02  0.45594000000E+02  0.51100000000E-03 0.  1.
         11   -1    0    0    0    0 -0.00000000000E+00 -0.00000000000E+00 -0.45593999997E+02  0.45594000000E+02  0.51100000000E-03 0. -1.
    9900012    2    1    2    0    0 -0.91464869844E+00  0.35168849142E+00  0.65770021484E+00  0.90007815011E+02  0.90000077369E+02 0.  0.
         12    1    1    2    0    0  0.91464869844E+00 -0.35168849142E+00 -0.65770021484E+00  0.11801849894E+01  0.00000000000E+00 0. -1.
         11    1    3    3    0    0  0.92800622751E+01 -0.29429142551E+02 -0.19529563296E+02  0.36518458756E+02  0.51100000000E-03 0. -1.
        -11    1    3    3    0    0  0.37494092399E+01 -0.43262237202E+01 -0.59932555149E+01  0.82881477577E+01  0.51100000000E-03 0.  1.
        -12    1    3    3    0    0 -0.13944120213E+02  0.34107054763E+02  0.26180519026E+02  0.45201208497E+02  0.00000000000E+00 0.  1.
</event>
<event>
 7    1  0.3707147E-015  0.9000766E+02  0.7816164E-02  0.1186339E+00
        -11   -1    0    0    0    0  0.00000000000E+00  0.00000000000E+00  0.45593999997E+02  0.45594000000E+02  0.51100000000E-03 0. -1.
         11   -1    0    0    0    0 -0.00000000000E+00 -0.00000000000E+00 -0.45593999997E+02  0.45594000000E+02  0.51100000000E-03 0.  1.
    9900012    2    1    2    0    0  0.11076488859E+01  0.28159031996E+00 -0.29499676235E+00  0.90007660111E+02  0.89999920425E+02 0.  0.
         12    1    1    2    0    0 -0.11076488859E+01 -0.28159031996E+00  0.29499676235E+00  0.11803398885E+01  0.00000000000E+00 0. -1.
         11    1    3    3    0    0  0.13193374081E+02 -0.11114754014E+02  0.16496794421E+01  0.17329867828E+02  0.51100000000E-03 0. -1.
        -11    1    3    3    0    0 -0.82714377893E+01  0.18227065510E+02 -0.34123926466E+02  0.39561154658E+02  0.51100000000E-03 0.  1.
         12    1    3    3    0    0 -0.38142874055E+01 -0.68307211763E+01  0.32179250261E+02  0.33116637625E+02  0.00000000000E+00 0. -1.
</event>
<event>
 7    1  0.3707147E-015  0.9000774E+02  0.7816164E-02  0.1186339E+00
        -11   -1    0    0    0    0  0.00000000000E+00  0.00000000000E+00  0.45593999997E+02  0.45594000000E+02  0.51100000000E-03 0.  1.
         11   -1    0    0    0    0 -0.00000000000E+00 -0.00000000000E+00 -0.45593999997E+02  0.45594000000E+02  0.51100000000E-03 0. -1.
    9900012    2    1    2    0    0  0.28072014268E+00 -0.88794272277E+00  0.72510385787E+00  0.90007736605E+02  0.89999997928E+02 0.  0.
         12    1    1    2    0    0 -0.28072014268E+00  0.88794272277E+00 -0.72510385787E+00  0.11802633952E+01  0.00000000000E+00 0. -1.
         11    1    3    3    0    0  0.53862037684E+01  0.10765274456E+02 -0.21704259477E+01  0.12231642335E+02  0.51100000000E-03 0. -1.
        -11    1    3    3    0    0  0.24591811092E+02  0.32221963924E+01 -0.24394418569E+02  0.34788322465E+02  0.51100000000E-03 0.  1.
         12    1    3    3    0    0 -0.29697294717E+02 -0.14875413571E+02  0.27289948375E+02  0.42987771805E+02  0.00000000000E+00 0. -1.
</event>
<event>
 7    1  0.3707147E-015  0.9000773E+02  0.7816164E-02  0.1186339E+00
        -11   -1    0    0    0    0  0.00000000000E+00  0.00000000000E+00  0.45593999997E+02  0.45594000000E+02  0.51100000000E-03 0.  1.
         11   -1    0    0    0    0 -0.00000000000E+00 -0.00000000000E+00 -0.45593999997E+02  0.45594000000E+02  0.51100000000E-03 0. -1.
    9900012    2    1    2    0    0 -0.42130016843E+00 -0.10902788782E+01  0.16378939685E+00  0.90007733576E+02  0.89999994860E+02 0.  0.
         12    1    1    2    0    0  0.42130016843E+00  0.10902788782E+01 -0.16378939685E+00  0.11802664236E+01  0.00000000000E+00 0. -1.
         11    1    3    3    0    0 -0.17220748824E+02  0.33970171634E+02  0.14028501609E+02  0.40587259190E+02  0.51100000000E-03 0. -1.
        -11    1    3    3    0    0 -0.72936248450E+01 -0.56706763743E+01 -0.97068301060E+00  0.92895511028E+01  0.51100000000E-03 0.  1.
        -12    1    3    3    0    0  0.24093073501E+02 -0.29389774137E+02 -0.12894029201E+02  0.40130923284E+02  0.00000000000E+00 0.  1.
</event>
<event>
 7    1  0.3707147E-015  0.9000776E+02  0.7816164E-02  0.1186339E+00
        -11   -1    0    0    0    0  0.00000000000E+00  0.00000000000E+00  0.45593999997E+02  0.45594000000E+02  0.51100000000E-03 0. -1.
         11   -1    0    0    0    0 -0.00000000000E+00 -0.00000000000E+00 -0.45593999997E+02  0.45594000000E+02  0.51100000000E-03 0.  1.
    9900012    2    1    2    0    0  0.80595920034E+00  0.39254720956E+00 -0.76766703215E+00  0.90007755866E+02  0.90000017443E+02 0.  0.
         12    1    1    2    0    0 -0.80595920034E+00 -0.39254720956E+00  0.76766703215E+00  0.11802441343E+01  0.00000000000E+00 0. -1.
         11    1    3    3    0    0  0.16981536010E+01 -0.61159383830E+01 -0.89768903942E+01  0.10994225274E+02  0.51100000000E-03 0. -1.
        -11    1    3    3    0    0 -0.89778758805E+00  0.12422995104E+02 -0.34094490096E+02  0.36298362017E+02  0.51100000000E-03 0.  1.
         12    1    3    3    0    0  0.55931874131E-02 -0.59145095116E+01  0.42303713458E+02  0.42715168575E+02  0.00000000000E+00 0. -1.
</event>
<event>
 7    1  0.3707147E-015  0.9000771E+02  0.7816164E-02  0.1186339E+00
        -11   -1    0    0    0    0  0.00000000000E+00  0.00000000000E+00  0.45593999997E+02  0.45594000000E+02  0.51100000000E-03 0.  1.
         11   -1    0    0    0    0 -0.00000000000E+00 -0.00000000000E+00 -0.45593999997E+02  0.45594000000E+02  0.51100000000E-03 0. -1.
    9900012    2    1    2    0    0  0.26871670884E+00 -0.96444750582E+00  0.62507830323E+00  0.90007707432E+02  0.89999968370E+02 0.  0.
         12    1    1    2    0    0 -0.26871670884E+00  0.96444750582E+00 -0.62507830323E+00  0.11802925681E+01  0.00000000000E+00 0. -1.
         11    1    3    3    0    0  0.51156336841E+01 -0.26925681602E+01  0.65915576114E+01  0.87674547785E+01  0.51100000000E-03 0. -1.
        -11    1    3    3    0    0  0.67605082665E+01 -0.35182064565E+02 -0.18820846548E+02  0.40468585398E+02  0.51100000000E-03 0.  1.
         12    1    3    3    0    0 -0.11607425242E+02  0.36910185219E+02  0.12854367240E+02  0.40771667256E+02  0.00000000000E+00 0. -1.
</event>
<event>
 7    1  0.3707147E-015  0.9000790E+02  0.7816164E-02  0.1186339E+00
        -11   -1    0    0    0    0  0.00000000000E+00  0.00000000000E+00  0.45593999997E+02  0.45594000000E+02  0.51100000000E-03 0.  1.
         11   -1    0    0    0    0 -0.00000000000E+00 -0.00000000000E+00 -0.45593999997E+02  0.45594000000E+02  0.51100000000E-03 0. -1.
    9900012    2    1    2    0    0  0.86680204838E+00  0.74440293501E+00  0.29522705545E+00  0.90007898083E+02  0.90000161537E+02 0.  0.
         12    1    1    2    0    0 -0.86680204838E+00 -0.74440293501E+00 -0.29522705545E+00  0.11801019172E+01  0.00000000000E+00 0. -1.
         11    1    3    3    0    0  0.33039537314E+01  0.90402829710E+01  0.35214296184E+01  0.10249063044E+02  0.51100000000E-03 0. -1.
        -11    1    3    3    0    0  0.69039405180E+01  0.31907950900E+02  0.13362600627E+02  0.35275215394E+02  0.51100000000E-03 0.  1.
         12    1    3    3    0    0 -0.93410922010E+01 -0.40203830936E+02 -0.16588803190E+02  0.44483619645E+02  0.00000000000E+00 0. -1.
</event>
<event>
 7    1  0.3707147E-015  0.9000777E+02  0.7816164E-02  0.1186339E+00
        -11   -1    0    0    0    0  0.00000000000E+00  0.00000000000E+00  0.45593999997E+02  0.45594000000E+02  0.51100000000E-03 0. -1.
         11   -1    0    0    0    0 -0.00000000000E+00 -0.00000000000E+00 -0.45593999997E+02  0.45594000000E+02  0.51100000000E-03 0.  1.
    9900012    2    1    2    0    0  0.52424735952E+00 -0.77710562561E+00 -0.71709288604E+00  0.90007766695E+02  0.90000028415E+02 0.  0.
         12    1    1    2    0    0 -0.52424735952E+00  0.77710562561E+00  0.71709288604E+00  0.11802333051E+01  0.00000000000E+00 0. -1.
         11    1    3    3    0    0 -0.26140836765E+02 -0.17042823670E+02  0.88769361441E+01  0.32443815759E+02  0.51100000000E-03 0. -1.
        -11    1    3    3    0    0 -0.11580024084E+02 -0.26616602956E+01  0.43772459244E+01  0.12662609346E+02  0.51100000000E-03 0.  1.
        -12    1    3    3    0    0  0.38245108209E+02  0.18927378340E+02 -0.13971274955E+02  0.44901341590E+02  0.00000000000E+00 0.  1.
</event>
<event>
 7    1  0.3707147E-015  0.9000780E+02  0.7816164E-02  0.1186339E+00
        -11   -1    0    0    0    0  0.00000000000E+00  0.00000000000E+00  0.45593999997E+02  0.45594000000E+02  0.51100000000E-03 0. -1.
         11   -1    0    0    0    0 -0.00000000000E+00 -0.00000000000E+00 -0.45593999997E+02  0.45594000000E+02  0.51100000000E-03 0.  1.
    9900012    2    1    2    0    0 -0.31579579648E+00 -0.37747656183E+00 -0.10726895719E+01  0.90007797281E+02  0.90000059405E+02 0.  0.
         12    1    1    2    0    0  0.31579579648E+00  0.37747656183E+00  0.10726895719E+01  0.11802027188E+01  0.00000000000E+00 0. -1.
         11    1    3    3    0    0  0.27938639494E+02  0.75892482581E+01 -0.23735825613E+02  0.37437330082E+02  0.51100000000E-03 0. -1.
        -11    1    3    3    0    0 -0.17241584513E+01  0.12622040431E+02  0.13838473621E+01  0.12814197625E+02  0.51100000000E-03 0.  1.
        -12    1    3    3    0    0 -0.26530276839E+02 -0.20588765251E+02  0.21279288679E+02  0.39756269573E+02  0.00000000000E+00 0.  1.
</event>
<event>
 7    1  0.3707147E-015  0.9000712E+02  0.7816164E-02  0.1186340E+00
        -11   -1    0    0    0    0  0.00000000000E+00  0.00000000000E+00  0.45593999997E+02  0.45594000000E+02  0.51100000000E-03 0.  1.
         11   -1    0    0    0    0 -0.00000000000E+00 -0.00000000000E+00 -0.45593999997E+02  0.45594000000E+02  0.51100000000E-03 0. -1.
    9900012    2    1    2    0    0 -0.52952435734E+00  0.21627412732E+00  0.10331074799E+01  0.90007118292E+02  0.89999371451E+02 0.  0.
         12    1    1    2    0    0  0.52952435734E+00 -0.21627412732E+00 -0.10331074799E+01  0.11808817079E+01  0.00000000000E+00 0. -1.
         11    1    3    3    0    0  0.17603048858E+01 -0.37000132285E+01 -0.56957072753E+01  0.70163988491E+01  0.51100000000E-03 0. -1.
        -11    1    3    3    0    0  0.22088370731E+02 -0.81736004945E+01  0.36003264202E+02  0.43022539442E+02  0.51100000000E-03 0.  1.
         12    1    3    3    0    0 -0.24378199974E+02  0.12089887850E+02 -0.29274449446E+02  0.39968180001E+02  0.00000000000E+00 0. -1.
</event>
<event>
 8    1  0.3707147E-015  0.9000767E+02  0.7816164E-02  0.1186339E+00
        -11   -1    0    0    0    0  0.00000000000E+00  0.00000000000E+00  0.45593999997E+02  0.45594000000E+02  0.51100000000E-03 0. -1.
         11   -1    0    0    0    0 -0.00000000000E+00 -0.00000000000E+00 -0.45593999997E+02  0.45594000000E+02  0.51100000000E-03 0.  1.
    9900012    2    1    2    0    0  0.58655863368E-01 -0.11427552913E+01 -0.28954736165E+00  0.90007674689E+02  0.89999935194E+02 0.  0.
         23    2    3    3    0    0  0.24548733049E+02 -0.11694248197E+02  0.44318054680E+01  0.62926517852E+02  0.56574817843E+02 0.  0.
         12    1    1    2    0    0 -0.58655863368E-01  0.11427552913E+01  0.28954736165E+00  0.11803253114E+01  0.00000000000E+00 0. -1.
         11    1    4    4    0    0 -0.83412815542E+01  0.14521561540E+02  0.11447855620E+02  0.20285613772E+02  0.51100000000E-03 0. -1.
        -11    1    4    4    0    0  0.32890014603E+02 -0.26215809737E+02 -0.70160501516E+01  0.42640904080E+02  0.51100000000E-03 0.  1.
         12    1    3    3    0    0 -0.24490077185E+02  0.10551492906E+02 -0.47213528297E+01  0.27081156837E+02  0.00000000000E+00 0. -1.
</event>
<event>
 7    1  0.3707147E-015  0.9000775E+02  0.7816164E-02  0.1186339E+00
        -11   -1    0    0    0    0  0.00000000000E+00  0.00000000000E+00  0.45593999997E+02  0.45594000000E+02  0.51100000000E-03 0. -1.
         11   -1    0    0    0    0 -0.00000000000E+00 -0.00000000000E+00 -0.45593999997E+02  0.45594000000E+02  0.51100000000E-03 0.  1.
    9900012    2    1    2    0    0  0.72149569042E-01 -0.60689773320E+00 -0.10096862404E+01  0.90007747178E+02  0.90000008641E+02 0.  0.
         12    1    1    2    0    0 -0.72149569042E-01  0.60689773320E+00  0.10096862404E+01  0.11802528216E+01  0.00000000000E+00 0. -1.
         11    1    3    3    0    0 -0.24093994444E+02 -0.29407290515E+02  0.13660776507E+02  0.40397105326E+02  0.51100000000E-03 0. -1.
        -11    1    3    3    0    0 -0.37312320890E+01  0.42413923863E+01  0.50133425971E+01  0.75528210977E+01  0.51100000000E-03 0.  1.
        -12    1    3    3    0    0  0.27897376102E+02  0.24559000395E+02 -0.19683805344E+02  0.42057820755E+02  0.00000000000E+00 0.  1.
</event>
<event>
 7    1  0.3707147E-015  0.9000767E+02  0.7816164E-02  0.1186339E+00
        -11   -1    0    0    0    0  0.00000000000E+00  0.00000000000E+00  0.45593999997E+02  0.45594000000E+02  0.51100000000E-03 0.  1.
         11   -1    0    0    0    0 -0.00000000000E+00 -0.00000000000E+00 -0.45593999997E+02  0.45594000000E+02  0.51100000000E-03 0. -1.
    9900012    2    1    2    0    0 -0.10320584240E+01 -0.45304766085E+00  0.35041188496E+00  0.90007667308E+02  0.89999927717E+02 0.  0.
         12    1    1    2    0    0  0.10320584240E+01  0.45304766085E+00 -0.35041188496E+00  0.11803326915E+01  0.00000000000E+00 0. -1.
         11    1    3    3    0    0 -0.53190746566E+01  0.17405354819E+02 -0.31363115064E+02  0.36261328138E+02  0.51100000000E-03 0. -1.
        -11    1    3    3    0    0 -0.14570195510E+02  0.24181124954E+01  0.59449350231E+01  0.15921058945E+02  0.51100000000E-03 0.  1.
        -12    1    3    3    0    0  0.18857211743E+02 -0.20276514975E+02  0.25768591926E+02  0.37825280225E+02  0.00000000000E+00 0.  1.
</event>
<event>
 7    1  0.3707147E-015  0.9000777E+02  0.7816164E-02  0.1186339E+00
        -11   -1    0    0    0    0  0.00000000000E+00  0.00000000000E+00  0.45593999997E+02  0.45594000000E+02  0.51100000000E-03 0.  1.
         11   -1    0    0    0    0 -0.00000000000E+00 -0.00000000000E+00 -0.45593999997E+02  0.45594000000E+02  0.51100000000E-03 0. -1.
    9900012    2    1    2    0    0  0.73124434894E+00  0.79351727391E+00  0.47808258890E+00  0.90007766581E+02  0.90000028300E+02 0.  0.
         12    1    1    2    0    0 -0.73124434894E+00 -0.79351727391E+00 -0.47808258890E+00  0.11802334191E+01  0.00000000000E+00 0. -1.
         11    1    3    3    0    0 -0.47931349218E+01  0.15148324377E+01 -0.97081151798E+01  0.10932353832E+02  0.51100000000E-03 0. -1.
        -11    1    3    3    0    0 -0.18581196075E+02 -0.33098186038E+02  0.29995870617E+01  0.38075560264E+02  0.51100000000E-03 0.  1.
         12    1    3    3    0    0  0.24105575346E+02  0.32376870874E+02  0.71866107070E+01  0.40999852485E+02  0.00000000000E+00 0. -1.
</event>
<event>
 7    1  0.3707147E-015  0.9000775E+02  0.7816164E-02  0.1186339E+00
        -11   -1    0    0    0    0  0.00000000000E+00  0.00000000000E+00  0.45593999997E+02  0.45594000000E+02  0.51100000000E-03 0. -1.
         11   -1    0    0    0    0 -0.00000000000E+00 -0.00000000000E+00 -0.45593999997E+02  0.45594000000E+02  0.51100000000E-03 0.  1.
    9900012    2    1    2    0    0  0.91069321104E+00 -0.58558330589E+00 -0.46980220631E+00  0.90007752549E+02  0.90000014083E+02 0.  0.
         12    1    1    2    0    0 -0.91069321104E+00  0.58558330589E+00  0.46980220631E+00  0.11802474511E+01  0.00000000000E+00 0. -1.
         11    1    3    3    0    0  0.70483263268E+01 -0.21596997061E+01  0.53678942908E+01  0.91190732099E+01  0.51100000000E-03 0. -1.
        -11    1    3    3    0    0  0.24761848762E+02  0.10104113687E+02 -0.30411343045E+02  0.40498049997E+02  0.51100000000E-03 0.  1.
         12    1    3    3    0    0 -0.30899481878E+02 -0.85299972869E+01  0.24573646547E+02  0.40390629342E+02  0.00000000000E+00 0. -1.
</event>
<event>
 7    1  0.3707147E-015  0.9000765E+02  0.7816164E-02  0.1186339E+00
        -11   -1    0    0    0    0  0.00000000000E+00  0.00000000000E+00  0.45593999997E+02  0.45594000000E+02  0.51100000000E-03 0.  1.
         11   -1    0    0    0    0 -0.00000000000E+00 -0.00000000000E+00 -0.45593999997E+02  0.45594000000E+02  0.51100000000E-03 0. -1.
    9900012    2    1    2    0    0 -0.99665932499E+00 -0.63009078709E+00  0.53579124097E-01  0.90007654740E+02  0.89999914983E+02 0.  0.
         12    1    1    2    0    0  0.99665932499E+00  0.63009078709E+00 -0.53579124097E-01  0.11803452599E+01  0.00000000000E+00 0. -1.
         11    1    3    3    0    0 -0.29187849421E+02  0.40367964965E+01 -0.28314783695E+02  0.40865061553E+02  0.51100000000E-03 0. -1.
        -11    1    3    3    0    0  0.13617330158E+01  0.88480921073E+01  0.20054645808E+01  0.91741451478E+01  0.51100000000E-03 0.  1.
        -12    1    3    3    0    0  0.26829457080E+02 -0.13514979391E+02  0.26362898238E+02  0.39968448039E+02  0.00000000000E+00 0.  1.
</event>
<event>
 7    1  0.3707147E-015  0.9000773E+02  0.7816164E-02  0.1186339E+00
        -11   -1    0    0    0    0  0.00000000000E+00  0.00000000000E+00  0.45593999997E+02  0.45594000000E+02  0.51100000000E-03 0. -1.
         11   -1    0    0    0    0 -0.00000000000E+00 -0.00000000000E+00 -0.45593999997E+02  0.45594000000E+02  0.51100000000E-03 0.  1.
    9900012    2    1    2    0    0  0.94596045125E-01 -0.11716531081E+01  0.10636965244E+00  0.90007731420E+02  0.89999992675E+02 0.  0.
         12    1    1    2    0    0 -0.94596045125E-01  0.11716531081E+01 -0.10636965244E+00  0.11802685798E+01  0.00000000000E+00 0. -1.
         11    1    3    3    0    0  0.22231103243E+02  0.17219942832E+02  0.22751952583E+02  0.36171808486E+02  0.51100000000E-03 0. -1.
        -11    1    3    3    0    0  0.79894417896E+01  0.32830294587E+01  0.25172321449E+01  0.89969950799E+01  0.51100000000E-03 0.  1.
        -12    1    3    3    0    0 -0.30125948987E+02 -0.21674625399E+02 -0.25162815076E+02  0.44838927854E+02  0.00000000000E+00 0.  1.
</event>
<event>
 7    1  0.3707147E-015  0.9000769E+02  0.7816164E-02  0.1186339E+00
        -11   -1    0    0    0    0  0.00000000000E+00  0.00000000000E+00  0.45593999997E+02  0.45594000000E+02  0.51100000000E-03 0. -1.
         11   -1    0    0    0    0 -0.00000000000E+00 -0.00000000000E+00 -0.45593999997E+02  0.45594000000E+02  0.51100000000E-03 0.  1.
    9900012    2    1    2    0    0  0.78345980024E+00 -0.88239626269E+00  0.26369936384E-01  0.90007691652E+02  0.89999952382E+02 0.  0.
         12    1    1    2    0    0 -0.78345980024E+00  0.88239626269E+00 -0.26369936384E-01  0.11803083481E+01  0.00000000000E+00 0. -1.
         11    1    3    3    0    0 -0.35536715575E+02 -0.20550265825E+02  0.14907692056E+02  0.43673915122E+02  0.51100000000E-03 0. -1.
        -11    1    3    3    0    0  0.65370552885E+01  0.24670375710E+01 -0.90759346671E+01  0.11453905734E+02  0.51100000000E-03 0.  1.
        -12    1    3    3    0    0  0.29783120086E+02  0.17200831992E+02 -0.58053874526E+01  0.34879870796E+02  0.00000000000E+00 0.  1.
</event>
<event>
 7    1  0.3707147E-015  0.9000775E+02  0.7816164E-02  0.1186339E+00
        -11   -1    0    0    0    0  0.00000000000E+00  0.00000000000E+00  0.45593999997E+02  0.45594000000E+02  0.51100000000E-03 0. -1.
         11   -1    0    0    0    0 -0.00000000000E+00 -0.00000000000E+00 -0.45593999997E+02  0.45594000000E+02  0.51100000000E-03 0.  1.
    9900012    2    1    2    0    0  0.31498627309E+00 -0.68960238246E+00 -0.90455301814E+00  0.90007752585E+02  0.90000014119E+02 0.  0.
         12    1    1    2    0    0 -0.31498627309E+00  0.68960238246E+00  0.90455301814E+00  0.11802474151E+01  0.00000000000E+00 0. -1.
         11    1    3    3    0    0  0.14672845335E+02  0.35253510194E+01  0.25677147070E+02  0.29783155842E+02  0.51100000000E-03 0. -1.
        -11    1    3    3    0    0  0.25459018729E+01 -0.14270421393E+02  0.10737639326E+02  0.18039496712E+02  0.51100000000E-03 0.  1.
        -12    1    3    3    0    0 -0.16903760935E+02  0.10055467991E+02 -0.37319339414E+02  0.42185100030E+02  0.00000000000E+00 0.  1.
</event>
<event>
 7    1  0.3707147E-015  0.9000778E+02  0.7816164E-02  0.1186339E+00
        -11   -1    0    0    0    0  0.00000000000E+00  0.00000000000E+00  0.45593999997E+02  0.45594000000E+02  0.51100000000E-03 0.  1.
         11   -1    0    0    0    0 -0.00000000000E+00 -0.00000000000E+00 -0.45593999997E+02  0.45594000000E+02  0.51100000000E-03 0. -1.
    9900012    2    1    2    0    0  0.64968023874E+00  0.34461137540E+00  0.92308503339E+00  0.90007776550E+02  0.90000038401E+02 0.  0.
         12    1    1    2    0    0 -0.64968023874E+00 -0.34461137540E+00 -0.92308503339E+00  0.11802234498E+01  0.00000000000E+00 0. -1.
         11    1    3    3    0    0 -0.11124075806E+02 -0.45180171862E+01 -0.38999164156E+01  0.12624059971E+02  0.51100000000E-03 0. -1.
        -11    1    3    3    0    0 -0.97621812290E+01  0.14654458154E+02  0.34916118767E+02  0.39104842106E+02  0.51100000000E-03 0.  1.
         12    1    3    3    0    0  0.21535937274E+02 -0.97918295921E+01 -0.30093117318E+02  0.38278874473E+02  0.00000000000E+00 0. -1.
</event>
<event>
 7    1  0.3707147E-015  0.9000773E+02  0.7816164E-02  0.1186339E+00
        -11   -1    0    0    0    0  0.00000000000E+00  0.00000000000E+00  0.45593999997E+02  0.45594000000E+02  0.51100000000E-03 0.  1.
         11   -1    0    0    0    0 -0.00000000000E+00 -0.00000000000E+00 -0.45593999997E+02  0.45594000000E+02  0.51100000000E-03 0. -1.
    9900012    2    1    2    0    0 -0.53179740787E+00 -0.87798029925E+00  0.58256088437E+00  0.90007730932E+02  0.89999992180E+02 0.  0.
         12    1    1    2    0    0  0.53179740787E+00  0.87798029925E+00 -0.58256088437E+00  0.11802690680E+01  0.00000000000E+00 0. -1.
         11    1    3    3    0    0 -0.11808811467E+02 -0.19450668014E+01 -0.11728717643E+02  0.16756912930E+02  0.51100000000E-03 0. -1.
        -11    1    3    3    0    0 -0.10958843596E+02 -0.30173064682E+02  0.13647158552E+02  0.34882015740E+02  0.51100000000E-03 0.  1.
         12    1    3    3    0    0  0.22235857655E+02  0.31240151184E+02 -0.13358800239E+01  0.38368802263E+02  0.00000000000E+00 0. -1.
</event>
<event>
 7    1  0.3707147E-015  0.9000776E+02  0.7816164E-02  0.1186339E+00
        -11   -1    0    0    0    0  0.00000000000E+00  0.00000000000E+00  0.45593999997E+02  0.45594000000E+02  0.51100000000E-03 0. -1.
         11   -1    0    0    0    0 -0.00000000000E+00 -0.00000000000E+00 -0.45593999997E+02  0.45594000000E+02  0.51100000000E-03 0.  1.
    9900012    2    1    2    0    0  0.25229220191E+00  0.87466687454E+00 -0.75118220782E+00  0.90007759259E+02  0.90000020882E+02 0.  0.
         12    1    1    2    0    0 -0.25229220191E+00 -0.87466687454E+00  0.75118220782E+00  0.11802407407E+01  0.00000000000E+00 0. -1.
         11    1    3    3    0    0  0.29745772812E+02  0.25903702735E+02 -0.14661287716E+02  0.42080472589E+02  0.51100000000E-03 0. -1.
        -11    1    3    3    0    0 -0.75183769844E+00 -0.83555605379E+01 -0.49293015408E+01  0.97302962837E+01  0.51100000000E-03 0.  1.
        -12    1    3    3    0    0 -0.28741642912E+02 -0.16673475323E+02  0.18839407049E+02  0.38196990386E+02  0.00000000000E+00 0.  1.
</event>
<event>
 7    1  0.3707147E-015  0.9000775E+02  0.7816164E-02  0.1186339E+00
        -11   -1    0    0    0    0  0.00000000000E+00  0.00000000000E+00  0.45593999997E+02  0.45594000000E+02  0.51100000000E-03 0.  1.
         11   -1    0    0    0    0 -0.00000000000E+00 -0.00000000000E+00 -0.45593999997E+02  0.45594000000E+02  0.51100000000E-03 0. -1.
    9900012    2    1    2    0    0 -0.58472002338E+00 -0.10204708252E+01 -0.98646481250E-01  0.90007750306E+02  0.90000011810E+02 0.  0.
         12    1    1    2    0    0  0.58472002338E+00  0.10204708252E+01  0.98646481250E-01  0.11802496936E+01  0.00000000000E+00 0. -1.
         11    1    3    3    0    0 -0.36906068892E+01  0.79304447780E+01 -0.47562579912E+01  0.99566321578E+01  0.51100000000E-03 0. -1.
        -11    1    3    3    0    0  0.36017283116E+02 -0.22410608003E+02 -0.62046923078E+01  0.42871648453E+02  0.51100000000E-03 0.  1.
         12    1    3    3    0    0 -0.32911396251E+02  0.13459692400E+02  0.10862303818E+02  0.37179469696E+02  0.00000000000E+00 0. -1.
</event>
<event>
 7    1  0.3707147E-015  0.9000771E+02  0.7816164E-02  0.1186339E+00
        -11   -1    0    0    0    0  0.00000000000E+00  0.00000000000E+00  0.45593999997E+02  0.45594000000E+02  0.51100000000E-03 0.  1.
         11   -1    0    0    0    0 -0.00000000000E+00 -0.00000000000E+00 -0.45593999997E+02  0.45594000000E+02  0.51100000000E-03 0. -1.
    9900012    2    1    2    0    0  0.86115657185E+00  0.79050775118E-01 -0.80327143062E+00  0.90007709927E+02  0.89999970898E+02 0.  0.
         12    1    1    2    0    0 -0.86115657185E+00 -0.79050775118E-01  0.80327143062E+00  0.11802900735E+01  0.00000000000E+00 0. -1.
         11    1    3    3    0    0  0.13717635153E+01 -0.23392631856E+02 -0.32721654129E+02  0.40246783840E+02  0.51100000000E-03 0. -1.
        -11    1    3    3    0    0 -0.76354089824E+01  0.71083522834E+01 -0.27324500939E+01  0.10783989349E+02  0.51100000000E-03 0.  1.
        -12    1    3    3    0    0  0.71248020389E+01  0.16363330348E+02  0.34650832793E+02  0.38976936737E+02  0.00000000000E+00 0.  1.
</event>
<event>
 7    1  0.3707147E-015  0.9000770E+02  0.7816164E-02  0.1186339E+00
        -11   -1    0    0    0    0  0.00000000000E+00  0.00000000000E+00  0.45593999997E+02  0.45594000000E+02  0.51100000000E-03 0.  1.
         11   -1    0    0    0    0 -0.00000000000E+00 -0.00000000000E+00 -0.45593999997E+02  0.45594000000E+02  0.51100000000E-03 0. -1.
    9900012    2    1    2    0    0 -0.92029534070E-01  0.40688231268E+00  0.11041256056E+01  0.90007696647E+02  0.89999957443E+02 0.  0.
         12    1    1    2    0    0  0.92029534070E-01 -0.40688231268E+00 -0.11041256056E+01  0.11803033528E+01  0.00000000000E+00 0. -1.
         11    1    3    3    0    0 -0.35299621482E+02 -0.11728958795E+02 -0.17024086126E+02  0.40907838612E+02  0.51100000000E-03 0. -1.
        -11    1    3    3    0    0  0.34666294462E+01 -0.66193554782E+01  0.78242790007E+01  0.10819090942E+02  0.51100000000E-03 0.  1.
        -12    1    3    3    0    0  0.31740962502E+02  0.18755196586E+02  0.10303932731E+02  0.38280767094E+02  0.00000000000E+00 0.  1.
</event>
<event>
 7    1  0.3707147E-015  0.9000767E+02  0.7816164E-02  0.1186339E+00
        -11   -1    0    0    0    0  0.00000000000E+00  0.00000000000E+00  0.45593999997E+02  0.45594000000E+02  0.51100000000E-03 0.  1.
         11   -1    0    0    0    0 -0.00000000000E+00 -0.00000000000E+00 -0.45593999997E+02  0.45594000000E+02  0.51100000000E-03 0. -1.
    9900012    2    1    2    0    0  0.84404899648E+00  0.51631839751E+00  0.64356451689E+00  0.90007670095E+02  0.89999930541E+02 0.  0.
         12    1    1    2    0    0 -0.84404899648E+00 -0.51631839751E+00 -0.64356451689E+00  0.11803299045E+01  0.00000000000E+00 0. -1.
         11    1    3    3    0    0 -0.21657019164E+02 -0.26784731436E+02 -0.14898081736E+02  0.37528671131E+02  0.51100000000E-03 0. -1.
        -11    1    3    3    0    0 -0.83556723235E+01  0.79619521297E+01 -0.25445488597E+01  0.11818826966E+02  0.51100000000E-03 0.  1.
        -12    1    3    3    0    0  0.30856740484E+02  0.19339097704E+02  0.18086195113E+02  0.40660171999E+02  0.00000000000E+00 0.  1.
</event>
<event>
 7    1  0.3707147E-015  0.9000772E+02  0.7816164E-02  0.1186339E+00
        -11   -1    0    0    0    0  0.00000000000E+00  0.00000000000E+00  0.45593999997E+02  0.45594000000E+02  0.51100000000E-03 0. -1.
         11   -1    0    0    0    0 -0.00000000000E+00 -0.00000000000E+00 -0.45593999997E+02  0.45594000000E+02  0.51100000000E-03 0.  1.
    9900012    2    1    2    0    0 -0.11762201874E+01 -0.86173725595E-01  0.46252088772E-01  0.90007720755E+02  0.89999981869E+02 0.  0.
         12    1    1    2    0    0  0.11762201874E+01  0.86173725595E-01 -0.46252088772E-01  0.11802792449E+01  0.00000000000E+00 0. -1.
         11    1    3    3    0    0  0.15729865080E+02  0.31731854410E+02  0.18336443537E+02  0.39881880618E+02  0.51100000000E-03 0. -1.
        -11    1    3    3    0    0  0.47610073969E+01 -0.68244969628E+01  0.49664792914E+01  0.96905555590E+01  0.51100000000E-03 0.  1.
        -12    1    3    3    0    0 -0.21667092664E+02 -0.24993531173E+02 -0.23256670740E+02  0.40435284578E+02  0.00000000000E+00 0.  1.
</event>
<event>
 7    1  0.3707147E-015  0.9000772E+02  0.7816164E-02  0.1186339E+00
        -11   -1    0    0    0    0  0.00000000000E+00  0.00000000000E+00  0.45593999997E+02  0.45594000000E+02  0.51100000000E-03 0.  1.
         11   -1    0    0    0    0 -0.00000000000E+00 -0.00000000000E+00 -0.45593999997E+02  0.45594000000E+02  0.51100000000E-03 0. -1.
    9900012    2    1    2    0    0  0.71238120485E+00 -0.58610651781E+00  0.73624050011E+00  0.90007721260E+02  0.89999982380E+02 0.  0.
         12    1    1    2    0    0 -0.71238120485E+00  0.58610651781E+00 -0.73624050011E+00  0.11802787405E+01  0.00000000000E+00 0. -1.
         11    1    3    3    0    0 -0.69538244169E+01 -0.22956897077E+01 -0.31343316260E+02  0.32187409646E+02  0.51100000000E-03 0. -1.
        -11    1    3    3    0    0 -0.54716507434E+01  0.83310374148E+00 -0.11248136923E+02  0.12536092222E+02  0.51100000000E-03 0.  1.
        -12    1    3    3    0    0  0.13137856365E+02  0.87647944844E+00  0.43327693683E+02  0.45284219392E+02  0.00000000000E+00 0.  1.
</event>
<event>
 7    1  0.3707147E-015  0.9000772E+02  0.7816164E-02  0.1186339E+00
        -11   -1    0    0    0    0  0.00000000000E+00  0.00000000000E+00  0.45593999997E+02  0.45594000000E+02  0.51100000000E-03 0. -1.
         11   -1    0    0    0    0 -0.00000000000E+00 -0.00000000000E+00 -0.45593999997E+02  0.45594000000E+02  0.51100000000E-03 0.  1.
    9900012    2    1    2    0    0  0.42923087693E-01 -0.10443937352E+01 -0.54813775771E+00  0.90007722208E+02  0.89999983341E+02 0.  0.
         12    1    1    2    0    0 -0.42923087693E-01  0.10443937352E+01  0.54813775771E+00  0.11802777923E+01  0.00000000000E+00 0. -1.
         11    1    3    3    0    0 -0.36201255224E+02  0.49013081946E+01  0.18108983787E+02  0.40773631134E+02  0.51100000000E-03 0. -1.
        -11    1    3    3    0    0 -0.21864108104E+01  0.33277568567E+01 -0.69391590949E+01  0.80003929363E+01  0.51100000000E-03 0.  1.
        -12    1    3    3    0    0  0.38430589122E+02 -0.92734587864E+01 -0.11717962450E+02  0.41233698137E+02  0.00000000000E+00 0.  1.
</event>
<event>
 7    1  0.3707147E-015  0.9000775E+02  0.7816164E-02  0.1186339E+00
        -11   -1    0    0    0    0  0.00000000000E+00  0.00000000000E+00  0.45593999997E+02  0.45594000000E+02  0.51100000000E-03 0. -1.
         11   -1    0    0    0    0 -0.00000000000E+00 -0.00000000000E+00 -0.45593999997E+02  0.45594000000E+02  0.51100000000E-03 0.  1.
    9900012    2    1    2    0    0  0.40447626016E+00  0.11082572902E+01 -0.33917503490E-01  0.90007751864E+02  0.90000013388E+02 0.  0.
         12    1    1    2    0    0 -0.40447626016E+00 -0.11082572902E+01  0.33917503490E-01  0.11802481364E+01  0.00000000000E+00 0. -1.
         11    1    3    3    0    0 -0.33843337747E+01  0.93458369959E+01 -0.54049107391E+01  0.11314214273E+02  0.51100000000E-03 0. -1.
        -11    1    3    3    0    0 -0.18071435923E+02 -0.37148869798E+02 -0.32438282725E+01  0.41438360799E+02  0.51100000000E-03 0.  1.
         12    1    3    3    0    0  0.21860245958E+02  0.28911290092E+02  0.86148215081E+01  0.37255176792E+02  0.00000000000E+00 0. -1.
</event>
<event>
 7    1  0.3707147E-015  0.9000774E+02  0.7816164E-02  0.1186339E+00
        -11   -1    0    0    0    0  0.00000000000E+00  0.00000000000E+00  0.45593999997E+02  0.45594000000E+02  0.51100000000E-03 0.  1.
         11   -1    0    0    0    0 -0.00000000000E+00 -0.00000000000E+00 -0.45593999997E+02  0.45594000000E+02  0.51100000000E-03 0. -1.
    9900012    2    1    2    0    0  0.91086485797E+00  0.64831749353E+00 -0.37818502536E+00  0.90007739743E+02  0.90000001107E+02 0.  0.
         12    1    1    2    0    0 -0.91086485797E+00 -0.64831749353E+00  0.37818502536E+00  0.11802602574E+01  0.00000000000E+00 0. -1.
         11    1    3    3    0    0  0.80985071111E+01  0.31475839287E+01 -0.42662985853E+01  0.96795870726E+01  0.51100000000E-03 0. -1.
        -11    1    3    3    0    0  0.32681770667E+02  0.22218447971E+01 -0.14917619190E+02  0.35994028543E+02  0.51100000000E-03 0.  1.
         12    1    3    3    0    0 -0.39869412920E+02 -0.47211112323E+01  0.18805732749E+02  0.44334124127E+02  0.00000000000E+00 0. -1.
</event>
<event>
 7    1  0.3707147E-015  0.9000773E+02  0.7816164E-02  0.1186339E+00
        -11   -1    0    0    0    0  0.00000000000E+00  0.00000000000E+00  0.45593999997E+02  0.45594000000E+02  0.51100000000E-03 0.  1.
         11   -1    0    0    0    0 -0.00000000000E+00 -0.00000000000E+00 -0.45593999997E+02  0.45594000000E+02  0.51100000000E-03 0. -1.
    9900012    2    1    2    0    0  0.16573515010E+00 -0.43206442604E+00  0.10857675184E+01  0.90007729306E+02  0.89999990532E+02 0.  0.
         12    1    1    2    0    0 -0.16573515010E+00  0.43206442604E+00 -0.10857675184E+01  0.11802706944E+01  0.00000000000E+00 0. -1.
         11    1    3    3    0    0 -0.57911088916E+01 -0.32090018911E+01  0.93587674809E+01  0.11463907028E+02  0.51100000000E-03 0. -1.
        -11    1    3    3    0    0 -0.68972363333E+01  0.26212506520E+01  0.33776606056E+02  0.34573139010E+02  0.51100000000E-03 0.  1.
         12    1    3    3    0    0  0.12854080375E+02  0.15568681308E+00 -0.42049606019E+02  0.43970683268E+02  0.00000000000E+00 0. -1.
</event>
<event>
 7    1  0.3707147E-015  0.9000773E+02  0.7816164E-02  0.1186339E+00
        -11   -1    0    0    0    0  0.00000000000E+00  0.00000000000E+00  0.45593999997E+02  0.45594000000E+02  0.51100000000E-03 0.  1.
         11   -1    0    0    0    0 -0.00000000000E+00 -0.00000000000E+00 -0.45593999997E+02  0.45594000000E+02  0.51100000000E-03 0. -1.
    9900012    2    1    2    0    0  0.31123892842E+00  0.13166446393E+00  0.11308505172E+01  0.90007733889E+02  0.89999995176E+02 0.  0.
         12    1    1    2    0    0 -0.31123892842E+00 -0.13166446393E+00 -0.11308505172E+01  0.11802661115E+01  0.00000000000E+00 0. -1.
         11    1    3    3    0    0 -0.90202809518E+01  0.33665526174E+01 -0.28663454533E+02  0.30237274530E+02  0.51100000000E-03 0. -1.
        -11    1    3    3    0    0 -0.14338122047E+02 -0.18474426160E+02  0.16614112519E+02  0.28686493352E+02  0.51100000000E-03 0.  1.
        -12    1    3    3    0    0  0.23669641927E+02  0.15239538007E+02  0.13180192530E+02  0.31083966007E+02  0.00000000000E+00 0.  1.
</event>
<event>
 7    1  0.3707147E-015  0.9000801E+02  0.7816164E-02  0.1186339E+00
        -11   -1    0    0    0    0  0.00000000000E+00  0.00000000000E+00  0.45593999997E+02  0.45594000000E+02  0.51100000000E-03 0.  1.
         11   -1    0    0    0    0 -0.00000000000E+00 -0.00000000000E+00 -0.45593999997E+02  0.45594000000E+02  0.51100000000E-03 0. -1.
    9900012    2    1    2    0    0  0.38170144039E+00  0.10888652700E+01  0.24710657549E+00  0.90008006260E+02  0.90000271143E+02 0.  0.
         12    1    1    2    0    0 -0.38170144039E+00 -0.10888652700E+01 -0.24710657549E+00  0.11799937396E+01  0.00000000000E+00 0. -1.
         11    1    3    3    0    0 -0.49846205751E+01 -0.32690309466E+01  0.64854893212E+01  0.88087784399E+01  0.51100000000E-03 0. -1.
        -11    1    3    3    0    0  0.24028597990E+02 -0.16508005294E+02  0.25604643977E+02  0.38800587026E+02  0.51100000000E-03 0.  1.
         12    1    3    3    0    0 -0.18662275974E+02  0.20865901510E+02 -0.31843026722E+02  0.42398640794E+02  0.00000000000E+00 0. -1.
</event>
<event>
 7    1  0.3707147E-015  0.9000661E+02  0.7816164E-02  0.1186341E+00
        -11   -1    0    0    0    0  0.00000000000E+00  0.00000000000E+00  0.45593999997E+02  0.45594000000E+02  0.51100000000E-03 0. -1.
         11   -1    0    0    0    0 -0.00000000000E+00 -0.00000000000E+00 -0.45593999997E+02  0.45594000000E+02  0.51100000000E-03 0.  1.
    9900012    2    1    2    0    0 -0.51084681820E+00  0.99739452939E+00 -0.37407685223E+00  0.90006605142E+02  0.89998851523E+02 0.  0.
         12    1    1    2    0    0  0.51084681820E+00 -0.99739452939E+00  0.37407685223E+00  0.11813948579E+01  0.00000000000E+00 0. -1.
         11    1    3    3    0    0  0.33538070931E+02 -0.50257159198E+01 -0.21142586319E+02  0.39963345440E+02  0.51100000000E-03 0. -1.
        -11    1    3    3    0    0  0.32353731960E+01  0.75441750880E+01  0.40642854330E+01  0.91597289162E+01  0.51100000000E-03 0.  1.
        -12    1    3    3    0    0 -0.37284290945E+02 -0.15210646388E+01  0.16704224034E+02  0.40883530785E+02  0.00000000000E+00 0.  1.
</event>
<event>
 7    1  0.3707147E-015  0.9000766E+02  0.7816164E-02  0.1186339E+00
        -11   -1    0    0    0    0  0.00000000000E+00  0.00000000000E+00  0.45593999997E+02  0.45594000000E+02  0.51100000000E-03 0. -1.
         11   -1    0    0    0    0 -0.00000000000E+00 -0.00000000000E+00 -0.45593999997E+02  0.45594000000E+02  0.51100000000E-03 0.  1.
    9900012    2    1    2    0    0 -0.41168468736E+00 -0.48758067779E+00 -0.99296194140E+00  0.90007664193E+02  0.89999924561E+02 0.  0.
         12    1    1    2    0    0  0.41168468736E+00  0.48758067779E+00  0.99296194140E+00  0.11803358066E+01  0.00000000000E+00 0. -1.
         11    1    3    3    0    0  0.16378420803E+02  0.15658033911E+02  0.28253533039E+02  0.36217244835E+02  0.51100000000E-03 0. -1.
        -11    1    3    3    0    0  0.91363201934E+01  0.19294590548E+00  0.26929965872E+01  0.95268990589E+01  0.51100000000E-03 0.  1.
        -12    1    3    3    0    0 -0.25926425684E+02 -0.16338560494E+02 -0.31939491568E+02  0.44263520300E+02  0.00000000000E+00 0.  1.
</event>
<event>
 7    1  0.3707147E-015  0.9000773E+02  0.7816164E-02  0.1186339E+00
        -11   -1    0    0    0    0  0.00000000000E+00  0.00000000000E+00  0.45593999997E+02  0.45594000000E+02  0.51100000000E-03 0.  1.
         11   -1    0    0    0    0 -0.00000000000E+00 -0.00000000000E+00 -0.45593999997E+02  0.45594000000E+02  0.51100000000E-03 0. -1.
    9900012    2    1    2    0    0 -0.72983910892E+00  0.89623755145E+00  0.23902772836E+00  0.90007728367E+02  0.89999989581E+02 0.  0.
         12    1    1    2    0    0  0.72983910892E+00 -0.89623755145E+00 -0.23902772836E+00  0.11802716333E+01  0.00000000000E+00 0. -1.
         11    1    3    3    0    0 -0.48774838979E+01 -0.87851484415E+01  0.30526052916E+01  0.10501765644E+02  0.51100000000E-03 0. -1.
        -11    1    3    3    0    0 -0.12258127380E+02 -0.28001048935E+02  0.15776847902E+02  0.34398101085E+02  0.51100000000E-03 0.  1.
         12    1    3    3    0    0  0.16405772169E+02  0.37682434928E+02 -0.18590425465E+02  0.45107861637E+02  0.00000000000E+00 0. -1.
</event>
<event>
 7    1  0.3707147E-015  0.9000773E+02  0.7816164E-02  0.1186339E+00
        -11   -1    0    0    0    0  0.00000000000E+00  0.00000000000E+00  0.45593999997E+02  0.45594000000E+02  0.51100000000E-03 0.  1.
         11   -1    0    0    0    0 -0.00000000000E+00 -0.00000000000E+00 -0.45593999997E+02  0.45594000000E+02  0.51100000000E-03 0. -1.
    9900012    2    1    2    0    0  0.20795563752E+00  0.78627491248E+00  0.85530934397E+00  0.90007733988E+02  0.89999995277E+02 0.  0.
         12    1    1    2    0    0 -0.20795563752E+00 -0.78627491248E+00 -0.85530934397E+00  0.11802660120E+01  0.00000000000E+00 0. -1.
         11    1    3    3    0    0 -0.50473750918E+01  0.48894992856E+01  0.17071139422E+01  0.72316966788E+01  0.51100000000E-03 0. -1.
        -11    1    3    3    0    0  0.80045398641E+01  0.77707881549E+01  0.39280390451E+02  0.40833893780E+02  0.51100000000E-03 0.  1.
         12    1    3    3    0    0 -0.27492091348E+01 -0.11874012528E+02 -0.40132195049E+02  0.41942143529E+02  0.00000000000E+00 0. -1.
</event>
<event>
 7    1  0.3707147E-015  0.9000769E+02  0.7816164E-02  0.1186339E+00
        -11   -1    0    0    0    0  0.00000000000E+00  0.00000000000E+00  0.45593999997E+02  0.45594000000E+02  0.51100000000E-03 0.  1.
         11   -1    0    0    0    0 -0.00000000000E+00 -0.00000000000E+00 -0.45593999997E+02  0.45594000000E+02  0.51100000000E-03 0. -1.
    9900012    2    1    2    0    0  0.13141677863E+00 -0.11686128282E+01 -0.10104370568E+00  0.90007688117E+02  0.89999948800E+02 0.  0.
         12    1    1    2    0    0 -0.13141677863E+00  0.11686128282E+01  0.10104370568E+00  0.11803118835E+01  0.00000000000E+00 0. -1.
         11    1    3    3    0    0 -0.65894317526E+01  0.16428106790E+02 -0.32337986113E+02  0.36865277018E+02  0.51100000000E-03 0. -1.
        -11    1    3    3    0    0 -0.56452540999E+01  0.14897524011E+01 -0.61779432826E+01  0.85003082022E+01  0.51100000000E-03 0.  1.
        -12    1    3    3    0    0  0.12366102631E+02 -0.19086472019E+02  0.38414885690E+02  0.44642102896E+02  0.00000000000E+00 0.  1.
</event>
<event>
 7    1  0.3707147E-015  0.9000784E+02  0.7816164E-02  0.1186339E+00
        -11   -1    0    0    0    0  0.00000000000E+00  0.00000000000E+00  0.45593999997E+02  0.45594000000E+02  0.51100000000E-03 0. -1.
         11   -1    0    0    0    0 -0.00000000000E+00 -0.00000000000E+00 -0.45593999997E+02  0.45594000000E+02  0.51100000000E-03 0.  1.
    9900012    2    1    2    0    0  0.15145347926E+00 -0.58402329458E-01 -0.11689453958E+01  0.90007838008E+02  0.90000100670E+02 0.  0.
         12    1    1    2    0    0 -0.15145347926E+00  0.58402329458E-01  0.11689453958E+01  0.11801619918E+01  0.00000000000E+00 0. -1.
         11    1    3    3    0    0 -0.10715246017E+01 -0.78227874239E+01 -0.43589182907E+01  0.90191095447E+01  0.51100000000E-03 0. -1.
        -11    1    3    3    0    0  0.24346124956E+02 -0.21753810115E+02 -0.18644986216E+02  0.37597839913E+02  0.51100000000E-03 0.  1.
         12    1    3    3    0    0 -0.23123146875E+02  0.29518195209E+02  0.21834959111E+02  0.43390888550E+02  0.00000000000E+00 0. -1.
</event>
<event>
 7    1  0.3707147E-015  0.9000842E+02  0.7816164E-02  0.1186338E+00
        -11   -1    0    0    0    0  0.00000000000E+00  0.00000000000E+00  0.45593999997E+02  0.45594000000E+02  0.51100000000E-03 0. -1.
         11   -1    0    0    0    0 -0.00000000000E+00 -0.00000000000E+00 -0.45593999997E+02  0.45594000000E+02  0.51100000000E-03 0.  1.
    9900012    2    1    2    0    0  0.92250980382E-02  0.98587453172E-01 -0.11754165208E+01  0.90008420166E+02  0.90000690509E+02 0.  0.
         12    1    1    2    0    0 -0.92250980382E-02 -0.98587453172E-01  0.11754165208E+01  0.11795798344E+01  0.00000000000E+00 0. -1.
         11    1    3    3    0    0  0.23633536973E+01  0.31493155450E+02  0.25575720056E+02  0.40638919001E+02  0.51100000000E-03 0. -1.
        -11    1    3    3    0    0  0.36433526801E+01  0.52014502105E+00 -0.14011200699E+02  0.14486487321E+02  0.51100000000E-03 0.  1.
        -12    1    3    3    0    0 -0.59974812794E+01 -0.31914713018E+02 -0.12739935877E+02  0.34883013844E+02  0.00000000000E+00 0.  1.
</event>
<event>
 7    1  0.3707147E-015  0.9000772E+02  0.7816164E-02  0.1186339E+00
        -11   -1    0    0    0    0  0.00000000000E+00  0.00000000000E+00  0.45593999997E+02  0.45594000000E+02  0.51100000000E-03 0.  1.
         11   -1    0    0    0    0 -0.00000000000E+00 -0.00000000000E+00 -0.45593999997E+02  0.45594000000E+02  0.51100000000E-03 0. -1.
    9900012    2    1    2    0    0  0.10924315648E+01 -0.41233320258E+00 -0.17215783790E+00  0.90007718798E+02  0.89999979887E+02 0.  0.
         12    1    1    2    0    0 -0.10924315648E+01  0.41233320258E+00  0.17215783790E+00  0.11802812016E+01  0.00000000000E+00 0. -1.
         11    1    3    3    0    0  0.12804653951E+02  0.25997494573E+01 -0.31893935432E+02  0.34466519662E+02  0.51100000000E-03 0. -1.
        -11    1    3    3    0    0  0.79611451472E+00  0.81338099314E+01 -0.86081211396E+01  0.11869810956E+02  0.51100000000E-03 0.  1.
        -12    1    3    3    0    0 -0.12508336901E+02 -0.11145892591E+02  0.40329898734E+02  0.43671388180E+02  0.00000000000E+00 0.  1.
</event>
<event>
 7    1  0.3707147E-015  0.9000741E+02  0.7816164E-02  0.1186340E+00
        -11   -1    0    0    0    0  0.00000000000E+00  0.00000000000E+00  0.45593999997E+02  0.45594000000E+02  0.51100000000E-03 0.  1.
         11   -1    0    0    0    0 -0.00000000000E+00 -0.00000000000E+00 -0.45593999997E+02  0.45594000000E+02  0.51100000000E-03 0. -1.
    9900012    2    1    2    0    0  0.10124540344E+01 -0.56606886772E+00  0.21975965826E+00  0.90007410553E+02  0.89999667572E+02 0.  0.
         12    1    1    2    0    0 -0.10124540344E+01  0.56606886772E+00 -0.21975965826E+00  0.11805894470E+01  0.00000000000E+00 0. -1.
         11    1    3    3    0    0 -0.27741283027E+02  0.26444608786E+02 -0.99062053418E+01  0.39585717404E+02  0.51100000000E-03 0. -1.
        -11    1    3    3    0    0 -0.45941913328E+01 -0.33085526809E+01  0.75374229105E+01  0.94268690050E+01  0.51100000000E-03 0.  1.
        -12    1    3    3    0    0  0.33347928395E+02 -0.23702124973E+02  0.25885420896E+01  0.40994824144E+02  0.00000000000E+00 0.  1.
</event>
<event>
 7    1  0.3707147E-015  0.9000769E+02  0.7816164E-02  0.1186339E+00
        -11   -1    0    0    0    0  0.00000000000E+00  0.00000000000E+00  0.45593999997E+02  0.45594000000E+02  0.51100000000E-03 0. -1.
         11   -1    0    0    0    0 -0.00000000000E+00 -0.00000000000E+00 -0.45593999997E+02  0.45594000000E+02  0.51100000000E-03 0.  1.
    9900012    2    1    2    0    0 -0.82867207362E+00 -0.82466663002E+00 -0.16232362347E+00  0.90007694355E+02  0.89999955121E+02 0.  0.
         12    1    1    2    0    0  0.82867207362E+00  0.82466663002E+00  0.16232362347E+00  0.11803056447E+01  0.00000000000E+00 0. -1.
         11    1    3    3    0    0 -0.54136330639E+01  0.16944427069E+01 -0.71071570795E+01  0.90934174572E+01  0.51100000000E-03 0. -1.
        -11    1    3    3    0    0 -0.33251989717E+02  0.93011917550E+00 -0.15593391150E+02  0.36738451105E+02  0.51100000000E-03 0.  1.
         12    1    3    3    0    0  0.37836950707E+02 -0.34492285124E+01  0.22538224606E+02  0.44175825793E+02  0.00000000000E+00 0. -1.
</event>
<event>
 7    1  0.3707147E-015  0.9000772E+02  0.7816164E-02  0.1186339E+00
        -11   -1    0    0    0    0  0.00000000000E+00  0.00000000000E+00  0.45593999997E+02  0.45594000000E+02  0.51100000000E-03 0. -1.
         11   -1    0    0    0    0 -0.00000000000E+00 -0.00000000000E+00 -0.45593999997E+02  0.45594000000E+02  0.51100000000E-03 0.  1.
    9900012    2    1    2    0    0 -0.41684331048E+00 -0.50599935105E+00 -0.98146283027E+00  0.90007719111E+02  0.89999980204E+02 0.  0.
         12    1    1    2    0    0  0.41684331048E+00  0.50599935105E+00  0.98146283027E+00  0.11802808886E+01  0.00000000000E+00 0. -1.
         11    1    3    3    0    0 -0.16705895692E+01  0.18317669529E+01  0.84561185826E+01  0.88120475159E+01  0.51100000000E-03 0. -1.
        -11    1    3    3    0    0  0.12748582908E+02  0.36132187401E+02  0.47577892712E+01  0.38609556998E+02  0.51100000000E-03 0.  1.
         12    1    3    3    0    0 -0.11494836649E+02 -0.38469953705E+02 -0.14195370684E+02  0.42586114598E+02  0.00000000000E+00 0. -1.
</event>
<event>
 7    1  0.3707147E-015  0.9000796E+02  0.7816164E-02  0.1186339E+00
        -11   -1    0    0    0    0  0.00000000000E+00  0.00000000000E+00  0.45593999997E+02  0.45594000000E+02  0.51100000000E-03 0.  1.
         11   -1    0    0    0    0 -0.00000000000E+00 -0.00000000000E+00 -0.45593999997E+02  0.45594000000E+02  0.51100000000E-03 0. -1.
    9900012    2    1    2    0    0 -0.10653754815E+01 -0.42933657824E+00 -0.27045489582E+00  0.90007957346E+02  0.90000221583E+02 0.  0.
         12    1    1    2    0    0  0.10653754815E+01  0.42933657824E+00  0.27045489582E+00  0.11800426538E+01  0.00000000000E+00 0. -1.
         11    1    3    3    0    0 -0.42405041156E+01 -0.39877687840E+01 -0.69641480240E+01  0.90765375000E+01  0.51100000000E-03 0. -1.
        -11    1    3    3    0    0 -0.28708694713E+01 -0.17754832541E+02 -0.31790782637E+02  0.36525742032E+02  0.51100000000E-03 0.  1.
         12    1    3    3    0    0  0.60459981054E+01  0.21313264747E+02  0.38484475765E+02  0.44405677814E+02  0.00000000000E+00 0. -1.
</event>
<event>
 7    1  0.6520918E-015  0.9000777E+02  0.7816164E-02  0.1186339E+00
        -11   -1    0    0    0    0  0.00000000000E+00  0.00000000000E+00  0.45593999997E+02  0.45594000000E+02  0.51100000000E-03 0. -1.
         11   -1    0    0    0    0 -0.00000000000E+00 -0.00000000000E+00 -0.45593999997E+02  0.45594000000E+02  0.51100000000E-03 0.  1.
    9900012    2    1    2    0    0  0.72747815293E+00  0.39180834213E+00 -0.84273088739E+00  0.90007773925E+02  0.90000035741E+02 0.  0.
         12    1    1    2    0    0 -0.72747815293E+00 -0.39180834213E+00  0.84273088739E+00  0.11802260752E+01  0.00000000000E+00 0. -1.
         11    1    3    3    0    0 -0.49095916297E+01  0.55002683877E+01  0.58157235190E+01  0.93904037516E+01  0.51100000000E-03 0. -1.
        -11    1    3    3    0    0 -0.13678164343E+02 -0.28622520145E+00 -0.39728047273E+02  0.42017756307E+02  0.51100000000E-03 0.  1.
         12    1    3    3    0    0  0.19315234126E+02 -0.48222348442E+01  0.33069592867E+02  0.38599613866E+02  0.00000000000E+00 0. -1.
</event>
<event>
 7    1  0.3707147E-015  0.9000766E+02  0.7816164E-02  0.1186339E+00
        -11   -1    0    0    0    0  0.00000000000E+00  0.00000000000E+00  0.45593999997E+02  0.45594000000E+02  0.51100000000E-03 0. -1.
         11   -1    0    0    0    0 -0.00000000000E+00 -0.00000000000E+00 -0.45593999997E+02  0.45594000000E+02  0.51100000000E-03 0.  1.
    9900012    2    1    2    0    0  0.10515489785E+01  0.35114096230E+00  0.40516059469E+00  0.90007656687E+02  0.89999916955E+02 0.  0.
         12    1    1    2    0    0 -0.10515489785E+01 -0.35114096230E+00 -0.40516059469E+00  0.11803433132E+01  0.00000000000E+00 0. -1.
         11    1    3    3    0    0 -0.18228184499E+01 -0.31489058634E+02 -0.21371285522E+02  0.38100069893E+02  0.51100000000E-03 0. -1.
        -11    1    3    3    0    0  0.20525060332E+01 -0.73739740600E+01  0.55800509851E+01  0.94723409837E+01  0.51100000000E-03 0.  1.
        -12    1    3    3    0    0  0.82186139525E+00  0.39214173656E+02  0.16196395132E+02  0.42435245810E+02  0.00000000000E+00 0.  1.
</event>
<event>
 7    1  0.3707147E-015  0.9000764E+02  0.7816164E-02  0.1186339E+00
        -11   -1    0    0    0    0  0.00000000000E+00  0.00000000000E+00  0.45593999997E+02  0.45594000000E+02  0.51100000000E-03 0.  1.
         11   -1    0    0    0    0 -0.00000000000E+00 -0.00000000000E+00 -0.45593999997E+02  0.45594000000E+02  0.51100000000E-03 0. -1.
    9900012    2    1    2    0    0  0.10136657836E+01  0.59381727590E+00 -0.11451061741E+00  0.90007639903E+02  0.89999899949E+02 0.  0.
         12    1    1    2    0    0 -0.10136657836E+01 -0.59381727590E+00  0.11451061741E+00  0.11803600974E+01  0.00000000000E+00 0. -1.
         11    1    3    3    0    0 -0.78441498085E+01 -0.26465313481E+01 -0.42805454380E+01  0.93197577169E+01  0.51100000000E-03 0. -1.
        -11    1    3    3    0    0 -0.11791039331E+02  0.38157616968E+02  0.38245482600E+01  0.40120562194E+02  0.51100000000E-03 0.  1.
         12    1    3    3    0    0  0.20648854923E+02 -0.34917268344E+02  0.34148656058E+00  0.40567319991E+02  0.00000000000E+00 0. -1.
</event>
<event>
 7    1  0.3707147E-015  0.9000780E+02  0.7816164E-02  0.1186339E+00
        -11   -1    0    0    0    0  0.00000000000E+00  0.00000000000E+00  0.45593999997E+02  0.45594000000E+02  0.51100000000E-03 0.  1.
         11   -1    0    0    0    0 -0.00000000000E+00 -0.00000000000E+00 -0.45593999997E+02  0.45594000000E+02  0.51100000000E-03 0. -1.
    9900012    2    1    2    0    0 -0.11685275654E+01 -0.15803401362E+00  0.49361596764E-01  0.90007801717E+02  0.90000063899E+02 0.  0.
         12    1    1    2    0    0  0.11685275654E+01  0.15803401362E+00 -0.49361596764E-01  0.11801982832E+01  0.00000000000E+00 0. -1.
         11    1    3    3    0    0 -0.20972295517E+02  0.17888877974E+02  0.28021647897E+02  0.39307275224E+02  0.51100000000E-03 0. -1.
        -11    1    3    3    0    0 -0.68041401638E+01 -0.10820313864E+02 -0.22208700029E+01  0.12973348809E+02  0.51100000000E-03 0.  1.
        -12    1    3    3    0    0  0.26607908115E+02 -0.72265981235E+01 -0.25751416297E+02  0.37727177684E+02  0.00000000000E+00 0.  1.
</event>
<event>
 7    1  0.3707147E-015  0.9000776E+02  0.7816164E-02  0.1186339E+00
        -11   -1    0    0    0    0  0.00000000000E+00  0.00000000000E+00  0.45593999997E+02  0.45594000000E+02  0.51100000000E-03 0.  1.
         11   -1    0    0    0    0 -0.00000000000E+00 -0.00000000000E+00 -0.45593999997E+02  0.45594000000E+02  0.51100000000E-03 0. -1.
    9900012    2    1    2    0    0  0.11268647864E+01 -0.10948880942E+00  0.33341340832E+00  0.90007755726E+02  0.90000017301E+02 0.  0.
         12    1    1    2    0    0 -0.11268647864E+01  0.10948880942E+00 -0.33341340832E+00  0.11802442744E+01  0.00000000000E+00 0. -1.
         11    1    3    3    0    0  0.18194253995E+01 -0.76718016140E+01 -0.34849656463E+01  0.86204312309E+01  0.51100000000E-03 0. -1.
        -11    1    3    3    0    0 -0.11834308110E+02 -0.30660850179E+02  0.19930830984E+02  0.38436657062E+02  0.51100000000E-03 0.  1.
         12    1    3    3    0    0  0.11141747497E+02  0.38223162983E+02 -0.16112451930E+02  0.42950667433E+02  0.00000000000E+00 0. -1.
</event>
<event>
 7    1  0.3707147E-015  0.9000780E+02  0.7816164E-02  0.1186339E+00
        -11   -1    0    0    0    0  0.00000000000E+00  0.00000000000E+00  0.45593999997E+02  0.45594000000E+02  0.51100000000E-03 0.  1.
         11   -1    0    0    0    0 -0.00000000000E+00 -0.00000000000E+00 -0.45593999997E+02  0.45594000000E+02  0.51100000000E-03 0. -1.
    9900012    2    1    2    0    0 -0.99915491834E+00  0.34090481914E+00 -0.52758303701E+00  0.90007800649E+02  0.90000062818E+02 0.  0.
         12    1    1    2    0    0  0.99915491834E+00 -0.34090481914E+00  0.52758303701E+00  0.11801993507E+01  0.00000000000E+00 0. -1.
         11    1    3    3    0    0  0.96606366348E+01 -0.83754261799E+00 -0.25600192406E+01  0.10029111456E+02  0.51100000000E-03 0. -1.
        -11    1    3    3    0    0 -0.25523321271E+01  0.30400757126E+02  0.26967102001E+02  0.40717871061E+02  0.51100000000E-03 0.  1.
         12    1    3    3    0    0 -0.81074594260E+01 -0.29222309689E+02 -0.24934665798E+02  0.39260818132E+02  0.00000000000E+00 0. -1.
</event>
<event>
 7    1  0.3707147E-015  0.9000773E+02  0.7816164E-02  0.1186339E+00
        -11   -1    0    0    0    0  0.00000000000E+00  0.00000000000E+00  0.45593999997E+02  0.45594000000E+02  0.51100000000E-03 0.  1.
         11   -1    0    0    0    0 -0.00000000000E+00 -0.00000000000E+00 -0.45593999997E+02  0.45594000000E+02  0.51100000000E-03 0. -1.
    9900012    2    1    2    0    0  0.22323936403E+00 -0.11558980650E+01  0.84226572078E-01  0.90007732968E+02  0.89999994244E+02 0.  0.
         12    1    1    2    0    0 -0.22323936403E+00  0.11558980650E+01 -0.84226572078E-01  0.11802670316E+01  0.00000000000E+00 0. -1.
         11    1    3    3    0    0  0.82293124576E+01 -0.42361574428E+01  0.12315288183E+00  0.92564453381E+01  0.51100000000E-03 0. -1.
        -11    1    3    3    0    0  0.11666779939E+02  0.26539601062E+02 -0.27252230311E+02  0.39788795356E+02  0.51100000000E-03 0.  1.
         12    1    3    3    0    0 -0.19672853033E+02 -0.23459341684E+02  0.27213304001E+02  0.40962492275E+02  0.00000000000E+00 0. -1.
</event>
<event>
 7    1  0.3707147E-015  0.9000769E+02  0.7816164E-02  0.1186339E+00
        -11   -1    0    0    0    0  0.00000000000E+00  0.00000000000E+00  0.45593999997E+02  0.45594000000E+02  0.51100000000E-03 0.  1.
         11   -1    0    0    0    0 -0.00000000000E+00 -0.00000000000E+00 -0.45593999997E+02  0.45594000000E+02  0.51100000000E-03 0. -1.
    9900012    2    1    2    0    0 -0.33457137681E+00  0.23058651315E+00  0.11081578390E+01  0.90007694132E+02  0.89999954894E+02 0.  0.
         12    1    1    2    0    0  0.33457137681E+00 -0.23058651315E+00 -0.11081578390E+01  0.11803058681E+01  0.00000000000E+00 0. -1.
         11    1    3    3    0    0  0.66490902562E+01 -0.44442556017E+01  0.65806009148E+01  0.10356935732E+02  0.51100000000E-03 0. -1.
        -11    1    3    3    0    0 -0.13754640330E+02 -0.35031334785E+02  0.51721286110E+01  0.37988622798E+02  0.51100000000E-03 0.  1.
         12    1    3    3    0    0  0.67709786968E+01  0.39706176900E+02 -0.10644571687E+02  0.41662135602E+02  0.00000000000E+00 0. -1.
</event>
<event>
 7    1  0.3707147E-015  0.9000788E+02  0.7816164E-02  0.1186339E+00
        -11   -1    0    0    0    0  0.00000000000E+00  0.00000000000E+00  0.45593999997E+02  0.45594000000E+02  0.51100000000E-03 0. -1.
         11   -1    0    0    0    0 -0.00000000000E+00 -0.00000000000E+00 -0.45593999997E+02  0.45594000000E+02  0.51100000000E-03 0.  1.
    9900012    2    1    2    0    0  0.64134966050E+00  0.77992588173E+00 -0.61080235920E+00  0.90007875731E+02  0.90000138891E+02 0.  0.
         12    1    1    2    0    0 -0.64134966050E+00 -0.77992588173E+00  0.61080235920E+00  0.11801242689E+01  0.00000000000E+00 0. -1.
         11    1    3    3    0    0  0.32349656452E+02  0.19141045997E+02  0.22895248712E+02  0.44012183862E+02  0.51100000000E-03 0. -1.
        -11    1    3    3    0    0 -0.85298424335E+00 -0.63785389486E+01 -0.38237649050E+01  0.74856208526E+01  0.51100000000E-03 0.  1.
        -12    1    3    3    0    0 -0.30855322548E+02 -0.11982581167E+02 -0.19682286166E+02  0.38510071017E+02  0.00000000000E+00 0.  1.
</event>
<event>
 7    1  0.3707147E-015  0.9000769E+02  0.7816164E-02  0.1186339E+00
        -11   -1    0    0    0    0  0.00000000000E+00  0.00000000000E+00  0.45593999997E+02  0.45594000000E+02  0.51100000000E-03 0.  1.
         11   -1    0    0    0    0 -0.00000000000E+00 -0.00000000000E+00 -0.45593999997E+02  0.45594000000E+02  0.51100000000E-03 0. -1.
    9900012    2    1    2    0    0 -0.43817648172E-01 -0.10082286430E+01 -0.61211727436E+00  0.90007689642E+02  0.89999950346E+02 0.  0.
         12    1    1    2    0    0  0.43817648172E-01  0.10082286430E+01  0.61211727436E+00  0.11803103576E+01  0.00000000000E+00 0. -1.
         11    1    3    3    0    0  0.54210549903E+01 -0.35205688769E+02  0.14202222951E+02  0.38347509644E+02  0.51100000000E-03 0. -1.
        -11    1    3    3    0    0  0.82590328711E+01  0.58699760127E+01  0.78960338162E+01  0.12845839507E+02  0.51100000000E-03 0.  1.
        -12    1    3    3    0    0 -0.13723905510E+02  0.28327484113E+02 -0.22710374042E+02  0.38814340491E+02  0.00000000000E+00 0.  1.
</event>
<event>
 7    1  0.3707147E-015  0.9000774E+02  0.7816164E-02  0.1186339E+00
        -11   -1    0    0    0    0  0.00000000000E+00  0.00000000000E+00  0.45593999997E+02  0.45594000000E+02  0.51100000000E-03 0.  1.
         11   -1    0    0    0    0 -0.00000000000E+00 -0.00000000000E+00 -0.45593999997E+02  0.45594000000E+02  0.51100000000E-03 0. -1.
    9900012    2    1    2    0    0  0.10372440190E+01  0.56261628983E+00  0.24447598185E-01  0.90007741584E+02  0.90000002972E+02 0.  0.
         12    1    1    2    0    0 -0.10372440190E+01 -0.56261628983E+00 -0.24447598185E-01  0.11802584165E+01  0.00000000000E+00 0. -1.
         11    1    3    3    0    0 -0.16939385621E+02 -0.32246170817E+02 -0.14413453540E+02  0.39172770655E+02  0.51100000000E-03 0. -1.
        -11    1    3    3    0    0 -0.74574774448E+01  0.35978168887E+01 -0.23710011667E+01  0.86127755688E+01  0.51100000000E-03 0.  1.
        -12    1    3    3    0    0  0.25434107085E+02  0.29210970218E+02  0.16808902305E+02  0.42222195360E+02  0.00000000000E+00 0.  1.
</event>
<event>
 7    1  0.3707147E-015  0.9000781E+02  0.7816164E-02  0.1186339E+00
        -11   -1    0    0    0    0  0.00000000000E+00  0.00000000000E+00  0.45593999997E+02  0.45594000000E+02  0.51100000000E-03 0. -1.
         11   -1    0    0    0    0 -0.00000000000E+00 -0.00000000000E+00 -0.45593999997E+02  0.45594000000E+02  0.51100000000E-03 0.  1.
    9900012    2    1    2    0    0  0.60748969881E+00 -0.68357946402E+00 -0.74600889022E+00  0.90007807693E+02  0.90000069954E+02 0.  0.
         12    1    1    2    0    0 -0.60748969881E+00  0.68357946402E+00  0.74600889022E+00  0.11801923072E+01  0.00000000000E+00 0. -1.
         11    1    3    3    0    0  0.40324819047E+00 -0.93688875634E+01  0.24163891460E+01  0.96838835208E+01  0.51100000000E-03 0. -1.
        -11    1    3    3    0    0  0.36087966699E+02 -0.72938789312E+01  0.11225674568E+02  0.38491009081E+02  0.51100000000E-03 0.  1.
         12    1    3    3    0    0 -0.35883725191E+02  0.15979187031E+02 -0.14388072604E+02  0.41832915091E+02  0.00000000000E+00 0. -1.
</event>
<event>
 7    1  0.3707147E-015  0.9000758E+02  0.7816164E-02  0.1186339E+00
        -11   -1    0    0    0    0  0.00000000000E+00  0.00000000000E+00  0.45593999997E+02  0.45594000000E+02  0.51100000000E-03 0. -1.
         11   -1    0    0    0    0 -0.00000000000E+00 -0.00000000000E+00 -0.45593999997E+02  0.45594000000E+02  0.51100000000E-03 0.  1.
    9900012    2    1    2    0    0 -0.36816549808E+00  0.24023855732E+00 -0.10955070671E+01  0.90007577985E+02  0.89999837215E+02 0.  0.
         12    1    1    2    0    0  0.36816549808E+00 -0.24023855732E+00  0.10955070671E+01  0.11804220145E+01  0.00000000000E+00 0. -1.
         11    1    3    3    0    0 -0.30539451776E+01  0.52770959441E+01  0.25392446540E+00  0.61023602521E+01  0.51100000000E-03 0. -1.
        -11    1    3    3    0    0 -0.17347842678E+02  0.64077319137E+00 -0.37985995115E+02  0.41764746629E+02  0.51100000000E-03 0.  1.
         12    1    3    3    0    0  0.20033622357E+02 -0.56776305781E+01  0.36636563583E+02  0.42140471104E+02  0.00000000000E+00 0. -1.
</event>
<event>
 7    1  0.3707147E-015  0.9000775E+02  0.7816164E-02  0.1186339E+00
        -11   -1    0    0    0    0  0.00000000000E+00  0.00000000000E+00  0.45593999997E+02  0.45594000000E+02  0.51100000000E-03 0. -1.
         11   -1    0    0    0    0 -0.00000000000E+00 -0.00000000000E+00 -0.45593999997E+02  0.45594000000E+02  0.51100000000E-03 0.  1.
    9900012    2    1    2    0    0  0.11391296822E+00 -0.10389221752E+01  0.54832173350E+00  0.90007749106E+02  0.90000010594E+02 0.  0.
         12    1    1    2    0    0 -0.11391296822E+00  0.10389221752E+01 -0.54832173350E+00  0.11802508945E+01  0.00000000000E+00 0. -1.
         11    1    3    3    0    0 -0.30788553710E+02 -0.11417926624E+02 -0.62906674084E+01  0.33434661426E+02  0.51100000000E-03 0. -1.
        -11    1    3    3    0    0 -0.91184531463E+01 -0.51727994887E+01 -0.55809232336E+01  0.11876478718E+02  0.51100000000E-03 0.  1.
        -12    1    3    3    0    0  0.40020919824E+02  0.15551803938E+02  0.12419912375E+02  0.44696608962E+02  0.00000000000E+00 0.  1.
</event>
<event>
 7    1  0.3707147E-015  0.9000772E+02  0.7816164E-02  0.1186339E+00
        -11   -1    0    0    0    0  0.00000000000E+00  0.00000000000E+00  0.45593999997E+02  0.45594000000E+02  0.51100000000E-03 0.  1.
         11   -1    0    0    0    0 -0.00000000000E+00 -0.00000000000E+00 -0.45593999997E+02  0.45594000000E+02  0.51100000000E-03 0. -1.
    9900012    2    1    2    0    0 -0.10801993886E+01  0.31675420842E+00  0.35481009510E+00  0.90007722850E+02  0.89999983991E+02 0.  0.
         12    1    1    2    0    0  0.10801993886E+01 -0.31675420842E+00 -0.35481009510E+00  0.11802771502E+01  0.00000000000E+00 0. -1.
         11    1    3    3    0    0 -0.16156806635E+01  0.48264633893E+01 -0.65041339458E+01  0.82588698683E+01  0.51100000000E-03 0. -1.
        -11    1    3    3    0    0  0.40890558634E+02 -0.18319381288E+01  0.15809878154E+01  0.40962095960E+02  0.51100000000E-03 0.  1.
         12    1    3    3    0    0 -0.40355077359E+02 -0.26777710521E+01  0.52779562255E+01  0.40786757022E+02  0.00000000000E+00 0. -1.
</event>
<event>
 7    1  0.3707147E-015  0.9000775E+02  0.7816164E-02  0.1186339E+00
        -11   -1    0    0    0    0  0.00000000000E+00  0.00000000000E+00  0.45593999997E+02  0.45594000000E+02  0.51100000000E-03 0.  1.
         11   -1    0    0    0    0 -0.00000000000E+00 -0.00000000000E+00 -0.45593999997E+02  0.45594000000E+02  0.51100000000E-03 0. -1.
    9900012    2    1    2    0    0  0.10775928174E+01  0.17137407304E+00  0.44991678574E+00  0.90007745592E+02  0.90000007034E+02 0.  0.
         12    1    1    2    0    0 -0.10775928174E+01 -0.17137407304E+00 -0.44991678574E+00  0.11802544078E+01  0.00000000000E+00 0. -1.
         11    1    3    3    0    0 -0.14943164701E+02 -0.32560977355E+02 -0.21734706897E+02  0.41903614424E+02  0.51100000000E-03 0. -1.
        -11    1    3    3    0    0 -0.16108913290E+01  0.18588313858E+01 -0.34755385972E+01  0.42578860713E+01  0.51100000000E-03 0.  1.
        -12    1    3    3    0    0  0.17631648847E+02  0.30873520042E+02  0.25660162280E+02  0.43846245097E+02  0.00000000000E+00 0.  1.
</event>
<event>
 7    1  0.3707147E-015  0.9000769E+02  0.7816164E-02  0.1186339E+00
        -11   -1    0    0    0    0  0.00000000000E+00  0.00000000000E+00  0.45593999997E+02  0.45594000000E+02  0.51100000000E-03 0.  1.
         11   -1    0    0    0    0 -0.00000000000E+00 -0.00000000000E+00 -0.45593999997E+02  0.45594000000E+02  0.51100000000E-03 0. -1.
    9900012    2    1    2    0    0 -0.11390733679E+00  0.81367114530E+00  0.84740368109E+00  0.90007691306E+02  0.89999952031E+02 0.  0.
         12    1    1    2    0    0  0.11390733679E+00 -0.81367114530E+00 -0.84740368109E+00  0.11803086939E+01  0.00000000000E+00 0. -1.
         11    1    3    3    0    0  0.54497745748E+01  0.11727751917E+02 -0.83222612550E+01  0.15378564322E+02  0.51100000000E-03 0. -1.
        -11    1    3    3    0    0  0.15334924684E+02 -0.35859828473E+02  0.14584353834E+02  0.41638811104E+02  0.51100000000E-03 0.  1.
         12    1    3    3    0    0 -0.20898606596E+02  0.24945747701E+02 -0.54146888980E+01  0.32990315880E+02  0.00000000000E+00 0. -1.
</event>
<event>
 7    1  0.3707147E-015  0.9000777E+02  0.7816164E-02  0.1186339E+00
        -11   -1    0    0    0    0  0.00000000000E+00  0.00000000000E+00  0.45593999997E+02  0.45594000000E+02  0.51100000000E-03 0. -1.
         11   -1    0    0    0    0 -0.00000000000E+00 -0.00000000000E+00 -0.45593999997E+02  0.45594000000E+02  0.51100000000E-03 0.  1.
    9900012    2    1    2    0    0  0.11371450078E+01  0.11625632777E+00  0.29379789662E+00  0.90007774807E+02  0.90000036634E+02 0.  0.
         12    1    1    2    0    0 -0.11371450078E+01 -0.11625632777E+00 -0.29379789662E+00  0.11802251932E+01  0.00000000000E+00 0. -1.
         11    1    3    3    0    0  0.11824811681E+02 -0.29428954578E+02  0.21556717452E+02  0.38348163012E+02  0.51100000000E-03 0. -1.
        -11    1    3    3    0    0  0.83630150470E+01  0.77237763765E+00  0.35897614229E+01  0.91336178607E+01  0.51100000000E-03 0.  1.
        -12    1    3    3    0    0 -0.19050681720E+02  0.28772833268E+02 -0.24852680978E+02  0.42525993934E+02  0.00000000000E+00 0.  1.
</event>
<event>
 7    1  0.3707147E-015  0.9000762E+02  0.7816164E-02  0.1186339E+00
        -11   -1    0    0    0    0  0.00000000000E+00  0.00000000000E+00  0.45593999997E+02  0.45594000000E+02  0.51100000000E-03 0. -1.
         11   -1    0    0    0    0 -0.00000000000E+00 -0.00000000000E+00 -0.45593999997E+02  0.45594000000E+02  0.51100000000E-03 0.  1.
    9900012    2    1    2    0    0  0.61102565701E+00 -0.38099854794E+00 -0.93530183031E+00  0.90007617960E+02  0.89999877717E+02 0.  0.
         12    1    1    2    0    0 -0.61102565701E+00  0.38099854794E+00  0.93530183031E+00  0.11803820402E+01  0.00000000000E+00 0. -1.
         11    1    3    3    0    0 -0.18934012924E+00 -0.50827252719E+01 -0.93751501903E+01  0.10665992088E+02  0.51100000000E-03 0. -1.
        -11    1    3    3    0    0 -0.29453514556E+02  0.19469336909E+02 -0.14956976368E+02  0.38344174808E+02  0.51100000000E-03 0.  1.
         12    1    3    3    0    0  0.30253880342E+02 -0.14767610185E+02  0.23396824728E+02  0.40997451063E+02  0.00000000000E+00 0. -1.
</event>
<event>
 7    1  0.3707147E-015  0.9000779E+02  0.7816164E-02  0.1186339E+00
        -11   -1    0    0    0    0  0.00000000000E+00  0.00000000000E+00  0.45593999997E+02  0.45594000000E+02  0.51100000000E-03 0.  1.
         11   -1    0    0    0    0 -0.00000000000E+00 -0.00000000000E+00 -0.45593999997E+02  0.45594000000E+02  0.51100000000E-03 0. -1.
    9900012    2    1    2    0    0 -0.10107495611E+01 -0.57255683994E+00  0.20848529086E+00  0.90007787254E+02  0.90000049245E+02 0.  0.
         12    1    1    2    0    0  0.10107495611E+01  0.57255683994E+00 -0.20848529086E+00  0.11802127464E+01  0.00000000000E+00 0. -1.
         11    1    3    3    0    0  0.23689686573E+01  0.54216559042E+01  0.12539894570E+02  0.13865616515E+02  0.51100000000E-03 0. -1.
        -11    1    3    3    0    0 -0.91958744274E+01 -0.25571780888E+02  0.22821802379E+02  0.35486824997E+02  0.51100000000E-03 0.  1.
         12    1    3    3    0    0  0.58161562090E+01  0.19577568144E+02 -0.35153211659E+02  0.40655345742E+02  0.00000000000E+00 0. -1.
</event>
<event>
 7    1  0.3707147E-015  0.9000772E+02  0.7816164E-02  0.1186339E+00
        -11   -1    0    0    0    0  0.00000000000E+00  0.00000000000E+00  0.45593999997E+02  0.45594000000E+02  0.51100000000E-03 0.  1.
         11   -1    0    0    0    0 -0.00000000000E+00 -0.00000000000E+00 -0.45593999997E+02  0.45594000000E+02  0.51100000000E-03 0. -1.
    9900012    2    1    2    0    0  0.27638305099E+00  0.30231936390E+00  0.11069221293E+01  0.90007719868E+02  0.89999980971E+02 0.  0.
         12    1    1    2    0    0 -0.27638305099E+00 -0.30231936390E+00 -0.11069221293E+01  0.11802801316E+01  0.00000000000E+00 0. -1.
         11    1    3    3    0    0  0.37613099443E+00  0.60117459121E+01 -0.52509290910E+01  0.79909210994E+01  0.51100000000E-03 0. -1.
        -11    1    3    3    0    0  0.30203804913E+02 -0.14643356829E+02 -0.21528448432E+02  0.39876958543E+02  0.51100000000E-03 0.  1.
         12    1    3    3    0    0 -0.30303552856E+02  0.89339302810E+01  0.27886299653E+02  0.42139840226E+02  0.00000000000E+00 0. -1.
</event>
<event>
 7    1  0.3707147E-015  0.9000762E+02  0.7816164E-02  0.1186339E+00
        -11   -1    0    0    0    0  0.00000000000E+00  0.00000000000E+00  0.45593999997E+02  0.45594000000E+02  0.51100000000E-03 0.  1.
         11   -1    0    0    0    0 -0.00000000000E+00 -0.00000000000E+00 -0.45593999997E+02  0.45594000000E+02  0.51100000000E-03 0. -1.
    9900012    2    1    2    0    0 -0.59026463525E+00 -0.86458995278E+00 -0.54531973054E+00  0.90007617971E+02  0.89999877728E+02 0.  0.
         12    1    1    2    0    0  0.59026463525E+00  0.86458995278E+00  0.54531973054E+00  0.11803820291E+01  0.00000000000E+00 0. -1.
         11    1    3    3    0    0  0.12486200319E+02  0.10417516183E+01 -0.44146630700E+01  0.13284566050E+02  0.51100000000E-03 0. -1.
        -11    1    3    3    0    0 -0.23859638421E+02  0.32620509542E+02  0.82325764242E+00  0.40423480080E+02  0.51100000000E-03 0.  1.
         12    1    3    3    0    0  0.10783173467E+02 -0.34526851113E+02  0.30460856970E+01  0.36299571841E+02  0.00000000000E+00 0. -1.
</event>
<event>
 7    1  0.3707147E-015  0.9000776E+02  0.7816164E-02  0.1186339E+00
        -11   -1    0    0    0    0  0.00000000000E+00  0.00000000000E+00  0.45593999997E+02  0.45594000000E+02  0.51100000000E-03 0.  1.
         11   -1    0    0    0    0 -0.00000000000E+00 -0.00000000000E+00 -0.45593999997E+02  0.45594000000E+02  0.51100000000E-03 0. -1.
    9900012    2    1    2    0    0 -0.67923858637E+00 -0.84513930439E+00  0.46621077173E+00  0.90007755117E+02  0.90000016684E+02 0.  0.
         12    1    1    2    0    0  0.67923858637E+00  0.84513930439E+00 -0.46621077173E+00  0.11802448834E+01  0.00000000000E+00 0. -1.
         11    1    3    3    0    0  0.34703811483E+02  0.78538059459E+01  0.82552746432E+01  0.36526515834E+02  0.51100000000E-03 0. -1.
        -11    1    3    3    0    0  0.47635553368E+01  0.73564096040E+01  0.23433168211E+01  0.90718992330E+01  0.51100000000E-03 0.  1.
        -12    1    3    3    0    0 -0.40146605406E+02 -0.16055354854E+02 -0.10132380693E+02  0.44409340050E+02  0.00000000000E+00 0.  1.
</event>
<event>
 7    1  0.3707147E-015  0.9000772E+02  0.7816164E-02  0.1186339E+00
        -11   -1    0    0    0    0  0.00000000000E+00  0.00000000000E+00  0.45593999997E+02  0.45594000000E+02  0.51100000000E-03 0. -1.
         11   -1    0    0    0    0 -0.00000000000E+00 -0.00000000000E+00 -0.45593999997E+02  0.45594000000E+02  0.51100000000E-03 0.  1.
    9900012    2    1    2    0    0 -0.76573330199E+00 -0.83149441147E+00  0.33958880603E+00  0.90007724183E+02  0.89999985343E+02 0.  0.
         12    1    1    2    0    0  0.76573330199E+00  0.83149441147E+00 -0.33958880603E+00  0.11802758166E+01  0.00000000000E+00 0. -1.
         11    1    3    3    0    0  0.76770198037E+01 -0.33556584382E+02 -0.79611489881E+01  0.35332150825E+02  0.51100000000E-03 0. -1.
        -11    1    3    3    0    0  0.10309311277E+02 -0.26228551278E+01  0.10035011325E+02  0.14624045972E+02  0.51100000000E-03 0.  1.
        -12    1    3    3    0    0 -0.18752064383E+02  0.35347945098E+02 -0.17342735306E+01  0.40051527386E+02  0.00000000000E+00 0.  1.
</event>
<event>
 7    1  0.3707147E-015  0.9000773E+02  0.7816164E-02  0.1186339E+00
        -11   -1    0    0    0    0  0.00000000000E+00  0.00000000000E+00  0.45593999997E+02  0.45594000000E+02  0.51100000000E-03 0.  1.
         11   -1    0    0    0    0 -0.00000000000E+00 -0.00000000000E+00 -0.45593999997E+02  0.45594000000E+02  0.51100000000E-03 0. -1.
    9900012    2    1    2    0    0 -0.11744323211E+01 -0.57712069773E-01  0.10211276112E+00  0.90007725042E+02  0.89999986213E+02 0.  0.
         12    1    1    2    0    0  0.11744323211E+01  0.57712069773E-01 -0.10211276112E+00  0.11802749577E+01  0.00000000000E+00 0. -1.
         11    1    3    3    0    0  0.17024970530E+01  0.87039083088E+01 -0.54471590254E+01  0.10408076565E+02  0.51100000000E-03 0. -1.
        -11    1    3    3    0    0  0.25586146001E+02 -0.71176593655E+01  0.31392605106E+02  0.41119430902E+02  0.51100000000E-03 0.  1.
         12    1    3    3    0    0 -0.28463075375E+02 -0.16439610130E+01 -0.25843333320E+02  0.38480217576E+02  0.00000000000E+00 0. -1.
</event>
<event>
 7    1  0.3707147E-015  0.9000773E+02  0.7816164E-02  0.1186339E+00
        -11   -1    0    0    0    0  0.00000000000E+00  0.00000000000E+00  0.45593999997E+02  0.45594000000E+02  0.51100000000E-03 0.  1.
         11   -1    0    0    0    0 -0.00000000000E+00 -0.00000000000E+00 -0.45593999997E+02  0.45594000000E+02  0.51100000000E-03 0. -1.
    9900012    2    1    2    0    0 -0.72306154601E+00  0.90850673713E+00 -0.21175687050E+00  0.90007727378E+02  0.89999988579E+02 0.  0.
         12    1    1    2    0    0  0.72306154601E+00 -0.90850673713E+00  0.21175687050E+00  0.11802726223E+01  0.00000000000E+00 0. -1.
         11    1    3    3    0    0  0.18255227970E+02 -0.16098510809E+02 -0.25779230467E+02  0.35453971883E+02  0.51100000000E-03 0. -1.
        -11    1    3    3    0    0  0.48131753212E+01 -0.96637906658E+01  0.33007607128E+00  0.10801132217E+02  0.51100000000E-03 0.  1.
        -12    1    3    3    0    0 -0.23791464838E+02  0.26670808212E+02  0.25237397526E+02  0.43752623277E+02  0.00000000000E+00 0.  1.
</event>
<event>
 7    1  0.3707147E-015  0.9000773E+02  0.7816164E-02  0.1186339E+00
        -11   -1    0    0    0    0  0.00000000000E+00  0.00000000000E+00  0.45593999997E+02  0.45594000000E+02  0.51100000000E-03 0.  1.
         11   -1    0    0    0    0 -0.00000000000E+00 -0.00000000000E+00 -0.45593999997E+02  0.45594000000E+02  0.51100000000E-03 0. -1.
    9900012    2    1    2    0    0  0.66360429601E+00  0.57235442574E-01  0.97436159029E+00  0.90007734324E+02  0.89999995617E+02 0.  0.
         12    1    1    2    0    0 -0.66360429601E+00 -0.57235442574E-01 -0.97436159029E+00  0.11802656761E+01  0.00000000000E+00 0. -1.
         11    1    3    3    0    0  0.31657669361E+02 -0.99771165002E+01 -0.23670526957E+02  0.40768182811E+02  0.51100000000E-03 0. -1.
        -11    1    3    3    0    0 -0.39368413769E+01 -0.87510968578E+01  0.42278726074E+01  0.10485958387E+02  0.51100000000E-03 0.  1.
        -12    1    3    3    0    0 -0.27057223688E+02  0.18785448801E+02  0.20417015940E+02  0.38753593127E+02  0.00000000000E+00 0.  1.
</event>
<event>
 7    1  0.3707147E-015  0.9000772E+02  0.7816164E-02  0.1186339E+00
        -11   -1    0    0    0    0  0.00000000000E+00  0.00000000000E+00  0.45593999997E+02  0.45594000000E+02  0.51100000000E-03 0.  1.
         11   -1    0    0    0    0 -0.00000000000E+00 -0.00000000000E+00 -0.45593999997E+02  0.45594000000E+02  0.51100000000E-03 0. -1.
    9900012    2    1    2    0    0 -0.87992235809E+00 -0.59709799307E+00 -0.51212089178E+00  0.90007721568E+02  0.89999982693E+02 0.  0.
         12    1    1    2    0    0  0.87992235809E+00  0.59709799307E+00  0.51212089178E+00  0.11802784321E+01  0.00000000000E+00 0. -1.
         11    1    3    3    0    0 -0.10237097691E+02 -0.30770468722E+01 -0.53530127600E+01  0.11954962671E+02  0.51100000000E-03 0. -1.
        -11    1    3    3    0    0 -0.23053051561E+02 -0.20401610657E+02 -0.14369693692E+02  0.33972886259E+02  0.51100000000E-03 0.  1.
         12    1    3    3    0    0  0.32410226895E+02  0.22881559536E+02  0.19210585561E+02  0.44079872638E+02  0.00000000000E+00 0. -1.
</event>
<event>
 7    1  0.3707147E-015  0.9000730E+02  0.7816164E-02  0.1186340E+00
        -11   -1    0    0    0    0  0.00000000000E+00  0.00000000000E+00  0.45593999997E+02  0.45594000000E+02  0.51100000000E-03 0. -1.
         11   -1    0    0    0    0 -0.00000000000E+00 -0.00000000000E+00 -0.45593999997E+02  0.45594000000E+02  0.51100000000E-03 0.  1.
    9900012    2    1    2    0    0  0.58873897134E-01 -0.30980795616E+00 -0.11378035257E+01  0.90007303609E+02  0.89999559215E+02 0.  0.
         12    1    1    2    0    0 -0.58873897134E-01  0.30980795616E+00  0.11378035257E+01  0.11806963914E+01  0.00000000000E+00 0. -1.
         11    1    3    3    0    0 -0.15822555037E+01  0.21197717052E+02  0.29938358504E+02  0.36717190127E+02  0.51100000000E-03 0. -1.
        -11    1    3    3    0    0  0.31406569625E+01  0.25963112969E+01  0.70592061601E+01  0.81508864781E+01  0.51100000000E-03 0.  1.
        -12    1    3    3    0    0 -0.14995275617E+01 -0.24103836305E+02 -0.38135368189E+02  0.45139227003E+02  0.00000000000E+00 0.  1.
</event>
<event>
 7    1  0.3707147E-015  0.9000769E+02  0.7816164E-02  0.1186339E+00
        -11   -1    0    0    0    0  0.00000000000E+00  0.00000000000E+00  0.45593999997E+02  0.45594000000E+02  0.51100000000E-03 0.  1.
         11   -1    0    0    0    0 -0.00000000000E+00 -0.00000000000E+00 -0.45593999997E+02  0.45594000000E+02  0.51100000000E-03 0. -1.
    9900012    2    1    2    0    0  0.95330565572E+00 -0.63748072455E+00  0.27922346964E+00  0.90007686866E+02  0.89999947533E+02 0.  0.
         12    1    1    2    0    0 -0.95330565572E+00  0.63748072455E+00 -0.27922346964E+00  0.11803131336E+01  0.00000000000E+00 0. -1.
         11    1    3    3    0    0  0.63903798031E+01 -0.46377547373E+01 -0.40973616878E+01  0.88957347135E+01  0.51100000000E-03 0. -1.
        -11    1    3    3    0    0  0.13066036656E+02  0.39096239900E+02  0.24451864425E+00  0.41222531192E+02  0.51100000000E-03 0.  1.
         12    1    3    3    0    0 -0.18503110804E+02 -0.35095965887E+02  0.41320665132E+01  0.39889420961E+02  0.00000000000E+00 0. -1.
</event>
<event>
 7    1  0.3707147E-015  0.9000769E+02  0.7816164E-02  0.1186339E+00
        -11   -1    0    0    0    0  0.00000000000E+00  0.00000000000E+00  0.45593999997E+02  0.45594000000E+02  0.51100000000E-03 0.  1.
         11   -1    0    0    0    0 -0.00000000000E+00 -0.00000000000E+00 -0.45593999997E+02  0.45594000000E+02  0.51100000000E-03 0. -1.
    9900012    2    1    2    0    0  0.67941064402E+00  0.81363192029E+00 -0.51916460330E+00  0.90007691731E+02  0.89999952462E+02 0.  0.
         12    1    1    2    0    0 -0.67941064402E+00 -0.81363192029E+00  0.51916460330E+00  0.11803082692E+01  0.00000000000E+00 0. -1.
         11    1    3    3    0    0 -0.20603704485E+02  0.18465505372E+02  0.24752610219E+02  0.37123836549E+02  0.51100000000E-03 0. -1.
        -11    1    3    3    0    0 -0.87551714342E+01  0.14228471693E+01  0.59896156671E+00  0.88902348747E+01  0.51100000000E-03 0.  1.
        -12    1    3    3    0    0  0.30038286564E+02 -0.19074720621E+02 -0.25870736389E+02  0.43993620307E+02  0.00000000000E+00 0.  1.
</event>
<event>
 7    1  0.3707147E-015  0.9000776E+02  0.7816164E-02  0.1186339E+00
        -11   -1    0    0    0    0  0.00000000000E+00  0.00000000000E+00  0.45593999997E+02  0.45594000000E+02  0.51100000000E-03 0. -1.
         11   -1    0    0    0    0 -0.00000000000E+00 -0.00000000000E+00 -0.45593999997E+02  0.45594000000E+02  0.51100000000E-03 0.  1.
    9900012    2    1    2    0    0 -0.10156643330E+01  0.38671266137E+00  0.46027371531E+00  0.90007757392E+02  0.90000018990E+02 0.  0.
         12    1    1    2    0    0  0.10156643330E+01 -0.38671266137E+00 -0.46027371531E+00  0.11802426076E+01  0.00000000000E+00 0. -1.
         11    1    3    3    0    0 -0.21310284158E+02  0.12197152205E+02  0.37292433075E+02  0.44650020131E+02  0.51100000000E-03 0. -1.
        -11    1    3    3    0    0 -0.23639510037E+00 -0.44163897172E+01 -0.86457744005E+01  0.97113230831E+01  0.51100000000E-03 0.  1.
        -12    1    3    3    0    0  0.20531014925E+02 -0.73940498259E+01 -0.28186384959E+02  0.35646414178E+02  0.00000000000E+00 0.  1.
</event>
<event>
 7    1  0.3707147E-015  0.9000776E+02  0.7816164E-02  0.1186339E+00
        -11   -1    0    0    0    0  0.00000000000E+00  0.00000000000E+00  0.45593999997E+02  0.45594000000E+02  0.51100000000E-03 0.  1.
         11   -1    0    0    0    0 -0.00000000000E+00 -0.00000000000E+00 -0.45593999997E+02  0.45594000000E+02  0.51100000000E-03 0. -1.
    9900012    2    1    2    0    0 -0.88152061414E+00  0.69844838112E+00 -0.35783867217E+00  0.90007763901E+02  0.90000025584E+02 0.  0.
         12    1    1    2    0    0  0.88152061414E+00 -0.69844838112E+00  0.35783867217E+00  0.11802360991E+01  0.00000000000E+00 0. -1.
         11    1    3    3    0    0 -0.72828451200E+01  0.32890020197E+01 -0.12195983247E+01  0.80836122904E+01  0.51100000000E-03 0. -1.
        -11    1    3    3    0    0 -0.10154645798E+02 -0.39399614293E+02  0.63915369558E+01  0.41186140662E+02  0.51100000000E-03 0.  1.
         12    1    3    3    0    0  0.16555970304E+02  0.36809060655E+02 -0.55297773033E+01  0.40738010948E+02  0.00000000000E+00 0. -1.
</event>
<event>
 7    1  0.3707147E-015  0.9000772E+02  0.7816164E-02  0.1186339E+00
        -11   -1    0    0    0    0  0.00000000000E+00  0.00000000000E+00  0.45593999997E+02  0.45594000000E+02  0.51100000000E-03 0. -1.
         11   -1    0    0    0    0 -0.00000000000E+00 -0.00000000000E+00 -0.45593999997E+02  0.45594000000E+02  0.51100000000E-03 0.  1.
    9900012    2    1    2    0    0 -0.43274547800E+00 -0.10452684613E+01 -0.33644829677E+00  0.90007723650E+02  0.89999984803E+02 0.  0.
         12    1    1    2    0    0  0.43274547800E+00  0.10452684613E+01  0.33644829677E+00  0.11802763496E+01  0.00000000000E+00 0. -1.
         11    1    3    3    0    0 -0.40609665488E+01  0.68216919287E+01  0.66109133089E+01  0.10331074732E+02  0.51100000000E-03 0. -1.
        -11    1    3    3    0    0 -0.20381388700E+02 -0.22653446752E+02 -0.30368186986E+02  0.43020999944E+02  0.51100000000E-03 0.  1.
         12    1    3    3    0    0  0.24009609771E+02  0.14786486362E+02  0.23420825381E+02  0.36655648975E+02  0.00000000000E+00 0. -1.
</event>
<event>
 7    1  0.3707147E-015  0.9000777E+02  0.7816164E-02  0.1186339E+00
        -11   -1    0    0    0    0  0.00000000000E+00  0.00000000000E+00  0.45593999997E+02  0.45594000000E+02  0.51100000000E-03 0.  1.
         11   -1    0    0    0    0 -0.00000000000E+00 -0.00000000000E+00 -0.45593999997E+02  0.45594000000E+02  0.51100000000E-03 0. -1.
    9900012    2    1    2    0    0 -0.81952005683E+00  0.35240391978E+00  0.77275121136E+00  0.90007768632E+02  0.90000030378E+02 0.  0.
         12    1    1    2    0    0  0.81952005683E+00 -0.35240391978E+00 -0.77275121136E+00  0.11802313675E+01  0.00000000000E+00 0. -1.
         11    1    3    3    0    0 -0.69468179984E+01  0.47504286899E+01  0.39127642568E+01  0.92808715879E+01  0.51100000000E-03 0. -1.
        -11    1    3    3    0    0 -0.25534249498E+02 -0.22776962655E+02 -0.20839662069E+02  0.40063442696E+02  0.51100000000E-03 0.  1.
         12    1    3    3    0    0  0.31661547439E+02  0.18378937885E+02  0.17699649023E+02  0.40663454349E+02  0.00000000000E+00 0. -1.
</event>
<event>
 7    1  0.3707147E-015  0.9000773E+02  0.7816164E-02  0.1186339E+00
        -11   -1    0    0    0    0  0.00000000000E+00  0.00000000000E+00  0.45593999997E+02  0.45594000000E+02  0.51100000000E-03 0. -1.
         11   -1    0    0    0    0 -0.00000000000E+00 -0.00000000000E+00 -0.45593999997E+02  0.45594000000E+02  0.51100000000E-03 0.  1.
    9900012    2    1    2    0    0  0.11470161273E+01  0.27652523587E+00 -0.30557421402E-01  0.90007726321E+02  0.89999987508E+02 0.  0.
         12    1    1    2    0    0 -0.11470161273E+01 -0.27652523587E+00  0.30557421402E-01  0.11802736795E+01  0.00000000000E+00 0. -1.
         11    1    3    3    0    0 -0.25497107777E+01 -0.28103771293E+02  0.22951560597E+02  0.36374401989E+02  0.51100000000E-03 0. -1.
        -11    1    3    3    0    0  0.92303855011E+00 -0.72145156145E+01  0.45224226803E+01  0.85646682877E+01  0.51100000000E-03 0.  1.
        -12    1    3    3    0    0  0.27736883549E+01  0.35594812143E+02 -0.27504540699E+02  0.45068656044E+02  0.00000000000E+00 0.  1.
</event>
<event>
 7    1  0.3707147E-015  0.9000776E+02  0.7816164E-02  0.1186339E+00
        -11   -1    0    0    0    0  0.00000000000E+00  0.00000000000E+00  0.45593999997E+02  0.45594000000E+02  0.51100000000E-03 0. -1.
         11   -1    0    0    0    0 -0.00000000000E+00 -0.00000000000E+00 -0.45593999997E+02  0.45594000000E+02  0.51100000000E-03 0.  1.
    9900012    2    1    2    0    0  0.53871088210E-01 -0.11751530482E+01 -0.95331401451E-01  0.90007756442E+02  0.90000018027E+02 0.  0.
         12    1    1    2    0    0 -0.53871088210E-01  0.11751530482E+01  0.95331401451E-01  0.11802435583E+01  0.00000000000E+00 0. -1.
         11    1    3    3    0    0 -0.37114289601E+01  0.74444263026E+01 -0.26896247009E+00  0.83226515590E+01  0.51100000000E-03 0. -1.
        -11    1    3    3    0    0 -0.34523547527E+02  0.13636244202E+02 -0.32785759016E+01  0.37263541834E+02  0.51100000000E-03 0.  1.
         12    1    3    3    0    0  0.38288847576E+02 -0.22255823553E+02  0.34522069703E+01  0.44421563049E+02  0.00000000000E+00 0. -1.
</event>
<event>
 7    1  0.3707147E-015  0.9000764E+02  0.7816164E-02  0.1186339E+00
        -11   -1    0    0    0    0  0.00000000000E+00  0.00000000000E+00  0.45593999997E+02  0.45594000000E+02  0.51100000000E-03 0. -1.
         11   -1    0    0    0    0 -0.00000000000E+00 -0.00000000000E+00 -0.45593999997E+02  0.45594000000E+02  0.51100000000E-03 0.  1.
    9900012    2    1    2    0    0 -0.51353896418E+00  0.10202851176E+01 -0.29755068586E+00  0.90007643952E+02  0.89999904052E+02 0.  0.
         12    1    1    2    0    0  0.51353896418E+00 -0.10202851176E+01  0.29755068586E+00  0.11803560478E+01  0.00000000000E+00 0. -1.
         11    1    3    3    0    0  0.16505784285E+01 -0.33114666150E+01 -0.93201057548E+01  0.10027691251E+02  0.51100000000E-03 0. -1.
        -11    1    3    3    0    0  0.43580506141E+01  0.58448289230E+01 -0.34847455756E+02  0.35601963474E+02  0.51100000000E-03 0.  1.
         12    1    3    3    0    0 -0.65221680067E+01 -0.15130771904E+01  0.43870010824E+02  0.44377989227E+02  0.00000000000E+00 0. -1.
</event>
<event>
 7    1  0.3707147E-015  0.9000671E+02  0.7816164E-02  0.1186341E+00
        -11   -1    0    0    0    0  0.00000000000E+00  0.00000000000E+00  0.45593999997E+02  0.45594000000E+02  0.51100000000E-03 0. -1.
         11   -1    0    0    0    0 -0.00000000000E+00 -0.00000000000E+00 -0.45593999997E+02  0.45594000000E+02  0.51100000000E-03 0.  1.
    9900012    2    1    2    0    0  0.42825611284E+00 -0.40284309378E+00 -0.10245753865E+01  0.90006712322E+02  0.89998960118E+02 0.  0.
         12    1    1    2    0    0 -0.42825611284E+00  0.40284309378E+00  0.10245753865E+01  0.11812876784E+01  0.00000000000E+00 0. -1.
         11    1    3    3    0    0 -0.17468154326E+02 -0.35297014359E+01  0.32129017529E+02  0.36740563080E+02  0.51100000000E-03 0. -1.
        -11    1    3    3    0    0 -0.15287960779E+01  0.32040016920E+01  0.74513761513E+01  0.82538385675E+01  0.51100000000E-03 0.  1.
        -12    1    3    3    0    0  0.19425206516E+02 -0.77143349875E-01 -0.40604969067E+02  0.45012310674E+02  0.00000000000E+00 0.  1.
</event>
<event>
 7    1  0.3707147E-015  0.9000776E+02  0.7816164E-02  0.1186339E+00
        -11   -1    0    0    0    0  0.00000000000E+00  0.00000000000E+00  0.45593999997E+02  0.45594000000E+02  0.51100000000E-03 0.  1.
         11   -1    0    0    0    0 -0.00000000000E+00 -0.00000000000E+00 -0.45593999997E+02  0.45594000000E+02  0.51100000000E-03 0. -1.
    9900012    2    1    2    0    0  0.25882454871E+00  0.11007715591E+01  0.33805589900E+00  0.90007758515E+02  0.90000020127E+02 0.  0.
         12    1    1    2    0    0 -0.25882454871E+00 -0.11007715591E+01 -0.33805589900E+00  0.11802414851E+01  0.00000000000E+00 0. -1.
         11    1    3    3    0    0 -0.86070318468E+01 -0.22958492756E+01 -0.31901756145E+02  0.33122106915E+02  0.51100000000E-03 0. -1.
        -11    1    3    3    0    0 -0.12859141803E+02  0.42482439412E+00 -0.48903739690E+01  0.13764220337E+02  0.51100000000E-03 0.  1.
        -12    1    3    3    0    0  0.21724998198E+02  0.29717964406E+01  0.37130186013E+02  0.43121431263E+02  0.00000000000E+00 0.  1.
</event>
<event>
 7    1  0.3707147E-015  0.9000785E+02  0.7816164E-02  0.1186339E+00
        -11   -1    0    0    0    0  0.00000000000E+00  0.00000000000E+00  0.45593999997E+02  0.45594000000E+02  0.51100000000E-03 0.  1.
         11   -1    0    0    0    0 -0.00000000000E+00 -0.00000000000E+00 -0.45593999997E+02  0.45594000000E+02  0.51100000000E-03 0. -1.
    9900012    2    1    2    0    0  0.14206657782E+00  0.38302446621E+00 -0.11071892713E+01  0.90007848003E+02  0.90000110796E+02 0.  0.
         12    1    1    2    0    0 -0.14206657782E+00 -0.38302446621E+00  0.11071892713E+01  0.11801519973E+01  0.00000000000E+00 0. -1.
         11    1    3    3    0    0 -0.92358975137E+01  0.30251708954E+01 -0.12830434448E+02  0.16095760628E+02  0.51100000000E-03 0. -1.
        -11    1    3    3    0    0 -0.11619934423E+02 -0.25311722410E+02  0.27566550953E+02  0.39186999108E+02  0.51100000000E-03 0.  1.
         12    1    3    3    0    0  0.20997898515E+02  0.22669575980E+02 -0.15843305777E+02  0.34725088267E+02  0.00000000000E+00 0. -1.
</event>
<event>
 7    1  0.3707147E-015  0.9000783E+02  0.7816164E-02  0.1186339E+00
        -11   -1    0    0    0    0  0.00000000000E+00  0.00000000000E+00  0.45593999997E+02  0.45594000000E+02  0.51100000000E-03 0.  1.
         11   -1    0    0    0    0 -0.00000000000E+00 -0.00000000000E+00 -0.45593999997E+02  0.45594000000E+02  0.51100000000E-03 0. -1.
    9900012    2    1    2    0    0  0.62029599858E+00 -0.63971482462E+00 -0.77382793156E+00  0.90007825500E+02  0.90000087997E+02 0.  0.
         12    1    1    2    0    0 -0.62029599858E+00  0.63971482462E+00  0.77382793156E+00  0.11801745000E+01  0.00000000000E+00 0. -1.
         11    1    3    3    0    0  0.45395721762E+01  0.57671599501E+01 -0.75304409335E+01  0.10515483362E+02  0.51100000000E-03 0. -1.
        -11    1    3    3    0    0  0.34811832894E+02 -0.16632700222E+02  0.80546052808E+01  0.39413032015E+02  0.51100000000E-03 0.  1.
         12    1    3    3    0    0 -0.38731109071E+02  0.10225825447E+02 -0.12979922788E+01  0.40079310123E+02  0.00000000000E+00 0. -1.
</event>
<event>
 7    1  0.3707147E-015  0.9000762E+02  0.7816164E-02  0.1186339E+00
        -11   -1    0    0    0    0  0.00000000000E+00  0.00000000000E+00  0.45593999997E+02  0.45594000000E+02  0.51100000000E-03 0.  1.
         11   -1    0    0    0    0 -0.00000000000E+00 -0.00000000000E+00 -0.45593999997E+02  0.45594000000E+02  0.51100000000E-03 0. -1.
    9900012    2    1    2    0    0  0.96735031381E+00 -0.53770118630E+00  0.41036650656E+00  0.90007622999E+02  0.89999882822E+02 0.  0.
         12    1    1    2    0    0 -0.96735031381E+00  0.53770118630E+00 -0.41036650656E+00  0.11803770012E+01  0.00000000000E+00 0. -1.
         11    1    3    3    0    0  0.13370509515E+02  0.33273018519E+02  0.13781930356E+02  0.38416219109E+02  0.51100000000E-03 0. -1.
        -11    1    3    3    0    0  0.17644431173E+01  0.62988537260E+00  0.82966727583E+01  0.85055743026E+01  0.51100000000E-03 0.  1.
        -12    1    3    3    0    0 -0.14167602318E+02 -0.34440605078E+02 -0.21668236607E+02  0.43085829587E+02  0.00000000000E+00 0.  1.
</event>
<event>
 7    1  0.3707147E-015  0.9000778E+02  0.7816164E-02  0.1186339E+00
        -11   -1    0    0    0    0  0.00000000000E+00  0.00000000000E+00  0.45593999997E+02  0.45594000000E+02  0.51100000000E-03 0.  1.
         11   -1    0    0    0    0 -0.00000000000E+00 -0.00000000000E+00 -0.45593999997E+02  0.45594000000E+02  0.51100000000E-03 0. -1.
    9900012    2    1    2    0    0 -0.60392424371E+00  0.97908578669E+00 -0.26380213163E+00  0.90007777549E+02  0.90000039412E+02 0.  0.
         12    1    1    2    0    0  0.60392424371E+00 -0.97908578669E+00  0.26380213163E+00  0.11802224513E+01  0.00000000000E+00 0. -1.
         11    1    3    3    0    0  0.45041806415E+01 -0.92668823375E+00  0.66288894576E+01  0.80677487589E+01  0.51100000000E-03 0. -1.
        -11    1    3    3    0    0  0.14119505359E+02 -0.36192161549E+02 -0.55558851699E+01  0.39244118661E+02  0.51100000000E-03 0.  1.
         12    1    3    3    0    0 -0.19227610245E+02  0.38097935569E+02 -0.13368064193E+01  0.42695910129E+02  0.00000000000E+00 0. -1.
</event>
<event>
 7    1  0.3707147E-015  0.9000771E+02  0.7816164E-02  0.1186339E+00
        -11   -1    0    0    0    0  0.00000000000E+00  0.00000000000E+00  0.45593999997E+02  0.45594000000E+02  0.51100000000E-03 0.  1.
         11   -1    0    0    0    0 -0.00000000000E+00 -0.00000000000E+00 -0.45593999997E+02  0.45594000000E+02  0.51100000000E-03 0. -1.
    9900012    2    1    2    0    0  0.32694698708E+00  0.34180809816E+00 -0.10813681284E+01  0.90007710147E+02  0.89999971121E+02 0.  0.
         12    1    1    2    0    0 -0.32694698708E+00 -0.34180809816E+00  0.10813681284E+01  0.11802898532E+01  0.00000000000E+00 0. -1.
         11    1    3    3    0    0  0.10249600504E+02 -0.16600094536E+02 -0.18605108031E+01  0.19597932284E+02  0.51100000000E-03 0. -1.
        -11    1    3    3    0    0 -0.37346848980E+02  0.46147749296E+01 -0.91828303598E+01  0.38735095844E+02  0.51100000000E-03 0.  1.
         12    1    3    3    0    0  0.27424195463E+02  0.12327127705E+02  0.99619730345E+01  0.31674682019E+02  0.00000000000E+00 0. -1.
</event>
<event>
 7    1  0.3707147E-015  0.9000764E+02  0.7816164E-02  0.1186339E+00
        -11   -1    0    0    0    0  0.00000000000E+00  0.00000000000E+00  0.45593999997E+02  0.45594000000E+02  0.51100000000E-03 0.  1.
         11   -1    0    0    0    0 -0.00000000000E+00 -0.00000000000E+00 -0.45593999997E+02  0.45594000000E+02  0.51100000000E-03 0. -1.
    9900012    2    1    2    0    0  0.16310380382E+00 -0.11239893183E+01  0.32139701525E+00  0.90007639513E+02  0.89999899554E+02 0.  0.
         12    1    1    2    0    0 -0.16310380382E+00  0.11239893183E+01 -0.32139701525E+00  0.11803604873E+01  0.00000000000E+00 0. -1.
         11    1    3    3    0    0  0.20151864739E+02 -0.29768989732E+02 -0.10952342016E+02  0.37579837653E+02  0.51100000000E-03 0. -1.
        -11    1    3    3    0    0  0.42608331099E+01 -0.67398181021E+01  0.39929515486E+01  0.89175954814E+01  0.51100000000E-03 0.  1.
        -12    1    3    3    0    0 -0.24249594045E+02  0.35384818516E+02  0.72807874832E+01  0.43510206379E+02  0.00000000000E+00 0.  1.
</event>
<event>
 7    1  0.3707147E-015  0.9000777E+02  0.7816164E-02  0.1186339E+00
        -11   -1    0    0    0    0  0.00000000000E+00  0.00000000000E+00  0.45593999997E+02  0.45594000000E+02  0.51100000000E-03 0. -1.
         11   -1    0    0    0    0 -0.00000000000E+00 -0.00000000000E+00 -0.45593999997E+02  0.45594000000E+02  0.51100000000E-03 0.  1.
    9900012    2    1    2    0    0 -0.80726802566E+00  0.24729299772E+00  0.82468743919E+00  0.90007769148E+02  0.90000030901E+02 0.  0.
         12    1    1    2    0    0  0.80726802566E+00 -0.24729299772E+00 -0.82468743919E+00  0.11802308521E+01  0.00000000000E+00 0. -1.
         11    1    3    3    0    0 -0.13007916688E+01  0.15129598430E+02  0.99963292946E+01  0.18180302727E+02  0.51100000000E-03 0. -1.
        -11    1    3    3    0    0  0.69721305298E+01  0.27479707905E+02 -0.25576631705E+01  0.28465533401E+02  0.51100000000E-03 0.  1.
         12    1    3    3    0    0 -0.64786068867E+01 -0.42362013337E+02 -0.66139786849E+01  0.43361933020E+02  0.00000000000E+00 0. -1.
</event>
<event>
 7    1  0.3707147E-015  0.9000767E+02  0.7816164E-02  0.1186339E+00
        -11   -1    0    0    0    0  0.00000000000E+00  0.00000000000E+00  0.45593999997E+02  0.45594000000E+02  0.51100000000E-03 0. -1.
         11   -1    0    0    0    0 -0.00000000000E+00 -0.00000000000E+00 -0.45593999997E+02  0.45594000000E+02  0.51100000000E-03 0.  1.
    9900012    2    1    2    0    0 -0.29771835721E+00 -0.38754515813E+00 -0.10744075763E+01  0.90007669915E+02  0.89999930358E+02 0.  0.
         12    1    1    2    0    0  0.29771835721E+00  0.38754515813E+00  0.10744075763E+01  0.11803300851E+01  0.00000000000E+00 0. -1.
         11    1    3    3    0    0  0.32565494685E+02 -0.82151336747E+01  0.21057351977E+02  0.39641038558E+02  0.51100000000E-03 0. -1.
        -11    1    3    3    0    0 -0.46407216844E+01 -0.71416129681E+01  0.36971118265E+01  0.92848031566E+01  0.51100000000E-03 0.  1.
        -12    1    3    3    0    0 -0.28222491358E+02  0.14969201485E+02 -0.25828871380E+02  0.41081828201E+02  0.00000000000E+00 0.  1.
</event>
<event>
 7    1  0.3707147E-015  0.9000777E+02  0.7816164E-02  0.1186339E+00
        -11   -1    0    0    0    0  0.00000000000E+00  0.00000000000E+00  0.45593999997E+02  0.45594000000E+02  0.51100000000E-03 0.  1.
         11   -1    0    0    0    0 -0.00000000000E+00 -0.00000000000E+00 -0.45593999997E+02  0.45594000000E+02  0.51100000000E-03 0. -1.
    9900012    2    1    2    0    0 -0.27321325503E+00  0.65816568597E+00  0.94080833652E+00  0.90007767871E+02  0.90000029607E+02 0.  0.
         12    1    1    2    0    0  0.27321325503E+00 -0.65816568597E+00 -0.94080833652E+00  0.11802321293E+01  0.00000000000E+00 0. -1.
         11    1    3    3    0    0  0.15977357798E+00  0.34544168592E+01  0.91149645523E+01  0.97489026298E+01  0.51100000000E-03 0. -1.
        -11    1    3    3    0    0 -0.60053024273E+01  0.97366569773E+01  0.34019754858E+02  0.35891640632E+02  0.51100000000E-03 0.  1.
         12    1    3    3    0    0  0.55723155943E+01 -0.12532908151E+02 -0.42193911074E+02  0.44367224609E+02  0.00000000000E+00 0. -1.
</event>
<event>
 7    1  0.3707147E-015  0.9000771E+02  0.7816164E-02  0.1186339E+00
        -11   -1    0    0    0    0  0.00000000000E+00  0.00000000000E+00  0.45593999997E+02  0.45594000000E+02  0.51100000000E-03 0.  1.
         11   -1    0    0    0    0 -0.00000000000E+00 -0.00000000000E+00 -0.45593999997E+02  0.45594000000E+02  0.51100000000E-03 0. -1.
    9900012    2    1    2    0    0  0.10860470904E+01 -0.10158448918E+00 -0.45084322646E+00  0.90007713041E+02  0.89999974053E+02 0.  0.
         12    1    1    2    0    0 -0.10860470904E+01  0.10158448918E+00  0.45084322646E+00  0.11802869591E+01  0.00000000000E+00 0. -1.
         11    1    3    3    0    0 -0.85999413628E+01  0.13351591711E+02  0.73564614238E+00  0.15898590131E+02  0.51100000000E-03 0. -1.
        -11    1    3    3    0    0  0.35216868148E+02  0.12705080562E+02 -0.26057736571E+01  0.37529147750E+02  0.51100000000E-03 0.  1.
         12    1    3    3    0    0 -0.25530879695E+02 -0.26158256761E+02  0.14192842883E+01  0.36579975160E+02  0.00000000000E+00 0. -1.
</event>
<event>
 7    1  0.3707147E-015  0.9000796E+02  0.7816164E-02  0.1186339E+00
        -11   -1    0    0    0    0  0.00000000000E+00  0.00000000000E+00  0.45593999997E+02  0.45594000000E+02  0.51100000000E-03 0.  1.
         11   -1    0    0    0    0 -0.00000000000E+00 -0.00000000000E+00 -0.45593999997E+02  0.45594000000E+02  0.51100000000E-03 0. -1.
    9900012    2    1    2    0    0  0.90447644338E+00 -0.65529646283E+00 -0.38079855797E+00  0.90007958207E+02  0.90000222455E+02 0.  0.
         12    1    1    2    0    0 -0.90447644338E+00  0.65529646283E+00  0.38079855797E+00  0.11800417927E+01  0.00000000000E+00 0. -1.
         11    1    3    3    0    0 -0.25162658797E+01 -0.73353825474E+01  0.56151496736E+01  0.95744105412E+01  0.51100000000E-03 0. -1.
        -11    1    3    3    0    0 -0.12280246433E+02 -0.24403328095E+02  0.22535374390E+02  0.35414262293E+02  0.51100000000E-03 0.  1.
         12    1    3    3    0    0  0.15700988756E+02  0.31083414180E+02 -0.28531322622E+02  0.45019285373E+02  0.00000000000E+00 0. -1.
</event>
<event>
 7    1  0.3707147E-015  0.9000771E+02  0.7816164E-02  0.1186339E+00
        -11   -1    0    0    0    0  0.00000000000E+00  0.00000000000E+00  0.45593999997E+02  0.45594000000E+02  0.51100000000E-03 0. -1.
         11   -1    0    0    0    0 -0.00000000000E+00 -0.00000000000E+00 -0.45593999997E+02  0.45594000000E+02  0.51100000000E-03 0.  1.
    9900012    2    1    2    0    0  0.82870118255E+00  0.81765648733E+00 -0.19437774158E+00  0.90007707457E+02  0.89999968395E+02 0.  0.
         12    1    1    2    0    0 -0.82870118255E+00 -0.81765648733E+00  0.19437774158E+00  0.11802925433E+01  0.00000000000E+00 0. -1.
         11    1    3    3    0    0 -0.20017941716E+01 -0.44704747155E+01  0.90767102242E+01  0.10314019238E+02  0.51100000000E-03 0. -1.
        -11    1    3    3    0    0 -0.11052191966E+02 -0.42959675063E+01 -0.41584349035E+02  0.43241928368E+02  0.51100000000E-03 0.  1.
         12    1    3    3    0    0  0.13882687320E+02  0.95840987092E+01  0.32313261069E+02  0.36451759851E+02  0.00000000000E+00 0. -1.
</event>
<event>
 7    1  0.3707147E-015  0.9000758E+02  0.7816164E-02  0.1186339E+00
        -11   -1    0    0    0    0  0.00000000000E+00  0.00000000000E+00  0.45593999997E+02  0.45594000000E+02  0.51100000000E-03 0. -1.
         11   -1    0    0    0    0 -0.00000000000E+00 -0.00000000000E+00 -0.45593999997E+02  0.45594000000E+02  0.51100000000E-03 0.  1.
    9900012    2    1    2    0    0  0.10723789033E+01 -0.13070380506E+00 -0.47571067288E+00  0.90007584547E+02  0.89999843863E+02 0.  0.
         12    1    1    2    0    0 -0.10723789033E+01  0.13070380506E+00  0.47571067288E+00  0.11804154528E+01  0.00000000000E+00 0. -1.
         11    1    3    3    0    0  0.28724941029E+01 -0.38517862599E+02  0.54026444233E+01  0.39000840101E+02  0.51100000000E-03 0. -1.
        -11    1    3    3    0    0  0.18799617674E+01 -0.26821046717E+01 -0.90762028657E+01  0.96491139716E+01  0.51100000000E-03 0.  1.
        -12    1    3    3    0    0 -0.36800769670E+01  0.41069263466E+02  0.31978477695E+01  0.41357630474E+02  0.00000000000E+00 0.  1.
</event>
<event>
 7    1  0.3707147E-015  0.9000788E+02  0.7816164E-02  0.1186339E+00
        -11   -1    0    0    0    0  0.00000000000E+00  0.00000000000E+00  0.45593999997E+02  0.45594000000E+02  0.51100000000E-03 0.  1.
         11   -1    0    0    0    0 -0.00000000000E+00 -0.00000000000E+00 -0.45593999997E+02  0.45594000000E+02  0.51100000000E-03 0. -1.
    9900012    2    1    2    0    0  0.27067889097E+00 -0.88868301293E+00  0.72777954759E+00  0.90007878129E+02  0.90000141321E+02 0.  0.
         12    1    1    2    0    0 -0.27067889097E+00  0.88868301293E+00 -0.72777954759E+00  0.11801218706E+01  0.00000000000E+00 0. -1.
         11    1    3    3    0    0  0.59612625258E+01 -0.29073051363E+01  0.76424396088E+01  0.10119088768E+02  0.51100000000E-03 0. -1.
        -11    1    3    3    0    0 -0.33326585397E+00  0.89861635452E+01  0.35475304155E+02  0.36597259549E+02  0.51100000000E-03 0.  1.
         12    1    3    3    0    0 -0.53573177809E+01 -0.69675414218E+01 -0.42389964216E+02  0.43291529812E+02  0.00000000000E+00 0. -1.
</event>
<event>
 7    1  0.3707147E-015  0.9000778E+02  0.7816164E-02  0.1186339E+00
        -11   -1    0    0    0    0  0.00000000000E+00  0.00000000000E+00  0.45593999997E+02  0.45594000000E+02  0.51100000000E-03 0.  1.
         11   -1    0    0    0    0 -0.00000000000E+00 -0.00000000000E+00 -0.45593999997E+02  0.45594000000E+02  0.51100000000E-03 0. -1.
    9900012    2    1    2    0    0  0.92543113523E-01 -0.73807611386E+00  0.91629006189E+00  0.90007784742E+02  0.90000046701E+02 0.  0.
         12    1    1    2    0    0 -0.92543113523E-01  0.73807611386E+00 -0.91629006189E+00  0.11802152580E+01  0.00000000000E+00 0. -1.
         11    1    3    3    0    0  0.43909980224E+01  0.85702788978E+01  0.21923987420E+01  0.98760901436E+01  0.51100000000E-03 0. -1.
        -11    1    3    3    0    0 -0.16389918514E+02  0.30816695138E+02  0.10769092215E+02  0.36527680950E+02  0.51100000000E-03 0.  1.
         12    1    3    3    0    0  0.12091463605E+02 -0.40125050150E+02 -0.12045200895E+02  0.43604013649E+02  0.00000000000E+00 0. -1.
</event>
<event>
 7    1  0.5102419E-015  0.9000779E+02  0.7816164E-02  0.1186339E+00
        -11   -1    0    0    0    0  0.00000000000E+00  0.00000000000E+00  0.45593999997E+02  0.45594000000E+02  0.51100000000E-03 0.  1.
         11   -1    0    0    0    0 -0.00000000000E+00 -0.00000000000E+00 -0.45593999997E+02  0.45594000000E+02  0.51100000000E-03 0. -1.
    9900012    2    1    2    0    0 -0.11741890239E+01 -0.74910157555E-01  0.92568383715E-01  0.90007788027E+02  0.90000050029E+02 0.  0.
         12    1    1    2    0    0  0.11741890239E+01  0.74910157555E-01 -0.92568383715E-01  0.11802119730E+01  0.00000000000E+00 0. -1.
         11    1    3    3    0    0 -0.64327175556E+00 -0.51050627686E+01 -0.80533819561E+01  0.95567999673E+01  0.51100000000E-03 0. -1.
        -11    1    3    3    0    0  0.31783190474E+02 -0.11864136632E+02  0.23096454597E+02  0.41041139725E+02  0.51100000000E-03 0.  1.
         12    1    3    3    0    0 -0.32314107742E+02  0.16894289243E+02 -0.14950504257E+02  0.39409848335E+02  0.00000000000E+00 0. -1.
</event>
<event>
 7    1  0.4373840E-015  0.9000778E+02  0.7816164E-02  0.1186339E+00
        -11   -1    0    0    0    0  0.00000000000E+00  0.00000000000E+00  0.45593999997E+02  0.45594000000E+02  0.51100000000E-03 0. -1.
         11   -1    0    0    0    0 -0.00000000000E+00 -0.00000000000E+00 -0.45593999997E+02  0.45594000000E+02  0.51100000000E-03 0.  1.
    9900012    2    1    2    0    0  0.30522432222E+00 -0.11366364596E+01  0.88403725460E-01  0.90007779874E+02  0.90000041768E+02 0.  0.
         12    1    1    2    0    0 -0.30522432222E+00  0.11366364596E+01 -0.88403725460E-01  0.11802201265E+01  0.00000000000E+00 0. -1.
         11    1    3    3    0    0 -0.59272998792E+01 -0.61149946379E+01 -0.47491109348E+01  0.97509024306E+01  0.51100000000E-03 0. -1.
        -11    1    3    3    0    0 -0.61782243402E+01 -0.25669113012E+02 -0.24525743180E+02  0.36035897347E+02  0.51100000000E-03 0.  1.
         12    1    3    3    0    0  0.12410748542E+02  0.30647471190E+02  0.29363257840E+02  0.44220980096E+02  0.00000000000E+00 0. -1.
</event>
<event>
 7    1  0.3707147E-015  0.9000775E+02  0.7816164E-02  0.1186339E+00
        -11   -1    0    0    0    0  0.00000000000E+00  0.00000000000E+00  0.45593999997E+02  0.45594000000E+02  0.51100000000E-03 0. -1.
         11   -1    0    0    0    0 -0.00000000000E+00 -0.00000000000E+00 -0.45593999997E+02  0.45594000000E+02  0.51100000000E-03 0.  1.
    9900012    2    1    2    0    0 -0.79643915629E+00 -0.58789717231E+00 -0.64268404479E+00  0.90007753756E+02  0.90000015306E+02 0.  0.
         12    1    1    2    0    0  0.79643915629E+00  0.58789717231E+00  0.64268404479E+00  0.11802462439E+01  0.00000000000E+00 0. -1.
         11    1    3    3    0    0 -0.13182322427E+02  0.30508606064E+02  0.21844913439E+02  0.39771207072E+02  0.51100000000E-03 0. -1.
        -11    1    3    3    0    0 -0.64704542190E+01  0.15606140669E+01 -0.64149389960E+01  0.92441190305E+01  0.51100000000E-03 0.  1.
        -12    1    3    3    0    0  0.18856337490E+02 -0.32657117303E+02 -0.16072658488E+02  0.40992427654E+02  0.00000000000E+00 0.  1.
</event>
<event>
 7    1  0.3707147E-015  0.9000776E+02  0.7816164E-02  0.1186339E+00
        -11   -1    0    0    0    0  0.00000000000E+00  0.00000000000E+00  0.45593999997E+02  0.45594000000E+02  0.51100000000E-03 0.  1.
         11   -1    0    0    0    0 -0.00000000000E+00 -0.00000000000E+00 -0.45593999997E+02  0.45594000000E+02  0.51100000000E-03 0. -1.
    9900012    2    1    2    0    0  0.11239676354E+01  0.27488670707E+00  0.23258332297E+00  0.90007762334E+02  0.90000023996E+02 0.  0.
         12    1    1    2    0    0 -0.11239676354E+01 -0.27488670707E+00 -0.23258332297E+00  0.11802376664E+01  0.00000000000E+00 0. -1.
         11    1    3    3    0    0 -0.29464118048E+01 -0.40853226115E+02  0.37284215276E+01  0.41128682861E+02  0.51100000000E-03 0. -1.
        -11    1    3    3    0    0 -0.81872388882E+01  0.32360493519E+01  0.71062260236E+00  0.88322070155E+01  0.51100000000E-03 0.  1.
        -12    1    3    3    0    0  0.12257618328E+02  0.37892063470E+02 -0.42064608070E+01  0.40046872457E+02  0.00000000000E+00 0.  1.
</event>
<event>
 7    1  0.3707147E-015  0.9000775E+02  0.7816164E-02  0.1186339E+00
        -11   -1    0    0    0    0  0.00000000000E+00  0.00000000000E+00  0.45593999997E+02  0.45594000000E+02  0.51100000000E-03 0. -1.
         11   -1    0    0    0    0 -0.00000000000E+00 -0.00000000000E+00 -0.45593999997E+02  0.45594000000E+02  0.51100000000E-03 0.  1.
    9900012    2    1    2    0    0 -0.92660697430E+00  0.52131684972E+00 -0.51245445168E+00  0.90007753709E+02  0.90000015258E+02 0.  0.
         12    1    1    2    0    0  0.92660697430E+00 -0.52131684972E+00  0.51245445168E+00  0.11802462911E+01  0.00000000000E+00 0. -1.
         11    1    3    3    0    0  0.90301684063E+01  0.17921933726E+02  0.28489919827E+02  0.34848460252E+02  0.51100000000E-03 0. -1.
        -11    1    3    3    0    0 -0.60102623400E+01  0.22251450851E+01  0.96768417467E+01  0.11606713165E+02  0.51100000000E-03 0.  1.
        -12    1    3    3    0    0 -0.39465130406E+01 -0.19625761961E+02 -0.38679216025E+02  0.43552580292E+02  0.00000000000E+00 0.  1.
</event>
<event>
 7    1  0.3707147E-015  0.9000775E+02  0.7816164E-02  0.1186339E+00
        -11   -1    0    0    0    0  0.00000000000E+00  0.00000000000E+00  0.45593999997E+02  0.45594000000E+02  0.51100000000E-03 0.  1.
         11   -1    0    0    0    0 -0.00000000000E+00 -0.00000000000E+00 -0.45593999997E+02  0.45594000000E+02  0.51100000000E-03 0. -1.
    9900012    2    1    2    0    0  0.48174210235E+00 -0.91982467031E-01  0.10735263913E+01  0.90007747849E+02  0.90000009320E+02 0.  0.
         12    1    1    2    0    0 -0.48174210235E+00  0.91982467031E-01 -0.10735263913E+01  0.11802521511E+01  0.00000000000E+00 0. -1.
         11    1    3    3    0    0 -0.25832627023E+01 -0.11532459374E+02 -0.23102632304E+01  0.12041934307E+02  0.51100000000E-03 0. -1.
        -11    1    3    3    0    0 -0.23199933713E+01 -0.31874486247E+02  0.10712487977E+02  0.33706418405E+02  0.51100000000E-03 0.  1.
         12    1    3    3    0    0  0.53849981759E+01  0.43314963154E+02 -0.73286983553E+01  0.44259395137E+02  0.00000000000E+00 0. -1.
</event>
<event>
 7    1  0.3707147E-015  0.9000770E+02  0.7816164E-02  0.1186339E+00
        -11   -1    0    0    0    0  0.00000000000E+00  0.00000000000E+00  0.45593999997E+02  0.45594000000E+02  0.51100000000E-03 0. -1.
         11   -1    0    0    0    0 -0.00000000000E+00 -0.00000000000E+00 -0.45593999997E+02  0.45594000000E+02  0.51100000000E-03 0.  1.
    9900012    2    1    2    0    0 -0.16563042989E+00  0.80335896952E-01 -0.11658600966E+01  0.90007696200E+02  0.89999956990E+02 0.  0.
         12    1    1    2    0    0  0.16563042989E+00 -0.80335896952E-01  0.11658600966E+01  0.11803038001E+01  0.00000000000E+00 0. -1.
         11    1    3    3    0    0 -0.22922674237E+02  0.20999312286E+02 -0.16252752572E+02  0.35079510787E+02  0.51100000000E-03 0. -1.
        -11    1    3    3    0    0 -0.32537703450E+01  0.98822425154E+01 -0.28735765507E+01  0.10793663930E+02  0.51100000000E-03 0.  1.
        -12    1    3    3    0    0  0.26010814152E+02 -0.30801218905E+02  0.17960469026E+02  0.44134521482E+02  0.00000000000E+00 0.  1.
</event>
<event>
 7    1  0.3707147E-015  0.9000780E+02  0.7816164E-02  0.1186339E+00
        -11   -1    0    0    0    0  0.00000000000E+00  0.00000000000E+00  0.45593999997E+02  0.45594000000E+02  0.51100000000E-03 0. -1.
         11   -1    0    0    0    0 -0.00000000000E+00 -0.00000000000E+00 -0.45593999997E+02  0.45594000000E+02  0.51100000000E-03 0.  1.
    9900012    2    1    2    0    0 -0.32982716527E+00  0.43032945783E-02 -0.11331625193E+01  0.90007804350E+02  0.90000066567E+02 0.  0.
         12    1    1    2    0    0  0.32982716527E+00 -0.43032945783E-02  0.11331625193E+01  0.11801956501E+01  0.00000000000E+00 0. -1.
         11    1    3    3    0    0 -0.66827009831E+01 -0.54045994503E+01 -0.20540054427E+01  0.88366920433E+01  0.51100000000E-03 0. -1.
        -11    1    3    3    0    0 -0.22591404127E+02 -0.25930983036E+02 -0.12273836112E+02  0.36516222078E+02  0.51100000000E-03 0.  1.
         12    1    3    3    0    0  0.28944277945E+02  0.31339885781E+02  0.13194679036E+02  0.44654890229E+02  0.00000000000E+00 0. -1.
</event>
<event>
 7    1  0.3707147E-015  0.9000784E+02  0.7816164E-02  0.1186339E+00
        -11   -1    0    0    0    0  0.00000000000E+00  0.00000000000E+00  0.45593999997E+02  0.45594000000E+02  0.51100000000E-03 0.  1.
         11   -1    0    0    0    0 -0.00000000000E+00 -0.00000000000E+00 -0.45593999997E+02  0.45594000000E+02  0.51100000000E-03 0. -1.
    9900012    2    1    2    0    0  0.10191535865E+01  0.51834657287E+00 -0.29227285578E+00  0.90007838729E+02  0.90000101400E+02 0.  0.
         12    1    1    2    0    0 -0.10191535865E+01 -0.51834657287E+00  0.29227285578E+00  0.11801612707E+01  0.00000000000E+00 0. -1.
         11    1    3    3    0    0 -0.38069285344E+01 -0.30266482506E+02 -0.17228385388E+02  0.35033839805E+02  0.51100000000E-03 0. -1.
        -11    1    3    3    0    0  0.15093031380E+01 -0.81351527924E+01 -0.54930942583E+01  0.99314043171E+01  0.51100000000E-03 0.  1.
        -12    1    3    3    0    0  0.33167789830E+01  0.38919981871E+02  0.22429206790E+02  0.45042594607E+02  0.00000000000E+00 0.  1.
</event>
<event>
 7    1  0.3707147E-015  0.9000773E+02  0.7816164E-02  0.1186339E+00
        -11   -1    0    0    0    0  0.00000000000E+00  0.00000000000E+00  0.45593999997E+02  0.45594000000E+02  0.51100000000E-03 0. -1.
         11   -1    0    0    0    0 -0.00000000000E+00 -0.00000000000E+00 -0.45593999997E+02  0.45594000000E+02  0.51100000000E-03 0.  1.
    9900012    2    1    2    0    0 -0.51339722504E+00 -0.71602820957E+00 -0.78534873413E+00  0.90007726412E+02  0.89999987601E+02 0.  0.
         12    1    1    2    0    0  0.51339722504E+00  0.71602820957E+00  0.78534873413E+00  0.11802735877E+01  0.00000000000E+00 0. -1.
         11    1    3    3    0    0  0.10180224302E+01  0.63856264064E+01  0.48210228381E+00  0.64842129163E+01  0.51100000000E-03 0. -1.
        -11    1    3    3    0    0 -0.99560180431E+01  0.33491971574E+02  0.16227329292E+02  0.38524805922E+02  0.51100000000E-03 0.  1.
         12    1    3    3    0    0  0.84245983878E+01 -0.40593626189E+02 -0.17494780310E+02  0.44998707574E+02  0.00000000000E+00 0. -1.
</event>
<event>
 7    1  0.3707147E-015  0.9000754E+02  0.7816164E-02  0.1186339E+00
        -11   -1    0    0    0    0  0.00000000000E+00  0.00000000000E+00  0.45593999997E+02  0.45594000000E+02  0.51100000000E-03 0. -1.
         11   -1    0    0    0    0 -0.00000000000E+00 -0.00000000000E+00 -0.45593999997E+02  0.45594000000E+02  0.51100000000E-03 0.  1.
    9900012    2    1    2    0    0  0.86115722182E+00  0.78000680211E+00 -0.20853818193E+00  0.90007537995E+02  0.89999796696E+02 0.  0.
         12    1    1    2    0    0 -0.86115722182E+00 -0.78000680211E+00  0.20853818193E+00  0.11804620050E+01  0.00000000000E+00 0. -1.
         11    1    3    3    0    0 -0.75815991331E+01  0.21676017615E+02  0.26557220412E+02  0.35108636279E+02  0.51100000000E-03 0. -1.
        -11    1    3    3    0    0 -0.96621956524E+01 -0.34500121491E+01  0.72767096766E+01  0.12578199896E+02  0.51100000000E-03 0.  1.
        -12    1    3    3    0    0  0.18104952007E+02 -0.17445998664E+02 -0.34042468271E+02  0.42320701820E+02  0.00000000000E+00 0.  1.
</event>
<event>
 7    1  0.3707147E-015  0.9000771E+02  0.7816164E-02  0.1186339E+00
        -11   -1    0    0    0    0  0.00000000000E+00  0.00000000000E+00  0.45593999997E+02  0.45594000000E+02  0.51100000000E-03 0. -1.
         11   -1    0    0    0    0 -0.00000000000E+00 -0.00000000000E+00 -0.45593999997E+02  0.45594000000E+02  0.51100000000E-03 0.  1.
    9900012    2    1    2    0    0 -0.46523358965E+00 -0.10541448751E+01  0.25579635008E+00  0.90007705340E+02  0.89999966251E+02 0.  0.
         12    1    1    2    0    0  0.46523358965E+00  0.10541448751E+01 -0.25579635008E+00  0.11802946595E+01  0.00000000000E+00 0. -1.
         11    1    3    3    0    0 -0.15431647646E+02  0.28665742673E+02 -0.13996168112E+02  0.35436609236E+02  0.51100000000E-03 0. -1.
        -11    1    3    3    0    0 -0.94013755091E+01  0.33258517493E+01 -0.24117627881E+01  0.10259812441E+02  0.51100000000E-03 0.  1.
        -12    1    3    3    0    0  0.24367789566E+02 -0.33045739297E+02  0.16663727250E+02  0.44311283663E+02  0.00000000000E+00 0.  1.
</event>
<event>
 7    1  0.3707632E-015  0.9000771E+02  0.7816164E-02  0.1186339E+00
        -11   -1    0    0    0    0  0.00000000000E+00  0.00000000000E+00  0.45593999997E+02  0.45594000000E+02  0.51100000000E-03 0.  1.
         11   -1    0    0    0    0 -0.00000000000E+00 -0.00000000000E+00 -0.45593999997E+02  0.45594000000E+02  0.51100000000E-03 0. -1.
    9900012    2    1    2    0    0  0.46056893552E+00 -0.10692082117E+01  0.19429951819E+00  0.90007710948E+02  0.89999971932E+02 0.  0.
         12    1    1    2    0    0 -0.46056893552E+00  0.10692082117E+01 -0.19429951819E+00  0.11802890523E+01  0.00000000000E+00 0. -1.
         11    1    3    3    0    0  0.96753884247E+01  0.19521311656E+01 -0.10708636001E+01  0.99282781169E+01  0.51100000000E-03 0. -1.
        -11    1    3    3    0    0  0.21361480552E+01  0.36859501983E+02  0.87512908825E+01  0.37944315877E+02  0.51100000000E-03 0.  1.
         12    1    3    3    0    0 -0.11350967544E+02 -0.39880841361E+02 -0.74861277643E+01  0.42135116954E+02  0.00000000000E+00 0. -1.
</event>
<event>
 7    1  0.3707147E-015  0.9000774E+02  0.7816164E-02  0.1186339E+00
        -11   -1    0    0    0    0  0.00000000000E+00  0.00000000000E+00  0.45593999997E+02  0.45594000000E+02  0.51100000000E-03 0. -1.
         11   -1    0    0    0    0 -0.00000000000E+00 -0.00000000000E+00 -0.45593999997E+02  0.45594000000E+02  0.51100000000E-03 0.  1.
    9900012    2    1    2    0    0 -0.61412741639E+00  0.36836220762E+00 -0.93817405498E+00  0.90007739962E+02  0.90000001330E+02 0.  0.
         12    1    1    2    0    0  0.61412741639E+00 -0.36836220762E+00  0.93817405498E+00  0.11802600379E+01  0.00000000000E+00 0. -1.
         11    1    3    3    0    0 -0.23600225597E+01 -0.76740412057E+01 -0.28534900663E+01  0.85207406209E+01  0.51100000000E-03 0. -1.
        -11    1    3    3    0    0  0.33631799894E+02 -0.33965059965E+01  0.23635214639E+02  0.41246303936E+02  0.51100000000E-03 0.  1.
         12    1    3    3    0    0 -0.31885904751E+02  0.11438909410E+02 -0.21719898628E+02  0.40240695405E+02  0.00000000000E+00 0. -1.
</event>
<event>
 7    1  0.3707147E-015  0.9000779E+02  0.7816164E-02  0.1186339E+00
        -11   -1    0    0    0    0  0.00000000000E+00  0.00000000000E+00  0.45593999997E+02  0.45594000000E+02  0.51100000000E-03 0.  1.
         11   -1    0    0    0    0 -0.00000000000E+00 -0.00000000000E+00 -0.45593999997E+02  0.45594000000E+02  0.51100000000E-03 0. -1.
    9900012    2    1    2    0    0 -0.95145321749E+00 -0.64105053911E-01  0.69535805156E+00  0.90007790060E+02  0.90000052089E+02 0.  0.
         12    1    1    2    0    0  0.95145321749E+00  0.64105053911E-01 -0.69535805156E+00  0.11802099402E+01  0.00000000000E+00 0. -1.
         11    1    3    3    0    0 -0.17379649866E+01  0.57064201351E+01 -0.68862916943E+01  0.91106951773E+01  0.51100000000E-03 0. -1.
        -11    1    3    3    0    0 -0.31712923982E+02 -0.25210942567E+02 -0.53835603739E+01  0.40869106856E+02  0.51100000000E-03 0.  1.
         12    1    3    3    0    0  0.32499435751E+02  0.19440417378E+02  0.12965210120E+02  0.40027988027E+02  0.00000000000E+00 0. -1.
</event>
<event>
 7    1  0.3707147E-015  0.9000777E+02  0.7816164E-02  0.1186339E+00
        -11   -1    0    0    0    0  0.00000000000E+00  0.00000000000E+00  0.45593999997E+02  0.45594000000E+02  0.51100000000E-03 0.  1.
         11   -1    0    0    0    0 -0.00000000000E+00 -0.00000000000E+00 -0.45593999997E+02  0.45594000000E+02  0.51100000000E-03 0. -1.
    9900012    2    1    2    0    0 -0.59877926232E+00  0.86793379666E+00 -0.53018441267E+00  0.90007770704E+02  0.90000032477E+02 0.  0.
         12    1    1    2    0    0  0.59877926232E+00 -0.86793379666E+00  0.53018441267E+00  0.11802292963E+01  0.00000000000E+00 0. -1.
         11    1    3    3    0    0  0.50021785135E+01  0.36071838253E+01  0.70047626674E+01  0.93327522906E+01  0.51100000000E-03 0. -1.
        -11    1    3    3    0    0  0.97887274483E+01  0.26607875936E+02  0.22311614509E+02  0.36077782486E+02  0.51100000000E-03 0.  1.
         12    1    3    3    0    0 -0.15389685224E+02 -0.29347125964E+02 -0.29846561589E+02  0.44597235927E+02  0.00000000000E+00 0. -1.
</event>
<event>
 7    1  0.3707147E-015  0.9000773E+02  0.7816164E-02  0.1186339E+00
        -11   -1    0    0    0    0  0.00000000000E+00  0.00000000000E+00  0.45593999997E+02  0.45594000000E+02  0.51100000000E-03 0. -1.
         11   -1    0    0    0    0 -0.00000000000E+00 -0.00000000000E+00 -0.45593999997E+02  0.45594000000E+02  0.51100000000E-03 0.  1.
    9900012    2    1    2    0    0  0.94315307066E+00  0.66671330617E+00 -0.24287581677E+00  0.90007731806E+02  0.89999993066E+02 0.  0.
         12    1    1    2    0    0 -0.94315307066E+00 -0.66671330617E+00  0.24287581677E+00  0.11802681940E+01  0.00000000000E+00 0. -1.
         11    1    3    3    0    0 -0.91032140432E+00 -0.78940733979E+01 -0.10637076235E+02  0.13277517500E+02  0.51100000000E-03 0. -1.
        -11    1    3    3    0    0 -0.31690456194E+01 -0.14612221644E+02 -0.27920592039E+02  0.31672059162E+02  0.51100000000E-03 0.  1.
         12    1    3    3    0    0  0.50225200944E+01  0.23173008348E+02  0.38314792457E+02  0.45058155144E+02  0.00000000000E+00 0. -1.
</event>
<event>
 7    1  0.3707147E-015  0.9000775E+02  0.7816164E-02  0.1186339E+00
        -11   -1    0    0    0    0  0.00000000000E+00  0.00000000000E+00  0.45593999997E+02  0.45594000000E+02  0.51100000000E-03 0. -1.
         11   -1    0    0    0    0 -0.00000000000E+00 -0.00000000000E+00 -0.45593999997E+02  0.45594000000E+02  0.51100000000E-03 0.  1.
    9900012    2    1    2    0    0  0.63290833942E+00  0.61304963854E+00 -0.78522590609E+00  0.90007753183E+02  0.90000014725E+02 0.  0.
         12    1    1    2    0    0 -0.63290833942E+00 -0.61304963854E+00  0.78522590609E+00  0.11802468170E+01  0.00000000000E+00 0. -1.
         11    1    3    3    0    0  0.95558483633E+01 -0.15212291421E+01  0.13941391080E+01  0.97760932974E+01  0.51100000000E-03 0. -1.
        -11    1    3    3    0    0  0.27674802922E+02  0.22389539054E+02 -0.11438289349E+02  0.37390114193E+02  0.51100000000E-03 0.  1.
         12    1    3    3    0    0 -0.36597742946E+02 -0.20255260274E+02  0.92589243349E+01  0.42841545693E+02  0.00000000000E+00 0. -1.
</event>
<event>
 7    1  0.4187278E-015  0.9000782E+02  0.7816164E-02  0.1186339E+00
        -11   -1    0    0    0    0  0.00000000000E+00  0.00000000000E+00  0.45593999997E+02  0.45594000000E+02  0.51100000000E-03 0.  1.
         11   -1    0    0    0    0 -0.00000000000E+00 -0.00000000000E+00 -0.45593999997E+02  0.45594000000E+02  0.51100000000E-03 0. -1.
    9900012    2    1    2    0    0 -0.48971967259E+00  0.28690002981E+00  0.10347394780E+01  0.90007820873E+02  0.90000083308E+02 0.  0.
         12    1    1    2    0    0  0.48971967259E+00 -0.28690002981E+00 -0.10347394780E+01  0.11801791271E+01  0.00000000000E+00 0. -1.
         11    1    3    3    0    0 -0.39836812389E+01 -0.81514780298E+01 -0.24784978880E+00  0.90762183790E+01  0.51100000000E-03 0. -1.
        -11    1    3    3    0    0  0.31900314104E+01 -0.60657404882E+01  0.39480833861E+02  0.40071258412E+02  0.51100000000E-03 0.  1.
         12    1    3    3    0    0  0.30393015586E+00  0.14504118548E+02 -0.38198244595E+02  0.40860344082E+02  0.00000000000E+00 0. -1.
</event>
<event>
 7    1  0.3707147E-015  0.9000793E+02  0.7816164E-02  0.1186339E+00
        -11   -1    0    0    0    0  0.00000000000E+00  0.00000000000E+00  0.45593999997E+02  0.45594000000E+02  0.51100000000E-03 0. -1.
         11   -1    0    0    0    0 -0.00000000000E+00 -0.00000000000E+00 -0.45593999997E+02  0.45594000000E+02  0.51100000000E-03 0.  1.
    9900012    2    1    2    0    0  0.32438105873E+00 -0.79577103012E+00 -0.80875868186E+00  0.90007929998E+02  0.90000193874E+02 0.  0.
         12    1    1    2    0    0 -0.32438105873E+00  0.79577103012E+00  0.80875868186E+00  0.11800700018E+01  0.00000000000E+00 0. -1.
         11    1    3    3    0    0  0.69547381609E+00 -0.36760554625E+02 -0.20609136328E+02  0.42149241519E+02  0.51100000000E-03 0. -1.
        -11    1    3    3    0    0  0.41767578293E+01  0.77096673067E+01 -0.49088155381E+01  0.10048917663E+02  0.51100000000E-03 0.  1.
        -12    1    3    3    0    0 -0.45478505867E+01  0.28255116288E+02  0.24709193184E+02  0.37809770817E+02  0.00000000000E+00 0.  1.
</event>
<event>
 7    1  0.3707147E-015  0.9000754E+02  0.7816164E-02  0.1186339E+00
        -11   -1    0    0    0    0  0.00000000000E+00  0.00000000000E+00  0.45593999997E+02  0.45594000000E+02  0.51100000000E-03 0.  1.
         11   -1    0    0    0    0 -0.00000000000E+00 -0.00000000000E+00 -0.45593999997E+02  0.45594000000E+02  0.51100000000E-03 0. -1.
    9900012    2    1    2    0    0 -0.33682713613E+00 -0.74016515523E+00  0.85568532779E+00  0.90007536381E+02  0.89999795061E+02 0.  0.
         12    1    1    2    0    0  0.33682713613E+00  0.74016515523E+00 -0.85568532779E+00  0.11804636194E+01  0.00000000000E+00 0. -1.
         11    1    3    3    0    0 -0.32995460006E+01 -0.89411499694E+01  0.24170859660E+01  0.98322668502E+01  0.51100000000E-03 0. -1.
        -11    1    3    3    0    0 -0.15014619035E+02 -0.30042783877E+02  0.12199450571E+02  0.35732817442E+02  0.51100000000E-03 0.  1.
         12    1    3    3    0    0  0.17977337899E+02  0.38243768691E+02 -0.13760851209E+02  0.44442452089E+02  0.00000000000E+00 0. -1.
</event>
<event>
 7    1  0.3707147E-015  0.9000751E+02  0.7816164E-02  0.1186340E+00
        -11   -1    0    0    0    0  0.00000000000E+00  0.00000000000E+00  0.45593999997E+02  0.45594000000E+02  0.51100000000E-03 0. -1.
         11   -1    0    0    0    0 -0.00000000000E+00 -0.00000000000E+00 -0.45593999997E+02  0.45594000000E+02  0.51100000000E-03 0.  1.
    9900012    2    1    2    0    0 -0.91145234405E+00  0.68436322263E+00 -0.30734959336E+00  0.90007507658E+02  0.89999765959E+02 0.  0.
         12    1    1    2    0    0  0.91145234405E+00 -0.68436322263E+00  0.30734959336E+00  0.11804923416E+01  0.00000000000E+00 0. -1.
         11    1    3    3    0    0  0.16798075961E+01 -0.37781716914E+02 -0.13157852708E+02  0.40042589510E+02  0.51100000000E-03 0. -1.
        -11    1    3    3    0    0  0.49016565217E+01 -0.19152934173E+01  0.65684421978E+01  0.84165918695E+01  0.51100000000E-03 0.  1.
        -12    1    3    3    0    0 -0.74929164618E+01  0.40381373554E+02  0.62820609171E+01  0.41548326279E+02  0.00000000000E+00 0.  1.
</event>
<event>
 7    1  0.3707147E-015  0.9000770E+02  0.7816164E-02  0.1186339E+00
        -11   -1    0    0    0    0  0.00000000000E+00  0.00000000000E+00  0.45593999997E+02  0.45594000000E+02  0.51100000000E-03 0.  1.
         11   -1    0    0    0    0 -0.00000000000E+00 -0.00000000000E+00 -0.45593999997E+02  0.45594000000E+02  0.51100000000E-03 0. -1.
    9900012    2    1    2    0    0 -0.51390257689E+00 -0.29292821615E+00  0.10213688877E+01  0.90007704612E+02  0.89999965513E+02 0.  0.
         12    1    1    2    0    0  0.51390257689E+00  0.29292821615E+00 -0.10213688877E+01  0.11802953881E+01  0.00000000000E+00 0. -1.
         11    1    3    3    0    0 -0.12580000341E+02 -0.66104548667E+01 -0.17590160258E+01  0.14319520235E+02  0.51100000000E-03 0. -1.
        -11    1    3    3    0    0 -0.96744591575E+01 -0.26028574831E+02  0.18818078992E+02  0.33544030243E+02  0.51100000000E-03 0.  1.
         12    1    3    3    0    0  0.21740556922E+02  0.32346101482E+02 -0.16037694078E+02  0.42144154134E+02  0.00000000000E+00 0. -1.
</event>
<event>
 7    1  0.4370729E-015  0.9000882E+02  0.7816164E-02  0.1186337E+00
        -11   -1    0    0    0    0  0.00000000000E+00  0.00000000000E+00  0.45593999997E+02  0.45594000000E+02  0.51100000000E-03 0.  1.
         11   -1    0    0    0    0 -0.00000000000E+00 -0.00000000000E+00 -0.45593999997E+02  0.45594000000E+02  0.51100000000E-03 0. -1.
    9900012    2    1    2    0    0  0.11121228573E+01 -0.34972542431E+00  0.17706200212E+00  0.90008815504E+02  0.90001091062E+02 0.  0.
         12    1    1    2    0    0 -0.11121228573E+01  0.34972542431E+00 -0.17706200212E+00  0.11791844956E+01  0.00000000000E+00 0. -1.
         11    1    3    3    0    0  0.27996628160E+01  0.59706076564E+01  0.61454984925E+01  0.90140678749E+01  0.51100000000E-03 0. -1.
        -11    1    3    3    0    0 -0.38621440900E+02  0.68875025471E+01  0.66503437129E+01  0.39790456900E+02  0.51100000000E-03 0.  1.
         12    1    3    3    0    0  0.36933900941E+02 -0.13207835628E+02 -0.12618780203E+02  0.41204290730E+02  0.00000000000E+00 0. -1.
</event>
<event>
 7    1  0.3707147E-015  0.9000782E+02  0.7816164E-02  0.1186339E+00
        -11   -1    0    0    0    0  0.00000000000E+00  0.00000000000E+00  0.45593999997E+02  0.45594000000E+02  0.51100000000E-03 0.  1.
         11   -1    0    0    0    0 -0.00000000000E+00 -0.00000000000E+00 -0.45593999997E+02  0.45594000000E+02  0.51100000000E-03 0. -1.
    9900012    2    1    2    0    0 -0.96250759971E+00  0.62470170587E+00  0.27596021054E+00  0.90007819023E+02  0.90000081434E+02 0.  0.
         12    1    1    2    0    0  0.96250759971E+00 -0.62470170587E+00 -0.27596021054E+00  0.11801809771E+01  0.00000000000E+00 0. -1.
         11    1    3    3    0    0  0.36358154149E+01  0.97463021417E+01  0.92519829951E+00  0.10443445376E+02  0.51100000000E-03 0. -1.
        -11    1    3    3    0    0  0.80764320569E+01  0.31702544326E+02 -0.12791323044E+02  0.35126884533E+02  0.51100000000E-03 0.  1.
         12    1    3    3    0    0 -0.12674755072E+02 -0.40824144762E+02  0.12142084955E+02  0.44437489114E+02  0.00000000000E+00 0. -1.
</event>
<event>
 8    1  0.3707147E-015  0.9000755E+02  0.7816164E-02  0.1186339E+00
        -11   -1    0    0    0    0  0.00000000000E+00  0.00000000000E+00  0.45593999997E+02  0.45594000000E+02  0.51100000000E-03 0. -1.
         11   -1    0    0    0    0 -0.00000000000E+00 -0.00000000000E+00 -0.45593999997E+02  0.45594000000E+02  0.51100000000E-03 0.  1.
    9900012    2    1    2    0    0 -0.54431736218E-01 -0.11007943054E+01  0.42278950144E+00  0.90007550137E+02  0.89999808999E+02 0.  0.
         23    2    3    3    0    0  0.16836930991E+02  0.15743898005E+02 -0.16179922963E+02  0.60943623097E+02  0.54046116599E+02 0.  0.
         12    1    1    2    0    0  0.54431736218E-01  0.11007943054E+01 -0.42278950144E+00  0.11804498631E+01  0.00000000000E+00 0. -1.
         11    1    4    4    0    0  0.41112755404E+01 -0.12332291355E+02  0.13080893304E+02  0.18441739791E+02  0.51100000000E-03 0. -1.
        -11    1    4    4    0    0  0.12725655451E+02  0.28076189360E+02 -0.29260816267E+02  0.42501883305E+02  0.51100000000E-03 0.  1.
         12    1    3    3    0    0 -0.16891362728E+02 -0.16844692310E+02  0.16602712464E+02  0.29063927040E+02  0.00000000000E+00 0. -1.
</event>
<event>
 7    1  0.3707147E-015  0.9000798E+02  0.7816164E-02  0.1186339E+00
        -11   -1    0    0    0    0  0.00000000000E+00  0.00000000000E+00  0.45593999997E+02  0.45594000000E+02  0.51100000000E-03 0. -1.
         11   -1    0    0    0    0 -0.00000000000E+00 -0.00000000000E+00 -0.45593999997E+02  0.45594000000E+02  0.51100000000E-03 0.  1.
    9900012    2    1    2    0    0  0.52351446829E+00  0.23693751727E+00 -0.10306457767E+01  0.90007984109E+02  0.90000248699E+02 0.  0.
         12    1    1    2    0    0 -0.52351446829E+00 -0.23693751727E+00  0.10306457767E+01  0.11800158908E+01  0.00000000000E+00 0. -1.
         11    1    3    3    0    0 -0.12848085706E+01 -0.12329824361E+02  0.32690860229E+02  0.34962374699E+02  0.51100000000E-03 0. -1.
        -11    1    3    3    0    0 -0.10908300386E+02 -0.73990050959E+00  0.51131525787E+01  0.12069912992E+02  0.51100000000E-03 0.  1.
        -12    1    3    3    0    0  0.12716623425E+02  0.13306662388E+02 -0.38834658585E+02  0.42975696418E+02  0.00000000000E+00 0.  1.
</event>
<event>
 7    1  0.3707147E-015  0.9000758E+02  0.7816164E-02  0.1186339E+00
        -11   -1    0    0    0    0  0.00000000000E+00  0.00000000000E+00  0.45593999997E+02  0.45594000000E+02  0.51100000000E-03 0.  1.
         11   -1    0    0    0    0 -0.00000000000E+00 -0.00000000000E+00 -0.45593999997E+02  0.45594000000E+02  0.51100000000E-03 0. -1.
    9900012    2    1    2    0    0  0.36001589280E+00  0.10748121421E+01 -0.32949884180E+00  0.90007575470E+02  0.89999834666E+02 0.  0.
         12    1    1    2    0    0 -0.36001589280E+00 -0.10748121421E+01  0.32949884180E+00  0.11804245298E+01  0.00000000000E+00 0. -1.
         11    1    3    3    0    0 -0.58998956563E+01  0.70209899608E+01  0.21155558693E+01  0.94116229037E+01  0.51100000000E-03 0. -1.
        -11    1    3    3    0    0  0.28580241119E+02  0.78318906715E+01  0.27750256400E+02  0.40598588947E+02  0.51100000000E-03 0.  1.
         12    1    3    3    0    0 -0.22320329570E+02 -0.13778068490E+02 -0.30195311111E+02  0.39997363620E+02  0.00000000000E+00 0. -1.
</event>
<event>
 7    1  0.3707147E-015  0.9000779E+02  0.7816164E-02  0.1186339E+00
        -11   -1    0    0    0    0  0.00000000000E+00  0.00000000000E+00  0.45593999997E+02  0.45594000000E+02  0.51100000000E-03 0.  1.
         11   -1    0    0    0    0 -0.00000000000E+00 -0.00000000000E+00 -0.45593999997E+02  0.45594000000E+02  0.51100000000E-03 0. -1.
    9900012    2    1    2    0    0 -0.11598992506E+01 -0.18691216701E+00 -0.11226932087E+00  0.90007785261E+02  0.90000047226E+02 0.  0.
         12    1    1    2    0    0  0.11598992506E+01  0.18691216701E+00  0.11226932087E+00  0.11802147390E+01  0.00000000000E+00 0. -1.
         11    1    3    3    0    0  0.32585300804E+01  0.85572037729E+01 -0.58684054432E+00  0.91754093522E+01  0.51100000000E-03 0. -1.
        -11    1    3    3    0    0  0.24120595336E+02  0.24410832727E+02  0.10623795719E+02  0.35924321977E+02  0.51100000000E-03 0.  1.
         12    1    3    3    0    0 -0.28539024667E+02 -0.33154948667E+02 -0.10149224496E+02  0.44908053931E+02  0.00000000000E+00 0. -1.
</event>
<event>
 7    1  0.3707147E-015  0.9000772E+02  0.7816164E-02  0.1186339E+00
        -11   -1    0    0    0    0  0.00000000000E+00  0.00000000000E+00  0.45593999997E+02  0.45594000000E+02  0.51100000000E-03 0.  1.
         11   -1    0    0    0    0 -0.00000000000E+00 -0.00000000000E+00 -0.45593999997E+02  0.45594000000E+02  0.51100000000E-03 0. -1.
    9900012    2    1    2    0    0  0.73360204583E+00  0.62966776308E+00 -0.67705444651E+00  0.90007721992E+02  0.89999983122E+02 0.  0.
         12    1    1    2    0    0 -0.73360204583E+00 -0.62966776308E+00  0.67705444651E+00  0.11802780084E+01  0.00000000000E+00 0. -1.
         11    1    3    3    0    0  0.84777060617E+01 -0.17071232471E+01  0.39309901574E+01  0.94993922820E+01  0.51100000000E-03 0. -1.
        -11    1    3    3    0    0  0.26458573089E+02 -0.89586312818E+01  0.22139478032E+02  0.35643648132E+02  0.51100000000E-03 0.  1.
         12    1    3    3    0    0 -0.34202677105E+02  0.11295422292E+02 -0.26747522636E+02  0.44864681578E+02  0.00000000000E+00 0. -1.
</event>
<event>
 7    1  0.3707147E-015  0.9000785E+02  0.7816164E-02  0.1186339E+00
        -11   -1    0    0    0    0  0.00000000000E+00  0.00000000000E+00  0.45593999997E+02  0.45594000000E+02  0.51100000000E-03 0.  1.
         11   -1    0    0    0    0 -0.00000000000E+00 -0.00000000000E+00 -0.45593999997E+02  0.45594000000E+02  0.51100000000E-03 0. -1.
    9900012    2    1    2    0    0 -0.10435857549E+01 -0.51347359331E+00 -0.20008328351E+00  0.90007847603E+02  0.90000110392E+02 0.  0.
         12    1    1    2    0    0  0.10435857549E+01  0.51347359331E+00  0.20008328351E+00  0.11801523966E+01  0.00000000000E+00 0. -1.
         11    1    3    3    0    0  0.20461084352E+01 -0.13971323700E+02 -0.36846400691E+02  0.39459367580E+02  0.51100000000E-03 0. -1.
        -11    1    3    3    0    0 -0.74293932718E+01  0.54818262528E+01 -0.31299182102E+01  0.97489841376E+01  0.51100000000E-03 0.  1.
        -12    1    3    3    0    0  0.43396990816E+01  0.79760238534E+01  0.39776235618E+02  0.40799495886E+02  0.00000000000E+00 0.  1.
</event>
<event>
 7    1  0.3707147E-015  0.9000772E+02  0.7816164E-02  0.1186339E+00
        -11   -1    0    0    0    0  0.00000000000E+00  0.00000000000E+00  0.45593999997E+02  0.45594000000E+02  0.51100000000E-03 0. -1.
         11   -1    0    0    0    0 -0.00000000000E+00 -0.00000000000E+00 -0.45593999997E+02  0.45594000000E+02  0.51100000000E-03 0.  1.
    9900012    2    1    2    0    0 -0.69266716478E+00  0.93755267859E+00 -0.18513044371E+00  0.90007717785E+02  0.89999978860E+02 0.  0.
         12    1    1    2    0    0  0.69266716478E+00 -0.93755267859E+00  0.18513044371E+00  0.11802822152E+01  0.00000000000E+00 0. -1.
         11    1    3    3    0    0  0.98877901858E+00  0.13285409075E+02  0.37591010230E+01  0.13842348753E+02  0.51100000000E-03 0. -1.
        -11    1    3    3    0    0 -0.46408286657E+01 -0.36083343821E+02 -0.25127316593E+02  0.44214556782E+02  0.51100000000E-03 0.  1.
         12    1    3    3    0    0  0.29593824824E+01  0.23735487425E+02  0.21183085126E+02  0.31950812250E+02  0.00000000000E+00 0. -1.
</event>
<event>
 7    1  0.3707147E-015  0.9000780E+02  0.7816164E-02  0.1186339E+00
        -11   -1    0    0    0    0  0.00000000000E+00  0.00000000000E+00  0.45593999997E+02  0.45594000000E+02  0.51100000000E-03 0.  1.
         11   -1    0    0    0    0 -0.00000000000E+00 -0.00000000000E+00 -0.45593999997E+02  0.45594000000E+02  0.51100000000E-03 0. -1.
    9900012    2    1    2    0    0 -0.12713865036E+00 -0.95622406099E+00  0.67995080583E+00  0.90007804343E+02  0.90000066560E+02 0.  0.
         12    1    1    2    0    0  0.12713865036E+00  0.95622406099E+00 -0.67995080583E+00  0.11801956573E+01  0.00000000000E+00 0. -1.
         11    1    3    3    0    0  0.88285297984E+01 -0.69913762080E+01  0.45336569338E+01  0.12139865120E+02  0.51100000000E-03 0. -1.
        -11    1    3    3    0    0  0.14734581753E+01  0.74322602031E+01  0.35927957590E+02  0.36718220375E+02  0.51100000000E-03 0.  1.
         12    1    3    3    0    0 -0.10429126624E+02 -0.13971080561E+01 -0.39781663718E+02  0.41149718847E+02  0.00000000000E+00 0. -1.
</event>
<event>
 7    1  0.3707147E-015  0.9000776E+02  0.7816164E-02  0.1186339E+00
        -11   -1    0    0    0    0  0.00000000000E+00  0.00000000000E+00  0.45593999997E+02  0.45594000000E+02  0.51100000000E-03 0.  1.
         11   -1    0    0    0    0 -0.00000000000E+00 -0.00000000000E+00 -0.45593999997E+02  0.45594000000E+02  0.51100000000E-03 0. -1.
    9900012    2    1    2    0    0 -0.10465441236E+01 -0.40450556075E+00  0.36616534415E+00  0.90007764256E+02  0.90000025945E+02 0.  0.
         12    1    1    2    0    0  0.10465441236E+01  0.40450556075E+00 -0.36616534415E+00  0.11802357436E+01  0.00000000000E+00 0. -1.
         11    1    3    3    0    0  0.40332410289E+01 -0.37686579525E+01 -0.72272150167E+01  0.90940889109E+01  0.51100000000E-03 0. -1.
        -11    1    3    3    0    0  0.27706025832E+02 -0.10081308526E+02  0.27458803992E+02  0.40289484557E+02  0.51100000000E-03 0.  1.
         12    1    3    3    0    0 -0.32785810984E+02  0.13445460917E+02 -0.19865423631E+02  0.40624190788E+02  0.00000000000E+00 0. -1.
</event>
<event>
 7    1  0.3707147E-015  0.9000772E+02  0.7816164E-02  0.1186339E+00
        -11   -1    0    0    0    0  0.00000000000E+00  0.00000000000E+00  0.45593999997E+02  0.45594000000E+02  0.51100000000E-03 0. -1.
         11   -1    0    0    0    0 -0.00000000000E+00 -0.00000000000E+00 -0.45593999997E+02  0.45594000000E+02  0.51100000000E-03 0.  1.
    9900012    2    1    2    0    0  0.60170454829E+00 -0.42446075764E+00 -0.92241558029E+00  0.90007717915E+02  0.89999978991E+02 0.  0.
         12    1    1    2    0    0 -0.60170454829E+00  0.42446075764E+00  0.92241558029E+00  0.11802820853E+01  0.00000000000E+00 0. -1.
         11    1    3    3    0    0  0.28334975178E+01  0.99692818704E+01 -0.53309708496E+01  0.11654807577E+02  0.51100000000E-03 0. -1.
        -11    1    3    3    0    0 -0.26421534303E+02  0.23889930815E+02 -0.29949431752E+01  0.35746271891E+02  0.51100000000E-03 0.  1.
         12    1    3    3    0    0  0.24189741333E+02 -0.34283673443E+02  0.74034984445E+01  0.42606638447E+02  0.00000000000E+00 0. -1.
</event>
<event>
 7    1  0.3707147E-015  0.9000723E+02  0.7816164E-02  0.1186340E+00
        -11   -1    0    0    0    0  0.00000000000E+00  0.00000000000E+00  0.45593999997E+02  0.45594000000E+02  0.51100000000E-03 0. -1.
         11   -1    0    0    0    0 -0.00000000000E+00 -0.00000000000E+00 -0.45593999997E+02  0.45594000000E+02  0.51100000000E-03 0.  1.
    9900012    2    1    2    0    0 -0.79002664972E+00 -0.82344572308E+00 -0.30333042252E+00  0.90007231474E+02  0.89999486128E+02 0.  0.
         12    1    1    2    0    0  0.79002664972E+00  0.82344572308E+00  0.30333042252E+00  0.11807685257E+01  0.00000000000E+00 0. -1.
         11    1    3    3    0    0  0.80960803328E+01 -0.28366756621E+02 -0.20344958137E+02  0.35834853422E+02  0.51100000000E-03 0. -1.
        -11    1    3    3    0    0 -0.23908613713E+01 -0.31552529922E+01 -0.99855974531E+01  0.10741694294E+02  0.51100000000E-03 0.  1.
        -12    1    3    3    0    0 -0.64952456113E+01  0.30698563890E+02  0.30027225167E+02  0.43430683758E+02  0.00000000000E+00 0.  1.
</event>
<event>
 7    1  0.3707147E-015  0.9000772E+02  0.7816164E-02  0.1186339E+00
        -11   -1    0    0    0    0  0.00000000000E+00  0.00000000000E+00  0.45593999997E+02  0.45594000000E+02  0.51100000000E-03 0. -1.
         11   -1    0    0    0    0 -0.00000000000E+00 -0.00000000000E+00 -0.45593999997E+02  0.45594000000E+02  0.51100000000E-03 0.  1.
    9900012    2    1    2    0    0  0.78889542696E+00  0.66410111402E+00 -0.57416802707E+00  0.90007722402E+02  0.89999983538E+02 0.  0.
         12    1    1    2    0    0 -0.78889542696E+00 -0.66410111402E+00  0.57416802707E+00  0.11802775977E+01  0.00000000000E+00 0. -1.
         11    1    3    3    0    0 -0.68260528452E+01 -0.48238029210E+01 -0.41705380107E+01  0.93411701422E+01  0.51100000000E-03 0. -1.
        -11    1    3    3    0    0  0.22330527180E+02  0.32459956585E+02 -0.17791629913E+02  0.43230120527E+02  0.51100000000E-03 0.  1.
         12    1    3    3    0    0 -0.14715578908E+02 -0.26972052549E+02  0.21387999896E+02  0.37436431733E+02  0.00000000000E+00 0. -1.
</event>
<event>
 7    1  0.3707147E-015  0.9000773E+02  0.7816164E-02  0.1186339E+00
        -11   -1    0    0    0    0  0.00000000000E+00  0.00000000000E+00  0.45593999997E+02  0.45594000000E+02  0.51100000000E-03 0.  1.
         11   -1    0    0    0    0 -0.00000000000E+00 -0.00000000000E+00 -0.45593999997E+02  0.45594000000E+02  0.51100000000E-03 0. -1.
    9900012    2    1    2    0    0 -0.77769576406E+00 -0.88697041373E+00  0.38833064845E-01  0.90007730868E+02  0.89999992116E+02 0.  0.
         12    1    1    2    0    0  0.77769576406E+00  0.88697041373E+00 -0.38833064845E-01  0.11802691317E+01  0.00000000000E+00 0. -1.
         11    1    3    3    0    0 -0.18356443123E+01  0.48606781284E+01 -0.10343496346E+02  0.11575132778E+02  0.51100000000E-03 0. -1.
        -11    1    3    3    0    0  0.17120088356E+02  0.31199118324E+02  0.13413350385E+02  0.38031570811E+02  0.51100000000E-03 0.  1.
         12    1    3    3    0    0 -0.16062139808E+02 -0.36946766866E+02 -0.30310209740E+01  0.40401027279E+02  0.00000000000E+00 0. -1.
</event>
<event>
 7    1  0.3707147E-015  0.9000777E+02  0.7816164E-02  0.1186339E+00
        -11   -1    0    0    0    0  0.00000000000E+00  0.00000000000E+00  0.45593999997E+02  0.45594000000E+02  0.51100000000E-03 0.  1.
         11   -1    0    0    0    0 -0.00000000000E+00 -0.00000000000E+00 -0.45593999997E+02  0.45594000000E+02  0.51100000000E-03 0. -1.
    9900012    2    1    2    0    0 -0.51084078485E+00  0.74154557083E+00  0.76295080083E+00  0.90007770334E+02  0.90000032102E+02 0.  0.
         12    1    1    2    0    0  0.51084078485E+00 -0.74154557083E+00 -0.76295080083E+00  0.11802296665E+01  0.00000000000E+00 0. -1.
         11    1    3    3    0    0 -0.81713346266E-01  0.39267615967E+02 -0.15041787756E+02  0.42050062069E+02  0.51100000000E-03 0. -1.
        -11    1    3    3    0    0  0.90193286383E+01 -0.47296021463E+01  0.33645263375E+01  0.10725551887E+02  0.51100000000E-03 0.  1.
        -12    1    3    3    0    0 -0.94484560768E+01 -0.33796468250E+02  0.12440212220E+02  0.37232156377E+02  0.00000000000E+00 0.  1.
</event>
<event>
 7    1  0.3707147E-015  0.9000772E+02  0.7816164E-02  0.1186339E+00
        -11   -1    0    0    0    0  0.00000000000E+00  0.00000000000E+00  0.45593999997E+02  0.45594000000E+02  0.51100000000E-03 0.  1.
         11   -1    0    0    0    0 -0.00000000000E+00 -0.00000000000E+00 -0.45593999997E+02  0.45594000000E+02  0.51100000000E-03 0. -1.
    9900012    2    1    2    0    0  0.10331292240E+01 -0.52886937424E+00 -0.21448821003E+00  0.90007718677E+02  0.89999979764E+02 0.  0.
         12    1    1    2    0    0 -0.10331292240E+01  0.52886937424E+00  0.21448821003E+00  0.11802813227E+01  0.00000000000E+00 0. -1.
         11    1    3    3    0    0  0.37824137917E+02  0.16273068133E+02 -0.14698122194E+02  0.43720852598E+02  0.51100000000E-03 0. -1.
        -11    1    3    3    0    0 -0.57657157166E+01  0.37994727915E+00  0.85638947514E+01  0.10330930802E+02  0.51100000000E-03 0.  1.
        -12    1    3    3    0    0 -0.31025292976E+02 -0.17181884786E+02  0.59197392325E+01  0.35955935277E+02  0.00000000000E+00 0.  1.
</event>
<event>
 7    1  0.3707147E-015  0.9000775E+02  0.7816164E-02  0.1186339E+00
        -11   -1    0    0    0    0  0.00000000000E+00  0.00000000000E+00  0.45593999997E+02  0.45594000000E+02  0.51100000000E-03 0.  1.
         11   -1    0    0    0    0 -0.00000000000E+00 -0.00000000000E+00 -0.45593999997E+02  0.45594000000E+02  0.51100000000E-03 0. -1.
    9900012    2    1    2    0    0  0.40697182468E+00  0.36433149141E-01  0.11072683942E+01  0.90007747172E+02  0.90000008635E+02 0.  0.
         12    1    1    2    0    0 -0.40697182468E+00 -0.36433149141E-01 -0.11072683942E+01  0.11802528276E+01  0.00000000000E+00 0. -1.
         11    1    3    3    0    0  0.66528365857E+01  0.16528289332E+02  0.20901612497E+01  0.17939157093E+02  0.51100000000E-03 0. -1.
        -11    1    3    3    0    0 -0.25975727544E+02  0.18481877631E+02  0.54607749935E+00  0.31884422891E+02  0.51100000000E-03 0.  1.
         12    1    3    3    0    0  0.19729862783E+02 -0.34973733814E+02 -0.15289703549E+01  0.40184167189E+02  0.00000000000E+00 0. -1.
</event>
<event>
 7    1  0.3707147E-015  0.9000765E+02  0.7816164E-02  0.1186339E+00
        -11   -1    0    0    0    0  0.00000000000E+00  0.00000000000E+00  0.45593999997E+02  0.45594000000E+02  0.51100000000E-03 0.  1.
         11   -1    0    0    0    0 -0.00000000000E+00 -0.00000000000E+00 -0.45593999997E+02  0.45594000000E+02  0.51100000000E-03 0. -1.
    9900012    2    1    2    0    0  0.91408803792E+00 -0.41315687857E+00  0.62207562362E+00  0.90007646820E+02  0.89999906958E+02 0.  0.
         12    1    1    2    0    0 -0.91408803792E+00  0.41315687857E+00 -0.62207562362E+00  0.11803531797E+01  0.00000000000E+00 0. -1.
         11    1    3    3    0    0  0.66525541957E+01 -0.67293579317E+01  0.59983927799E+00  0.94815896832E+01  0.51100000000E-03 0. -1.
        -11    1    3    3    0    0  0.27799264299E+02  0.20539795593E+02  0.19008289354E+02  0.39446132421E+02  0.51100000000E-03 0.  1.
         12    1    3    3    0    0 -0.33537730457E+02 -0.14223594540E+02 -0.18986053009E+02  0.41079924716E+02  0.00000000000E+00 0. -1.
</event>
<event>
 7    1  0.3707147E-015  0.9000780E+02  0.7816164E-02  0.1186339E+00
        -11   -1    0    0    0    0  0.00000000000E+00  0.00000000000E+00  0.45593999997E+02  0.45594000000E+02  0.51100000000E-03 0. -1.
         11   -1    0    0    0    0 -0.00000000000E+00 -0.00000000000E+00 -0.45593999997E+02  0.45594000000E+02  0.51100000000E-03 0.  1.
    9900012    2    1    2    0    0 -0.21082181795E+00 -0.11599831246E+01 -0.53459132464E-01  0.90007803166E+02  0.90000065368E+02 0.  0.
         12    1    1    2    0    0  0.21082181795E+00  0.11599831246E+01  0.53459132464E-01  0.11801968340E+01  0.00000000000E+00 0. -1.
         11    1    3    3    0    0 -0.23722804474E+02 -0.31611224298E+02 -0.93167571848E+01  0.40605946836E+02  0.51100000000E-03 0. -1.
        -11    1    3    3    0    0  0.59028837579E+01 -0.52015681547E+01  0.51991725027E+01  0.94303628191E+01  0.51100000000E-03 0.  1.
        -12    1    3    3    0    0  0.17609098898E+02  0.35652809328E+02  0.40641255497E+01  0.39971493511E+02  0.00000000000E+00 0.  1.
</event>
<event>
 7    1  0.3707147E-015  0.9000771E+02  0.7816164E-02  0.1186339E+00
        -11   -1    0    0    0    0  0.00000000000E+00  0.00000000000E+00  0.45593999997E+02  0.45594000000E+02  0.51100000000E-03 0. -1.
         11   -1    0    0    0    0 -0.00000000000E+00 -0.00000000000E+00 -0.45593999997E+02  0.45594000000E+02  0.51100000000E-03 0.  1.
    9900012    2    1    2    0    0  0.61502573153E+00 -0.90590755913E+00 -0.44062896035E+00  0.90007712308E+02  0.89999973310E+02 0.  0.
         12    1    1    2    0    0 -0.61502573153E+00  0.90590755913E+00  0.44062896035E+00  0.11802876924E+01  0.00000000000E+00 0. -1.
         11    1    3    3    0    0 -0.12109896950E+02  0.15259810228E+02  0.30684726784E+02  0.36346442335E+02  0.51100000000E-03 0. -1.
        -11    1    3    3    0    0 -0.39571075071E+01  0.58921414323E+01  0.46182644545E+01  0.84678449037E+01  0.51100000000E-03 0.  1.
        -12    1    3    3    0    0  0.16682030188E+02 -0.22057859219E+02 -0.35743620199E+02  0.45193425069E+02  0.00000000000E+00 0.  1.
</event>
<event>
 7    1  0.3707147E-015  0.9000703E+02  0.7816164E-02  0.1186340E+00
        -11   -1    0    0    0    0  0.00000000000E+00  0.00000000000E+00  0.45593999997E+02  0.45594000000E+02  0.51100000000E-03 0.  1.
         11   -1    0    0    0    0 -0.00000000000E+00 -0.00000000000E+00 -0.45593999997E+02  0.45594000000E+02  0.51100000000E-03 0. -1.
    9900012    2    1    2    0    0  0.69659519462E+00 -0.65157620319E+00  0.69634327128E+00  0.90007029905E+02  0.89999281897E+02 0.  0.
         12    1    1    2    0    0 -0.69659519462E+00  0.65157620319E+00 -0.69634327128E+00  0.11809700950E+01  0.00000000000E+00 0. -1.
         11    1    3    3    0    0 -0.61916866575E+00 -0.63787573663E+01 -0.32314440155E+02  0.32943815173E+02  0.51100000000E-03 0. -1.
        -11    1    3    3    0    0  0.38869549556E+01  0.11872673835E+02 -0.84425735183E+01  0.15077992263E+02  0.51100000000E-03 0.  1.
        -12    1    3    3    0    0 -0.25711910953E+01 -0.61454926720E+01  0.41453356944E+02  0.41985222469E+02  0.00000000000E+00 0.  1.
</event>
<event>
 7    1  0.3707147E-015  0.9000783E+02  0.7816164E-02  0.1186339E+00
        -11   -1    0    0    0    0  0.00000000000E+00  0.00000000000E+00  0.45593999997E+02  0.45594000000E+02  0.51100000000E-03 0. -1.
         11   -1    0    0    0    0 -0.00000000000E+00 -0.00000000000E+00 -0.45593999997E+02  0.45594000000E+02  0.51100000000E-03 0.  1.
    9900012    2    1    2    0    0 -0.89145538291E+00  0.71312591654E+00 -0.29927876390E+00  0.90007826686E+02  0.90000089198E+02 0.  0.
         12    1    1    2    0    0  0.89145538291E+00 -0.71312591654E+00  0.29927876390E+00  0.11801733140E+01  0.00000000000E+00 0. -1.
         11    1    3    3    0    0  0.47695325157E+01  0.17025041947E+01 -0.11030749651E+02  0.12137726273E+02  0.51100000000E-03 0. -1.
        -11    1    3    3    0    0  0.10701861418E+02 -0.41454111574E+01 -0.30934709438E+02  0.32995007497E+02  0.51100000000E-03 0.  1.
         12    1    3    3    0    0 -0.16362849317E+02  0.31560328792E+01  0.41666180325E+02  0.44875092916E+02  0.00000000000E+00 0. -1.
</event>
<event>
 7    1  0.3707147E-015  0.9000774E+02  0.7816164E-02  0.1186339E+00
        -11   -1    0    0    0    0  0.00000000000E+00  0.00000000000E+00  0.45593999997E+02  0.45594000000E+02  0.51100000000E-03 0.  1.
         11   -1    0    0    0    0 -0.00000000000E+00 -0.00000000000E+00 -0.45593999997E+02  0.45594000000E+02  0.51100000000E-03 0. -1.
    9900012    2    1    2    0    0  0.91970866846E-01 -0.19162135416E+00  0.11609672941E+01  0.90007736283E+02  0.89999997602E+02 0.  0.
         12    1    1    2    0    0 -0.91970866846E-01  0.19162135416E+00 -0.11609672941E+01  0.11802637170E+01  0.00000000000E+00 0. -1.
         11    1    3    3    0    0  0.59837461729E+01  0.47511699606E+01  0.60862360441E+01  0.97683726231E+01  0.51100000000E-03 0. -1.
        -11    1    3    3    0    0 -0.29401167688E+01  0.35430299180E+02 -0.14899286060E+02  0.38547880771E+02  0.51100000000E-03 0.  1.
         12    1    3    3    0    0 -0.29516585373E+01 -0.40373090494E+02  0.99740173095E+01  0.41691482889E+02  0.00000000000E+00 0. -1.
</event>
<event>
 7    1  0.3707147E-015  0.9000768E+02  0.7816164E-02  0.1186339E+00
        -11   -1    0    0    0    0  0.00000000000E+00  0.00000000000E+00  0.45593999997E+02  0.45594000000E+02  0.51100000000E-03 0.  1.
         11   -1    0    0    0    0 -0.00000000000E+00 -0.00000000000E+00 -0.45593999997E+02  0.45594000000E+02  0.51100000000E-03 0. -1.
    9900012    2    1    2    0    0 -0.34382424513E+00 -0.40884549779E+00  0.10525083925E+01  0.90007684928E+02  0.89999945569E+02 0.  0.
         12    1    1    2    0    0  0.34382424513E+00  0.40884549779E+00 -0.10525083925E+01  0.11803150718E+01  0.00000000000E+00 0. -1.
         11    1    3    3    0    0  0.77133339970E+01  0.16334909414E+02 -0.31363476680E+02  0.36193817934E+02  0.51100000000E-03 0. -1.
        -11    1    3    3    0    0  0.35020575290E+01  0.67874718446E+01 -0.42489594628E+01  0.87400136015E+01  0.51100000000E-03 0.  1.
        -12    1    3    3    0    0 -0.11559215771E+02 -0.23531226757E+02  0.36664944535E+02  0.45073853393E+02  0.00000000000E+00 0.  1.
</event>
<event>
 7    1  0.3707147E-015  0.9000779E+02  0.7816164E-02  0.1186339E+00
        -11   -1    0    0    0    0  0.00000000000E+00  0.00000000000E+00  0.45593999997E+02  0.45594000000E+02  0.51100000000E-03 0.  1.
         11   -1    0    0    0    0 -0.00000000000E+00 -0.00000000000E+00 -0.45593999997E+02  0.45594000000E+02  0.51100000000E-03 0. -1.
    9900012    2    1    2    0    0  0.50512963577E+00  0.99629408902E-01  0.10619827064E+01  0.90007792714E+02  0.90000054778E+02 0.  0.
         12    1    1    2    0    0 -0.50512963577E+00 -0.99629408902E-01 -0.10619827064E+01  0.11802072855E+01  0.00000000000E+00 0. -1.
         11    1    3    3    0    0  0.12236175480E+01 -0.89817169562E+01 -0.41740063749E+00  0.90742880128E+01  0.51100000000E-03 0. -1.
        -11    1    3    3    0    0  0.29041592858E+02 -0.23060995065E+02  0.18114289968E+01  0.37128222208E+02  0.51100000000E-03 0.  1.
         12    1    3    3    0    0 -0.29760080770E+02  0.32142341430E+02 -0.33204565288E+00  0.43805282493E+02  0.00000000000E+00 0. -1.
</event>
<event>
 7    1  0.3707147E-015  0.9000777E+02  0.7816164E-02  0.1186339E+00
        -11   -1    0    0    0    0  0.00000000000E+00  0.00000000000E+00  0.45593999997E+02  0.45594000000E+02  0.51100000000E-03 0. -1.
         11   -1    0    0    0    0 -0.00000000000E+00 -0.00000000000E+00 -0.45593999997E+02  0.45594000000E+02  0.51100000000E-03 0.  1.
    9900012    2    1    2    0    0  0.41515942971E+00 -0.87363918957E+00 -0.67627481463E+00  0.90007766798E+02  0.90000028520E+02 0.  0.
         12    1    1    2    0    0 -0.41515942971E+00  0.87363918957E+00  0.67627481463E+00  0.11802332018E+01  0.00000000000E+00 0. -1.
         11    1    3    3    0    0 -0.16090473450E+01 -0.75298164667E+01 -0.44629802460E+01  0.88997394522E+01  0.51100000000E-03 0. -1.
        -11    1    3    3    0    0 -0.35953946934E+02  0.13749198812E+02  0.14307727339E+02  0.41066261456E+02  0.51100000000E-03 0.  1.
         12    1    3    3    0    0  0.37978153708E+02 -0.70930215353E+01 -0.10521021908E+02  0.40041765890E+02  0.00000000000E+00 0. -1.
</event>
<event>
 7    1  0.3707147E-015  0.9000766E+02  0.7816164E-02  0.1186339E+00
        -11   -1    0    0    0    0  0.00000000000E+00  0.00000000000E+00  0.45593999997E+02  0.45594000000E+02  0.51100000000E-03 0. -1.
         11   -1    0    0    0    0 -0.00000000000E+00 -0.00000000000E+00 -0.45593999997E+02  0.45594000000E+02  0.51100000000E-03 0.  1.
    9900012    2    1    2    0    0  0.74221404546E-01 -0.11302175424E+01  0.33210514042E+00  0.90007663466E+02  0.89999923823E+02 0.  0.
         12    1    1    2    0    0 -0.74221404546E-01  0.11302175424E+01 -0.33210514042E+00  0.11803365343E+01  0.00000000000E+00 0. -1.
         11    1    3    3    0    0 -0.39491356710E+01  0.58324159917E+01 -0.70310906841E+01  0.99523356715E+01  0.51100000000E-03 0. -1.
        -11    1    3    3    0    0  0.37626639762E+02 -0.63034691649E+01 -0.13531992600E+02  0.40479779734E+02  0.51100000000E-03 0.  1.
         12    1    3    3    0    0 -0.33603282687E+02 -0.65916436925E+00  0.20895188424E+02  0.39575548060E+02  0.00000000000E+00 0. -1.
</event>
<event>
 7    1  0.3707147E-015  0.9000770E+02  0.7816164E-02  0.1186339E+00
        -11   -1    0    0    0    0  0.00000000000E+00  0.00000000000E+00  0.45593999997E+02  0.45594000000E+02  0.51100000000E-03 0. -1.
         11   -1    0    0    0    0 -0.00000000000E+00 -0.00000000000E+00 -0.45593999997E+02  0.45594000000E+02  0.51100000000E-03 0.  1.
    9900012    2    1    2    0    0  0.11686697292E+01  0.10734057796E+00 -0.12570380655E+00  0.90007698182E+02  0.89999958998E+02 0.  0.
         12    1    1    2    0    0 -0.11686697292E+01 -0.10734057796E+00  0.12570380655E+00  0.11803018184E+01  0.00000000000E+00 0. -1.
         11    1    3    3    0    0 -0.74880149185E+01 -0.45493271016E+01  0.46942550448E+01  0.99399585102E+01  0.51100000000E-03 0. -1.
        -11    1    3    3    0    0 -0.15472463681E+02  0.30242514829E+02 -0.22458648239E+02  0.40723429578E+02  0.51100000000E-03 0.  1.
         12    1    3    3    0    0  0.24129148329E+02 -0.25585847150E+02  0.17638689388E+02  0.39344310094E+02  0.00000000000E+00 0. -1.
</event>
<event>
 7    1  0.3707147E-015  0.9000766E+02  0.7816164E-02  0.1186339E+00
        -11   -1    0    0    0    0  0.00000000000E+00  0.00000000000E+00  0.45593999997E+02  0.45594000000E+02  0.51100000000E-03 0.  1.
         11   -1    0    0    0    0 -0.00000000000E+00 -0.00000000000E+00 -0.45593999997E+02  0.45594000000E+02  0.51100000000E-03 0. -1.
    9900012    2    1    2    0    0  0.78573563894E+00 -0.26354173913E-01 -0.88041186997E+00  0.90007661024E+02  0.89999921350E+02 0.  0.
         12    1    1    2    0    0 -0.78573563894E+00  0.26354173913E-01  0.88041186997E+00  0.11803389757E+01  0.00000000000E+00 0. -1.
         11    1    3    3    0    0  0.23977160848E+01 -0.79666942528E+01  0.15761401398E+01  0.84676725103E+01  0.51100000000E-03 0. -1.
        -11    1    3    3    0    0  0.34013097194E+02  0.11790099649E+02  0.18033316320E+02  0.40262857924E+02  0.51100000000E-03 0.  1.
         12    1    3    3    0    0 -0.35625077640E+02 -0.38497595701E+01 -0.20489868329E+02  0.41277130590E+02  0.00000000000E+00 0. -1.
</event>
<event>
 7    1  0.3707147E-015  0.9000777E+02  0.7816164E-02  0.1186339E+00
        -11   -1    0    0    0    0  0.00000000000E+00  0.00000000000E+00  0.45593999997E+02  0.45594000000E+02  0.51100000000E-03 0.  1.
         11   -1    0    0    0    0 -0.00000000000E+00 -0.00000000000E+00 -0.45593999997E+02  0.45594000000E+02  0.51100000000E-03 0. -1.
    9900012    2    1    2    0    0  0.50941372466E+00  0.69340791781E+00  0.80785028851E+00  0.90007771644E+02  0.90000033430E+02 0.  0.
         12    1    1    2    0    0 -0.50941372466E+00 -0.69340791781E+00 -0.80785028851E+00  0.11802283559E+01  0.00000000000E+00 0. -1.
         11    1    3    3    0    0 -0.14449655585E+02  0.39329041026E+01 -0.20258766833E+01  0.15111732456E+02  0.51100000000E-03 0. -1.
        -11    1    3    3    0    0  0.10044327108E+02  0.34770896099E+02  0.48506370975E+01  0.36516193710E+02  0.51100000000E-03 0.  1.
         12    1    3    3    0    0  0.49147422023E+01 -0.38010392284E+02 -0.20169101257E+01  0.38379845478E+02  0.00000000000E+00 0. -1.
</event>
<event>
 7    1  0.3707147E-015  0.9000772E+02  0.7816164E-02  0.1186339E+00
        -11   -1    0    0    0    0  0.00000000000E+00  0.00000000000E+00  0.45593999997E+02  0.45594000000E+02  0.51100000000E-03 0.  1.
         11   -1    0    0    0    0 -0.00000000000E+00 -0.00000000000E+00 -0.45593999997E+02  0.45594000000E+02  0.51100000000E-03 0. -1.
    9900012    2    1    2    0    0 -0.92221539984E+00 -0.70348491734E+00 -0.21836043821E+00  0.90007723103E+02  0.89999984248E+02 0.  0.
         12    1    1    2    0    0  0.92221539984E+00  0.70348491734E+00  0.21836043821E+00  0.11802768970E+01  0.00000000000E+00 0. -1.
         11    1    3    3    0    0 -0.12234549238E+02 -0.93615611588E+01 -0.59857640662E+01  0.16527322654E+02  0.51100000000E-03 0. -1.
        -11    1    3    3    0    0  0.34654636290E+01 -0.47722548143E+01  0.37595224772E+02  0.38055023060E+02  0.51100000000E-03 0.  1.
         12    1    3    3    0    0  0.78468702095E+01  0.13430331056E+02 -0.31827821144E+02  0.35425377389E+02  0.00000000000E+00 0. -1.
</event>
<event>
 7    1  0.3707147E-015  0.9000777E+02  0.7816164E-02  0.1186339E+00
        -11   -1    0    0    0    0  0.00000000000E+00  0.00000000000E+00  0.45593999997E+02  0.45594000000E+02  0.51100000000E-03 0.  1.
         11   -1    0    0    0    0 -0.00000000000E+00 -0.00000000000E+00 -0.45593999997E+02  0.45594000000E+02  0.51100000000E-03 0. -1.
    9900012    2    1    2    0    0  0.22535077744E+00  0.10386454379E+01  0.51319270201E+00  0.90007773722E+02  0.90000035535E+02 0.  0.
         12    1    1    2    0    0 -0.22535077744E+00 -0.10386454379E+01 -0.51319270201E+00  0.11802262783E+01  0.00000000000E+00 0. -1.
         11    1    3    3    0    0 -0.15065497624E+02  0.35479485496E+02 -0.16435346438E+02  0.41903266252E+02  0.51100000000E-03 0. -1.
        -11    1    3    3    0    0  0.26341980273E+01 -0.77313672890E+01 -0.64498703526E+01  0.10407394834E+02  0.51100000000E-03 0.  1.
        -12    1    3    3    0    0  0.12656650374E+02 -0.26709472769E+02  0.23398409493E+02  0.37697112636E+02  0.00000000000E+00 0.  1.
</event>
<event>
 7    1  0.3707147E-015  0.9000771E+02  0.7816164E-02  0.1186339E+00
        -11   -1    0    0    0    0  0.00000000000E+00  0.00000000000E+00  0.45593999997E+02  0.45594000000E+02  0.51100000000E-03 0. -1.
         11   -1    0    0    0    0 -0.00000000000E+00 -0.00000000000E+00 -0.45593999997E+02  0.45594000000E+02  0.51100000000E-03 0.  1.
    9900012    2    1    2    0    0  0.43680090776E+00 -0.10548560173E+01  0.29926309412E+00  0.90007714166E+02  0.89999975193E+02 0.  0.
         12    1    1    2    0    0 -0.43680090776E+00  0.10548560173E+01 -0.29926309412E+00  0.11802858339E+01  0.00000000000E+00 0. -1.
         11    1    3    3    0    0 -0.39413871864E+02  0.10376732230E+02 -0.11248023353E+01  0.40772479047E+02  0.51100000000E-03 0. -1.
        -11    1    3    3    0    0 -0.14335090281E+01 -0.76184744256E+01  0.41202076710E-01  0.77522769932E+01  0.51100000000E-03 0.  1.
        -12    1    3    3    0    0  0.41284181799E+02 -0.38131138213E+01  0.13828633527E+01  0.41482958126E+02  0.00000000000E+00 0.  1.
</event>
<event>
 7    1  0.3707147E-015  0.9000815E+02  0.7816164E-02  0.1186338E+00
        -11   -1    0    0    0    0  0.00000000000E+00  0.00000000000E+00  0.45593999997E+02  0.45594000000E+02  0.51100000000E-03 0. -1.
         11   -1    0    0    0    0 -0.00000000000E+00 -0.00000000000E+00 -0.45593999997E+02  0.45594000000E+02  0.51100000000E-03 0.  1.
    9900012    2    1    2    0    0 -0.97214410399E+00 -0.58558199208E+00 -0.32259223148E+00  0.90008154173E+02  0.90000421007E+02 0.  0.
         12    1    1    2    0    0  0.97214410399E+00  0.58558199208E+00  0.32259223148E+00  0.11798458273E+01  0.00000000000E+00 0. -1.
         11    1    3    3    0    0 -0.28259578747E+01  0.12347612602E+02 -0.51112652239E+01  0.13659231579E+02  0.51100000000E-03 0. -1.
        -11    1    3    3    0    0 -0.22792231747E+02 -0.92300232026E+01 -0.26629179128E+02  0.36246273431E+02  0.51100000000E-03 0.  1.
         12    1    3    3    0    0  0.24646045517E+02 -0.37031713917E+01  0.31417852120E+02  0.40102649163E+02  0.00000000000E+00 0. -1.
</event>
<event>
 7    1  0.3707147E-015  0.9000710E+02  0.7816164E-02  0.1186340E+00
        -11   -1    0    0    0    0  0.00000000000E+00  0.00000000000E+00  0.45593999997E+02  0.45594000000E+02  0.51100000000E-03 0. -1.
         11   -1    0    0    0    0 -0.00000000000E+00 -0.00000000000E+00 -0.45593999997E+02  0.45594000000E+02  0.51100000000E-03 0.  1.
    9900012    2    1    2    0    0  0.74448631810E+00 -0.15115379921E+00 -0.90410546445E+00  0.90007104560E+02  0.89999357538E+02 0.  0.
         12    1    1    2    0    0 -0.74448631810E+00  0.15115379921E+00  0.90410546445E+00  0.11808954398E+01  0.00000000000E+00 0. -1.
         11    1    3    3    0    0  0.94930453846E+01  0.13130273729E+02  0.38351526727E+02  0.41633659477E+02  0.51100000000E-03 0. -1.
        -11    1    3    3    0    0  0.73227645901E+01 -0.74260595495E+00 -0.66450433618E+01  0.99161961653E+01  0.51100000000E-03 0.  1.
        -12    1    3    3    0    0 -0.16071323657E+02 -0.12538821573E+02 -0.32610588830E+02  0.38457248918E+02  0.00000000000E+00 0.  1.
</event>
<event>
 7    1  0.3707147E-015  0.9000765E+02  0.7816164E-02  0.1186339E+00
        -11   -1    0    0    0    0  0.00000000000E+00  0.00000000000E+00  0.45593999997E+02  0.45594000000E+02  0.51100000000E-03 0. -1.
         11   -1    0    0    0    0 -0.00000000000E+00 -0.00000000000E+00 -0.45593999997E+02  0.45594000000E+02  0.51100000000E-03 0.  1.
    9900012    2    1    2    0    0 -0.43323436355E+00  0.98873737424E+00 -0.47742745458E+00  0.90007648110E+02  0.89999908265E+02 0.  0.
         12    1    1    2    0    0  0.43323436355E+00 -0.98873737424E+00  0.47742745458E+00  0.11803518896E+01  0.00000000000E+00 0. -1.
         11    1    3    3    0    0  0.48417116522E+01 -0.56450140583E+01  0.45075493801E+01  0.86963415938E+01  0.51100000000E-03 0. -1.
        -11    1    3    3    0    0  0.35685317359E+02  0.16037568180E+02 -0.30086346574E+01  0.39238977445E+02  0.51100000000E-03 0.  1.
         12    1    3    3    0    0 -0.40960263375E+02 -0.94038167474E+01 -0.19763421772E+01  0.42072329072E+02  0.00000000000E+00 0. -1.
</event>
<event>
 7    1  0.3707147E-015  0.9000783E+02  0.7816164E-02  0.1186339E+00
        -11   -1    0    0    0    0  0.00000000000E+00  0.00000000000E+00  0.45593999997E+02  0.45594000000E+02  0.51100000000E-03 0.  1.
         11   -1    0    0    0    0 -0.00000000000E+00 -0.00000000000E+00 -0.45593999997E+02  0.45594000000E+02  0.51100000000E-03 0. -1.
    9900012    2    1    2    0    0 -0.58524058898E+00  0.62790933646E+00  0.80995290321E+00  0.90007830357E+02  0.90000092917E+02 0.  0.
         12    1    1    2    0    0  0.58524058898E+00 -0.62790933646E+00 -0.80995290321E+00  0.11801696434E+01  0.00000000000E+00 0. -1.
         11    1    3    3    0    0 -0.40142933176E+01 -0.34923192632E+01  0.74209554152E+01  0.91313429577E+01  0.51100000000E-03 0. -1.
        -11    1    3    3    0    0 -0.22012434625E+02 -0.25687821771E+02  0.13983676476E+02  0.36605391317E+02  0.51100000000E-03 0.  1.
         12    1    3    3    0    0  0.25441487354E+02  0.29808050370E+02 -0.20594678988E+02  0.44271096082E+02  0.00000000000E+00 0. -1.
</event>
<event>
 7    1  0.3707147E-015  0.9000775E+02  0.7816164E-02  0.1186339E+00
        -11   -1    0    0    0    0  0.00000000000E+00  0.00000000000E+00  0.45593999997E+02  0.45594000000E+02  0.51100000000E-03 0.  1.
         11   -1    0    0    0    0 -0.00000000000E+00 -0.00000000000E+00 -0.45593999997E+02  0.45594000000E+02  0.51100000000E-03 0. -1.
    9900012    2    1    2    0    0  0.11233822906E+01 -0.34769388263E+00 -0.10049736727E+00  0.90007754887E+02  0.90000016451E+02 0.  0.
         12    1    1    2    0    0 -0.11233822906E+01  0.34769388263E+00  0.10049736727E+00  0.11802451134E+01  0.00000000000E+00 0. -1.
         11    1    3    3    0    0 -0.31606645478E+01 -0.75366397984E+01 -0.66011857947E+01  0.10505541109E+02  0.51100000000E-03 0. -1.
        -11    1    3    3    0    0 -0.16664533931E+02 -0.10056043031E+02  0.35065107318E+02  0.40104768346E+02  0.51100000000E-03 0.  1.
         12    1    3    3    0    0  0.20948580769E+02  0.17244988947E+02 -0.28564418891E+02  0.39397445432E+02  0.00000000000E+00 0. -1.
</event>
<event>
 7    1  0.3707147E-015  0.9000772E+02  0.7816164E-02  0.1186339E+00
        -11   -1    0    0    0    0  0.00000000000E+00  0.00000000000E+00  0.45593999997E+02  0.45594000000E+02  0.51100000000E-03 0.  1.
         11   -1    0    0    0    0 -0.00000000000E+00 -0.00000000000E+00 -0.45593999997E+02  0.45594000000E+02  0.51100000000E-03 0. -1.
    9900012    2    1    2    0    0 -0.50513765406E+00 -0.10542863640E+01  0.16237893275E+00  0.90007724310E+02  0.89999985471E+02 0.  0.
         12    1    1    2    0    0  0.50513765406E+00  0.10542863640E+01 -0.16237893275E+00  0.11802756901E+01  0.00000000000E+00 0. -1.
         11    1    3    3    0    0 -0.10673828264E+02 -0.19469282947E+01 -0.37400756891E+01  0.11476467489E+02  0.51100000000E-03 0. -1.
        -11    1    3    3    0    0 -0.14354064626E+02  0.32716439285E+02  0.11723181235E+02  0.37601031227E+02  0.51100000000E-03 0.  1.
         12    1    3    3    0    0  0.24522755236E+02 -0.31823797355E+02 -0.78207266135E+01  0.40930225594E+02  0.00000000000E+00 0. -1.
</event>
<event>
 7    1  0.3707147E-015  0.9000790E+02  0.7816164E-02  0.1186339E+00
        -11   -1    0    0    0    0  0.00000000000E+00  0.00000000000E+00  0.45593999997E+02  0.45594000000E+02  0.51100000000E-03 0. -1.
         11   -1    0    0    0    0 -0.00000000000E+00 -0.00000000000E+00 -0.45593999997E+02  0.45594000000E+02  0.51100000000E-03 0.  1.
    9900012    2    1    2    0    0 -0.81182143286E+00 -0.75770424870E+00 -0.39931787840E+00  0.90007904862E+02  0.90000168406E+02 0.  0.
         12    1    1    2    0    0  0.81182143286E+00  0.75770424870E+00  0.39931787840E+00  0.11800951383E+01  0.00000000000E+00 0. -1.
         11    1    3    3    0    0 -0.47873798795E+01 -0.23990426210E+01 -0.52093948204E+01  0.74707567397E+01  0.51100000000E-03 0. -1.
        -11    1    3    3    0    0 -0.19500531583E+02 -0.64419384579E+01 -0.32067550204E+02  0.38080140223E+02  0.51100000000E-03 0.  1.
         12    1    3    3    0    0  0.23476090030E+02  0.80832768302E+01  0.36877627146E+02  0.44457007899E+02  0.00000000000E+00 0. -1.
</event>
<event>
 7    1  0.3707147E-015  0.9000777E+02  0.7816164E-02  0.1186339E+00
        -11   -1    0    0    0    0  0.00000000000E+00  0.00000000000E+00  0.45593999997E+02  0.45594000000E+02  0.51100000000E-03 0.  1.
         11   -1    0    0    0    0 -0.00000000000E+00 -0.00000000000E+00 -0.45593999997E+02  0.45594000000E+02  0.51100000000E-03 0. -1.
    9900012    2    1    2    0    0 -0.31888820943E+00  0.80324019764E+00  0.80377933511E+00  0.90007768783E+02  0.90000030531E+02 0.  0.
         12    1    1    2    0    0  0.31888820943E+00 -0.80324019764E+00 -0.80377933511E+00  0.11802312167E+01  0.00000000000E+00 0. -1.
         11    1    3    3    0    0  0.69657644002E+01  0.11199461865E+02 -0.18165805012E+01  0.13313518870E+02  0.51100000000E-03 0. -1.
        -11    1    3    3    0    0  0.22150317957E+02  0.10766746088E+02  0.24180465890E+02  0.34514552551E+02  0.51100000000E-03 0.  1.
         12    1    3    3    0    0 -0.29434970567E+02 -0.21162967755E+02 -0.21560106053E+02  0.42179697361E+02  0.00000000000E+00 0. -1.
</event>
<event>
 7    1  0.3707147E-015  0.9000770E+02  0.7816164E-02  0.1186339E+00
        -11   -1    0    0    0    0  0.00000000000E+00  0.00000000000E+00  0.45593999997E+02  0.45594000000E+02  0.51100000000E-03 0.  1.
         11   -1    0    0    0    0 -0.00000000000E+00 -0.00000000000E+00 -0.45593999997E+02  0.45594000000E+02  0.51100000000E-03 0. -1.
    9900012    2    1    2    0    0 -0.15218858651E+00 -0.97653096815E+00 -0.64524336845E+00  0.90007697877E+02  0.89999958689E+02 0.  0.
         12    1    1    2    0    0  0.15218858651E+00  0.97653096815E+00  0.64524336845E+00  0.11803021232E+01  0.00000000000E+00 0. -1.
         11    1    3    3    0    0 -0.30184937562E+02 -0.65049350827E+01 -0.21314015914E+02  0.37519753607E+02  0.51100000000E-03 0. -1.
        -11    1    3    3    0    0 -0.10584851467E+01  0.64648903544E+01 -0.78938234398E+01  0.10258052781E+02  0.51100000000E-03 0.  1.
        -12    1    3    3    0    0  0.31091234122E+02 -0.93648623989E+00  0.28562595986E+02  0.42229891489E+02  0.00000000000E+00 0.  1.
</event>
<event>
 7    1  0.3707147E-015  0.9000769E+02  0.7816164E-02  0.1186339E+00
        -11   -1    0    0    0    0  0.00000000000E+00  0.00000000000E+00  0.45593999997E+02  0.45594000000E+02  0.51100000000E-03 0.  1.
         11   -1    0    0    0    0 -0.00000000000E+00 -0.00000000000E+00 -0.45593999997E+02  0.45594000000E+02  0.51100000000E-03 0. -1.
    9900012    2    1    2    0    0  0.10957608135E+01 -0.29757152206E+00  0.32232986546E+00  0.90007687705E+02  0.89999948383E+02 0.  0.
         12    1    1    2    0    0 -0.10957608135E+01  0.29757152206E+00 -0.32232986546E+00  0.11803122948E+01  0.00000000000E+00 0. -1.
         11    1    3    3    0    0 -0.10656910905E+02  0.28608244735E+01 -0.40869547102E+01  0.11766786553E+02  0.51100000000E-03 0. -1.
        -11    1    3    3    0    0  0.14149281651E+02  0.24031791169E+02  0.29904679999E+02  0.40890329470E+02  0.51100000000E-03 0.  1.
         12    1    3    3    0    0 -0.23966099325E+01 -0.27190187165E+02 -0.25495395423E+02  0.37350571683E+02  0.00000000000E+00 0. -1.
</event>
<event>
 7    1  0.3707147E-015  0.9000783E+02  0.7816164E-02  0.1186339E+00
        -11   -1    0    0    0    0  0.00000000000E+00  0.00000000000E+00  0.45593999997E+02  0.45594000000E+02  0.51100000000E-03 0.  1.
         11   -1    0    0    0    0 -0.00000000000E+00 -0.00000000000E+00 -0.45593999997E+02  0.45594000000E+02  0.51100000000E-03 0. -1.
    9900012    2    1    2    0    0 -0.93183134858E-01 -0.11758449529E+01 -0.38773716675E-01  0.90007831431E+02  0.90000094006E+02 0.  0.
         12    1    1    2    0    0  0.93183134858E-01  0.11758449529E+01  0.38773716675E-01  0.11801685688E+01  0.00000000000E+00 0. -1.
         11    1    3    3    0    0  0.25796659056E+01 -0.71245792959E+01  0.55030215077E+01  0.93646971282E+01  0.51100000000E-03 0. -1.
        -11    1    3    3    0    0  0.17985264684E+02 -0.20039383328E+02  0.24100440264E+02  0.36136931955E+02  0.51100000000E-03 0.  1.
         12    1    3    3    0    0 -0.20658113725E+02  0.25988117671E+02 -0.29642235488E+02  0.44506202348E+02  0.00000000000E+00 0. -1.
</event>
<event>
 7    1  0.3707147E-015  0.9000769E+02  0.7816164E-02  0.1186339E+00
        -11   -1    0    0    0    0  0.00000000000E+00  0.00000000000E+00  0.45593999997E+02  0.45594000000E+02  0.51100000000E-03 0.  1.
         11   -1    0    0    0    0 -0.00000000000E+00 -0.00000000000E+00 -0.45593999997E+02  0.45594000000E+02  0.51100000000E-03 0. -1.
    9900012    2    1    2    0    0 -0.10967861084E+01 -0.73812834949E-01  0.42981004441E+00  0.90007692931E+02  0.89999953678E+02 0.  0.
         12    1    1    2    0    0  0.10967861084E+01  0.73812834949E-01 -0.42981004441E+00  0.11803070687E+01  0.00000000000E+00 0. -1.
         11    1    3    3    0    0  0.36519152511E+02 -0.71573545814E+01 -0.67208721191E+00  0.37219993635E+02  0.51100000000E-03 0. -1.
        -11    1    3    3    0    0  0.32757239834E+01  0.98846471777E+00  0.99380426440E+01  0.10510571914E+02  0.51100000000E-03 0.  1.
        -12    1    3    3    0    0 -0.40891662602E+02  0.60950770286E+01 -0.88361453876E+01  0.42277127382E+02  0.00000000000E+00 0.  1.
</event>
<event>
 7    1  0.3707147E-015  0.9000773E+02  0.7816164E-02  0.1186339E+00
        -11   -1    0    0    0    0  0.00000000000E+00  0.00000000000E+00  0.45593999997E+02  0.45594000000E+02  0.51100000000E-03 0. -1.
         11   -1    0    0    0    0 -0.00000000000E+00 -0.00000000000E+00 -0.45593999997E+02  0.45594000000E+02  0.51100000000E-03 0.  1.
    9900012    2    1    2    0    0 -0.48383898678E-02  0.92616798331E+00 -0.73159360465E+00  0.90007728952E+02  0.89999990175E+02 0.  0.
         12    1    1    2    0    0  0.48383898678E-02 -0.92616798331E+00  0.73159360465E+00  0.11802710476E+01  0.00000000000E+00 0. -1.
         11    1    3    3    0    0 -0.37513355909E+02  0.97937654337E+00  0.87111077825E+01  0.38523946436E+02  0.51100000000E-03 0. -1.
        -11    1    3    3    0    0 -0.33488955592E+01  0.54183790698E+01  0.46857975681E+01  0.79076312711E+01  0.51100000000E-03 0.  1.
        -12    1    3    3    0    0  0.40857413078E+02 -0.54715876299E+01 -0.14128498955E+02  0.43576151245E+02  0.00000000000E+00 0.  1.
</event>
<event>
 7    1  0.3707147E-015  0.9000759E+02  0.7816164E-02  0.1186339E+00
        -11   -1    0    0    0    0  0.00000000000E+00  0.00000000000E+00  0.45593999997E+02  0.45594000000E+02  0.51100000000E-03 0. -1.
         11   -1    0    0    0    0 -0.00000000000E+00 -0.00000000000E+00 -0.45593999997E+02  0.45594000000E+02  0.51100000000E-03 0.  1.
    9900012    2    1    2    0    0  0.41377677621E+00  0.89213232480E+00 -0.65287832886E+00  0.90007592690E+02  0.89999852113E+02 0.  0.
         12    1    1    2    0    0 -0.41377677621E+00 -0.89213232480E+00  0.65287832886E+00  0.11804073101E+01  0.00000000000E+00 0. -1.
         11    1    3    3    0    0  0.64539440185E+01 -0.38270672603E+01  0.42620360828E+02  0.43275801490E+02  0.51100000000E-03 0. -1.
        -11    1    3    3    0    0  0.51701720161E+01  0.10795637612E+01 -0.84186551004E+01  0.99383042090E+01  0.51100000000E-03 0.  1.
        -12    1    3    3    0    0 -0.11210339258E+02  0.36396358239E+01 -0.34854584056E+02  0.36793486991E+02  0.00000000000E+00 0.  1.
</event>
<event>
 7    1  0.3962635E-015  0.9000770E+02  0.7816164E-02  0.1186339E+00
        -11   -1    0    0    0    0  0.00000000000E+00  0.00000000000E+00  0.45593999997E+02  0.45594000000E+02  0.51100000000E-03 0.  1.
         11   -1    0    0    0    0 -0.00000000000E+00 -0.00000000000E+00 -0.45593999997E+02  0.45594000000E+02  0.51100000000E-03 0. -1.
    9900012    2    1    2    0    0 -0.63156531551E+00 -0.70476723186E+00  0.70536013306E+00  0.90007701514E+02  0.89999962374E+02 0.  0.
         12    1    1    2    0    0  0.63156531551E+00  0.70476723186E+00 -0.70536013306E+00  0.11802984861E+01  0.00000000000E+00 0. -1.
         11    1    3    3    0    0 -0.71575304824E+01 -0.58222631846E+01 -0.17854479244E+01  0.93977026847E+01  0.51100000000E-03 0. -1.
        -11    1    3    3    0    0  0.17963602433E+02 -0.22381402966E+02  0.28955379555E+02  0.40768029343E+02  0.51100000000E-03 0.  1.
         12    1    3    3    0    0 -0.11437637266E+02  0.27498898919E+02 -0.26464571497E+02  0.39841969486E+02  0.00000000000E+00 0. -1.
</event>
<event>
 7    1  0.3707147E-015  0.9000773E+02  0.7816164E-02  0.1186339E+00
        -11   -1    0    0    0    0  0.00000000000E+00  0.00000000000E+00  0.45593999997E+02  0.45594000000E+02  0.51100000000E-03 0. -1.
         11   -1    0    0    0    0 -0.00000000000E+00 -0.00000000000E+00 -0.45593999997E+02  0.45594000000E+02  0.51100000000E-03 0.  1.
    9900012    2    1    2    0    0  0.68741090173E+00  0.99040965591E-01 -0.95430314868E+00  0.90007729963E+02  0.89999991198E+02 0.  0.
         12    1    1    2    0    0 -0.68741090173E+00 -0.99040965591E-01  0.95430314868E+00  0.11802700370E+01  0.00000000000E+00 0. -1.
         11    1    3    3    0    0  0.28511636020E+02  0.18955983599E+02 -0.35563130576E+01  0.34422232141E+02  0.51100000000E-03 0. -1.
        -11    1    3    3    0    0  0.77661649727E+01 -0.74812381886E+01 -0.11392365481E+02  0.15686562235E+02  0.51100000000E-03 0.  1.
        -12    1    3    3    0    0 -0.35590390091E+02 -0.11375704445E+02  0.13994375390E+02  0.39898935587E+02  0.00000000000E+00 0.  1.
</event>
<event>
 7    1  0.3707147E-015  0.9000756E+02  0.7816164E-02  0.1186339E+00
        -11   -1    0    0    0    0  0.00000000000E+00  0.00000000000E+00  0.45593999997E+02  0.45594000000E+02  0.51100000000E-03 0.  1.
         11   -1    0    0    0    0 -0.00000000000E+00 -0.00000000000E+00 -0.45593999997E+02  0.45594000000E+02  0.51100000000E-03 0. -1.
    9900012    2    1    2    0    0  0.55406403833E+00 -0.92951009067E+00  0.47166316081E+00  0.90007558513E+02  0.89999817485E+02 0.  0.
         12    1    1    2    0    0 -0.55406403833E+00  0.92951009067E+00 -0.47166316081E+00  0.11804414871E+01  0.00000000000E+00 0. -1.
         11    1    3    3    0    0 -0.22446877566E+02  0.22163312080E+02  0.18926055978E+02  0.36786822504E+02  0.51100000000E-03 0. -1.
        -11    1    3    3    0    0 -0.17659600074E+01  0.74966741656E+01  0.31513980685E+01  0.83216613931E+01  0.51100000000E-03 0.  1.
        -12    1    3    3    0    0  0.24766901611E+02 -0.30589496336E+02 -0.21605790886E+02  0.44899074616E+02  0.00000000000E+00 0.  1.
</event>
<event>
 7    1  0.4867931E-015  0.9000772E+02  0.7816164E-02  0.1186339E+00
        -11   -1    0    0    0    0  0.00000000000E+00  0.00000000000E+00  0.45593999997E+02  0.45594000000E+02  0.51100000000E-03 0.  1.
         11   -1    0    0    0    0 -0.00000000000E+00 -0.00000000000E+00 -0.45593999997E+02  0.45594000000E+02  0.51100000000E-03 0. -1.
    9900012    2    1    2    0    0  0.60914163445E+00  0.92613262859E+00  0.40533456306E+00  0.90007715592E+02  0.89999976637E+02 0.  0.
         12    1    1    2    0    0 -0.60914163445E+00 -0.92613262859E+00 -0.40533456306E+00  0.11802844083E+01  0.00000000000E+00 0. -1.
         11    1    3    3    0    0 -0.95050565781E+01 -0.78324145601E+00  0.33154790491E+01  0.10097126785E+02  0.51100000000E-03 0. -1.
        -11    1    3    3    0    0  0.15062809167E+01 -0.49505981216E+01  0.37604858938E+02  0.37959224438E+02  0.51100000000E-03 0.  1.
         12    1    3    3    0    0  0.86079172959E+01  0.66599722062E+01 -0.40515003424E+02  0.41951364368E+02  0.00000000000E+00 0. -1.
</event>
<event>
 7    1  0.3707147E-015  0.9000772E+02  0.7816164E-02  0.1186339E+00
        -11   -1    0    0    0    0  0.00000000000E+00  0.00000000000E+00  0.45593999997E+02  0.45594000000E+02  0.51100000000E-03 0.  1.
         11   -1    0    0    0    0 -0.00000000000E+00 -0.00000000000E+00 -0.45593999997E+02  0.45594000000E+02  0.51100000000E-03 0. -1.
    9900012    2    1    2    0    0  0.60882978205E+00  0.57862552094E-01  0.10094798653E+01  0.90007715553E+02  0.89999976598E+02 0.  0.
         12    1    1    2    0    0 -0.60882978205E+00 -0.57862552094E-01 -0.10094798653E+01  0.11802844474E+01  0.00000000000E+00 0. -1.
         11    1    3    3    0    0 -0.53826550019E+01  0.57608705144E+01 -0.60349282153E+01  0.99287946286E+01  0.51100000000E-03 0. -1.
        -11    1    3    3    0    0  0.32229399771E+02  0.23897019845E+02  0.54617415289E+01  0.40492374441E+02  0.51100000000E-03 0.  1.
         12    1    3    3    0    0 -0.26237914987E+02 -0.29600027807E+02  0.15826665516E+01  0.39586546483E+02  0.00000000000E+00 0. -1.
</event>
<event>
 7    1  0.3707147E-015  0.9000766E+02  0.7816164E-02  0.1186339E+00
        -11   -1    0    0    0    0  0.00000000000E+00  0.00000000000E+00  0.45593999997E+02  0.45594000000E+02  0.51100000000E-03 0. -1.
         11   -1    0    0    0    0 -0.00000000000E+00 -0.00000000000E+00 -0.45593999997E+02  0.45594000000E+02  0.51100000000E-03 0.  1.
    9900012    2    1    2    0    0  0.92681211546E+00 -0.10150712957E+00 -0.72382509496E+00  0.90007658031E+02  0.89999918317E+02 0.  0.
         12    1    1    2    0    0 -0.92681211546E+00  0.10150712957E+00  0.72382509496E+00  0.11803419686E+01  0.00000000000E+00 0. -1.
         11    1    3    3    0    0 -0.37657744452E+00 -0.29646788045E+02  0.21114728106E+02  0.36399252674E+02  0.51100000000E-03 0. -1.
        -11    1    3    3    0    0 -0.84281669713E+01 -0.45350807296E+01  0.33354267064E+01  0.10135384911E+02  0.51100000000E-03 0.  1.
        -12    1    3    3    0    0  0.97315565313E+01  0.34080361645E+02 -0.25173979907E+02  0.43473020447E+02  0.00000000000E+00 0.  1.
</event>
<event>
 7    1  0.3707147E-015  0.9000786E+02  0.7816164E-02  0.1186339E+00
        -11   -1    0    0    0    0  0.00000000000E+00  0.00000000000E+00  0.45593999997E+02  0.45594000000E+02  0.51100000000E-03 0.  1.
         11   -1    0    0    0    0 -0.00000000000E+00 -0.00000000000E+00 -0.45593999997E+02  0.45594000000E+02  0.51100000000E-03 0. -1.
    9900012    2    1    2    0    0 -0.10153604346E+01  0.54507474120E+00 -0.25429289256E+00  0.90007860957E+02  0.90000123922E+02 0.  0.
         12    1    1    2    0    0  0.10153604346E+01 -0.54507474120E+00  0.25429289256E+00  0.11801390430E+01  0.00000000000E+00 0. -1.
         11    1    3    3    0    0 -0.83435854661E+01 -0.13621751391E+01 -0.22305440423E+01  0.87433555644E+01  0.51100000000E-03 0. -1.
        -11    1    3    3    0    0 -0.45710052467E+01 -0.40572521215E+01  0.40265999886E+02  0.40727216095E+02  0.51100000000E-03 0.  1.
         12    1    3    3    0    0  0.11899230278E+02  0.59645020019E+01 -0.38289748736E+02  0.40537289298E+02  0.00000000000E+00 0. -1.
</event>
<event>
 7    1  0.3707147E-015  0.9000771E+02  0.7816164E-02  0.1186339E+00
        -11   -1    0    0    0    0  0.00000000000E+00  0.00000000000E+00  0.45593999997E+02  0.45594000000E+02  0.51100000000E-03 0. -1.
         11   -1    0    0    0    0 -0.00000000000E+00 -0.00000000000E+00 -0.45593999997E+02  0.45594000000E+02  0.51100000000E-03 0.  1.
    9900012    2    1    2    0    0 -0.75440576196E+00  0.49249233804E+00  0.76250312231E+00  0.90007708609E+02  0.89999969562E+02 0.  0.
         12    1    1    2    0    0  0.75440576196E+00 -0.49249233804E+00 -0.76250312231E+00  0.11802913912E+01  0.00000000000E+00 0. -1.
         11    1    3    3    0    0  0.38560348426E+02  0.25533026316E+01  0.12795791788E+02  0.40708133251E+02  0.51100000000E-03 0. -1.
        -11    1    3    3    0    0 -0.37082903257E+01  0.83330589360E+01  0.25066665688E+01  0.94591049217E+01  0.51100000000E-03 0.  1.
        -12    1    3    3    0    0 -0.35606463862E+02 -0.10393869230E+02 -0.14539955234E+02  0.39840470436E+02  0.00000000000E+00 0.  1.
</event>
<event>
 7    1  0.3707147E-015  0.9000775E+02  0.7816164E-02  0.1186339E+00
        -11   -1    0    0    0    0  0.00000000000E+00  0.00000000000E+00  0.45593999997E+02  0.45594000000E+02  0.51100000000E-03 0.  1.
         11   -1    0    0    0    0 -0.00000000000E+00 -0.00000000000E+00 -0.45593999997E+02  0.45594000000E+02  0.51100000000E-03 0. -1.
    9900012    2    1    2    0    0  0.61387817718E+00  0.80230420742E+00  0.61029192229E+00  0.90007748040E+02  0.90000009515E+02 0.  0.
         12    1    1    2    0    0 -0.61387817718E+00 -0.80230420742E+00 -0.61029192229E+00  0.11802519596E+01  0.00000000000E+00 0. -1.
         11    1    3    3    0    0 -0.68287541158E+01 -0.82564928140E+01  0.50526057143E+01  0.11846112490E+02  0.51100000000E-03 0. -1.
        -11    1    3    3    0    0  0.26285483181E+02 -0.15800543206E+02 -0.26030342274E+02  0.40226390726E+02  0.51100000000E-03 0.  1.
         12    1    3    3    0    0 -0.18842850888E+02  0.24859340227E+02  0.21588028482E+02  0.37935244824E+02  0.00000000000E+00 0. -1.
</event>
<event>
 7    1  0.3707147E-015  0.9000773E+02  0.7816164E-02  0.1186339E+00
        -11   -1    0    0    0    0  0.00000000000E+00  0.00000000000E+00  0.45593999997E+02  0.45594000000E+02  0.51100000000E-03 0.  1.
         11   -1    0    0    0    0 -0.00000000000E+00 -0.00000000000E+00 -0.45593999997E+02  0.45594000000E+02  0.51100000000E-03 0. -1.
    9900012    2    1    2    0    0 -0.55916682090E+00  0.73299422008E+00 -0.73694688983E+00  0.90007729362E+02  0.89999990590E+02 0.  0.
         12    1    1    2    0    0  0.55916682090E+00 -0.73299422008E+00  0.73694688983E+00  0.11802706379E+01  0.00000000000E+00 0. -1.
         11    1    3    3    0    0 -0.24113792949E+02  0.24713498521E+02  0.12496153100E+02  0.36720373937E+02  0.51100000000E-03 0. -1.
        -11    1    3    3    0    0 -0.72180628861E+01  0.21230540258E+01  0.49717084378E+01  0.90180749207E+01  0.51100000000E-03 0.  1.
        -12    1    3    3    0    0  0.30772689014E+02 -0.26103558327E+02 -0.18204808428E+02  0.44269280504E+02  0.00000000000E+00 0.  1.
</event>
<event>
 7    1  0.3707147E-015  0.9000779E+02  0.7816164E-02  0.1186339E+00
        -11   -1    0    0    0    0  0.00000000000E+00  0.00000000000E+00  0.45593999997E+02  0.45594000000E+02  0.51100000000E-03 0. -1.
         11   -1    0    0    0    0 -0.00000000000E+00 -0.00000000000E+00 -0.45593999997E+02  0.45594000000E+02  0.51100000000E-03 0.  1.
    9900012    2    1    2    0    0 -0.33255970770E+00 -0.40640505297E+00 -0.10569449237E+01  0.90007790867E+02  0.90000052906E+02 0.  0.
         12    1    1    2    0    0  0.33255970770E+00  0.40640505297E+00  0.10569449237E+01  0.11802091331E+01  0.00000000000E+00 0. -1.
         11    1    3    3    0    0  0.31493091661E+01  0.52437161161E+01  0.22093857477E+01  0.65035446161E+01  0.51100000000E-03 0. -1.
        -11    1    3    3    0    0  0.13374923459E+02  0.18611389502E+02  0.30813282983E+02  0.38402223961E+02  0.51100000000E-03 0.  1.
         12    1    3    3    0    0 -0.16856792332E+02 -0.24261510672E+02 -0.34079613654E+02  0.45102022290E+02  0.00000000000E+00 0. -1.
</event>
<event>
 7    1  0.3707147E-015  0.9000775E+02  0.7816164E-02  0.1186339E+00
        -11   -1    0    0    0    0  0.00000000000E+00  0.00000000000E+00  0.45593999997E+02  0.45594000000E+02  0.51100000000E-03 0. -1.
         11   -1    0    0    0    0 -0.00000000000E+00 -0.00000000000E+00 -0.45593999997E+02  0.45594000000E+02  0.51100000000E-03 0.  1.
    9900012    2    1    2    0    0  0.23896236388E+00 -0.25320814818E+00 -0.11277340376E+01  0.90007745181E+02  0.90000006618E+02 0.  0.
         12    1    1    2    0    0 -0.23896236388E+00  0.25320814818E+00  0.11277340376E+01  0.11802548188E+01  0.00000000000E+00 0. -1.
         11    1    3    3    0    0  0.15220422838E+02 -0.91557700482E+01  0.35367593300E+02  0.39577216333E+02  0.51100000000E-03 0. -1.
        -11    1    3    3    0    0  0.44890923500E+01  0.91942067869E+01 -0.14434872367E+01  0.10332910734E+02  0.51100000000E-03 0.  1.
        -12    1    3    3    0    0 -0.19470552824E+02 -0.29164488692E+00 -0.35051840101E+02  0.40097618115E+02  0.00000000000E+00 0.  1.
</event>
<event>
 7    1  0.3707147E-015  0.9000776E+02  0.7816164E-02  0.1186339E+00
        -11   -1    0    0    0    0  0.00000000000E+00  0.00000000000E+00  0.45593999997E+02  0.45594000000E+02  0.51100000000E-03 0. -1.
         11   -1    0    0    0    0 -0.00000000000E+00 -0.00000000000E+00 -0.45593999997E+02  0.45594000000E+02  0.51100000000E-03 0.  1.
    9900012    2    1    2    0    0  0.96660711905E+00 -0.60837423776E+00  0.29753808574E+00  0.90007755344E+02  0.90000016914E+02 0.  0.
         12    1    1    2    0    0 -0.96660711905E+00  0.60837423776E+00 -0.29753808574E+00  0.11802446561E+01  0.00000000000E+00 0. -1.
         11    1    3    3    0    0 -0.10951878913E+02  0.35079776955E+00 -0.67244289854E+00  0.10978109606E+02  0.51100000000E-03 0. -1.
        -11    1    3    3    0    0 -0.19271365204E+02 -0.24951437819E+02 -0.16946054942E+02  0.35792856053E+02  0.51100000000E-03 0.  1.
         12    1    3    3    0    0  0.31189851236E+02  0.23992265812E+02  0.17916035927E+02  0.43236789685E+02  0.00000000000E+00 0. -1.
</event>
<event>
 7    1  0.3707147E-015  0.9000774E+02  0.7816164E-02  0.1186339E+00
        -11   -1    0    0    0    0  0.00000000000E+00  0.00000000000E+00  0.45593999997E+02  0.45594000000E+02  0.51100000000E-03 0.  1.
         11   -1    0    0    0    0 -0.00000000000E+00 -0.00000000000E+00 -0.45593999997E+02  0.45594000000E+02  0.51100000000E-03 0. -1.
    9900012    2    1    2    0    0 -0.32880738836E+00 -0.42582862760E+00  0.10505138727E+01  0.90007735743E+02  0.89999997055E+02 0.  0.
         12    1    1    2    0    0  0.32880738836E+00  0.42582862760E+00 -0.10505138727E+01  0.11802642566E+01  0.00000000000E+00 0. -1.
         11    1    3    3    0    0 -0.38621736329E+01  0.91035801011E+01 -0.82702939919E+01  0.12891443628E+02  0.51100000000E-03 0. -1.
        -11    1    3    3    0    0  0.51392086050E+01  0.32624338813E+02  0.11243869702E+02  0.34888157793E+02  0.51100000000E-03 0.  1.
         12    1    3    3    0    0 -0.16058423605E+01 -0.42153747542E+02 -0.19230618372E+01  0.42228134322E+02  0.00000000000E+00 0. -1.
</event>
<event>
 7    1  0.3707147E-015  0.9000753E+02  0.7816164E-02  0.1186339E+00
        -11   -1    0    0    0    0  0.00000000000E+00  0.00000000000E+00  0.45593999997E+02  0.45594000000E+02  0.51100000000E-03 0.  1.
         11   -1    0    0    0    0 -0.00000000000E+00 -0.00000000000E+00 -0.45593999997E+02  0.45594000000E+02  0.51100000000E-03 0. -1.
    9900012    2    1    2    0    0 -0.85739627283E+00  0.80414220074E+00  0.10828918162E+00  0.90007534162E+02  0.89999792813E+02 0.  0.
         12    1    1    2    0    0  0.85739627283E+00 -0.80414220074E+00 -0.10828918162E+00  0.11804658379E+01  0.00000000000E+00 0. -1.
         11    1    3    3    0    0 -0.94928160925E+01 -0.17189945694E+01  0.28946167285E+01  0.10072105339E+02  0.51100000000E-03 0. -1.
        -11    1    3    3    0    0 -0.32782818634E+02  0.12228306571E+02  0.83295027499E+01  0.35967002871E+02  0.51100000000E-03 0.  1.
         12    1    3    3    0    0  0.41418238454E+02 -0.97051698008E+01 -0.11115830297E+02  0.43968425952E+02  0.00000000000E+00 0. -1.
</event>
<event>
 7    1  0.3707147E-015  0.9000785E+02  0.7816164E-02  0.1186339E+00
        -11   -1    0    0    0    0  0.00000000000E+00  0.00000000000E+00  0.45593999997E+02  0.45594000000E+02  0.51100000000E-03 0.  1.
         11   -1    0    0    0    0 -0.00000000000E+00 -0.00000000000E+00 -0.45593999997E+02  0.45594000000E+02  0.51100000000E-03 0. -1.
    9900012    2    1    2    0    0 -0.83412336938E+00  0.66515708762E+00  0.50452808731E+00  0.90007854103E+02  0.90000116977E+02 0.  0.
         12    1    1    2    0    0  0.83412336938E+00 -0.66515708762E+00 -0.50452808731E+00  0.11801458967E+01  0.00000000000E+00 0. -1.
         11    1    3    3    0    0  0.20037218059E+02 -0.35296421125E+02  0.82733293084E+01  0.41421919679E+02  0.51100000000E-03 0. -1.
        -11    1    3    3    0    0 -0.98962273286E+01  0.61118357471E+01 -0.11751058117E+02  0.16534122857E+02  0.51100000000E-03 0.  1.
        -12    1    3    3    0    0 -0.10975114100E+02  0.29849742466E+02  0.39822568955E+01  0.32051811567E+02  0.00000000000E+00 0.  1.
</event>
<event>
 7    1  0.3707147E-015  0.9000790E+02  0.7816164E-02  0.1186339E+00
        -11   -1    0    0    0    0  0.00000000000E+00  0.00000000000E+00  0.45593999997E+02  0.45594000000E+02  0.51100000000E-03 0. -1.
         11   -1    0    0    0    0 -0.00000000000E+00 -0.00000000000E+00 -0.45593999997E+02  0.45594000000E+02  0.51100000000E-03 0.  1.
    9900012    2    1    2    0    0  0.56335046655E-01 -0.44590331045E+00 -0.10911663198E+01  0.90007895201E+02  0.90000158617E+02 0.  0.
         12    1    1    2    0    0 -0.56335046655E-01  0.44590331045E+00  0.10911663198E+01  0.11801047992E+01  0.00000000000E+00 0. -1.
         11    1    3    3    0    0  0.11043027440E+02  0.15992915627E+02 -0.17529423595E+02  0.26172552362E+02  0.51100000000E-03 0. -1.
        -11    1    3    3    0    0  0.27231829182E+01  0.20804835155E+02  0.27732251164E+00  0.20984132079E+02  0.51100000000E-03 0.  1.
         12    1    3    3    0    0 -0.13709875312E+02 -0.37243654093E+02  0.16160934764E+02  0.42851210761E+02  0.00000000000E+00 0. -1.
</event>
<event>
 7    1  0.3707147E-015  0.9000779E+02  0.7816164E-02  0.1186339E+00
        -11   -1    0    0    0    0  0.00000000000E+00  0.00000000000E+00  0.45593999997E+02  0.45594000000E+02  0.51100000000E-03 0.  1.
         11   -1    0    0    0    0 -0.00000000000E+00 -0.00000000000E+00 -0.45593999997E+02  0.45594000000E+02  0.51100000000E-03 0. -1.
    9900012    2    1    2    0    0 -0.78787789124E+00 -0.70562141739E+00 -0.52369197654E+00  0.90007785425E+02  0.90000047393E+02 0.  0.
         12    1    1    2    0    0  0.78787789124E+00  0.70562141739E+00  0.52369197654E+00  0.11802145748E+01  0.00000000000E+00 0. -1.
         11    1    3    3    0    0 -0.64864259814E+01 -0.23112142881E+01  0.85244986575E+01  0.10958216603E+02  0.51100000000E-03 0. -1.
        -11    1    3    3    0    0  0.17840403178E+01 -0.38281297978E+02 -0.66841323905E+01  0.38901390731E+02  0.51100000000E-03 0.  1.
         12    1    3    3    0    0  0.39145077724E+01  0.39886890849E+02 -0.23640582435E+01  0.40148178091E+02  0.00000000000E+00 0. -1.
</event>
<event>
 7    1  0.3707147E-015  0.9000774E+02  0.7816164E-02  0.1186339E+00
        -11   -1    0    0    0    0  0.00000000000E+00  0.00000000000E+00  0.45593999997E+02  0.45594000000E+02  0.51100000000E-03 0. -1.
         11   -1    0    0    0    0 -0.00000000000E+00 -0.00000000000E+00 -0.45593999997E+02  0.45594000000E+02  0.51100000000E-03 0.  1.
    9900012    2    1    2    0    0  0.26009574860E+00  0.10212898431E+01 -0.53134102920E+00  0.90007743235E+02  0.90000004646E+02 0.  0.
         12    1    1    2    0    0 -0.26009574860E+00 -0.10212898431E+01  0.53134102920E+00  0.11802567650E+01  0.00000000000E+00 0. -1.
         11    1    3    3    0    0  0.54112227514E+01  0.81510608922E+01  0.17703353212E+01  0.99425958755E+01  0.51100000000E-03 0. -1.
        -11    1    3    3    0    0 -0.17374202816E+02  0.25433126499E+02 -0.24020083264E+02  0.39059841874E+02  0.51100000000E-03 0.  1.
         12    1    3    3    0    0  0.12223075813E+02 -0.32562897548E+02  0.21718406913E+02  0.41005305485E+02  0.00000000000E+00 0. -1.
</event>
<event>
 7    1  0.3707147E-015  0.9000771E+02  0.7816164E-02  0.1186339E+00
        -11   -1    0    0    0    0  0.00000000000E+00  0.00000000000E+00  0.45593999997E+02  0.45594000000E+02  0.51100000000E-03 0.  1.
         11   -1    0    0    0    0 -0.00000000000E+00 -0.00000000000E+00 -0.45593999997E+02  0.45594000000E+02  0.51100000000E-03 0. -1.
    9900012    2    1    2    0    0 -0.14940786271E+00  0.83099912875E+00  0.82473967470E+00  0.90007712835E+02  0.89999973844E+02 0.  0.
         12    1    1    2    0    0  0.14940786271E+00 -0.83099912875E+00 -0.82473967470E+00  0.11802871652E+01  0.00000000000E+00 0. -1.
         11    1    3    3    0    0  0.63566253786E+00  0.62958294062E+01 -0.10703478686E+02  0.12434065748E+02  0.51100000000E-03 0. -1.
        -11    1    3    3    0    0 -0.38107109327E+02 -0.72840247944E+01  0.12400404400E+01  0.38816832676E+02  0.51100000000E-03 0.  1.
         12    1    3    3    0    0  0.37322038926E+02  0.18191945170E+01  0.10288177921E+02  0.38756814410E+02  0.00000000000E+00 0. -1.
</event>
<event>
 7    1  0.3707147E-015  0.9000814E+02  0.7816164E-02  0.1186338E+00
        -11   -1    0    0    0    0  0.00000000000E+00  0.00000000000E+00  0.45593999997E+02  0.45594000000E+02  0.51100000000E-03 0.  1.
         11   -1    0    0    0    0 -0.00000000000E+00 -0.00000000000E+00 -0.45593999997E+02  0.45594000000E+02  0.51100000000E-03 0. -1.
    9900012    2    1    2    0    0  0.22741242213E+00 -0.10023639073E+01  0.57932167864E+00  0.90008142627E+02  0.90000409309E+02 0.  0.
         12    1    1    2    0    0 -0.22741242213E+00  0.10023639073E+01 -0.57932167864E+00  0.11798573726E+01  0.00000000000E+00 0. -1.
         11    1    3    3    0    0  0.12652047580E+02 -0.21685348106E+01 -0.38637348812E+02  0.40713899036E+02  0.51100000000E-03 0. -1.
        -11    1    3    3    0    0  0.27924157529E+01  0.48892005726E+01 -0.13651941574E+01  0.57935846697E+01  0.51100000000E-03 0.  1.
        -12    1    3    3    0    0 -0.15217050911E+02 -0.37230296694E+01  0.40581864648E+02  0.43500658922E+02  0.00000000000E+00 0.  1.
</event>
<event>
 7    1  0.3707147E-015  0.9000776E+02  0.7816164E-02  0.1186339E+00
        -11   -1    0    0    0    0  0.00000000000E+00  0.00000000000E+00  0.45593999997E+02  0.45594000000E+02  0.51100000000E-03 0.  1.
         11   -1    0    0    0    0 -0.00000000000E+00 -0.00000000000E+00 -0.45593999997E+02  0.45594000000E+02  0.51100000000E-03 0. -1.
    9900012    2    1    2    0    0  0.82772717708E-01  0.11849378601E+00  0.11713555920E+01  0.90007760184E+02  0.90000021819E+02 0.  0.
         12    1    1    2    0    0 -0.82772717708E-01 -0.11849378601E+00 -0.11713555920E+01  0.11802398159E+01  0.00000000000E+00 0. -1.
         11    1    3    3    0    0 -0.46733293246E+00  0.79895804823E+01  0.29621535831E+01  0.85338239063E+01  0.51100000000E-03 0. -1.
        -11    1    3    3    0    0  0.35846734689E+02 -0.20285309327E+02 -0.11605148864E+02  0.42792074532E+02  0.51100000000E-03 0.  1.
         12    1    3    3    0    0 -0.35296629039E+02  0.12414222630E+02  0.98143508732E+01  0.38681861746E+02  0.00000000000E+00 0. -1.
</event>
<event>
 7    1  0.3707147E-015  0.9000767E+02  0.7816164E-02  0.1186339E+00
        -11   -1    0    0    0    0  0.00000000000E+00  0.00000000000E+00  0.45593999997E+02  0.45594000000E+02  0.51100000000E-03 0.  1.
         11   -1    0    0    0    0 -0.00000000000E+00 -0.00000000000E+00 -0.45593999997E+02  0.45594000000E+02  0.51100000000E-03 0. -1.
    9900012    2    1    2    0    0 -0.55987942494E+00 -0.91425464334E+00 -0.49381531191E+00  0.90007669502E+02  0.89999929939E+02 0.  0.
         12    1    1    2    0    0  0.55987942494E+00  0.91425464334E+00  0.49381531191E+00  0.11803304985E+01  0.00000000000E+00 0. -1.
         11    1    3    3    0    0  0.74963870443E+01  0.41859054453E+01  0.23484129290E+02  0.25004438643E+02  0.51100000000E-03 0. -1.
        -11    1    3    3    0    0 -0.31251764759E+02 -0.14934994094E+02 -0.93775594065E+01  0.35884055927E+02  0.51100000000E-03 0.  1.
         12    1    3    3    0    0  0.23195498289E+02  0.98348340053E+01 -0.14600385195E+02  0.29119174931E+02  0.00000000000E+00 0. -1.
</event>
<event>
 7    1  0.3707147E-015  0.9000771E+02  0.7816164E-02  0.1186339E+00
        -11   -1    0    0    0    0  0.00000000000E+00  0.00000000000E+00  0.45593999997E+02  0.45594000000E+02  0.51100000000E-03 0.  1.
         11   -1    0    0    0    0 -0.00000000000E+00 -0.00000000000E+00 -0.45593999997E+02  0.45594000000E+02  0.51100000000E-03 0. -1.
    9900012    2    1    2    0    0 -0.63811788386E+00 -0.29669586879E+00  0.94755462993E+00  0.90007710777E+02  0.89999971760E+02 0.  0.
         12    1    1    2    0    0  0.63811788386E+00  0.29669586879E+00 -0.94755462993E+00  0.11802892226E+01  0.00000000000E+00 0. -1.
         11    1    3    3    0    0  0.25971214711E+02  0.31716482567E+02  0.37512634790E+01  0.41164441426E+02  0.51100000000E-03 0. -1.
        -11    1    3    3    0    0  0.79090984582E+00 -0.52652275319E+01 -0.86009694762E+01  0.10115573911E+02  0.51100000000E-03 0.  1.
        -12    1    3    3    0    0 -0.27400242441E+02 -0.26747950904E+02  0.57972606272E+01  0.38727695441E+02  0.00000000000E+00 0.  1.
</event>
<event>
 7    1  0.3707147E-015  0.9000791E+02  0.7816164E-02  0.1186339E+00
        -11   -1    0    0    0    0  0.00000000000E+00  0.00000000000E+00  0.45593999997E+02  0.45594000000E+02  0.51100000000E-03 0. -1.
         11   -1    0    0    0    0 -0.00000000000E+00 -0.00000000000E+00 -0.45593999997E+02  0.45594000000E+02  0.51100000000E-03 0.  1.
    9900012    2    1    2    0    0  0.76938867930E+00 -0.84251857020E+00 -0.30135252798E+00  0.90007911094E+02  0.90000174720E+02 0.  0.
         12    1    1    2    0    0 -0.76938867930E+00  0.84251857020E+00  0.30135252798E+00  0.11800889064E+01  0.00000000000E+00 0. -1.
         11    1    3    3    0    0 -0.12042808641E+02  0.44419683838E+01  0.29999281731E+02  0.32630005022E+02  0.51100000000E-03 0. -1.
        -11    1    3    3    0    0 -0.59624740026E+01 -0.30766874264E+00  0.10562746453E+02  0.12133316495E+02  0.51100000000E-03 0.  1.
        -12    1    3    3    0    0  0.18774671323E+02 -0.49768182113E+01 -0.40863380712E+02  0.45244589577E+02  0.00000000000E+00 0.  1.
</event>
<event>
 7    1  0.3707147E-015  0.9000776E+02  0.7816164E-02  0.1186339E+00
        -11   -1    0    0    0    0  0.00000000000E+00  0.00000000000E+00  0.45593999997E+02  0.45594000000E+02  0.51100000000E-03 0.  1.
         11   -1    0    0    0    0 -0.00000000000E+00 -0.00000000000E+00 -0.45593999997E+02  0.45594000000E+02  0.51100000000E-03 0. -1.
    9900012    2    1    2    0    0  0.20592588743E+00 -0.68119343565E+00  0.94155849827E+00  0.90007761730E+02  0.90000023385E+02 0.  0.
         12    1    1    2    0    0 -0.20592588743E+00  0.68119343565E+00 -0.94155849827E+00  0.11802382698E+01  0.00000000000E+00 0. -1.
         11    1    3    3    0    0  0.38043047234E+02 -0.46865277658E+01 -0.10911331271E+02  0.39853408082E+02  0.51100000000E-03 0. -1.
        -11    1    3    3    0    0 -0.49113902426E+01 -0.59536285795E+01 -0.74352652987E+01  0.10716838046E+02  0.51100000000E-03 0.  1.
        -12    1    3    3    0    0 -0.32925731104E+02  0.99589629097E+01  0.19288155068E+02  0.39437515603E+02  0.00000000000E+00 0.  1.
</event>
<event>
 7    1  0.3707147E-015  0.9000779E+02  0.7816164E-02  0.1186339E+00
        -11   -1    0    0    0    0  0.00000000000E+00  0.00000000000E+00  0.45593999997E+02  0.45594000000E+02  0.51100000000E-03 0.  1.
         11   -1    0    0    0    0 -0.00000000000E+00 -0.00000000000E+00 -0.45593999997E+02  0.45594000000E+02  0.51100000000E-03 0. -1.
    9900012    2    1    2    0    0 -0.11965860335E+00 -0.76743303302E+00  0.88861126167E+00  0.90007787470E+02  0.90000049465E+02 0.  0.
         12    1    1    2    0    0  0.11965860335E+00  0.76743303302E+00 -0.88861126167E+00  0.11802125300E+01  0.00000000000E+00 0. -1.
         11    1    3    3    0    0 -0.12284399079E+01  0.31134563495E+00  0.14999266278E+02  0.15052707060E+02  0.51100000000E-03 0. -1.
        -11    1    3    3    0    0 -0.28437960051E+01 -0.10380589373E+02  0.28865330346E+02  0.30806673104E+02  0.51100000000E-03 0.  1.
         12    1    3    3    0    0  0.39525773097E+01  0.93018107054E+01 -0.42975985362E+02  0.44148407306E+02  0.00000000000E+00 0. -1.
</event>
<event>
 7    1  0.3707147E-015  0.9000775E+02  0.7816164E-02  0.1186339E+00
        -11   -1    0    0    0    0  0.00000000000E+00  0.00000000000E+00  0.45593999997E+02  0.45594000000E+02  0.51100000000E-03 0.  1.
         11   -1    0    0    0    0 -0.00000000000E+00 -0.00000000000E+00 -0.45593999997E+02  0.45594000000E+02  0.51100000000E-03 0. -1.
    9900012    2    1    2    0    0  0.51305640143E+00 -0.99749928155E+00  0.36708618826E+00  0.90007752586E+02  0.90000014121E+02 0.  0.
         12    1    1    2    0    0 -0.51305640143E+00  0.99749928155E+00 -0.36708618826E+00  0.11802474136E+01  0.00000000000E+00 0. -1.
         11    1    3    3    0    0 -0.24239766869E+02 -0.11300903044E+02 -0.27079036841E+02  0.38059833735E+02  0.51100000000E-03 0. -1.
        -11    1    3    3    0    0 -0.84246273254E+01 -0.17758953383E+01  0.73572574238E+01  0.11325077787E+02  0.51100000000E-03 0.  1.
        -12    1    3    3    0    0  0.33177450596E+02  0.12079299100E+02  0.20088865605E+02  0.40622841064E+02  0.00000000000E+00 0.  1.
</event>
<event>
 7    1  0.3707147E-015  0.9000800E+02  0.7816164E-02  0.1186339E+00
        -11   -1    0    0    0    0  0.00000000000E+00  0.00000000000E+00  0.45593999997E+02  0.45594000000E+02  0.51100000000E-03 0.  1.
         11   -1    0    0    0    0 -0.00000000000E+00 -0.00000000000E+00 -0.45593999997E+02  0.45594000000E+02  0.51100000000E-03 0. -1.
    9900012    2    1    2    0    0 -0.46345557815E+00 -0.21081223849E-01  0.10849683937E+01  0.90008003430E+02  0.90000268274E+02 0.  0.
         12    1    1    2    0    0  0.46345557815E+00  0.21081223849E-01 -0.10849683937E+01  0.11799965705E+01  0.00000000000E+00 0. -1.
         11    1    3    3    0    0  0.40016288081E+01 -0.83252964861E+01 -0.37631404338E+01  0.99742077823E+01  0.51100000000E-03 0. -1.
        -11    1    3    3    0    0 -0.22757582527E+02 -0.29204957229E+02 -0.44121926444E+01  0.37286787652E+02  0.51100000000E-03 0.  1.
         12    1    3    3    0    0  0.18292498141E+02  0.37509172491E+02  0.92603014719E+01  0.42747007995E+02  0.00000000000E+00 0. -1.
</event>
<event>
 7    1  0.3707147E-015  0.9000770E+02  0.7816164E-02  0.1186339E+00
        -11   -1    0    0    0    0  0.00000000000E+00  0.00000000000E+00  0.45593999997E+02  0.45594000000E+02  0.51100000000E-03 0. -1.
         11   -1    0    0    0    0 -0.00000000000E+00 -0.00000000000E+00 -0.45593999997E+02  0.45594000000E+02  0.51100000000E-03 0.  1.
    9900012    2    1    2    0    0 -0.68320307997E-01  0.10128555026E+01  0.60212460304E+00  0.90007704287E+02  0.89999965183E+02 0.  0.
         12    1    1    2    0    0  0.68320307997E-01 -0.10128555026E+01 -0.60212460304E+00  0.11802957134E+01  0.00000000000E+00 0. -1.
         11    1    3    3    0    0 -0.78622023519E+00  0.61538341295E+01 -0.53197136273E+01  0.81723417751E+01  0.51100000000E-03 0. -1.
        -11    1    3    3    0    0 -0.36379433077E+02 -0.77318410984E+01 -0.13888020719E+02  0.39700398456E+02  0.51100000000E-03 0.  1.
         12    1    3    3    0    0  0.37097333004E+02  0.25908624715E+01  0.19809858950E+02  0.42134964056E+02  0.00000000000E+00 0. -1.
</event>
<event>
 7    1  0.3707147E-015  0.9000781E+02  0.7816164E-02  0.1186339E+00
        -11   -1    0    0    0    0  0.00000000000E+00  0.00000000000E+00  0.45593999997E+02  0.45594000000E+02  0.51100000000E-03 0.  1.
         11   -1    0    0    0    0 -0.00000000000E+00 -0.00000000000E+00 -0.45593999997E+02  0.45594000000E+02  0.51100000000E-03 0. -1.
    9900012    2    1    2    0    0 -0.35722118369E+00 -0.92432745129E+00  0.64098189938E+00  0.90007811029E+02  0.90000073335E+02 0.  0.
         12    1    1    2    0    0  0.35722118369E+00  0.92432745129E+00 -0.64098189938E+00  0.11801889707E+01  0.00000000000E+00 0. -1.
         11    1    3    3    0    0  0.62875676360E+01  0.73705116786E+01 -0.67626102268E+01  0.11814857025E+02  0.51100000000E-03 0. -1.
        -11    1    3    3    0    0 -0.83311654321E+01 -0.55596431252E+00  0.41938401161E+02  0.42761511970E+02  0.51100000000E-03 0.  1.
         12    1    3    3    0    0  0.16863766125E+01 -0.77388748174E+01 -0.34534809035E+02  0.35431442034E+02  0.00000000000E+00 0. -1.
</event>
<event>
 7    1  0.3707147E-015  0.9000768E+02  0.7816164E-02  0.1186339E+00
        -11   -1    0    0    0    0  0.00000000000E+00  0.00000000000E+00  0.45593999997E+02  0.45594000000E+02  0.51100000000E-03 0. -1.
         11   -1    0    0    0    0 -0.00000000000E+00 -0.00000000000E+00 -0.45593999997E+02  0.45594000000E+02  0.51100000000E-03 0.  1.
    9900012    2    1    2    0    0  0.60099412017E+00 -0.51884983249E+00 -0.87336447830E+00  0.90007676064E+02  0.89999936588E+02 0.  0.
         12    1    1    2    0    0 -0.60099412017E+00  0.51884983249E+00  0.87336447830E+00  0.11803239357E+01  0.00000000000E+00 0. -1.
         11    1    3    3    0    0 -0.72496895639E+01 -0.17233378455E+02  0.29230458522E+02  0.34698228160E+02  0.51100000000E-03 0. -1.
        -11    1    3    3    0    0 -0.37172035714E+01 -0.69324962110E+01  0.65125429757E+01  0.10212263333E+02  0.51100000000E-03 0.  1.
        -12    1    3    3    0    0  0.11567887256E+02  0.23647024834E+02 -0.36616365976E+02  0.45097184572E+02  0.00000000000E+00 0.  1.
</event>
<event>
 7    1  0.3707147E-015  0.9000755E+02  0.7816164E-02  0.1186339E+00
        -11   -1    0    0    0    0  0.00000000000E+00  0.00000000000E+00  0.45593999997E+02  0.45594000000E+02  0.51100000000E-03 0.  1.
         11   -1    0    0    0    0 -0.00000000000E+00 -0.00000000000E+00 -0.45593999997E+02  0.45594000000E+02  0.51100000000E-03 0. -1.
    9900012    2    1    2    0    0  0.15179753404E+00  0.28372105969E+00  0.11357447686E+01  0.90007552496E+02  0.89999811388E+02 0.  0.
         12    1    1    2    0    0 -0.15179753404E+00 -0.28372105969E+00 -0.11357447686E+01  0.11804475043E+01  0.00000000000E+00 0. -1.
         11    1    3    3    0    0  0.45911504134E+01 -0.34018028376E+01 -0.60727478259E+01  0.83384165813E+01  0.51100000000E-03 0. -1.
        -11    1    3    3    0    0 -0.57299862610E+01 -0.28658317939E+02  0.30153272004E+02  0.41992281939E+02  0.51100000000E-03 0.  1.
         12    1    3    3    0    0  0.12906333816E+01  0.32343841836E+02 -0.22944779410E+02  0.39676853975E+02  0.00000000000E+00 0. -1.
</event>
<event>
 7    1  0.3707147E-015  0.9000775E+02  0.7816164E-02  0.1186339E+00
        -11   -1    0    0    0    0  0.00000000000E+00  0.00000000000E+00  0.45593999997E+02  0.45594000000E+02  0.51100000000E-03 0. -1.
         11   -1    0    0    0    0 -0.00000000000E+00 -0.00000000000E+00 -0.45593999997E+02  0.45594000000E+02  0.51100000000E-03 0.  1.
    9900012    2    1    2    0    0 -0.21999486218E+00  0.28980456076E+00 -0.11227619426E+01  0.90007754770E+02  0.90000016333E+02 0.  0.
         12    1    1    2    0    0  0.21999486218E+00 -0.28980456076E+00  0.11227619426E+01  0.11802452298E+01  0.00000000000E+00 0. -1.
         11    1    3    3    0    0  0.21658477181E+02 -0.99266284004E+01  0.32040613414E+02  0.39927790991E+02  0.51100000000E-03 0. -1.
        -11    1    3    3    0    0 -0.81020995018E+01 -0.85649470356E+01 -0.33695746181E+01  0.12261988722E+02  0.51100000000E-03 0.  1.
        -12    1    3    3    0    0 -0.13776372541E+02  0.18781379997E+02 -0.29793800739E+02  0.37817975057E+02  0.00000000000E+00 0.  1.
</event>
<event>
 7    1  0.3707147E-015  0.9000778E+02  0.7816164E-02  0.1186339E+00
        -11   -1    0    0    0    0  0.00000000000E+00  0.00000000000E+00  0.45593999997E+02  0.45594000000E+02  0.51100000000E-03 0. -1.
         11   -1    0    0    0    0 -0.00000000000E+00 -0.00000000000E+00 -0.45593999997E+02  0.45594000000E+02  0.51100000000E-03 0.  1.
    9900012    2    1    2    0    0  0.73636509759E+00 -0.92229564397E+00  0.69446208055E-02  0.90007783478E+02  0.90000045420E+02 0.  0.
         12    1    1    2    0    0 -0.73636509759E+00  0.92229564397E+00 -0.69446208055E-02  0.11802165223E+01  0.00000000000E+00 0. -1.
         11    1    3    3    0    0  0.61636241760E+01 -0.40461630348E+02  0.13911489815E+02  0.43228038846E+02  0.51100000000E-03 0. -1.
        -11    1    3    3    0    0 -0.52334109995E+01  0.25661911529E+01 -0.70984590786E+01  0.91848815602E+01  0.51100000000E-03 0.  1.
        -12    1    3    3    0    0 -0.19384807900E+00  0.36973143551E+02 -0.68060861152E+01  0.37594863071E+02  0.00000000000E+00 0.  1.
</event>
<event>
 7    1  0.3707147E-015  0.9000771E+02  0.7816164E-02  0.1186339E+00
        -11   -1    0    0    0    0  0.00000000000E+00  0.00000000000E+00  0.45593999997E+02  0.45594000000E+02  0.51100000000E-03 0.  1.
         11   -1    0    0    0    0 -0.00000000000E+00 -0.00000000000E+00 -0.45593999997E+02  0.45594000000E+02  0.51100000000E-03 0. -1.
    9900012    2    1    2    0    0  0.11483502077E+01 -0.27807521769E-01  0.27129955149E+00  0.90007709822E+02  0.89999970792E+02 0.  0.
         12    1    1    2    0    0 -0.11483502077E+01  0.27807521769E-01 -0.27129955149E+00  0.11802901780E+01  0.00000000000E+00 0. -1.
         11    1    3    3    0    0  0.84797764343E+01  0.40437621540E+00 -0.12679379474E+01  0.85835770748E+01  0.51100000000E-03 0. -1.
        -11    1    3    3    0    0 -0.17956711961E+02  0.31644898481E+02  0.21417003439E+02  0.42220032460E+02  0.51100000000E-03 0.  1.
         12    1    3    3    0    0  0.10625285734E+02 -0.32077082219E+02 -0.19877765940E+02  0.39204100287E+02  0.00000000000E+00 0. -1.
</event>
<event>
 7    1  0.3707147E-015  0.9000775E+02  0.7816164E-02  0.1186339E+00
        -11   -1    0    0    0    0  0.00000000000E+00  0.00000000000E+00  0.45593999997E+02  0.45594000000E+02  0.51100000000E-03 0.  1.
         11   -1    0    0    0    0 -0.00000000000E+00 -0.00000000000E+00 -0.45593999997E+02  0.45594000000E+02  0.51100000000E-03 0. -1.
    9900012    2    1    2    0    0  0.15894826640E+00  0.10957448330E+01  0.40873776413E+00  0.90007750937E+02  0.90000012450E+02 0.  0.
         12    1    1    2    0    0 -0.15894826640E+00 -0.10957448330E+01 -0.40873776413E+00  0.11802490628E+01  0.00000000000E+00 0. -1.
         11    1    3    3    0    0 -0.18659180707E+02 -0.21510374099E+02 -0.25730652033E+02  0.38378739855E+02  0.51100000000E-03 0. -1.
        -11    1    3    3    0    0 -0.79708054542E+01  0.93135097997E+01  0.55220700478E+00  0.12271109861E+02  0.51100000000E-03 0.  1.
        -12    1    3    3    0    0  0.26788934427E+02  0.13292609132E+02  0.25587182793E+02  0.39357901222E+02  0.00000000000E+00 0.  1.
</event>
<event>
 7    1  0.3707147E-015  0.9000769E+02  0.7816164E-02  0.1186339E+00
        -11   -1    0    0    0    0  0.00000000000E+00  0.00000000000E+00  0.45593999997E+02  0.45594000000E+02  0.51100000000E-03 0. -1.
         11   -1    0    0    0    0 -0.00000000000E+00 -0.00000000000E+00 -0.45593999997E+02  0.45594000000E+02  0.51100000000E-03 0.  1.
    9900012    2    1    2    0    0 -0.17399422189E+00 -0.11484746354E+01 -0.20944217590E+00  0.90007689023E+02  0.89999949718E+02 0.  0.
         12    1    1    2    0    0  0.17399422189E+00  0.11484746354E+01  0.20944217590E+00  0.11803109770E+01  0.00000000000E+00 0. -1.
         11    1    3    3    0    0  0.33319063079E+02 -0.79380980593E+01 -0.16874627044E+02  0.38182802456E+02  0.51100000000E-03 0. -1.
        -11    1    3    3    0    0  0.68234003995E+01 -0.15048088611E+01  0.62310863226E+01  0.93621407670E+01  0.51100000000E-03 0.  1.
        -12    1    3    3    0    0 -0.40316457700E+02  0.82944322851E+01  0.10434098545E+02  0.42462745800E+02  0.00000000000E+00 0.  1.
</event>
<event>
 7    1  0.3750752E-015  0.9000773E+02  0.7816164E-02  0.1186339E+00
        -11   -1    0    0    0    0  0.00000000000E+00  0.00000000000E+00  0.45593999997E+02  0.45594000000E+02  0.51100000000E-03 0. -1.
         11   -1    0    0    0    0 -0.00000000000E+00 -0.00000000000E+00 -0.45593999997E+02  0.45594000000E+02  0.51100000000E-03 0.  1.
    9900012    2    1    2    0    0  0.64455902761E+00  0.97456586183E+00 -0.16676087394E+00  0.90007727087E+02  0.89999988285E+02 0.  0.
         12    1    1    2    0    0 -0.64455902761E+00 -0.97456586183E+00  0.16676087394E+00  0.11802729126E+01  0.00000000000E+00 0. -1.
         11    1    3    3    0    0 -0.77284269014E+00 -0.57798489792E+01 -0.73557311598E+01  0.93867311244E+01  0.51100000000E-03 0. -1.
        -11    1    3    3    0    0 -0.35770919942E+02 -0.13025159354E+02  0.13066611854E+01  0.38090955008E+02  0.51100000000E-03 0.  1.
         12    1    3    3    0    0  0.37188321660E+02  0.19779574195E+02  0.58823091004E+01  0.42530040955E+02  0.00000000000E+00 0. -1.
</event>
<event>
 7    1  0.3707147E-015  0.9000779E+02  0.7816164E-02  0.1186339E+00
        -11   -1    0    0    0    0  0.00000000000E+00  0.00000000000E+00  0.45593999997E+02  0.45594000000E+02  0.51100000000E-03 0. -1.
         11   -1    0    0    0    0 -0.00000000000E+00 -0.00000000000E+00 -0.45593999997E+02  0.45594000000E+02  0.51100000000E-03 0.  1.
    9900012    2    1    2    0    0  0.88908019823E+00  0.60669332903E+00 -0.48410631198E+00  0.90007788445E+02  0.90000050452E+02 0.  0.
         12    1    1    2    0    0 -0.88908019823E+00 -0.60669332903E+00  0.48410631198E+00  0.11802115555E+01  0.00000000000E+00 0. -1.
         11    1    3    3    0    0 -0.42038264686E+01 -0.26701299951E+02  0.25998945654E+02  0.37504356433E+02  0.51100000000E-03 0. -1.
        -11    1    3    3    0    0 -0.32580895934E+01 -0.79538388186E+01 -0.21679691726E+01  0.88644678546E+01  0.51100000000E-03 0.  1.
        -12    1    3    3    0    0  0.83509962603E+01  0.35261832099E+02 -0.24315082793E+02  0.43638964157E+02  0.00000000000E+00 0.  1.
</event>
<event>
 7    1  0.3707147E-015  0.9000770E+02  0.7816164E-02  0.1186339E+00
        -11   -1    0    0    0    0  0.00000000000E+00  0.00000000000E+00  0.45593999997E+02  0.45594000000E+02  0.51100000000E-03 0.  1.
         11   -1    0    0    0    0 -0.00000000000E+00 -0.00000000000E+00 -0.45593999997E+02  0.45594000000E+02  0.51100000000E-03 0. -1.
    9900012    2    1    2    0    0 -0.50705699196E+00  0.10429077754E+01  0.21986365138E+00  0.90007701967E+02  0.89999962833E+02 0.  0.
         12    1    1    2    0    0  0.50705699196E+00 -0.10429077754E+01 -0.21986365138E+00  0.11802980328E+01  0.00000000000E+00 0. -1.
         11    1    3    3    0    0 -0.71592187344E+01  0.61242344434E+01 -0.37904303182E+01  0.10155196830E+02  0.51100000000E-03 0. -1.
        -11    1    3    3    0    0 -0.17539507067E+02  0.17011032927E+02  0.29527613534E+02  0.38326094384E+02  0.51100000000E-03 0.  1.
         12    1    3    3    0    0  0.24191668809E+02 -0.22092359595E+02 -0.25517319565E+02  0.41526410753E+02  0.00000000000E+00 0. -1.
</event>
<event>
 7    1  0.3707147E-015  0.9000779E+02  0.7816164E-02  0.1186339E+00
        -11   -1    0    0    0    0  0.00000000000E+00  0.00000000000E+00  0.45593999997E+02  0.45594000000E+02  0.51100000000E-03 0.  1.
         11   -1    0    0    0    0 -0.00000000000E+00 -0.00000000000E+00 -0.45593999997E+02  0.45594000000E+02  0.51100000000E-03 0. -1.
    9900012    2    1    2    0    0 -0.11217898207E-02  0.39731420926E+00  0.11113167412E+01  0.90007794620E+02  0.90000056709E+02 0.  0.
         12    1    1    2    0    0  0.11217898207E-02 -0.39731420926E+00 -0.11113167412E+01  0.11802053799E+01  0.00000000000E+00 0. -1.
         11    1    3    3    0    0  0.37421628686E+02  0.59404391354E+01  0.12442387719E+02  0.39880824001E+02  0.51100000000E-03 0. -1.
        -11    1    3    3    0    0 -0.38575174349E+01 -0.24609362488E+01  0.94709016432E+01  0.10518299586E+02  0.51100000000E-03 0.  1.
        -12    1    3    3    0    0 -0.33565233041E+02 -0.30821886774E+01 -0.20801972621E+02  0.39608671033E+02  0.00000000000E+00 0.  1.
</event>
<event>
 7    1  0.3707147E-015  0.9000771E+02  0.7816164E-02  0.1186339E+00
        -11   -1    0    0    0    0  0.00000000000E+00  0.00000000000E+00  0.45593999997E+02  0.45594000000E+02  0.51100000000E-03 0.  1.
         11   -1    0    0    0    0 -0.00000000000E+00 -0.00000000000E+00 -0.45593999997E+02  0.45594000000E+02  0.51100000000E-03 0. -1.
    9900012    2    1    2    0    0 -0.49756557865E+00 -0.94488979539E+00  0.50269949032E+00  0.90007705542E+02  0.89999966455E+02 0.  0.
         12    1    1    2    0    0  0.49756557865E+00  0.94488979539E+00 -0.50269949032E+00  0.11802944582E+01  0.00000000000E+00 0. -1.
         11    1    3    3    0    0  0.20602290106E+02  0.58782884384E+01 -0.29438257782E+02  0.36409060055E+02  0.51100000000E-03 0. -1.
        -11    1    3    3    0    0  0.93083061286E+01 -0.27766304601E+01 -0.13171730066E+01  0.98025091016E+01  0.51100000000E-03 0.  1.
        -12    1    3    3    0    0 -0.30408161813E+02 -0.40465477737E+01  0.31258130279E+02  0.43796136385E+02  0.00000000000E+00 0.  1.
</event>
<event>
 7    1  0.3707147E-015  0.9000775E+02  0.7816164E-02  0.1186339E+00
        -11   -1    0    0    0    0  0.00000000000E+00  0.00000000000E+00  0.45593999997E+02  0.45594000000E+02  0.51100000000E-03 0. -1.
         11   -1    0    0    0    0 -0.00000000000E+00 -0.00000000000E+00 -0.45593999997E+02  0.45594000000E+02  0.51100000000E-03 0.  1.
    9900012    2    1    2    0    0  0.11076652956E+01  0.15844921782E+00 -0.37544616766E+00  0.90007750710E+02  0.90000012219E+02 0.  0.
         12    1    1    2    0    0 -0.11076652956E+01 -0.15844921782E+00  0.37544616766E+00  0.11802492900E+01  0.00000000000E+00 0. -1.
         11    1    3    3    0    0  0.85452178972E+01 -0.25918965999E+01 -0.84580193444E+00  0.89696186134E+01  0.51100000000E-03 0. -1.
        -11    1    3    3    0    0 -0.43487105543E+01  0.26429721105E+02 -0.31362560233E+02  0.41243807121E+02  0.51100000000E-03 0.  1.
         12    1    3    3    0    0 -0.30888420474E+01 -0.23679375287E+02  0.31832916000E+02  0.39794324976E+02  0.00000000000E+00 0. -1.
</event>
<event>
 7    1  0.3707147E-015  0.9000777E+02  0.7816164E-02  0.1186339E+00
        -11   -1    0    0    0    0  0.00000000000E+00  0.00000000000E+00  0.45593999997E+02  0.45594000000E+02  0.51100000000E-03 0. -1.
         11   -1    0    0    0    0 -0.00000000000E+00 -0.00000000000E+00 -0.45593999997E+02  0.45594000000E+02  0.51100000000E-03 0.  1.
    9900012    2    1    2    0    0 -0.33024400183E+00 -0.10955784422E+01 -0.28913292364E+00  0.90007766518E+02  0.90000028236E+02 0.  0.
         12    1    1    2    0    0  0.33024400183E+00  0.10955784422E+01  0.28913292364E+00  0.11802334817E+01  0.00000000000E+00 0. -1.
         11    1    3    3    0    0 -0.19148238049E+01  0.12365561935E+02  0.43750618252E+01  0.13255747373E+02  0.51100000000E-03 0. -1.
        -11    1    3    3    0    0 -0.19570580006E+02 -0.12501828081E+02  0.28894533366E+02  0.37070168139E+02  0.51100000000E-03 0.  1.
         12    1    3    3    0    0  0.21155159809E+02 -0.95931229665E+00 -0.33558728115E+02  0.39681851007E+02  0.00000000000E+00 0. -1.
</event>
<event>
 7    1  0.3707147E-015  0.9000772E+02  0.7816164E-02  0.1186339E+00
        -11   -1    0    0    0    0  0.00000000000E+00  0.00000000000E+00  0.45593999997E+02  0.45594000000E+02  0.51100000000E-03 0. -1.
         11   -1    0    0    0    0 -0.00000000000E+00 -0.00000000000E+00 -0.45593999997E+02  0.45594000000E+02  0.51100000000E-03 0.  1.
    9900012    2    1    2    0    0 -0.51338732134E+00 -0.86503113254E+00 -0.61741726264E+00  0.90007724829E+02  0.89999985997E+02 0.  0.
         12    1    1    2    0    0  0.51338732134E+00  0.86503113254E+00  0.61741726264E+00  0.11802751705E+01  0.00000000000E+00 0. -1.
         11    1    3    3    0    0  0.78506870872E+01 -0.87989850798E+00 -0.63787885570E+01  0.10153642344E+02  0.51100000000E-03 0. -1.
        -11    1    3    3    0    0  0.29436274115E+02  0.10787078423E+02 -0.15710011017E+02  0.35066504546E+02  0.51100000000E-03 0.  1.
         12    1    3    3    0    0 -0.37800348523E+02 -0.10772211047E+02  0.21471382312E+02  0.44787577940E+02  0.00000000000E+00 0. -1.
</event>
<event>
 7    1  0.3707147E-015  0.9000762E+02  0.7816164E-02  0.1186339E+00
        -11   -1    0    0    0    0  0.00000000000E+00  0.00000000000E+00  0.45593999997E+02  0.45594000000E+02  0.51100000000E-03 0. -1.
         11   -1    0    0    0    0 -0.00000000000E+00 -0.00000000000E+00 -0.45593999997E+02  0.45594000000E+02  0.51100000000E-03 0.  1.
    9900012    2    1    2    0    0 -0.42040820480E+00 -0.54417950355E+00 -0.95938768254E+00  0.90007619080E+02  0.89999878852E+02 0.  0.
         12    1    1    2    0    0  0.42040820480E+00  0.54417950355E+00  0.95938768254E+00  0.11803809199E+01  0.00000000000E+00 0. -1.
         11    1    3    3    0    0 -0.87022152584E+00  0.98775203476E+01  0.27163071283E+01  0.10281100058E+02  0.51100000000E-03 0. -1.
        -11    1    3    3    0    0  0.34894399703E+02  0.97403224024E+01  0.99214565837E+01  0.37562325702E+02  0.51100000000E-03 0.  1.
         12    1    3    3    0    0 -0.34444586382E+02 -0.20162022254E+02 -0.13597151395E+02  0.42164193321E+02  0.00000000000E+00 0. -1.
</event>
<event>
 7    1  0.3707147E-015  0.9000780E+02  0.7816164E-02  0.1186339E+00
        -11   -1    0    0    0    0  0.00000000000E+00  0.00000000000E+00  0.45593999997E+02  0.45594000000E+02  0.51100000000E-03 0.  1.
         11   -1    0    0    0    0 -0.00000000000E+00 -0.00000000000E+00 -0.45593999997E+02  0.45594000000E+02  0.51100000000E-03 0. -1.
    9900012    2    1    2    0    0  0.46245640663E+00 -0.31836533032E+00  0.10380980629E+01  0.90007800864E+02  0.90000063036E+02 0.  0.
         12    1    1    2    0    0 -0.46245640663E+00  0.31836533032E+00 -0.10380980629E+01  0.11801991357E+01  0.00000000000E+00 0. -1.
         11    1    3    3    0    0 -0.52951422682E+01  0.91392339656E+01 -0.77473372866E+00  0.10590766815E+02  0.51100000000E-03 0. -1.
        -11    1    3    3    0    0 -0.26135301906E+02 -0.19570649775E+02 -0.21091301505E+02  0.38870391531E+02  0.51100000000E-03 0.  1.
         12    1    3    3    0    0  0.31892900581E+02  0.10113050479E+02  0.22904133296E+02  0.40546642518E+02  0.00000000000E+00 0. -1.
</event>
<event>
 7    1  0.3707147E-015  0.9000776E+02  0.7816164E-02  0.1186339E+00
        -11   -1    0    0    0    0  0.00000000000E+00  0.00000000000E+00  0.45593999997E+02  0.45594000000E+02  0.51100000000E-03 0. -1.
         11   -1    0    0    0    0 -0.00000000000E+00 -0.00000000000E+00 -0.45593999997E+02  0.45594000000E+02  0.51100000000E-03 0.  1.
    9900012    2    1    2    0    0 -0.11372184795E+01 -0.10535959828E+00  0.29763794860E+00  0.90007764912E+02  0.90000026609E+02 0.  0.
         12    1    1    2    0    0  0.11372184795E+01  0.10535959828E+00 -0.29763794860E+00  0.11802350883E+01  0.00000000000E+00 0. -1.
         11    1    3    3    0    0  0.15577764513E+02 -0.68511728280E+01  0.32189459503E+02  0.36411078255E+02  0.51100000000E-03 0. -1.
        -11    1    3    3    0    0 -0.16219978286E+02 -0.26003887556E+01  0.36630829332E+01  0.16830564284E+02  0.51100000000E-03 0.  1.
        -12    1    3    3    0    0 -0.49500470680E+00  0.93462019854E+01 -0.35554904487E+02  0.36766122373E+02  0.00000000000E+00 0.  1.
</event>
<event>
 7    1  0.3707147E-015  0.9000771E+02  0.7816164E-02  0.1186339E+00
        -11   -1    0    0    0    0  0.00000000000E+00  0.00000000000E+00  0.45593999997E+02  0.45594000000E+02  0.51100000000E-03 0.  1.
         11   -1    0    0    0    0 -0.00000000000E+00 -0.00000000000E+00 -0.45593999997E+02  0.45594000000E+02  0.51100000000E-03 0. -1.
    9900012    2    1    2    0    0  0.55610609369E-01  0.11762971810E+01 -0.79484108265E-01  0.90007709645E+02  0.89999970613E+02 0.  0.
         12    1    1    2    0    0 -0.55610609369E-01 -0.11762971810E+01  0.79484108265E-01  0.11802903546E+01  0.00000000000E+00 0. -1.
         11    1    3    3    0    0  0.38844743299E+02 -0.59864226768E+01  0.34573349704E+01  0.39455094776E+02  0.51100000000E-03 0. -1.
        -11    1    3    3    0    0 -0.55395668399E+00 -0.48271643808E+01  0.75479954476E+01  0.89766708475E+01  0.51100000000E-03 0.  1.
        -12    1    3    3    0    0 -0.38235176006E+02  0.11989884239E+02 -0.11084814526E+02  0.41575944022E+02  0.00000000000E+00 0.  1.
</event>
<event>
 7    1  0.3707147E-015  0.9000781E+02  0.7816164E-02  0.1186339E+00
        -11   -1    0    0    0    0  0.00000000000E+00  0.00000000000E+00  0.45593999997E+02  0.45594000000E+02  0.51100000000E-03 0. -1.
         11   -1    0    0    0    0 -0.00000000000E+00 -0.00000000000E+00 -0.45593999997E+02  0.45594000000E+02  0.51100000000E-03 0.  1.
    9900012    2    1    2    0    0  0.96716606102E+00 -0.47006906239E+00 -0.48628670623E+00  0.90007809391E+02  0.90000071675E+02 0.  0.
         12    1    1    2    0    0 -0.96716606102E+00  0.47006906239E+00  0.48628670623E+00  0.11801906090E+01  0.00000000000E+00 0. -1.
         11    1    3    3    0    0  0.37260322463E+02 -0.99445959806E+01  0.11470615749E+02  0.40234334159E+02  0.51100000000E-03 0. -1.
        -11    1    3    3    0    0 -0.37173663814E+01 -0.36046378144E+01  0.78979663312E+01  0.94440509855E+01  0.51100000000E-03 0.  1.
        -12    1    3    3    0    0 -0.32575790021E+02  0.13079164733E+02 -0.19854868786E+02  0.40329424247E+02  0.00000000000E+00 0.  1.
</event>
<event>
 7    1  0.3707147E-015  0.9000777E+02  0.7816164E-02  0.1186339E+00
        -11   -1    0    0    0    0  0.00000000000E+00  0.00000000000E+00  0.45593999997E+02  0.45594000000E+02  0.51100000000E-03 0. -1.
         11   -1    0    0    0    0 -0.00000000000E+00 -0.00000000000E+00 -0.45593999997E+02  0.45594000000E+02  0.51100000000E-03 0.  1.
    9900012    2    1    2    0    0 -0.73448258265E+00  0.79713676992E+00  0.46697105783E+00  0.90007765420E+02  0.90000027124E+02 0.  0.
         12    1    1    2    0    0  0.73448258265E+00 -0.79713676992E+00 -0.46697105783E+00  0.11802345797E+01  0.00000000000E+00 0. -1.
         11    1    3    3    0    0 -0.15613197375E+02  0.30253134922E+02  0.15193711137E+02  0.37281000030E+02  0.51100000000E-03 0. -1.
        -11    1    3    3    0    0  0.35549619991E+01  0.54940960381E+01  0.73691177499E+01  0.98552900903E+01  0.51100000000E-03 0.  1.
        -12    1    3    3    0    0  0.11323752793E+02 -0.34950094190E+02 -0.22095857829E+02  0.42871475300E+02  0.00000000000E+00 0.  1.
</event>
<event>
 7    1  0.3707147E-015  0.9000775E+02  0.7816164E-02  0.1186339E+00
        -11   -1    0    0    0    0  0.00000000000E+00  0.00000000000E+00  0.45593999997E+02  0.45594000000E+02  0.51100000000E-03 0.  1.
         11   -1    0    0    0    0 -0.00000000000E+00 -0.00000000000E+00 -0.45593999997E+02  0.45594000000E+02  0.51100000000E-03 0. -1.
    9900012    2    1    2    0    0  0.30790452213E+00  0.11116539733E+01  0.24980117563E+00  0.90007754103E+02  0.90000015657E+02 0.  0.
         12    1    1    2    0    0 -0.30790452213E+00 -0.11116539733E+01 -0.24980117563E+00  0.11802458974E+01  0.00000000000E+00 0. -1.
         11    1    3    3    0    0 -0.21570601749E+02  0.32840127030E+02 -0.10659005711E+02  0.40710922443E+02  0.51100000000E-03 0. -1.
        -11    1    3    3    0    0  0.32962725592E+01  0.43330626943E+01  0.65174052306E+01  0.84921973775E+01  0.51100000000E-03 0.  1.
        -12    1    3    3    0    0  0.18582233712E+02 -0.36061535751E+02  0.43914016563E+01  0.40804634282E+02  0.00000000000E+00 0.  1.
</event>
<event>
 7    1  0.3707147E-015  0.9000780E+02  0.7816164E-02  0.1186339E+00
        -11   -1    0    0    0    0  0.00000000000E+00  0.00000000000E+00  0.45593999997E+02  0.45594000000E+02  0.51100000000E-03 0.  1.
         11   -1    0    0    0    0 -0.00000000000E+00 -0.00000000000E+00 -0.45593999997E+02  0.45594000000E+02  0.51100000000E-03 0. -1.
    9900012    2    1    2    0    0  0.45089004529E+00  0.98574718233E+00  0.46677059148E+00  0.90007799116E+02  0.90000061265E+02 0.  0.
         12    1    1    2    0    0 -0.45089004529E+00 -0.98574718233E+00 -0.46677059148E+00  0.11802008835E+01  0.00000000000E+00 0. -1.
         11    1    3    3    0    0  0.29399282400E+02 -0.22701015236E+02 -0.85729654726E+00  0.37153584699E+02  0.51100000000E-03 0. -1.
        -11    1    3    3    0    0 -0.78841520840E+01 -0.92026948290E+01  0.59937991095E+01  0.13519433207E+02  0.51100000000E-03 0.  1.
        -12    1    3    3    0    0 -0.21064240271E+02  0.32889457247E+02 -0.46697319707E+01  0.39334781211E+02  0.00000000000E+00 0.  1.
</event>
<event>
 7    1  0.3707147E-015  0.9000773E+02  0.7816164E-02  0.1186339E+00
        -11   -1    0    0    0    0  0.00000000000E+00  0.00000000000E+00  0.45593999997E+02  0.45594000000E+02  0.51100000000E-03 0. -1.
         11   -1    0    0    0    0 -0.00000000000E+00 -0.00000000000E+00 -0.45593999997E+02  0.45594000000E+02  0.51100000000E-03 0.  1.
    9900012    2    1    2    0    0 -0.84778054386E+00 -0.80405269648E+00 -0.16672266796E+00  0.90007733489E+02  0.89999994771E+02 0.  0.
         12    1    1    2    0    0  0.84778054386E+00  0.80405269648E+00  0.16672266796E+00  0.11802665111E+01  0.00000000000E+00 0. -1.
         11    1    3    3    0    0 -0.14583158028E+01  0.44565619838E+01 -0.82514993788E+01  0.94907782587E+01  0.51100000000E-03 0. -1.
        -11    1    3    3    0    0  0.34070843607E+02  0.40917384928E+01  0.24427824572E+02  0.42122242599E+02  0.51100000000E-03 0.  1.
         12    1    3    3    0    0 -0.33460308348E+02 -0.93523531730E+01 -0.16343047862E+02  0.38394712631E+02  0.00000000000E+00 0. -1.
</event>
<event>
 7    1  0.3707147E-015  0.9000778E+02  0.7816164E-02  0.1186339E+00
        -11   -1    0    0    0    0  0.00000000000E+00  0.00000000000E+00  0.45593999997E+02  0.45594000000E+02  0.51100000000E-03 0.  1.
         11   -1    0    0    0    0 -0.00000000000E+00 -0.00000000000E+00 -0.45593999997E+02  0.45594000000E+02  0.51100000000E-03 0. -1.
    9900012    2    1    2    0    0  0.45515796461E+00 -0.10864477782E+01  0.73416869860E-01  0.90007776469E+02  0.90000038318E+02 0.  0.
         12    1    1    2    0    0 -0.45515796461E+00  0.10864477782E+01 -0.73416869860E-01  0.11802235314E+01  0.00000000000E+00 0. -1.
         11    1    3    3    0    0 -0.39364375475E+01  0.28043148407E+01 -0.73692233033E+01  0.88127847271E+01  0.51100000000E-03 0. -1.
        -11    1    3    3    0    0 -0.29178212763E+02 -0.27705266825E+01  0.29041931657E+02  0.41261091997E+02  0.51100000000E-03 0.  1.
         12    1    3    3    0    0  0.33569808275E+02 -0.11202359364E+01 -0.21599291484E+02  0.39933899744E+02  0.00000000000E+00 0. -1.
</event>
<event>
 7    1  0.3707147E-015  0.9000760E+02  0.7816164E-02  0.1186339E+00
        -11   -1    0    0    0    0  0.00000000000E+00  0.00000000000E+00  0.45593999997E+02  0.45594000000E+02  0.51100000000E-03 0.  1.
         11   -1    0    0    0    0 -0.00000000000E+00 -0.00000000000E+00 -0.45593999997E+02  0.45594000000E+02  0.51100000000E-03 0. -1.
    9900012    2    1    2    0    0 -0.76624319725E+00 -0.25693423721E+00  0.86034995609E+00  0.90007599269E+02  0.89999858779E+02 0.  0.
         12    1    1    2    0    0  0.76624319725E+00  0.25693423721E+00 -0.86034995609E+00  0.11804007313E+01  0.00000000000E+00 0. -1.
         11    1    3    3    0    0 -0.53934094453E+01  0.41935842338E+00 -0.81365889189E+01  0.97708140106E+01  0.51100000000E-03 0. -1.
        -11    1    3    3    0    0  0.19733569102E+02 -0.13431696975E+02  0.38155363374E+02  0.45007288161E+02  0.51100000000E-03 0.  1.
         12    1    3    3    0    0 -0.15106402854E+02  0.12755404314E+02 -0.29158424499E+02  0.35229497097E+02  0.00000000000E+00 0. -1.
</event>
<event>
 7    1  0.3821202E-015  0.9000773E+02  0.7816164E-02  0.1186339E+00
        -11   -1    0    0    0    0  0.00000000000E+00  0.00000000000E+00  0.45593999997E+02  0.45594000000E+02  0.51100000000E-03 0. -1.
         11   -1    0    0    0    0 -0.00000000000E+00 -0.00000000000E+00 -0.45593999997E+02  0.45594000000E+02  0.51100000000E-03 0.  1.
    9900012    2    1    2    0    0  0.54571601659E+00 -0.10463693700E+01  0.18793476630E-01  0.90007725446E+02  0.89999986621E+02 0.  0.
         12    1    1    2    0    0 -0.54571601659E+00  0.10463693700E+01 -0.18793476630E-01  0.11802745545E+01  0.00000000000E+00 0. -1.
         11    1    3    3    0    0  0.38515894568E+01  0.68839447208E+01 -0.49599848656E+01  0.93179872500E+01  0.51100000000E-03 0. -1.
        -11    1    3    3    0    0  0.31016199944E+01 -0.87491570172E+01 -0.37035852209E+02  0.38181437168E+02  0.51100000000E-03 0.  1.
         12    1    3    3    0    0 -0.64074934347E+01  0.81884292641E+00  0.42014630551E+02  0.42508301027E+02  0.00000000000E+00 0. -1.
</event>
<event>
 7    1  0.3707147E-015  0.9000775E+02  0.7816164E-02  0.1186339E+00
        -11   -1    0    0    0    0  0.00000000000E+00  0.00000000000E+00  0.45593999997E+02  0.45594000000E+02  0.51100000000E-03 0. -1.
         11   -1    0    0    0    0 -0.00000000000E+00 -0.00000000000E+00 -0.45593999997E+02  0.45594000000E+02  0.51100000000E-03 0.  1.
    9900012    2    1    2    0    0  0.18697085068E+00 -0.64899634535E+00 -0.96790616022E+00  0.90007747192E+02  0.90000008655E+02 0.  0.
         12    1    1    2    0    0 -0.18697085068E+00  0.64899634535E+00  0.96790616022E+00  0.11802528078E+01  0.00000000000E+00 0. -1.
         11    1    3    3    0    0 -0.18712304919E+01  0.54729194815E+01 -0.56440710040E+01  0.80814533943E+01  0.51100000000E-03 0. -1.
        -11    1    3    3    0    0 -0.43322965328E+01 -0.33270069633E+02 -0.24515172408E+02  0.41553098622E+02  0.51100000000E-03 0.  1.
         12    1    3    3    0    0  0.63904978754E+01  0.27148153806E+02  0.29191337252E+02  0.40373195176E+02  0.00000000000E+00 0. -1.
</event>
<event>
 7    1  0.3707147E-015  0.9000775E+02  0.7816164E-02  0.1186339E+00
        -11   -1    0    0    0    0  0.00000000000E+00  0.00000000000E+00  0.45593999997E+02  0.45594000000E+02  0.51100000000E-03 0. -1.
         11   -1    0    0    0    0 -0.00000000000E+00 -0.00000000000E+00 -0.45593999997E+02  0.45594000000E+02  0.51100000000E-03 0.  1.
    9900012    2    1    2    0    0 -0.20481202913E+00  0.84057086742E+00 -0.80280277308E+00  0.90007745941E+02  0.90000007388E+02 0.  0.
         12    1    1    2    0    0  0.20481202913E+00 -0.84057086742E+00  0.80280277308E+00  0.11802540586E+01  0.00000000000E+00 0. -1.
         11    1    3    3    0    0 -0.34216475499E+02 -0.20862187594E+02  0.70013144658E+01  0.40681893654E+02  0.51100000000E-03 0. -1.
        -11    1    3    3    0    0 -0.32108358957E+01  0.25088766869E+01 -0.61951833885E+01  0.74151349858E+01  0.51100000000E-03 0.  1.
        -12    1    3    3    0    0  0.37222499365E+02  0.19193881775E+02 -0.16089338504E+01  0.41910717301E+02  0.00000000000E+00 0.  1.
</event>
<event>
 7    1  0.3707147E-015  0.9000768E+02  0.7816164E-02  0.1186339E+00
        -11   -1    0    0    0    0  0.00000000000E+00  0.00000000000E+00  0.45593999997E+02  0.45594000000E+02  0.51100000000E-03 0. -1.
         11   -1    0    0    0    0 -0.00000000000E+00 -0.00000000000E+00 -0.45593999997E+02  0.45594000000E+02  0.51100000000E-03 0.  1.
    9900012    2    1    2    0    0 -0.42808762172E+00  0.58500193219E+00 -0.93148346963E+00  0.90007683209E+02  0.89999943828E+02 0.  0.
         12    1    1    2    0    0  0.42808762172E+00 -0.58500193219E+00  0.93148346963E+00  0.11803167908E+01  0.00000000000E+00 0. -1.
         11    1    3    3    0    0 -0.75847545987E+01  0.31468680869E+02  0.18472926909E+02  0.37270033630E+02  0.51100000000E-03 0. -1.
        -11    1    3    3    0    0  0.73182057988E+01  0.53136102641E+01  0.37255310741E+01  0.97811130347E+01  0.51100000000E-03 0.  1.
        -12    1    3    3    0    0 -0.16153882188E+00 -0.36197289201E+02 -0.23129941452E+02  0.42956536544E+02  0.00000000000E+00 0.  1.
</event>
<event>
 7    1  0.3707147E-015  0.9000758E+02  0.7816164E-02  0.1186339E+00
        -11   -1    0    0    0    0  0.00000000000E+00  0.00000000000E+00  0.45593999997E+02  0.45594000000E+02  0.51100000000E-03 0.  1.
         11   -1    0    0    0    0 -0.00000000000E+00 -0.00000000000E+00 -0.45593999997E+02  0.45594000000E+02  0.51100000000E-03 0. -1.
    9900012    2    1    2    0    0 -0.68294430538E-01 -0.11444311334E+01  0.28108048571E+00  0.90007579317E+02  0.89999838564E+02 0.  0.
         12    1    1    2    0    0  0.68294430538E-01  0.11444311334E+01 -0.28108048571E+00  0.11804206826E+01  0.00000000000E+00 0. -1.
         11    1    3    3    0    0  0.24453899626E+01  0.18189067819E+01  0.12421890550E+02  0.12790297848E+02  0.51100000000E-03 0. -1.
        -11    1    3    3    0    0 -0.14404875231E+02  0.32110503345E+01  0.29764250024E+02  0.33222309589E+02  0.51100000000E-03 0.  1.
         12    1    3    3    0    0  0.11891190838E+02 -0.61743882499E+01 -0.41905060088E+02  0.43994971881E+02  0.00000000000E+00 0. -1.
</event>
<event>
 7    1  0.3707147E-015  0.9000787E+02  0.7816164E-02  0.1186339E+00
        -11   -1    0    0    0    0  0.00000000000E+00  0.00000000000E+00  0.45593999997E+02  0.45594000000E+02  0.51100000000E-03 0.  1.
         11   -1    0    0    0    0 -0.00000000000E+00 -0.00000000000E+00 -0.45593999997E+02  0.45594000000E+02  0.51100000000E-03 0. -1.
    9900012    2    1    2    0    0  0.80410651540E+00 -0.84868336320E+00  0.16080988204E+00  0.90007868415E+02  0.90000131478E+02 0.  0.
         12    1    1    2    0    0 -0.80410651540E+00  0.84868336320E+00 -0.16080988204E+00  0.11801315847E+01  0.00000000000E+00 0. -1.
         11    1    3    3    0    0 -0.51948221780E+01 -0.80450138325E+01 -0.55905552011E+01  0.11088856241E+02  0.51100000000E-03 0. -1.
        -11    1    3    3    0    0 -0.25646496424E+02  0.25151354548E+02  0.18450025372E+02  0.40382382928E+02  0.51100000000E-03 0.  1.
         12    1    3    3    0    0  0.31645425117E+02 -0.17955024079E+02 -0.12698660288E+02  0.38536629246E+02  0.00000000000E+00 0. -1.
</event>
<event>
 7    1  0.3707147E-015  0.9000776E+02  0.7816164E-02  0.1186339E+00
        -11   -1    0    0    0    0  0.00000000000E+00  0.00000000000E+00  0.45593999997E+02  0.45594000000E+02  0.51100000000E-03 0.  1.
         11   -1    0    0    0    0 -0.00000000000E+00 -0.00000000000E+00 -0.45593999997E+02  0.45594000000E+02  0.51100000000E-03 0. -1.
    9900012    2    1    2    0    0 -0.11284904289E+01  0.20909720712E+00  0.27521594943E+00  0.90007764384E+02  0.90000026074E+02 0.  0.
         12    1    1    2    0    0  0.11284904289E+01 -0.20909720712E+00 -0.27521594943E+00  0.11802356159E+01  0.00000000000E+00 0. -1.
         11    1    3    3    0    0 -0.44782295414E+01  0.24126695916E+01 -0.72506511645E+00  0.51382131201E+01  0.51100000000E-03 0. -1.
        -11    1    3    3    0    0 -0.22682083815E+02  0.32158805916E+02  0.10491497389E+02  0.40727598037E+02  0.51100000000E-03 0.  1.
         12    1    3    3    0    0  0.26031822928E+02 -0.34362378301E+02 -0.94912163228E+01  0.44141953227E+02  0.00000000000E+00 0. -1.
</event>
<event>
 7    1  0.3707147E-015  0.9000776E+02  0.7816164E-02  0.1186339E+00
        -11   -1    0    0    0    0  0.00000000000E+00  0.00000000000E+00  0.45593999997E+02  0.45594000000E+02  0.51100000000E-03 0.  1.
         11   -1    0    0    0    0 -0.00000000000E+00 -0.00000000000E+00 -0.45593999997E+02  0.45594000000E+02  0.51100000000E-03 0. -1.
    9900012    2    1    2    0    0  0.11079372379E+01  0.39678228269E+00  0.89485830027E-01  0.90007759001E+02  0.90000020619E+02 0.  0.
         12    1    1    2    0    0 -0.11079372379E+01 -0.39678228269E+00 -0.89485830027E-01  0.11802409994E+01  0.00000000000E+00 0. -1.
         11    1    3    3    0    0 -0.78129573067E+01 -0.27431408434E+01  0.12928892323E+01  0.83808523667E+01  0.51100000000E-03 0. -1.
        -11    1    3    3    0    0  0.31598194261E+01 -0.15052211134E+02  0.36368382520E+02  0.39486868276E+02  0.51100000000E-03 0.  1.
         12    1    3    3    0    0  0.57610751185E+01  0.18192134260E+02 -0.37571785922E+02  0.42140038358E+02  0.00000000000E+00 0. -1.
</event>
<event>
 7    1  0.3707147E-015  0.9000777E+02  0.7816164E-02  0.1186339E+00
        -11   -1    0    0    0    0  0.00000000000E+00  0.00000000000E+00  0.45593999997E+02  0.45594000000E+02  0.51100000000E-03 0. -1.
         11   -1    0    0    0    0 -0.00000000000E+00 -0.00000000000E+00 -0.45593999997E+02  0.45594000000E+02  0.51100000000E-03 0.  1.
    9900012    2    1    2    0    0  0.95225873416E+00  0.30933655824E+00 -0.62486254190E+00  0.90007771633E+02  0.90000033418E+02 0.  0.
         12    1    1    2    0    0 -0.95225873416E+00 -0.30933655824E+00  0.62486254190E+00  0.11802283674E+01  0.00000000000E+00 0. -1.
         11    1    3    3    0    0 -0.72571136545E+01 -0.64526395463E+01 -0.34267541957E+01  0.10297810461E+02  0.51100000000E-03 0. -1.
        -11    1    3    3    0    0 -0.19169739976E+02  0.27099711944E+02  0.22708997551E+02  0.40219048823E+02  0.51100000000E-03 0.  1.
         12    1    3    3    0    0  0.27379112364E+02 -0.20337735839E+02 -0.19907105897E+02  0.39490912349E+02  0.00000000000E+00 0. -1.
</event>
<event>
 7    1  0.3707147E-015  0.9000772E+02  0.7816164E-02  0.1186339E+00
        -11   -1    0    0    0    0  0.00000000000E+00  0.00000000000E+00  0.45593999997E+02  0.45594000000E+02  0.51100000000E-03 0. -1.
         11   -1    0    0    0    0 -0.00000000000E+00 -0.00000000000E+00 -0.45593999997E+02  0.45594000000E+02  0.51100000000E-03 0.  1.
    9900012    2    1    2    0    0  0.69418144301E+00  0.61462026986E+00 -0.73034931965E+00  0.90007722032E+02  0.89999983163E+02 0.  0.
         12    1    1    2    0    0 -0.69418144301E+00 -0.61462026986E+00  0.73034931965E+00  0.11802779675E+01  0.00000000000E+00 0. -1.
         11    1    3    3    0    0 -0.16500896833E+02 -0.33282701335E+01  0.18277181078E+02  0.24847783136E+02  0.51100000000E-03 0. -1.
        -11    1    3    3    0    0 -0.45881029376E+01  0.16232889912E+02  0.15252382549E+02  0.22741868374E+02  0.51100000000E-03 0.  1.
        -12    1    3    3    0    0  0.21783181213E+02 -0.12289999509E+02 -0.34259912947E+02  0.42418070522E+02  0.00000000000E+00 0.  1.
</event>
<event>
 7    1  0.3707147E-015  0.9000773E+02  0.7816164E-02  0.1186339E+00
        -11   -1    0    0    0    0  0.00000000000E+00  0.00000000000E+00  0.45593999997E+02  0.45594000000E+02  0.51100000000E-03 0.  1.
         11   -1    0    0    0    0 -0.00000000000E+00 -0.00000000000E+00 -0.45593999997E+02  0.45594000000E+02  0.51100000000E-03 0. -1.
    9900012    2    1    2    0    0 -0.48225807012E+00  0.81921315593E+00  0.69953538774E+00  0.90007731895E+02  0.89999993156E+02 0.  0.
         12    1    1    2    0    0  0.48225807012E+00 -0.81921315593E+00 -0.69953538774E+00  0.11802681050E+01  0.00000000000E+00 0. -1.
         11    1    3    3    0    0  0.24729691693E+01  0.26506331133E+02 -0.31270443187E+02  0.41067527123E+02  0.51100000000E-03 0. -1.
        -11    1    3    3    0    0  0.71741284762E+01  0.21028096317E+01  0.65510146610E+01  0.99401066941E+01  0.51100000000E-03 0.  1.
        -12    1    3    3    0    0 -0.10129355716E+02 -0.27789927608E+02  0.25418963913E+02  0.39000098078E+02  0.00000000000E+00 0.  1.
</event>
<event>
 7    1  0.3707147E-015  0.9000771E+02  0.7816164E-02  0.1186339E+00
        -11   -1    0    0    0    0  0.00000000000E+00  0.00000000000E+00  0.45593999997E+02  0.45594000000E+02  0.51100000000E-03 0. -1.
         11   -1    0    0    0    0 -0.00000000000E+00 -0.00000000000E+00 -0.45593999997E+02  0.45594000000E+02  0.51100000000E-03 0.  1.
    9900012    2    1    2    0    0 -0.21222403775E+00  0.59639651427E+00 -0.99617454958E+00  0.90007706995E+02  0.89999967927E+02 0.  0.
         12    1    1    2    0    0  0.21222403775E+00 -0.59639651427E+00  0.99617454958E+00  0.11802930050E+01  0.00000000000E+00 0. -1.
         11    1    3    3    0    0 -0.54203933180E+01  0.81597309739E+01 -0.21950794991E+01  0.10038936575E+02  0.51100000000E-03 0. -1.
        -11    1    3    3    0    0 -0.23413056119E+02 -0.14980237512E+02  0.28439304260E+02  0.39766477589E+02  0.51100000000E-03 0.  1.
         12    1    3    3    0    0  0.28621225399E+02  0.74169030524E+01 -0.27240399311E+02  0.40202292831E+02  0.00000000000E+00 0. -1.
</event>
<event>
 7    1  0.3707147E-015  0.9000659E+02  0.7816164E-02  0.1186341E+00
        -11   -1    0    0    0    0  0.00000000000E+00  0.00000000000E+00  0.45593999997E+02  0.45594000000E+02  0.51100000000E-03 0.  1.
         11   -1    0    0    0    0 -0.00000000000E+00 -0.00000000000E+00 -0.45593999997E+02  0.45594000000E+02  0.51100000000E-03 0. -1.
    9900012    2    1    2    0    0  0.57870154742E+00 -0.10242454540E+01 -0.10843107963E+00  0.90006589178E+02  0.89998835348E+02 0.  0.
         12    1    1    2    0    0 -0.57870154742E+00  0.10242454540E+01  0.10843107963E+00  0.11814108219E+01  0.00000000000E+00 0. -1.
         11    1    3    3    0    0 -0.15567687773E+02  0.23078096752E+02  0.20768774984E+02  0.34731735731E+02  0.51100000000E-03 0. -1.
        -11    1    3    3    0    0  0.44750531357E+01  0.12228169952E+02 -0.52753284560E+01  0.14049317831E+02  0.51100000000E-03 0.  1.
        -12    1    3    3    0    0  0.11671336184E+02 -0.36330512158E+02 -0.15601877608E+02  0.41225535616E+02  0.00000000000E+00 0.  1.
</event>
<event>
 7    1  0.3707147E-015  0.9000777E+02  0.7816164E-02  0.1186339E+00
        -11   -1    0    0    0    0  0.00000000000E+00  0.00000000000E+00  0.45593999997E+02  0.45594000000E+02  0.51100000000E-03 0. -1.
         11   -1    0    0    0    0 -0.00000000000E+00 -0.00000000000E+00 -0.45593999997E+02  0.45594000000E+02  0.51100000000E-03 0.  1.
    9900012    2    1    2    0    0 -0.15991929731E+00  0.44358677321E+00 -0.10819471213E+01  0.90007765710E+02  0.90000027417E+02 0.  0.
         12    1    1    2    0    0  0.15991929731E+00 -0.44358677321E+00  0.10819471213E+01  0.11802342905E+01  0.00000000000E+00 0. -1.
         11    1    3    3    0    0 -0.16610281943E+01  0.55662360030E+01 -0.66785374770E+01  0.88512632429E+01  0.51100000000E-03 0. -1.
        -11    1    3    3    0    0 -0.34207252684E+02  0.61409117721E+01  0.21070329011E+02  0.40642412557E+02  0.51100000000E-03 0.  1.
         12    1    3    3    0    0  0.35708361581E+02 -0.11263561002E+02 -0.15473738655E+02  0.40514089910E+02  0.00000000000E+00 0. -1.
</event>
<event>
 7    1  0.3707147E-015  0.9000770E+02  0.7816164E-02  0.1186339E+00
        -11   -1    0    0    0    0  0.00000000000E+00  0.00000000000E+00  0.45593999997E+02  0.45594000000E+02  0.51100000000E-03 0. -1.
         11   -1    0    0    0    0 -0.00000000000E+00 -0.00000000000E+00 -0.45593999997E+02  0.45594000000E+02  0.51100000000E-03 0.  1.
    9900012    2    1    2    0    0 -0.10158254494E+01 -0.47902395659E+00  0.36297440763E+00  0.90007696770E+02  0.89999957567E+02 0.  0.
         12    1    1    2    0    0  0.10158254494E+01  0.47902395659E+00 -0.36297440763E+00  0.11803032302E+01  0.00000000000E+00 0. -1.
         11    1    3    3    0    0 -0.47156678939E+01  0.44664803619E+01 -0.59334828834E+01  0.87973399330E+01  0.51100000000E-03 0. -1.
        -11    1    3    3    0    0  0.20380110004E+02 -0.21861372814E+02 -0.27020374653E+02  0.40291055480E+02  0.51100000000E-03 0.  1.
         12    1    3    3    0    0 -0.16680267559E+02  0.16915868495E+02  0.33316831944E+02  0.40919301357E+02  0.00000000000E+00 0. -1.
</event>
<event>
 7    1  0.3707147E-015  0.9000790E+02  0.7816164E-02  0.1186339E+00
        -11   -1    0    0    0    0  0.00000000000E+00  0.00000000000E+00  0.45593999997E+02  0.45594000000E+02  0.51100000000E-03 0. -1.
         11   -1    0    0    0    0 -0.00000000000E+00 -0.00000000000E+00 -0.45593999997E+02  0.45594000000E+02  0.51100000000E-03 0.  1.
    9900012    2    1    2    0    0  0.17048934610E+00 -0.70001294850E+00 -0.93464417076E+00  0.90007896415E+02  0.90000159848E+02 0.  0.
         12    1    1    2    0    0 -0.17048934610E+00  0.70001294850E+00  0.93464417076E+00  0.11801035849E+01  0.00000000000E+00 0. -1.
         11    1    3    3    0    0 -0.14552437950E+02 -0.17181379262E+00 -0.40253494935E+01  0.15099881094E+02  0.51100000000E-03 0. -1.
        -11    1    3    3    0    0 -0.29402755295E+02  0.58409510529E+01 -0.19518202701E+01  0.30040777799E+02  0.51100000000E-03 0.  1.
         12    1    3    3    0    0  0.44125682591E+02 -0.63691502087E+01  0.50425255927E+01  0.44867237522E+02  0.00000000000E+00 0. -1.
</event>
<event>
 7    1  0.3707147E-015  0.9000774E+02  0.7816164E-02  0.1186339E+00
        -11   -1    0    0    0    0  0.00000000000E+00  0.00000000000E+00  0.45593999997E+02  0.45594000000E+02  0.51100000000E-03 0.  1.
         11   -1    0    0    0    0 -0.00000000000E+00 -0.00000000000E+00 -0.45593999997E+02  0.45594000000E+02  0.51100000000E-03 0. -1.
    9900012    2    1    2    0    0 -0.13515170536E+00  0.97923546418E+00 -0.64485487671E+00  0.90007743295E+02  0.90000004706E+02 0.  0.
         12    1    1    2    0    0  0.13515170536E+00 -0.97923546418E+00  0.64485487671E+00  0.11802567050E+01  0.00000000000E+00 0. -1.
         11    1    3    3    0    0  0.38649467912E+02 -0.13546559786E+02 -0.71852576107E+01  0.41580266703E+02  0.51100000000E-03 0. -1.
        -11    1    3    3    0    0 -0.44394645517E+01 -0.17845875370E+01  0.91408138299E+01  0.10317367684E+02  0.51100000000E-03 0.  1.
        -12    1    3    3    0    0 -0.34345155066E+02  0.16310382787E+02 -0.26004110959E+01  0.38110108908E+02  0.00000000000E+00 0.  1.
</event>
<event>
 7    1  0.3707147E-015  0.9000777E+02  0.7816164E-02  0.1186339E+00
        -11   -1    0    0    0    0  0.00000000000E+00  0.00000000000E+00  0.45593999997E+02  0.45594000000E+02  0.51100000000E-03 0.  1.
         11   -1    0    0    0    0 -0.00000000000E+00 -0.00000000000E+00 -0.45593999997E+02  0.45594000000E+02  0.51100000000E-03 0. -1.
    9900012    2    1    2    0    0  0.19091626706E+00 -0.11098817648E+01  0.35305796599E+00  0.90007772700E+02  0.90000034499E+02 0.  0.
         12    1    1    2    0    0 -0.19091626706E+00  0.11098817648E+01 -0.35305796599E+00  0.11802273002E+01  0.00000000000E+00 0. -1.
         11    1    3    3    0    0  0.43493288034E+01  0.14992568798E+02 -0.31327103537E+02  0.35001159930E+02  0.51100000000E-03 0. -1.
        -11    1    3    3    0    0  0.75981450821E+01 -0.78941814607E+01 -0.75049127730E+01  0.13280573241E+02  0.51100000000E-03 0.  1.
        -12    1    3    3    0    0 -0.11756557618E+02 -0.82082691019E+01  0.39185074276E+02  0.41726039528E+02  0.00000000000E+00 0.  1.
</event>
<event>
 7    1  0.3707147E-015  0.9000717E+02  0.7816164E-02  0.1186340E+00
        -11   -1    0    0    0    0  0.00000000000E+00  0.00000000000E+00  0.45593999997E+02  0.45594000000E+02  0.51100000000E-03 0.  1.
         11   -1    0    0    0    0 -0.00000000000E+00 -0.00000000000E+00 -0.45593999997E+02  0.45594000000E+02  0.51100000000E-03 0. -1.
    9900012    2    1    2    0    0  0.10275344084E+01  0.53020423918E+00  0.23960515418E+00  0.90007172271E+02  0.89999426143E+02 0.  0.
         12    1    1    2    0    0 -0.10275344084E+01 -0.53020423918E+00 -0.23960515418E+00  0.11808277290E+01  0.00000000000E+00 0. -1.
         11    1    3    3    0    0 -0.33710047609E+02 -0.10394051020E+02 -0.21616937041E+02  0.41372642818E+02  0.51100000000E-03 0. -1.
        -11    1    3    3    0    0  0.13462871629E+02 -0.65188319016E+01  0.29320149442E+01  0.15242729209E+02  0.51100000000E-03 0.  1.
        -12    1    3    3    0    0  0.21274710389E+02  0.17443087161E+02  0.18924527251E+02  0.33391800244E+02  0.00000000000E+00 0.  1.
</event>
<event>
 7    1  0.3707147E-015  0.9000777E+02  0.7816164E-02  0.1186339E+00
        -11   -1    0    0    0    0  0.00000000000E+00  0.00000000000E+00  0.45593999997E+02  0.45594000000E+02  0.51100000000E-03 0.  1.
         11   -1    0    0    0    0 -0.00000000000E+00 -0.00000000000E+00 -0.45593999997E+02  0.45594000000E+02  0.51100000000E-03 0. -1.
    9900012    2    1    2    0    0  0.63104194122E-01  0.36892713391E+00  0.11193134138E+01  0.90007766172E+02  0.90000027886E+02 0.  0.
         12    1    1    2    0    0 -0.63104194122E-01 -0.36892713391E+00 -0.11193134138E+01  0.11802338276E+01  0.00000000000E+00 0. -1.
         11    1    3    3    0    0 -0.16159268343E+02  0.28841528329E+02 -0.17077484701E+02  0.37210162506E+02  0.51100000000E-03 0. -1.
        -11    1    3    3    0    0  0.60481453491E+01  0.65475817353E+01 -0.43541750936E+01  0.99201678288E+01  0.51100000000E-03 0.  1.
        -12    1    3    3    0    0  0.10174227188E+02 -0.35020182930E+02  0.22550973208E+02  0.42877435838E+02  0.00000000000E+00 0.  1.
</event>
<event>
 7    1  0.3707147E-015  0.9000770E+02  0.7816164E-02  0.1186339E+00
        -11   -1    0    0    0    0  0.00000000000E+00  0.00000000000E+00  0.45593999997E+02  0.45594000000E+02  0.51100000000E-03 0.  1.
         11   -1    0    0    0    0 -0.00000000000E+00 -0.00000000000E+00 -0.45593999997E+02  0.45594000000E+02  0.51100000000E-03 0. -1.
    9900012    2    1    2    0    0 -0.91848508413E+00  0.73276432519E+00  0.11207373624E+00  0.90007695409E+02  0.89999956188E+02 0.  0.
         12    1    1    2    0    0  0.91848508413E+00 -0.73276432519E+00 -0.11207373624E+00  0.11803045914E+01  0.00000000000E+00 0. -1.
         11    1    3    3    0    0 -0.57680866193E+01 -0.48324958358E+01 -0.29390237914E+02  0.30338258423E+02  0.51100000000E-03 0. -1.
        -11    1    3    3    0    0 -0.56974963985E+01 -0.36820093265E+01 -0.13135417327E+02  0.14783702057E+02  0.51100000000E-03 0.  1.
        -12    1    3    3    0    0  0.10547097934E+02  0.92472694875E+01  0.42637728977E+02  0.44885734929E+02  0.00000000000E+00 0.  1.
</event>
<event>
 7    1  0.3707147E-015  0.9000791E+02  0.7816164E-02  0.1186339E+00
        -11   -1    0    0    0    0  0.00000000000E+00  0.00000000000E+00  0.45593999997E+02  0.45594000000E+02  0.51100000000E-03 0.  1.
         11   -1    0    0    0    0 -0.00000000000E+00 -0.00000000000E+00 -0.45593999997E+02  0.45594000000E+02  0.51100000000E-03 0. -1.
    9900012    2    1    2    0    0 -0.55204014779E+00 -0.62050043426E+00  0.83836334598E+00  0.90007905845E+02  0.90000169402E+02 0.  0.
         12    1    1    2    0    0  0.55204014779E+00  0.62050043426E+00 -0.83836334598E+00  0.11800941545E+01  0.00000000000E+00 0. -1.
         11    1    3    3    0    0  0.12808075701E+02  0.32503487236E+02 -0.18020588512E+02  0.39309860038E+02  0.51100000000E-03 0. -1.
        -11    1    3    3    0    0 -0.79085258459E+01 -0.62541116907E-01 -0.51843738931E+01  0.94565546248E+01  0.51100000000E-03 0.  1.
        -12    1    3    3    0    0 -0.54515900029E+01 -0.33061446553E+02  0.24043325751E+02  0.41241491182E+02  0.00000000000E+00 0.  1.
</event>
<event>
 7    1  0.3707147E-015  0.9000774E+02  0.7816164E-02  0.1186339E+00
        -11   -1    0    0    0    0  0.00000000000E+00  0.00000000000E+00  0.45593999997E+02  0.45594000000E+02  0.51100000000E-03 0. -1.
         11   -1    0    0    0    0 -0.00000000000E+00 -0.00000000000E+00 -0.45593999997E+02  0.45594000000E+02  0.51100000000E-03 0.  1.
    9900012    2    1    2    0    0  0.29054531023E+00 -0.10861878576E+01  0.35886489164E+00  0.90007743820E+02  0.90000005239E+02 0.  0.
         12    1    1    2    0    0 -0.29054531023E+00  0.10861878576E+01 -0.35886489164E+00  0.11802561797E+01  0.00000000000E+00 0. -1.
         11    1    3    3    0    0  0.28021136366E+02 -0.23724541813E+02 -0.11998317353E+01  0.36735236000E+02  0.51100000000E-03 0. -1.
        -11    1    3    3    0    0  0.86298577161E+01 -0.25649447702E+01 -0.22857891510E-01  0.90029944252E+01  0.51100000000E-03 0.  1.
        -12    1    3    3    0    0 -0.36360448772E+02  0.25203298726E+02  0.15815545184E+01  0.44269513395E+02  0.00000000000E+00 0.  1.
</event>
<event>
 7    1  0.3707147E-015  0.9000766E+02  0.7816164E-02  0.1186339E+00
        -11   -1    0    0    0    0  0.00000000000E+00  0.00000000000E+00  0.45593999997E+02  0.45594000000E+02  0.51100000000E-03 0. -1.
         11   -1    0    0    0    0 -0.00000000000E+00 -0.00000000000E+00 -0.45593999997E+02  0.45594000000E+02  0.51100000000E-03 0.  1.
    9900012    2    1    2    0    0 -0.96954885230E+00  0.47207331645E+00 -0.47993132937E+00  0.90007655866E+02  0.89999916124E+02 0.  0.
         12    1    1    2    0    0  0.96954885230E+00 -0.47207331645E+00  0.47993132937E+00  0.11803441337E+01  0.00000000000E+00 0. -1.
         11    1    3    3    0    0  0.86742015442E+01  0.34923508462E+02  0.14792825317E+01  0.36015017600E+02  0.51100000000E-03 0. -1.
        -11    1    3    3    0    0  0.97094817562E+01  0.36108556643E+01  0.35238027735E+01  0.10942097644E+02  0.51100000000E-03 0.  1.
        -12    1    3    3    0    0 -0.19353232153E+02 -0.38062290809E+02 -0.54830166345E+01  0.43050540622E+02  0.00000000000E+00 0.  1.
</event>
<event>
 7    1  0.3707147E-015  0.9000764E+02  0.7816164E-02  0.1186339E+00
        -11   -1    0    0    0    0  0.00000000000E+00  0.00000000000E+00  0.45593999997E+02  0.45594000000E+02  0.51100000000E-03 0. -1.
         11   -1    0    0    0    0 -0.00000000000E+00 -0.00000000000E+00 -0.45593999997E+02  0.45594000000E+02  0.51100000000E-03 0.  1.
    9900012    2    1    2    0    0  0.70705272301E+00 -0.21952127456E+00  0.91931284734E+00  0.90007640201E+02  0.89999900252E+02 0.  0.
         12    1    1    2    0    0 -0.70705272301E+00  0.21952127456E+00 -0.91931284734E+00  0.11803597987E+01  0.00000000000E+00 0. -1.
         11    1    3    3    0    0  0.76737345748E+01  0.61859250370E+01  0.64729641492E+01  0.11791994574E+02  0.51100000000E-03 0. -1.
        -11    1    3    3    0    0 -0.18230611710E+02  0.32093460040E+02  0.35576298886E+01  0.37081020905E+02  0.51100000000E-03 0.  1.
         12    1    3    3    0    0  0.11263929858E+02 -0.38498906352E+02 -0.91112811905E+01  0.41134624723E+02  0.00000000000E+00 0. -1.
</event>
<event>
 7    1  0.3707147E-015  0.9000827E+02  0.7816164E-02  0.1186338E+00
        -11   -1    0    0    0    0  0.00000000000E+00  0.00000000000E+00  0.45593999997E+02  0.45594000000E+02  0.51100000000E-03 0.  1.
         11   -1    0    0    0    0 -0.00000000000E+00 -0.00000000000E+00 -0.45593999997E+02  0.45594000000E+02  0.51100000000E-03 0. -1.
    9900012    2    1    2    0    0 -0.92584386502E+00 -0.27059930058E+00  0.67922729047E+00  0.90008270982E+02  0.90000539357E+02 0.  0.
         12    1    1    2    0    0  0.92584386502E+00  0.27059930058E+00 -0.67922729047E+00  0.11797290180E+01  0.00000000000E+00 0. -1.
         11    1    3    3    0    0 -0.15779861544E+01 -0.10230989491E+02  0.20849696196E+01  0.10559843031E+02  0.51100000000E-03 0. -1.
        -11    1    3    3    0    0 -0.31994329147E+02  0.18665068708E+00 -0.22731288879E+02  0.39247718793E+02  0.51100000000E-03 0.  1.
         12    1    3    3    0    0  0.32646471437E+02  0.97737395032E+01  0.21325546550E+02  0.40200709158E+02  0.00000000000E+00 0. -1.
</event>
<event>
 7    1  0.3707147E-015  0.9000776E+02  0.7816164E-02  0.1186339E+00
        -11   -1    0    0    0    0  0.00000000000E+00  0.00000000000E+00  0.45593999997E+02  0.45594000000E+02  0.51100000000E-03 0.  1.
         11   -1    0    0    0    0 -0.00000000000E+00 -0.00000000000E+00 -0.45593999997E+02  0.45594000000E+02  0.51100000000E-03 0. -1.
    9900012    2    1    2    0    0 -0.10264001058E+01  0.23113096620E+00  0.53483382838E+00  0.90007760226E+02  0.90000021861E+02 0.  0.
         12    1    1    2    0    0  0.10264001058E+01 -0.23113096620E+00 -0.53483382838E+00  0.11802397742E+01  0.00000000000E+00 0. -1.
         11    1    3    3    0    0 -0.41496363015E+02 -0.81749581265E+01  0.50003850841E+01  0.42588518818E+02  0.51100000000E-03 0. -1.
        -11    1    3    3    0    0  0.28660772526E+01  0.58074574906E+01  0.54266646238E+01  0.84492396417E+01  0.51100000000E-03 0.  1.
        -12    1    3    3    0    0  0.37603885656E+02  0.25986316021E+01 -0.98922158795E+01  0.38970001766E+02  0.00000000000E+00 0.  1.
</event>
<event>
 7    1  0.3707147E-015  0.9000779E+02  0.7816164E-02  0.1186339E+00
        -11   -1    0    0    0    0  0.00000000000E+00  0.00000000000E+00  0.45593999997E+02  0.45594000000E+02  0.51100000000E-03 0. -1.
         11   -1    0    0    0    0 -0.00000000000E+00 -0.00000000000E+00 -0.45593999997E+02  0.45594000000E+02  0.51100000000E-03 0.  1.
    9900012    2    1    2    0    0  0.11320011884E+01 -0.32755801850E+00 -0.64561932057E-01  0.90007792735E+02  0.90000054799E+02 0.  0.
         12    1    1    2    0    0 -0.11320011884E+01  0.32755801850E+00  0.64561932057E-01  0.11802072653E+01  0.00000000000E+00 0. -1.
         11    1    3    3    0    0 -0.27997780824E+00  0.86940789913E+01 -0.75396970786E+01  0.11511404318E+02  0.51100000000E-03 0. -1.
        -11    1    3    3    0    0 -0.27966810448E+02  0.15249262170E+02  0.20894041776E+02  0.38095189531E+02  0.51100000000E-03 0.  1.
         12    1    3    3    0    0  0.29378789445E+02 -0.24270899180E+02 -0.13418906630E+02  0.40401198886E+02  0.00000000000E+00 0. -1.
</event>
<event>
 7    1  0.3707147E-015  0.9000781E+02  0.7816164E-02  0.1186339E+00
        -11   -1    0    0    0    0  0.00000000000E+00  0.00000000000E+00  0.45593999997E+02  0.45594000000E+02  0.51100000000E-03 0. -1.
         11   -1    0    0    0    0 -0.00000000000E+00 -0.00000000000E+00 -0.45593999997E+02  0.45594000000E+02  0.51100000000E-03 0.  1.
    9900012    2    1    2    0    0  0.53663972532E+00  0.57106692542E+00 -0.88246101915E+00  0.90007814812E+02  0.90000077167E+02 0.  0.
         12    1    1    2    0    0 -0.53663972532E+00 -0.57106692542E+00  0.88246101915E+00  0.11801851882E+01  0.00000000000E+00 0. -1.
         11    1    3    3    0    0  0.15674002826E+02 -0.30693540951E+02  0.13937198721E+02  0.37175439865E+02  0.51100000000E-03 0. -1.
        -11    1    3    3    0    0 -0.47363349684E+01 -0.83190244438E+01 -0.95472321616E+00  0.96203187739E+01  0.51100000000E-03 0.  1.
        -12    1    3    3    0    0 -0.10401028132E+02  0.39583632320E+02 -0.13864936524E+02  0.43212056173E+02  0.00000000000E+00 0.  1.
</event>
<event>
 7    1  0.3707147E-015  0.9000777E+02  0.7816164E-02  0.1186339E+00
        -11   -1    0    0    0    0  0.00000000000E+00  0.00000000000E+00  0.45593999997E+02  0.45594000000E+02  0.51100000000E-03 0. -1.
         11   -1    0    0    0    0 -0.00000000000E+00 -0.00000000000E+00 -0.45593999997E+02  0.45594000000E+02  0.51100000000E-03 0.  1.
    9900012    2    1    2    0    0 -0.17922302320E+00 -0.72274047406E+00 -0.91568258239E+00  0.90007767279E+02  0.90000029007E+02 0.  0.
         12    1    1    2    0    0  0.17922302320E+00  0.72274047406E+00  0.91568258239E+00  0.11802327214E+01  0.00000000000E+00 0. -1.
         11    1    3    3    0    0  0.20758261500E+02 -0.22297496786E+02  0.20525249462E+02  0.36733767152E+02  0.51100000000E-03 0. -1.
        -11    1    3    3    0    0  0.15522686476E+01  0.74815664098E+01  0.97060979359E+01  0.12352801759E+02  0.51100000000E-03 0.  1.
        -12    1    3    3    0    0 -0.22489753171E+02  0.14093189902E+02 -0.31147029980E+02  0.40921198368E+02  0.00000000000E+00 0.  1.
</event>
<event>
 7    1  0.3707147E-015  0.9000777E+02  0.7816164E-02  0.1186339E+00
        -11   -1    0    0    0    0  0.00000000000E+00  0.00000000000E+00  0.45593999997E+02  0.45594000000E+02  0.51100000000E-03 0.  1.
         11   -1    0    0    0    0 -0.00000000000E+00 -0.00000000000E+00 -0.45593999997E+02  0.45594000000E+02  0.51100000000E-03 0. -1.
    9900012    2    1    2    0    0  0.30752460458E+00 -0.36209876864E+00  0.10803916446E+01  0.90007774171E+02  0.90000035990E+02 0.  0.
         12    1    1    2    0    0 -0.30752460458E+00  0.36209876864E+00 -0.10803916446E+01  0.11802258286E+01  0.00000000000E+00 0. -1.
         11    1    3    3    0    0 -0.19272347043E+01  0.18003315863E+02 -0.60500047600E+01  0.19090211458E+02  0.51100000000E-03 0. -1.
        -11    1    3    3    0    0 -0.13539970585E+02  0.22500775284E+02  0.67359603230E+01  0.27110677851E+02  0.51100000000E-03 0.  1.
         12    1    3    3    0    0  0.15774729894E+02 -0.40866189916E+02  0.39443608160E+00  0.43806884862E+02  0.00000000000E+00 0. -1.
</event>
<event>
 7    1  0.3707147E-015  0.9000781E+02  0.7816164E-02  0.1186339E+00
        -11   -1    0    0    0    0  0.00000000000E+00  0.00000000000E+00  0.45593999997E+02  0.45594000000E+02  0.51100000000E-03 0.  1.
         11   -1    0    0    0    0 -0.00000000000E+00 -0.00000000000E+00 -0.45593999997E+02  0.45594000000E+02  0.51100000000E-03 0. -1.
    9900012    2    1    2    0    0  0.99388510901E+00  0.49425895465E+00  0.40094335887E+00  0.90007807176E+02  0.90000069431E+02 0.  0.
         12    1    1    2    0    0 -0.99388510901E+00 -0.49425895465E+00 -0.40094335887E+00  0.11801928237E+01  0.00000000000E+00 0. -1.
         11    1    3    3    0    0 -0.91399754425E+01  0.19245056476E+00 -0.24673765958E+01  0.94691148391E+01  0.51100000000E-03 0. -1.
        -11    1    3    3    0    0  0.61844493490E+01 -0.36934730084E+02 -0.13315347283E+02  0.39745693775E+02  0.51100000000E-03 0.  1.
         12    1    3    3    0    0  0.39494112025E+01  0.37236538474E+02  0.16183667238E+02  0.40792998562E+02  0.00000000000E+00 0. -1.
</event>
<event>
 7    1  0.3707147E-015  0.9000769E+02  0.7816164E-02  0.1186339E+00
        -11   -1    0    0    0    0  0.00000000000E+00  0.00000000000E+00  0.45593999997E+02  0.45594000000E+02  0.51100000000E-03 0. -1.
         11   -1    0    0    0    0 -0.00000000000E+00 -0.00000000000E+00 -0.45593999997E+02  0.45594000000E+02  0.51100000000E-03 0.  1.
    9900012    2    1    2    0    0  0.70323650686E+00 -0.68272178020E+00 -0.65763826179E+00  0.90007687034E+02  0.89999947703E+02 0.  0.
         12    1    1    2    0    0 -0.70323650686E+00  0.68272178020E+00  0.65763826179E+00  0.11803129657E+01  0.00000000000E+00 0. -1.
         11    1    3    3    0    0  0.37021030609E+01  0.70964056050E+01 -0.36281499787E+00  0.80122515293E+01  0.51100000000E-03 0. -1.
        -11    1    3    3    0    0 -0.32031953679E+02 -0.78218611452E+00 -0.27024301346E+02  0.41916234744E+02  0.51100000000E-03 0.  1.
         12    1    3    3    0    0  0.29033087125E+02 -0.69969412707E+01  0.26729478082E+02  0.40079200761E+02  0.00000000000E+00 0. -1.
</event>
<event>
 7    1  0.3707147E-015  0.9000759E+02  0.7816164E-02  0.1186339E+00
        -11   -1    0    0    0    0  0.00000000000E+00  0.00000000000E+00  0.45593999997E+02  0.45594000000E+02  0.51100000000E-03 0.  1.
         11   -1    0    0    0    0 -0.00000000000E+00 -0.00000000000E+00 -0.45593999997E+02  0.45594000000E+02  0.51100000000E-03 0. -1.
    9900012    2    1    2    0    0 -0.80256540900E+00  0.52503300524E+00  0.68819195802E+00  0.90007585216E+02  0.89999844540E+02 0.  0.
         12    1    1    2    0    0  0.80256540900E+00 -0.52503300524E+00 -0.68819195802E+00  0.11804147845E+01  0.00000000000E+00 0. -1.
         11    1    3    3    0    0 -0.25260534741E+01 -0.97824502371E+01  0.17494774048E+01  0.10253679839E+02  0.51100000000E-03 0. -1.
        -11    1    3    3    0    0 -0.69115676207E+00 -0.33416969857E+02  0.94195568962E+01  0.34726065491E+02  0.51100000000E-03 0.  1.
         12    1    3    3    0    0  0.24146448272E+01  0.43724453100E+02 -0.10480842343E+02  0.45027839885E+02  0.00000000000E+00 0. -1.
</event>
<event>
 7    1  0.3707147E-015  0.9000787E+02  0.7816164E-02  0.1186339E+00
        -11   -1    0    0    0    0  0.00000000000E+00  0.00000000000E+00  0.45593999997E+02  0.45594000000E+02  0.51100000000E-03 0. -1.
         11   -1    0    0    0    0 -0.00000000000E+00 -0.00000000000E+00 -0.45593999997E+02  0.45594000000E+02  0.51100000000E-03 0.  1.
    9900012    2    1    2    0    0  0.83879258306E+00  0.83008721714E+00  0.93624049438E-02  0.90007870583E+02  0.90000133675E+02 0.  0.
         12    1    1    2    0    0 -0.83879258306E+00 -0.83008721714E+00 -0.93624049438E-02  0.11801294167E+01  0.00000000000E+00 0. -1.
         11    1    3    3    0    0 -0.30169154796E+02 -0.26065211244E+02 -0.34909943549E+01  0.40021996204E+02  0.51100000000E-03 0. -1.
        -11    1    3    3    0    0  0.10455265329E+02 -0.38297263873E+01 -0.47590446867E+01  0.12109000120E+02  0.51100000000E-03 0.  1.
        -12    1    3    3    0    0  0.20552682050E+02  0.30725024849E+02  0.82594014465E+01  0.37876874259E+02  0.00000000000E+00 0.  1.
</event>
<event>
 7    1  0.3707147E-015  0.9000804E+02  0.7816164E-02  0.1186338E+00
        -11   -1    0    0    0    0  0.00000000000E+00  0.00000000000E+00  0.45593999997E+02  0.45594000000E+02  0.51100000000E-03 0. -1.
         11   -1    0    0    0    0 -0.00000000000E+00 -0.00000000000E+00 -0.45593999997E+02  0.45594000000E+02  0.51100000000E-03 0.  1.
    9900012    2    1    2    0    0  0.78681528432E+00 -0.28084272641E+00 -0.83328365739E+00  0.90008037042E+02  0.90000302330E+02 0.  0.
         12    1    1    2    0    0 -0.78681528432E+00  0.28084272641E+00  0.83328365739E+00  0.11799629580E+01  0.00000000000E+00 0. -1.
         11    1    3    3    0    0 -0.30100100326E+02  0.12315483757E+02 -0.75230499518E+01  0.33380884659E+02  0.51100000000E-03 0. -1.
        -11    1    3    3    0    0  0.46953206438E+01  0.96626089118E+01  0.17552476972E+02  0.20579151952E+02  0.51100000000E-03 0.  1.
        -12    1    3    3    0    0  0.26191594966E+02 -0.22258935395E+02 -0.10862710678E+02  0.36048000431E+02  0.00000000000E+00 0.  1.
</event>
<event>
 7    1  0.3707147E-015  0.9000726E+02  0.7816164E-02  0.1186340E+00
        -11   -1    0    0    0    0  0.00000000000E+00  0.00000000000E+00  0.45593999997E+02  0.45594000000E+02  0.51100000000E-03 0. -1.
         11   -1    0    0    0    0 -0.00000000000E+00 -0.00000000000E+00 -0.45593999997E+02  0.45594000000E+02  0.51100000000E-03 0.  1.
    9900012    2    1    2    0    0  0.51585410568E+00 -0.76262650061E+00  0.73922146182E+00  0.90007257434E+02  0.89999512431E+02 0.  0.
         12    1    1    2    0    0 -0.51585410568E+00  0.76262650061E+00 -0.73922146182E+00  0.11807425661E+01  0.00000000000E+00 0. -1.
         11    1    3    3    0    0  0.33709744361E+02  0.39838289065E+01 -0.98273056411E+01  0.35338275199E+02  0.51100000000E-03 0. -1.
        -11    1    3    3    0    0  0.98642150218E+01 -0.37378055397E+01  0.26678211119E+01  0.10880771939E+02  0.51100000000E-03 0.  1.
        -12    1    3    3    0    0 -0.43058105277E+02 -0.10086498674E+01  0.78987059910E+01  0.43788210296E+02  0.00000000000E+00 0.  1.
</event>
<event>
 7    1  0.3707147E-015  0.9000785E+02  0.7816164E-02  0.1186339E+00
        -11   -1    0    0    0    0  0.00000000000E+00  0.00000000000E+00  0.45593999997E+02  0.45594000000E+02  0.51100000000E-03 0.  1.
         11   -1    0    0    0    0 -0.00000000000E+00 -0.00000000000E+00 -0.45593999997E+02  0.45594000000E+02  0.51100000000E-03 0. -1.
    9900012    2    1    2    0    0  0.88657626000E+00 -0.25334170360E+00  0.73658927758E+00  0.90007846092E+02  0.90000108860E+02 0.  0.
         12    1    1    2    0    0 -0.88657626000E+00  0.25334170360E+00 -0.73658927758E+00  0.11801539084E+01  0.00000000000E+00 0. -1.
         11    1    3    3    0    0 -0.45632624150E+01 -0.88788849767E+01 -0.38823873381E+01  0.10711250814E+02  0.51100000000E-03 0. -1.
        -11    1    3    3    0    0 -0.22722895334E+02 -0.23748158466E+02 -0.93373537375E+01  0.34168570030E+02  0.51100000000E-03 0.  1.
         12    1    3    3    0    0  0.28172734009E+02  0.32373701739E+02  0.13956330353E+02  0.45128025247E+02  0.00000000000E+00 0. -1.
</event>
<event>
 7    1  0.3707147E-015  0.9000759E+02  0.7816164E-02  0.1186339E+00
        -11   -1    0    0    0    0  0.00000000000E+00  0.00000000000E+00  0.45593999997E+02  0.45594000000E+02  0.51100000000E-03 0.  1.
         11   -1    0    0    0    0 -0.00000000000E+00 -0.00000000000E+00 -0.45593999997E+02  0.45594000000E+02  0.51100000000E-03 0. -1.
    9900012    2    1    2    0    0  0.29001238673E+00  0.86086971192E-01  0.11409828928E+01  0.90007593243E+02  0.89999852673E+02 0.  0.
         12    1    1    2    0    0 -0.29001238673E+00 -0.86086971192E-01 -0.11409828928E+01  0.11804067573E+01  0.00000000000E+00 0. -1.
         11    1    3    3    0    0 -0.23361596312E+02  0.13296070932E+02 -0.22741466263E+02  0.35209714178E+02  0.51100000000E-03 0. -1.
        -11    1    3    3    0    0 -0.41161834959E+01  0.12892732832E+01 -0.86312480400E+01  0.96490224977E+01  0.51100000000E-03 0.  1.
        -12    1    3    3    0    0  0.27767792195E+02 -0.14499257244E+02  0.32513697196E+02  0.45148856567E+02  0.00000000000E+00 0.  1.
</event>
<event>
 7    1  0.3707147E-015  0.9000753E+02  0.7816164E-02  0.1186339E+00
        -11   -1    0    0    0    0  0.00000000000E+00  0.00000000000E+00  0.45593999997E+02  0.45594000000E+02  0.51100000000E-03 0. -1.
         11   -1    0    0    0    0 -0.00000000000E+00 -0.00000000000E+00 -0.45593999997E+02  0.45594000000E+02  0.51100000000E-03 0.  1.
    9900012    2    1    2    0    0 -0.95805666802E+00 -0.32867859401E+00 -0.60630439798E+00  0.90007530932E+02  0.89999789540E+02 0.  0.
         12    1    1    2    0    0  0.95805666802E+00  0.32867859401E+00  0.60630439798E+00  0.11804690679E+01  0.00000000000E+00 0. -1.
         11    1    3    3    0    0 -0.25886812250E+02  0.26251683960E+02 -0.42185592629E+01  0.37108950426E+02  0.51100000000E-03 0. -1.
        -11    1    3    3    0    0 -0.67175073220E+01  0.32160839417E+01  0.57055349053E+01  0.93819629800E+01  0.51100000000E-03 0.  1.
        -12    1    3    3    0    0  0.31646262904E+02 -0.29796446496E+02 -0.20932800404E+01  0.43516617526E+02  0.00000000000E+00 0.  1.
</event>
<event>
 7    1  0.3707147E-015  0.9000774E+02  0.7816164E-02  0.1186339E+00
        -11   -1    0    0    0    0  0.00000000000E+00  0.00000000000E+00  0.45593999997E+02  0.45594000000E+02  0.51100000000E-03 0.  1.
         11   -1    0    0    0    0 -0.00000000000E+00 -0.00000000000E+00 -0.45593999997E+02  0.45594000000E+02  0.51100000000E-03 0. -1.
    9900012    2    1    2    0    0  0.86655766465E+00 -0.60690060200E+00  0.52323369986E+00  0.90007735609E+02  0.89999996920E+02 0.  0.
         12    1    1    2    0    0 -0.86655766465E+00  0.60690060200E+00 -0.52323369986E+00  0.11802643905E+01  0.00000000000E+00 0. -1.
         11    1    3    3    0    0 -0.36102719875E+01  0.43951925071E+01  0.80713160811E+01  0.98741037335E+01  0.51100000000E-03 0. -1.
        -11    1    3    3    0    0 -0.14415014195E+01  0.33076780120E+01  0.35606861561E+02  0.35789205784E+02  0.51100000000E-03 0.  1.
         12    1    3    3    0    0  0.59183310717E+01 -0.83097711210E+01 -0.43154943942E+02  0.44344426092E+02  0.00000000000E+00 0. -1.
</event>
<event>
 7    1  0.3707147E-015  0.9000736E+02  0.7816164E-02  0.1186340E+00
        -11   -1    0    0    0    0  0.00000000000E+00  0.00000000000E+00  0.45593999997E+02  0.45594000000E+02  0.51100000000E-03 0.  1.
         11   -1    0    0    0    0 -0.00000000000E+00 -0.00000000000E+00 -0.45593999997E+02  0.45594000000E+02  0.51100000000E-03 0. -1.
    9900012    2    1    2    0    0 -0.98494927061E+00 -0.64527143957E+00  0.86097979460E-01  0.90007359005E+02  0.89999615343E+02 0.  0.
         12    1    1    2    0    0  0.98494927061E+00  0.64527143957E+00 -0.86097979460E-01  0.11806409947E+01  0.00000000000E+00 0. -1.
         11    1    3    3    0    0  0.59041234333E+01  0.98553856445E+00  0.90074504662E+01  0.10814995328E+02  0.51100000000E-03 0. -1.
        -11    1    3    3    0    0 -0.19240633799E+02  0.34820937716E+02 -0.86068652602E+01  0.40703535746E+02  0.51100000000E-03 0.  1.
         12    1    3    3    0    0  0.12351561095E+02 -0.36451747720E+02 -0.31448722656E+00  0.38488827931E+02  0.00000000000E+00 0. -1.
</event>
<event>
 7    1  0.3707147E-015  0.9000775E+02  0.7816164E-02  0.1186339E+00
        -11   -1    0    0    0    0  0.00000000000E+00  0.00000000000E+00  0.45593999997E+02  0.45594000000E+02  0.51100000000E-03 0. -1.
         11   -1    0    0    0    0 -0.00000000000E+00 -0.00000000000E+00 -0.45593999997E+02  0.45594000000E+02  0.51100000000E-03 0.  1.
    9900012    2    1    2    0    0 -0.84041198828E+00  0.74560536389E+00  0.36163813589E+00  0.90007745023E+02  0.90000006458E+02 0.  0.
         12    1    1    2    0    0  0.84041198828E+00 -0.74560536389E+00 -0.36163813589E+00  0.11802549767E+01  0.00000000000E+00 0. -1.
         11    1    3    3    0    0 -0.10270924392E+02  0.39536717426E+00 -0.22949473469E+00  0.10281092898E+02  0.51100000000E-03 0. -1.
        -11    1    3    3    0    0  0.16509683967E+02  0.41349142328E+01 -0.37297385499E+02  0.40997099236E+02  0.51100000000E-03 0.  1.
         12    1    3    3    0    0 -0.70791715627E+01 -0.37846760432E+01  0.37888518370E+02  0.38729552890E+02  0.00000000000E+00 0. -1.
</event>
<event>
 7    1  0.3707147E-015  0.9000772E+02  0.7816164E-02  0.1186339E+00
        -11   -1    0    0    0    0  0.00000000000E+00  0.00000000000E+00  0.45593999997E+02  0.45594000000E+02  0.51100000000E-03 0. -1.
         11   -1    0    0    0    0 -0.00000000000E+00 -0.00000000000E+00 -0.45593999997E+02  0.45594000000E+02  0.51100000000E-03 0.  1.
    9900012    2    1    2    0    0  0.24514678555E+00  0.10940872079E+01 -0.36868300443E+00  0.90007724217E+02  0.89999985377E+02 0.  0.
         12    1    1    2    0    0 -0.24514678555E+00 -0.10940872079E+01  0.36868300443E+00  0.11802757825E+01  0.00000000000E+00 0. -1.
         11    1    3    3    0    0  0.79300333866E+01  0.40028849599E+01  0.56332551924E+00  0.89008905968E+01  0.51100000000E-03 0. -1.
        -11    1    3    3    0    0  0.21877036329E+02  0.24875090526E+02  0.16431701548E+02  0.36978042989E+02  0.51100000000E-03 0.  1.
         12    1    3    3    0    0 -0.29561922930E+02 -0.27783888278E+02 -0.17363710072E+02  0.44128790632E+02  0.00000000000E+00 0. -1.
</event>
<event>
 7    1  0.3707147E-015  0.9000847E+02  0.7816164E-02  0.1186338E+00
        -11   -1    0    0    0    0  0.00000000000E+00  0.00000000000E+00  0.45593999997E+02  0.45594000000E+02  0.51100000000E-03 0.  1.
         11   -1    0    0    0    0 -0.00000000000E+00 -0.00000000000E+00 -0.45593999997E+02  0.45594000000E+02  0.51100000000E-03 0. -1.
    9900012    2    1    2    0    0 -0.19917978264E+00 -0.57397157375E+00 -0.10110300367E+01  0.90008467174E+02  0.90000738137E+02 0.  0.
         12    1    1    2    0    0  0.19917978264E+00  0.57397157375E+00  0.10110300367E+01  0.11795328263E+01  0.00000000000E+00 0. -1.
         11    1    3    3    0    0  0.19438069418E+01  0.95234049083E+01 -0.34327902707E+02  0.35677423267E+02  0.51100000000E-03 0. -1.
        -11    1    3    3    0    0  0.10850993796E+01 -0.40061268715E-01 -0.98403201129E+01  0.99000477653E+01  0.51100000000E-03 0.  1.
        -12    1    3    3    0    0 -0.32280861040E+01 -0.10057315213E+02  0.43157192783E+02  0.44430996141E+02  0.00000000000E+00 0.  1.
</event>
<event>
 7    1  0.3707147E-015  0.9000766E+02  0.7816164E-02  0.1186339E+00
        -11   -1    0    0    0    0  0.00000000000E+00  0.00000000000E+00  0.45593999997E+02  0.45594000000E+02  0.51100000000E-03 0. -1.
         11   -1    0    0    0    0 -0.00000000000E+00 -0.00000000000E+00 -0.45593999997E+02  0.45594000000E+02  0.51100000000E-03 0.  1.
    9900012    2    1    2    0    0  0.10844684305E+01 -0.11792049320E+00 -0.45081450605E+00  0.90007656517E+02  0.89999916783E+02 0.  0.
         12    1    1    2    0    0 -0.10844684305E+01  0.11792049320E+00  0.45081450605E+00  0.11803434832E+01  0.00000000000E+00 0. -1.
         11    1    3    3    0    0  0.35410513007E+02  0.95901114611E+01  0.11903971832E+02  0.38569148486E+02  0.51100000000E-03 0. -1.
        -11    1    3    3    0    0  0.21699356340E+01 -0.15430141050E+01 -0.13758713475E+02  0.14013982657E+02  0.51100000000E-03 0.  1.
        -12    1    3    3    0    0 -0.36495980211E+02 -0.81650178493E+01  0.14039271364E+01  0.37424525374E+02  0.00000000000E+00 0.  1.
</event>
<event>
 7    1  0.3707147E-015  0.9000734E+02  0.7816164E-02  0.1186340E+00
        -11   -1    0    0    0    0  0.00000000000E+00  0.00000000000E+00  0.45593999997E+02  0.45594000000E+02  0.51100000000E-03 0. -1.
         11   -1    0    0    0    0 -0.00000000000E+00 -0.00000000000E+00 -0.45593999997E+02  0.45594000000E+02  0.51100000000E-03 0.  1.
    9900012    2    1    2    0    0 -0.65620773973E+00  0.84270733124E+00 -0.50317386302E+00  0.90007344174E+02  0.89999600316E+02 0.  0.
         12    1    1    2    0    0  0.65620773973E+00 -0.84270733124E+00  0.50317386302E+00  0.11806558263E+01  0.00000000000E+00 0. -1.
         11    1    3    3    0    0 -0.19489069080E+02 -0.15075231916E+01  0.31856585458E+02  0.37375640156E+02  0.51100000000E-03 0. -1.
        -11    1    3    3    0    0  0.60236102540E+01 -0.14043424616E+01  0.80055845193E+01  0.10116592410E+02  0.51100000000E-03 0.  1.
        -12    1    3    3    0    0  0.12809251086E+02  0.37545729844E+01 -0.40365343840E+02  0.42515111607E+02  0.00000000000E+00 0.  1.
</event>
<event>
 7    1  0.3707147E-015  0.9000778E+02  0.7816164E-02  0.1186339E+00
        -11   -1    0    0    0    0  0.00000000000E+00  0.00000000000E+00  0.45593999997E+02  0.45594000000E+02  0.51100000000E-03 0. -1.
         11   -1    0    0    0    0 -0.00000000000E+00 -0.00000000000E+00 -0.45593999997E+02  0.45594000000E+02  0.51100000000E-03 0.  1.
    9900012    2    1    2    0    0 -0.67916281894E+00 -0.54403673439E+00 -0.79729964040E+00  0.90007777640E+02  0.90000039505E+02 0.  0.
         12    1    1    2    0    0  0.67916281894E+00  0.54403673439E+00  0.79729964040E+00  0.11802223602E+01  0.00000000000E+00 0. -1.
         11    1    3    3    0    0 -0.38916765301E+02  0.58544655878E+01  0.28027181718E+01  0.39454335861E+02  0.51100000000E-03 0. -1.
        -11    1    3    3    0    0 -0.35117375038E+01 -0.78748948912E+01 -0.12430296557E+01  0.87115666117E+01  0.51100000000E-03 0.  1.
        -12    1    3    3    0    0  0.41749339986E+02  0.14763925690E+01 -0.23569881564E+01  0.41841875167E+02  0.00000000000E+00 0.  1.
</event>
<event>
 7    1  0.3707147E-015  0.9000769E+02  0.7816164E-02  0.1186339E+00
        -11   -1    0    0    0    0  0.00000000000E+00  0.00000000000E+00  0.45593999997E+02  0.45594000000E+02  0.51100000000E-03 0. -1.
         11   -1    0    0    0    0 -0.00000000000E+00 -0.00000000000E+00 -0.45593999997E+02  0.45594000000E+02  0.51100000000E-03 0.  1.
    9900012    2    1    2    0    0 -0.11297563761E+01 -0.27571066491E+00 -0.20192819373E+00  0.90007686128E+02  0.89999946785E+02 0.  0.
         12    1    1    2    0    0  0.11297563761E+01  0.27571066491E+00  0.20192819373E+00  0.11803138716E+01  0.00000000000E+00 0. -1.
         11    1    3    3    0    0  0.70362465191E+01 -0.50915782453E+01 -0.14934295452E+01  0.88126764478E+01  0.51100000000E-03 0. -1.
        -11    1    3    3    0    0  0.31905062288E+02 -0.14991707749E+02 -0.64308823076E+01  0.35833511527E+02  0.51100000000E-03 0.  1.
         12    1    3    3    0    0 -0.40071065183E+02  0.19807575330E+02  0.77223836591E+01  0.45361498154E+02  0.00000000000E+00 0. -1.
</event>
<event>
 7    1  0.3707147E-015  0.9000770E+02  0.7816164E-02  0.1186339E+00
        -11   -1    0    0    0    0  0.00000000000E+00  0.00000000000E+00  0.45593999997E+02  0.45594000000E+02  0.51100000000E-03 0.  1.
         11   -1    0    0    0    0 -0.00000000000E+00 -0.00000000000E+00 -0.45593999997E+02  0.45594000000E+02  0.51100000000E-03 0. -1.
    9900012    2    1    2    0    0 -0.91637626755E+00 -0.17479725474E+00  0.72304793388E+00  0.90007704334E+02  0.89999965231E+02 0.  0.
         12    1    1    2    0    0  0.91637626755E+00  0.17479725474E+00 -0.72304793388E+00  0.11802956658E+01  0.00000000000E+00 0. -1.
         11    1    3    3    0    0  0.30808098926E+02 -0.21541371197E+02  0.19105681042E+02  0.42168669422E+02  0.51100000000E-03 0. -1.
        -11    1    3    3    0    0  0.12019627915E+01  0.73048792201E+01 -0.72074556130E+01  0.10332153292E+02  0.51100000000E-03 0.  1.
        -12    1    3    3    0    0 -0.32926437985E+02  0.14061694722E+02 -0.11175177495E+02  0.37506881620E+02  0.00000000000E+00 0.  1.
</event>
<event>
 7    1  0.3707147E-015  0.9000779E+02  0.7816164E-02  0.1186339E+00
        -11   -1    0    0    0    0  0.00000000000E+00  0.00000000000E+00  0.45593999997E+02  0.45594000000E+02  0.51100000000E-03 0. -1.
         11   -1    0    0    0    0 -0.00000000000E+00 -0.00000000000E+00 -0.45593999997E+02  0.45594000000E+02  0.51100000000E-03 0.  1.
    9900012    2    1    2    0    0  0.10172633977E+00  0.39744071737E+00 -0.11066101234E+01  0.90007790977E+02  0.90000053018E+02 0.  0.
         12    1    1    2    0    0 -0.10172633977E+00 -0.39744071737E+00  0.11066101234E+01  0.11802090226E+01  0.00000000000E+00 0. -1.
         11    1    3    3    0    0  0.95219949140E+01 -0.12792363425E+01 -0.91695013986E+00  0.96511984014E+01  0.51100000000E-03 0. -1.
        -11    1    3    3    0    0  0.20901540377E+02  0.31034382662E+02 -0.54992165311E+01  0.37818628744E+02  0.51100000000E-03 0.  1.
         12    1    3    3    0    0 -0.30321808951E+02 -0.29357705602E+02  0.53095565476E+01  0.42537963832E+02  0.00000000000E+00 0. -1.
</event>
<event>
 7    1  0.3707147E-015  0.9000766E+02  0.7816164E-02  0.1186339E+00
        -11   -1    0    0    0    0  0.00000000000E+00  0.00000000000E+00  0.45593999997E+02  0.45594000000E+02  0.51100000000E-03 0. -1.
         11   -1    0    0    0    0 -0.00000000000E+00 -0.00000000000E+00 -0.45593999997E+02  0.45594000000E+02  0.51100000000E-03 0.  1.
    9900012    2    1    2    0    0  0.64672727861E+00 -0.47747781363E+00 -0.86427040342E+00  0.90007659132E+02  0.89999919432E+02 0.  0.
         12    1    1    2    0    0 -0.64672727861E+00  0.47747781363E+00  0.86427040342E+00  0.11803408684E+01  0.00000000000E+00 0. -1.
         11    1    3    3    0    0 -0.17555497441E+02 -0.15606259780E+02  0.22980854452E+02  0.32861383208E+02  0.51100000000E-03 0. -1.
        -11    1    3    3    0    0 -0.59039183025E+01 -0.90275892249E+01  0.55268155824E+01  0.12120202526E+02  0.51100000000E-03 0.  1.
        -12    1    3    3    0    0  0.24106143022E+02  0.24156371191E+02 -0.29371940438E+02  0.45026073398E+02  0.00000000000E+00 0.  1.
</event>
<event>
 7    1  0.3707147E-015  0.9000775E+02  0.7816164E-02  0.1186339E+00
        -11   -1    0    0    0    0  0.00000000000E+00  0.00000000000E+00  0.45593999997E+02  0.45594000000E+02  0.51100000000E-03 0.  1.
         11   -1    0    0    0    0 -0.00000000000E+00 -0.00000000000E+00 -0.45593999997E+02  0.45594000000E+02  0.51100000000E-03 0. -1.
    9900012    2    1    2    0    0 -0.51859256480E-02 -0.65918369457E+00  0.97899874676E+00  0.90007750627E+02  0.90000012135E+02 0.  0.
         12    1    1    2    0    0  0.51859256480E-02  0.65918369457E+00 -0.97899874676E+00  0.11802493733E+01  0.00000000000E+00 0. -1.
         11    1    3    3    0    0 -0.29774644561E+01  0.16936728229E+01  0.98772572270E+01  0.10454378643E+02  0.51100000000E-03 0. -1.
        -11    1    3    3    0    0  0.52257758088E+01  0.90724478470E+01  0.33753690993E+02  0.35340199471E+02  0.51100000000E-03 0.  1.
         12    1    3    3    0    0 -0.22534972783E+01 -0.11425304364E+02 -0.42651949473E+02  0.44213172513E+02  0.00000000000E+00 0. -1.
</event>
<event>
 7    1  0.3707147E-015  0.9000772E+02  0.7816164E-02  0.1186339E+00
        -11   -1    0    0    0    0  0.00000000000E+00  0.00000000000E+00  0.45593999997E+02  0.45594000000E+02  0.51100000000E-03 0.  1.
         11   -1    0    0    0    0 -0.00000000000E+00 -0.00000000000E+00 -0.45593999997E+02  0.45594000000E+02  0.51100000000E-03 0. -1.
    9900012    2    1    2    0    0 -0.14952322923E+00 -0.12922106617E+00  0.11636177193E+01  0.90007719747E+02  0.89999980847E+02 0.  0.
         12    1    1    2    0    0  0.14952322923E+00  0.12922106617E+00 -0.11636177193E+01  0.11802802534E+01  0.00000000000E+00 0. -1.
         11    1    3    3    0    0 -0.91666420442E+01 -0.49301729417E+01  0.46106315319E+01  0.11383841838E+02  0.51100000000E-03 0. -1.
        -11    1    3    3    0    0  0.59345002246E+01  0.88819330309E+01  0.36663843864E+02  0.38188276663E+02  0.51100000000E-03 0.  1.
         12    1    3    3    0    0  0.30826185904E+01 -0.40809811554E+01 -0.40110857677E+02  0.40435601246E+02  0.00000000000E+00 0. -1.
</event>
<event>
 7    1  0.3707147E-015  0.9000765E+02  0.7816164E-02  0.1186339E+00
        -11   -1    0    0    0    0  0.00000000000E+00  0.00000000000E+00  0.45593999997E+02  0.45594000000E+02  0.51100000000E-03 0. -1.
         11   -1    0    0    0    0 -0.00000000000E+00 -0.00000000000E+00 -0.45593999997E+02  0.45594000000E+02  0.51100000000E-03 0.  1.
    9900012    2    1    2    0    0 -0.96258848772E+00 -0.67359959968E+00 -0.11360617091E+00  0.90007652856E+02  0.89999913074E+02 0.  0.
         12    1    1    2    0    0  0.96258848772E+00  0.67359959968E+00  0.11360617091E+00  0.11803471436E+01  0.00000000000E+00 0. -1.
         11    1    3    3    0    0  0.63194958226E+01 -0.30254474512E+02  0.16527093341E+02  0.35048738494E+02  0.51100000000E-03 0. -1.
        -11    1    3    3    0    0 -0.14337566555E+02  0.32028655414E-01  0.74769284179E+01  0.16170074192E+02  0.51100000000E-03 0.  1.
        -12    1    3    3    0    0  0.70554822448E+01  0.29548846257E+02 -0.24117627930E+02  0.38788840170E+02  0.00000000000E+00 0.  1.
</event>
<event>
 7    1  0.3707147E-015  0.9000708E+02  0.7816164E-02  0.1186340E+00
        -11   -1    0    0    0    0  0.00000000000E+00  0.00000000000E+00  0.45593999997E+02  0.45594000000E+02  0.51100000000E-03 0. -1.
         11   -1    0    0    0    0 -0.00000000000E+00 -0.00000000000E+00 -0.45593999997E+02  0.45594000000E+02  0.51100000000E-03 0.  1.
    9900012    2    1    2    0    0  0.11668899925E+01 -0.72327525103E-01 -0.16644110243E+00  0.90007082490E+02  0.89999335176E+02 0.  0.
         12    1    1    2    0    0 -0.11668899925E+01  0.72327525103E-01  0.16644110243E+00  0.11809175103E+01  0.00000000000E+00 0. -1.
         11    1    3    3    0    0  0.16943077211E+01  0.32952528709E+01 -0.69500007027E+01  0.78760320064E+01  0.51100000000E-03 0. -1.
        -11    1    3    3    0    0  0.18774254094E+02  0.12974778559E+02 -0.29875297520E+02  0.37594559415E+02  0.51100000000E-03 0.  1.
         12    1    3    3    0    0 -0.19301671823E+02 -0.16342358955E+02  0.36658857120E+02  0.44536491069E+02  0.00000000000E+00 0. -1.
</event>
<event>
 7    1  0.3707147E-015  0.9000778E+02  0.7816164E-02  0.1186339E+00
        -11   -1    0    0    0    0  0.00000000000E+00  0.00000000000E+00  0.45593999997E+02  0.45594000000E+02  0.51100000000E-03 0.  1.
         11   -1    0    0    0    0 -0.00000000000E+00 -0.00000000000E+00 -0.45593999997E+02  0.45594000000E+02  0.51100000000E-03 0. -1.
    9900012    2    1    2    0    0  0.40908514020E+00  0.76105860287E+00  0.80396909313E+00  0.90007776652E+02  0.90000038504E+02 0.  0.
         12    1    1    2    0    0 -0.40908514020E+00 -0.76105860287E+00 -0.80396909313E+00  0.11802233482E+01  0.00000000000E+00 0. -1.
         11    1    3    3    0    0  0.66128566094E+01  0.17045685575E+01  0.86469267540E+01  0.11018383232E+02  0.51100000000E-03 0. -1.
        -11    1    3    3    0    0  0.23702939478E+02 -0.23988419130E+02 -0.20142525461E+02  0.39280974077E+02  0.51100000000E-03 0.  1.
         12    1    3    3    0    0 -0.29906710947E+02  0.23044909176E+02  0.12299567800E+02  0.39708419342E+02  0.00000000000E+00 0. -1.
</event>
<event>
 7    1  0.3707147E-015  0.9000776E+02  0.7816164E-02  0.1186339E+00
        -11   -1    0    0    0    0  0.00000000000E+00  0.00000000000E+00  0.45593999997E+02  0.45594000000E+02  0.51100000000E-03 0.  1.
         11   -1    0    0    0    0 -0.00000000000E+00 -0.00000000000E+00 -0.45593999997E+02  0.45594000000E+02  0.51100000000E-03 0. -1.
    9900012    2    1    2    0    0 -0.10037008017E+01  0.47037766333E+00  0.40532636629E+00  0.90007762774E+02  0.90000024443E+02 0.  0.
         12    1    1    2    0    0  0.10037008017E+01 -0.47037766333E+00 -0.40532636629E+00  0.11802372256E+01  0.00000000000E+00 0. -1.
         11    1    3    3    0    0 -0.84775313897E+01  0.43182666478E+01 -0.31700565609E+01  0.10028221386E+02  0.51100000000E-03 0. -1.
        -11    1    3    3    0    0  0.20511650557E+01 -0.84216742086E+01  0.40990963953E+02  0.41897386561E+02  0.51100000000E-03 0.  1.
         12    1    3    3    0    0  0.54226655323E+01  0.45737852242E+01 -0.37415581026E+02  0.38082154827E+02  0.00000000000E+00 0. -1.
</event>
<event>
 7    1  0.3707147E-015  0.9000769E+02  0.7816164E-02  0.1186339E+00
        -11   -1    0    0    0    0  0.00000000000E+00  0.00000000000E+00  0.45593999997E+02  0.45594000000E+02  0.51100000000E-03 0.  1.
         11   -1    0    0    0    0 -0.00000000000E+00 -0.00000000000E+00 -0.45593999997E+02  0.45594000000E+02  0.51100000000E-03 0. -1.
    9900012    2    1    2    0    0 -0.44230857880E+00 -0.62817857824E+00  0.89604313810E+00  0.90007687113E+02  0.89999947783E+02 0.  0.
         12    1    1    2    0    0  0.44230857880E+00  0.62817857824E+00 -0.89604313810E+00  0.11803128866E+01  0.00000000000E+00 0. -1.
         11    1    3    3    0    0 -0.15364489257E+02 -0.16472970852E+02 -0.25644049239E+02  0.34132734441E+02  0.51100000000E-03 0. -1.
        -11    1    3    3    0    0 -0.64698662087E+01 -0.79282899460E+00 -0.90427991335E+01  0.11147195298E+02  0.51100000000E-03 0.  1.
        -12    1    3    3    0    0  0.21392046887E+02  0.16637621269E+02  0.35582891511E+02  0.44727757374E+02  0.00000000000E+00 0.  1.
</event>
<event>
 7    1  0.3707147E-015  0.9000767E+02  0.7816164E-02  0.1186339E+00
        -11   -1    0    0    0    0  0.00000000000E+00  0.00000000000E+00  0.45593999997E+02  0.45594000000E+02  0.51100000000E-03 0. -1.
         11   -1    0    0    0    0 -0.00000000000E+00 -0.00000000000E+00 -0.45593999997E+02  0.45594000000E+02  0.51100000000E-03 0.  1.
    9900012    2    1    2    0    0  0.98168186223E+00 -0.64740376191E+00  0.10171293512E+00  0.90007671050E+02  0.89999931508E+02 0.  0.
         12    1    1    2    0    0 -0.98168186223E+00  0.64740376191E+00 -0.10171293512E+00  0.11803289502E+01  0.00000000000E+00 0. -1.
         11    1    3    3    0    0  0.10673783856E+02 -0.79102588899E+01  0.61726309760E+01  0.14649342338E+02  0.51100000000E-03 0. -1.
        -11    1    3    3    0    0 -0.30327890358E+02  0.15830368267E+02  0.21089079607E+02  0.40188689603E+02  0.51100000000E-03 0.  1.
         12    1    3    3    0    0  0.20635788364E+02 -0.85675131390E+01 -0.27159997648E+02  0.35169639109E+02  0.00000000000E+00 0. -1.
</event>
<event>
 7    1  0.3707147E-015  0.9000775E+02  0.7816164E-02  0.1186339E+00
        -11   -1    0    0    0    0  0.00000000000E+00  0.00000000000E+00  0.45593999997E+02  0.45594000000E+02  0.51100000000E-03 0.  1.
         11   -1    0    0    0    0 -0.00000000000E+00 -0.00000000000E+00 -0.45593999997E+02  0.45594000000E+02  0.51100000000E-03 0. -1.
    9900012    2    1    2    0    0 -0.59019184508E+00  0.98298791808E+00  0.28000107845E+00  0.90007749067E+02  0.90000010555E+02 0.  0.
         12    1    1    2    0    0  0.59019184508E+00 -0.98298791808E+00 -0.28000107845E+00  0.11802509331E+01  0.00000000000E+00 0. -1.
         11    1    3    3    0    0  0.12538512735E-01  0.79809240527E+01 -0.30617560043E+01  0.85480790848E+01  0.51100000000E-03 0. -1.
        -11    1    3    3    0    0  0.20017092627E+02  0.25547188214E+02  0.21435532355E+02  0.38895049434E+02  0.51100000000E-03 0.  1.
         12    1    3    3    0    0 -0.20619822985E+02 -0.32545124349E+02 -0.18093775272E+02  0.42564620548E+02  0.00000000000E+00 0. -1.
</event>
<event>
 7    1  0.3707147E-015  0.9000779E+02  0.7816164E-02  0.1186339E+00
        -11   -1    0    0    0    0  0.00000000000E+00  0.00000000000E+00  0.45593999997E+02  0.45594000000E+02  0.51100000000E-03 0.  1.
         11   -1    0    0    0    0 -0.00000000000E+00 -0.00000000000E+00 -0.45593999997E+02  0.45594000000E+02  0.51100000000E-03 0. -1.
    9900012    2    1    2    0    0  0.77905597187E+00 -0.87117479151E+00 -0.16435363526E+00  0.90007794153E+02  0.90000056235E+02 0.  0.
         12    1    1    2    0    0 -0.77905597187E+00  0.87117479151E+00  0.16435363526E+00  0.11802058473E+01  0.00000000000E+00 0. -1.
         11    1    3    3    0    0 -0.37335062180E+02  0.73531947560E+01  0.47105092172E+01  0.38342733842E+02  0.51100000000E-03 0. -1.
        -11    1    3    3    0    0 -0.69083715387E+00  0.89614787959E+01 -0.11572122116E+01  0.90622568131E+01  0.51100000000E-03 0.  1.
        -12    1    3    3    0    0  0.38804955306E+02 -0.17185848343E+02 -0.37176506408E+01  0.42602803498E+02  0.00000000000E+00 0.  1.
</event>
<event>
 7    1  0.4059525E-015  0.9000656E+02  0.7816164E-02  0.1186341E+00
        -11   -1    0    0    0    0  0.00000000000E+00  0.00000000000E+00  0.45593999997E+02  0.45594000000E+02  0.51100000000E-03 0.  1.
         11   -1    0    0    0    0 -0.00000000000E+00 -0.00000000000E+00 -0.45593999997E+02  0.45594000000E+02  0.51100000000E-03 0. -1.
    9900012    2    1    2    0    0 -0.52323210288E+00  0.87795534081E+00  0.59263409097E+00  0.90006563341E+02  0.89998809169E+02 0.  0.
         12    1    1    2    0    0  0.52323210288E+00 -0.87795534081E+00 -0.59263409097E+00  0.11814366592E+01  0.00000000000E+00 0. -1.
         11    1    3    3    0    0 -0.81730005132E+01  0.80654495749E+00  0.41690493441E+01  0.92102890754E+01  0.51100000000E-03 0. -1.
        -11    1    3    3    0    0  0.97964117695E+00 -0.34047403213E+02  0.19329332939E+02  0.39163866951E+02  0.51100000000E-03 0.  1.
         12    1    3    3    0    0  0.66701272334E+01  0.34118813597E+02 -0.22905748192E+02  0.41632407315E+02  0.00000000000E+00 0. -1.
</event>
<event>
 7    1  0.3707147E-015  0.9000779E+02  0.7816164E-02  0.1186339E+00
        -11   -1    0    0    0    0  0.00000000000E+00  0.00000000000E+00  0.45593999997E+02  0.45594000000E+02  0.51100000000E-03 0. -1.
         11   -1    0    0    0    0 -0.00000000000E+00 -0.00000000000E+00 -0.45593999997E+02  0.45594000000E+02  0.51100000000E-03 0.  1.
    9900012    2    1    2    0    0 -0.73729809611E+00 -0.74798817835E+00 -0.53833246769E+00  0.90007789577E+02  0.90000051599E+02 0.  0.
         12    1    1    2    0    0  0.73729809611E+00  0.74798817835E+00  0.53833246769E+00  0.11802104233E+01  0.00000000000E+00 0. -1.
         11    1    3    3    0    0 -0.11794745083E+02 -0.98427631051E+00 -0.29428588254E+01  0.12196115355E+02  0.51100000000E-03 0. -1.
        -11    1    3    3    0    0  0.15242355898E+02  0.31052350565E+02 -0.19559519365E+02  0.39738554163E+02  0.51100000000E-03 0.  1.
         12    1    3    3    0    0 -0.41849089108E+01 -0.30816062433E+02  0.21964045722E+02  0.38073120058E+02  0.00000000000E+00 0. -1.
</event>
<event>
 7    1  0.3707147E-015  0.9000770E+02  0.7816164E-02  0.1186339E+00
        -11   -1    0    0    0    0  0.00000000000E+00  0.00000000000E+00  0.45593999997E+02  0.45594000000E+02  0.51100000000E-03 0.  1.
         11   -1    0    0    0    0 -0.00000000000E+00 -0.00000000000E+00 -0.45593999997E+02  0.45594000000E+02  0.51100000000E-03 0. -1.
    9900012    2    1    2    0    0  0.83177410264E+00  0.72998104511E+00  0.41034374670E+00  0.90007702379E+02  0.89999963250E+02 0.  0.
         12    1    1    2    0    0 -0.83177410264E+00 -0.72998104511E+00 -0.41034374670E+00  0.11802976212E+01  0.00000000000E+00 0. -1.
         11    1    3    3    0    0  0.20756586740E+02  0.37567908999E+02  0.96660464997E+01  0.43995637680E+02  0.51100000000E-03 0. -1.
        -11    1    3    3    0    0 -0.61413860335E+01 -0.30171708868E+01  0.30245335803E+01  0.74811594163E+01  0.51100000000E-03 0.  1.
        -12    1    3    3    0    0 -0.13783426604E+02 -0.33820757067E+02 -0.12280236333E+02  0.38530905283E+02  0.00000000000E+00 0.  1.
</event>
<event>
 7    1  0.3707147E-015  0.9000770E+02  0.7816164E-02  0.1186339E+00
        -11   -1    0    0    0    0  0.00000000000E+00  0.00000000000E+00  0.45593999997E+02  0.45594000000E+02  0.51100000000E-03 0.  1.
         11   -1    0    0    0    0 -0.00000000000E+00 -0.00000000000E+00 -0.45593999997E+02  0.45594000000E+02  0.51100000000E-03 0. -1.
    9900012    2    1    2    0    0  0.60276500514E+00 -0.39002279499E+00  0.93684331263E+00  0.90007695453E+02  0.89999956233E+02 0.  0.
         12    1    1    2    0    0 -0.60276500514E+00  0.39002279499E+00 -0.93684331263E+00  0.11803045473E+01  0.00000000000E+00 0. -1.
         11    1    3    3    0    0 -0.34149661880E+01 -0.30175405643E+01 -0.81764954620E+01  0.93606956699E+01  0.51100000000E-03 0. -1.
        -11    1    3    3    0    0  0.27910546951E+02 -0.28549735823E+02 -0.15154358798E+01  0.39954756824E+02  0.51100000000E-03 0.  1.
         12    1    3    3    0    0 -0.23892815758E+02  0.31177253592E+02  0.10628774654E+02  0.40692242959E+02  0.00000000000E+00 0. -1.
</event>
<event>
 7    1  0.3707147E-015  0.9000786E+02  0.7816164E-02  0.1186339E+00
        -11   -1    0    0    0    0  0.00000000000E+00  0.00000000000E+00  0.45593999997E+02  0.45594000000E+02  0.51100000000E-03 0.  1.
         11   -1    0    0    0    0 -0.00000000000E+00 -0.00000000000E+00 -0.45593999997E+02  0.45594000000E+02  0.51100000000E-03 0. -1.
    9900012    2    1    2    0    0 -0.29801533233E+00 -0.11321171901E+01  0.14908074853E+00  0.90007861220E+02  0.90000124188E+02 0.  0.
         12    1    1    2    0    0  0.29801533233E+00  0.11321171901E+01 -0.14908074853E+00  0.11801387800E+01  0.00000000000E+00 0. -1.
         11    1    3    3    0    0 -0.93354457984E-01  0.34814637524E+02 -0.18421386816E+02  0.39388008244E+02  0.51100000000E-03 0. -1.
        -11    1    3    3    0    0  0.73326750125E+01 -0.81240853852E+01 -0.62308210498E+01  0.12593332260E+02  0.51100000000E-03 0.  1.
        -12    1    3    3    0    0 -0.75373358869E+01 -0.27822669329E+02  0.24801288614E+02  0.38026520716E+02  0.00000000000E+00 0.  1.
</event>
<event>
 7    1  0.3707147E-015  0.9000777E+02  0.7816164E-02  0.1186339E+00
        -11   -1    0    0    0    0  0.00000000000E+00  0.00000000000E+00  0.45593999997E+02  0.45594000000E+02  0.51100000000E-03 0. -1.
         11   -1    0    0    0    0 -0.00000000000E+00 -0.00000000000E+00 -0.45593999997E+02  0.45594000000E+02  0.51100000000E-03 0.  1.
    9900012    2    1    2    0    0  0.68107887293E+00 -0.54890885504E+00 -0.79232431286E+00  0.90007768167E+02  0.90000029907E+02 0.  0.
         12    1    1    2    0    0 -0.68107887293E+00  0.54890885504E+00  0.79232431286E+00  0.11802318328E+01  0.00000000000E+00 0. -1.
         11    1    3    3    0    0  0.43043437729E+01 -0.26251664277E+02  0.25035773473E+02  0.36530360063E+02  0.51100000000E-03 0. -1.
        -11    1    3    3    0    0  0.17334793377E+01 -0.44769881425E+01  0.70488675010E+01  0.85284762268E+01  0.51100000000E-03 0.  1.
        -12    1    3    3    0    0 -0.53567442377E+01  0.30179743565E+02 -0.32876965287E+02  0.44948931878E+02  0.00000000000E+00 0.  1.
</event>
<event>
 7    1  0.3707147E-015  0.9000771E+02  0.7816164E-02  0.1186339E+00
        -11   -1    0    0    0    0  0.00000000000E+00  0.00000000000E+00  0.45593999997E+02  0.45594000000E+02  0.51100000000E-03 0.  1.
         11   -1    0    0    0    0 -0.00000000000E+00 -0.00000000000E+00 -0.45593999997E+02  0.45594000000E+02  0.51100000000E-03 0. -1.
    9900012    2    1    2    0    0 -0.72395135558E+00 -0.63828193414E+00 -0.67939107919E+00  0.90007711209E+02  0.89999972197E+02 0.  0.
         12    1    1    2    0    0  0.72395135558E+00  0.63828193414E+00  0.67939107919E+00  0.11802887914E+01  0.00000000000E+00 0. -1.
         11    1    3    3    0    0  0.22307805112E+02 -0.83827592198E+01 -0.28825571231E+02  0.37400833923E+02  0.51100000000E-03 0. -1.
        -11    1    3    3    0    0  0.92592557892E+01  0.39558419464E+00  0.19274228224E+00  0.92697062777E+01  0.51100000000E-03 0.  1.
        -12    1    3    3    0    0 -0.32291012257E+02  0.73488930911E+01  0.27953437870E+02  0.43337171008E+02  0.00000000000E+00 0.  1.
</event>
<event>
 7    1  0.3707147E-015  0.9000763E+02  0.7816164E-02  0.1186339E+00
        -11   -1    0    0    0    0  0.00000000000E+00  0.00000000000E+00  0.45593999997E+02  0.45594000000E+02  0.51100000000E-03 0. -1.
         11   -1    0    0    0    0 -0.00000000000E+00 -0.00000000000E+00 -0.45593999997E+02  0.45594000000E+02  0.51100000000E-03 0.  1.
    9900012    2    1    2    0    0 -0.43558166656E+00  0.99747144076E+00  0.45671521321E+00  0.90007631647E+02  0.89999891584E+02 0.  0.
         12    1    1    2    0    0  0.43558166656E+00 -0.99747144076E+00 -0.45671521321E+00  0.11803683532E+01  0.00000000000E+00 0. -1.
         11    1    3    3    0    0  0.71267535948E+01 -0.37718323279E+01 -0.22726130831E+01  0.83774761353E+01  0.51100000000E-03 0. -1.
        -11    1    3    3    0    0  0.26436959927E+02  0.17476842841E+02 -0.21224263404E+02  0.38142132127E+02  0.51100000000E-03 0.  1.
         12    1    3    3    0    0 -0.33999295188E+02 -0.12707539072E+02  0.23953591701E+02  0.43488023385E+02  0.00000000000E+00 0. -1.
</event>
<event>
 7    1  0.3707147E-015  0.9000772E+02  0.7816164E-02  0.1186339E+00
        -11   -1    0    0    0    0  0.00000000000E+00  0.00000000000E+00  0.45593999997E+02  0.45594000000E+02  0.51100000000E-03 0.  1.
         11   -1    0    0    0    0 -0.00000000000E+00 -0.00000000000E+00 -0.45593999997E+02  0.45594000000E+02  0.51100000000E-03 0. -1.
    9900012    2    1    2    0    0 -0.12322245952E+00  0.10281491021E+01  0.56637469043E+00  0.90007722642E+02  0.89999983781E+02 0.  0.
         12    1    1    2    0    0  0.12322245952E+00 -0.10281491021E+01 -0.56637469043E+00  0.11802773575E+01  0.00000000000E+00 0. -1.
         11    1    3    3    0    0 -0.88056175001E+00 -0.83263727482E+01  0.38924958228E+01  0.92333848685E+01  0.51100000000E-03 0. -1.
        -11    1    3    3    0    0 -0.27166786788E+02 -0.74115353986E+01  0.24964649886E+02  0.37632418279E+02  0.51100000000E-03 0.  1.
         12    1    3    3    0    0  0.27924126078E+02  0.16766057249E+02 -0.28290771018E+02  0.43141919495E+02  0.00000000000E+00 0. -1.
</event>
<event>
 7    1  0.3707147E-015  0.9000774E+02  0.7816164E-02  0.1186339E+00
        -11   -1    0    0    0    0  0.00000000000E+00  0.00000000000E+00  0.45593999997E+02  0.45594000000E+02  0.51100000000E-03 0. -1.
         11   -1    0    0    0    0 -0.00000000000E+00 -0.00000000000E+00 -0.45593999997E+02  0.45594000000E+02  0.51100000000E-03 0.  1.
    9900012    2    1    2    0    0  0.50241209562E+00  0.10619115310E+01 -0.11370637155E+00  0.90007744455E+02  0.90000005881E+02 0.  0.
         12    1    1    2    0    0 -0.50241209562E+00 -0.10619115310E+01  0.11370637155E+00  0.11802555454E+01  0.00000000000E+00 0. -1.
         11    1    3    3    0    0  0.26357252654E+01 -0.28432087309E+01 -0.82258355144E+01  0.90936930745E+01  0.51100000000E-03 0. -1.
        -11    1    3    3    0    0  0.32319037771E+01 -0.23904693118E+02 -0.26734855605E+02  0.36008777535E+02  0.51100000000E-03 0.  1.
         12    1    3    3    0    0 -0.53652169469E+01  0.27809813380E+02  0.34846984748E+02  0.44905273845E+02  0.00000000000E+00 0. -1.
</event>
<event>
 7    1  0.3707147E-015  0.9000753E+02  0.7816164E-02  0.1186339E+00
        -11   -1    0    0    0    0  0.00000000000E+00  0.00000000000E+00  0.45593999997E+02  0.45594000000E+02  0.51100000000E-03 0.  1.
         11   -1    0    0    0    0 -0.00000000000E+00 -0.00000000000E+00 -0.45593999997E+02  0.45594000000E+02  0.51100000000E-03 0. -1.
    9900012    2    1    2    0    0 -0.10567179088E+01  0.51012199912E+00 -0.12898501665E+00  0.90007527922E+02  0.89999786490E+02 0.  0.
         12    1    1    2    0    0  0.10567179088E+01 -0.51012199912E+00  0.12898501665E+00  0.11804720781E+01  0.00000000000E+00 0. -1.
         11    1    3    3    0    0 -0.26183327006E+01  0.66298053526E+01  0.48846014482E+01  0.86411409381E+01  0.51100000000E-03 0. -1.
        -11    1    3    3    0    0  0.69721255627E+00 -0.42150201032E+02  0.82625030428E+01  0.42958055231E+02  0.51100000000E-03 0.  1.
         12    1    3    3    0    0  0.86440223560E+00  0.36030517679E+02 -0.13276089508E+02  0.38408331753E+02  0.00000000000E+00 0. -1.
</event>
<event>
 7    1  0.3707147E-015  0.9000774E+02  0.7816164E-02  0.1186339E+00
        -11   -1    0    0    0    0  0.00000000000E+00  0.00000000000E+00  0.45593999997E+02  0.45594000000E+02  0.51100000000E-03 0.  1.
         11   -1    0    0    0    0 -0.00000000000E+00 -0.00000000000E+00 -0.45593999997E+02  0.45594000000E+02  0.51100000000E-03 0. -1.
    9900012    2    1    2    0    0 -0.30875767118E+00  0.10445259622E+01 -0.45458439657E+00  0.90007740385E+02  0.90000001758E+02 0.  0.
         12    1    1    2    0    0  0.30875767118E+00 -0.10445259622E+01  0.45458439657E+00  0.11802596150E+01  0.00000000000E+00 0. -1.
         11    1    3    3    0    0 -0.24234237742E+02  0.24798405300E+02  0.10547693038E+02  0.36242420077E+02  0.51100000000E-03 0. -1.
        -11    1    3    3    0    0 -0.11482029710E+02 -0.53827651461E+01 -0.15921956390E+01  0.12780698498E+02  0.51100000000E-03 0.  1.
        -12    1    3    3    0    0  0.35407509781E+02 -0.18371114192E+02 -0.94100817953E+01  0.40984621810E+02  0.00000000000E+00 0.  1.
</event>
<event>
 7    1  0.3707147E-015  0.9000798E+02  0.7816164E-02  0.1186339E+00
        -11   -1    0    0    0    0  0.00000000000E+00  0.00000000000E+00  0.45593999997E+02  0.45594000000E+02  0.51100000000E-03 0.  1.
         11   -1    0    0    0    0 -0.00000000000E+00 -0.00000000000E+00 -0.45593999997E+02  0.45594000000E+02  0.51100000000E-03 0. -1.
    9900012    2    1    2    0    0 -0.21150868054E+00 -0.84454600894E+00  0.79652159431E+00  0.90007982825E+02  0.90000247398E+02 0.  0.
         12    1    1    2    0    0  0.21150868054E+00  0.84454600894E+00 -0.79652159431E+00  0.11800171750E+01  0.00000000000E+00 0. -1.
         11    1    3    3    0    0  0.32677302659E+01  0.83069232678E+01  0.54105430153E+00  0.89429176048E+01  0.51100000000E-03 0. -1.
        -11    1    3    3    0    0  0.98501261326E+01 -0.35595636463E+02  0.23188919900E+02  0.43609635706E+02  0.51100000000E-03 0.  1.
         12    1    3    3    0    0 -0.13329365079E+02  0.26444167186E+02 -0.22933452607E+02  0.37455429514E+02  0.00000000000E+00 0. -1.
</event>
<event>
 7    1  0.3707147E-015  0.9000766E+02  0.7816164E-02  0.1186339E+00
        -11   -1    0    0    0    0  0.00000000000E+00  0.00000000000E+00  0.45593999997E+02  0.45594000000E+02  0.51100000000E-03 0.  1.
         11   -1    0    0    0    0 -0.00000000000E+00 -0.00000000000E+00 -0.45593999997E+02  0.45594000000E+02  0.51100000000E-03 0. -1.
    9900012    2    1    2    0    0 -0.42749610078E+00 -0.77168005034E+00  0.78418985653E+00  0.90007662443E+02  0.89999922788E+02 0.  0.
         12    1    1    2    0    0  0.42749610078E+00  0.77168005034E+00 -0.78418985653E+00  0.11803375565E+01  0.00000000000E+00 0. -1.
         11    1    3    3    0    0  0.37694971672E+01 -0.27364951354E+01 -0.79984128988E+01  0.92559237075E+01  0.51100000000E-03 0. -1.
        -11    1    3    3    0    0  0.34914020708E+02  0.14241038242E+02  0.12163811136E+02  0.39620125111E+02  0.51100000000E-03 0.  1.
         12    1    3    3    0    0 -0.39111013976E+02 -0.12276223157E+02 -0.33812083804E+01  0.41131613625E+02  0.00000000000E+00 0. -1.
</event>
<event>
 7    1  0.5195646E-015  0.9000781E+02  0.7816164E-02  0.1186339E+00
        -11   -1    0    0    0    0  0.00000000000E+00  0.00000000000E+00  0.45593999997E+02  0.45594000000E+02  0.51100000000E-03 0.  1.
         11   -1    0    0    0    0 -0.00000000000E+00 -0.00000000000E+00 -0.45593999997E+02  0.45594000000E+02  0.51100000000E-03 0. -1.
    9900012    2    1    2    0    0 -0.72525265446E+00  0.72694938279E+00  0.58172000965E+00  0.90007811461E+02  0.90000073772E+02 0.  0.
         12    1    1    2    0    0  0.72525265446E+00 -0.72694938279E+00 -0.58172000965E+00  0.11801885390E+01  0.00000000000E+00 0. -1.
         11    1    3    3    0    0  0.50184072577E+01  0.51545723770E+01  0.59712167772E+01  0.93493025331E+01  0.51100000000E-03 0. -1.
        -11    1    3    3    0    0 -0.14498299980E+02  0.43445461771E+01  0.35148328042E+02  0.38268534701E+02  0.51100000000E-03 0.  1.
         12    1    3    3    0    0  0.87546400676E+01 -0.87721691712E+01 -0.40537824809E+02  0.42389974227E+02  0.00000000000E+00 0. -1.
</event>
<event>
 7    1  0.3707147E-015  0.9000770E+02  0.7816164E-02  0.1186339E+00
        -11   -1    0    0    0    0  0.00000000000E+00  0.00000000000E+00  0.45593999997E+02  0.45594000000E+02  0.51100000000E-03 0.  1.
         11   -1    0    0    0    0 -0.00000000000E+00 -0.00000000000E+00 -0.45593999997E+02  0.45594000000E+02  0.51100000000E-03 0. -1.
    9900012    2    1    2    0    0 -0.46412290439E+00 -0.31779271735E+00  0.10376498038E+01  0.90007695210E+02  0.89999955987E+02 0.  0.
         12    1    1    2    0    0  0.46412290439E+00  0.31779271735E+00 -0.10376498038E+01  0.11803047898E+01  0.00000000000E+00 0. -1.
         11    1    3    3    0    0 -0.23314821343E+02 -0.17812295334E+02 -0.22935097950E+02  0.37240803933E+02  0.51100000000E-03 0. -1.
        -11    1    3    3    0    0 -0.32078220739E+01  0.38763037838E+01 -0.79236896955E+01  0.93861979594E+01  0.51100000000E-03 0.  1.
        -12    1    3    3    0    0  0.26058520512E+02  0.13618198833E+02  0.31896437450E+02  0.43380693318E+02  0.00000000000E+00 0.  1.
</event>
<event>
 7    1  0.3707147E-015  0.9000774E+02  0.7816164E-02  0.1186339E+00
        -11   -1    0    0    0    0  0.00000000000E+00  0.00000000000E+00  0.45593999997E+02  0.45594000000E+02  0.51100000000E-03 0.  1.
         11   -1    0    0    0    0 -0.00000000000E+00 -0.00000000000E+00 -0.45593999997E+02  0.45594000000E+02  0.51100000000E-03 0. -1.
    9900012    2    1    2    0    0 -0.96904737316E+00  0.27440760007E+00 -0.61534511568E+00  0.90007744962E+02  0.90000006396E+02 0.  0.
         12    1    1    2    0    0  0.96904737316E+00 -0.27440760007E+00  0.61534511568E+00  0.11802550376E+01  0.00000000000E+00 0. -1.
         11    1    3    3    0    0 -0.68658127084E+01  0.37646704503E+01 -0.22477103891E+01  0.81464305067E+01  0.51100000000E-03 0. -1.
        -11    1    3    3    0    0  0.21807647478E+01  0.39060644309E+02  0.14417173623E+01  0.39148029554E+02  0.51100000000E-03 0.  1.
         12    1    3    3    0    0  0.37160005875E+01 -0.42550907160E+02  0.19064791107E+00  0.42713284902E+02  0.00000000000E+00 0. -1.
</event>
<event>
 7    1  0.3707147E-015  0.9000769E+02  0.7816164E-02  0.1186339E+00
        -11   -1    0    0    0    0  0.00000000000E+00  0.00000000000E+00  0.45593999997E+02  0.45594000000E+02  0.51100000000E-03 0.  1.
         11   -1    0    0    0    0 -0.00000000000E+00 -0.00000000000E+00 -0.45593999997E+02  0.45594000000E+02  0.51100000000E-03 0. -1.
    9900012    2    1    2    0    0 -0.10751473956E+01  0.48513348953E+00  0.42959313474E-01  0.90007685666E+02  0.89999946317E+02 0.  0.
         12    1    1    2    0    0  0.10751473956E+01 -0.48513348953E+00 -0.42959313474E-01  0.11803143342E+01  0.00000000000E+00 0. -1.
         11    1    3    3    0    0  0.99273128512E+01 -0.23416400286E+02  0.25641116947E+02  0.36115733709E+02  0.51100000000E-03 0. -1.
        -11    1    3    3    0    0 -0.66999668972E+00 -0.82947596874E+01  0.37412516659E+01  0.91240834129E+01  0.51100000000E-03 0.  1.
        -12    1    3    3    0    0 -0.10332463557E+02  0.32196293463E+02 -0.29339409299E+02  0.44767868544E+02  0.00000000000E+00 0.  1.
</event>
<event>
 7    1  0.3707147E-015  0.9000769E+02  0.7816164E-02  0.1186339E+00
        -11   -1    0    0    0    0  0.00000000000E+00  0.00000000000E+00  0.45593999997E+02  0.45594000000E+02  0.51100000000E-03 0.  1.
         11   -1    0    0    0    0 -0.00000000000E+00 -0.00000000000E+00 -0.45593999997E+02  0.45594000000E+02  0.51100000000E-03 0. -1.
    9900012    2    1    2    0    0  0.63953944531E+00  0.45216086798E+00  0.88299562566E+00  0.90007685878E+02  0.89999946531E+02 0.  0.
         12    1    1    2    0    0 -0.63953944531E+00 -0.45216086798E+00 -0.88299562566E+00  0.11803141224E+01  0.00000000000E+00 0. -1.
         11    1    3    3    0    0  0.21271337467E+01  0.10125847919E+02 -0.84322846071E+00  0.10381162196E+02  0.51100000000E-03 0. -1.
        -11    1    3    3    0    0  0.36416850003E+02 -0.15294172740E+02  0.92719438937E+01  0.40571758993E+02  0.51100000000E-03 0.  1.
         12    1    3    3    0    0 -0.37904444305E+02  0.56204856892E+01 -0.75457198073E+01  0.39054764688E+02  0.00000000000E+00 0. -1.
</event>
<event>
 7    1  0.3707147E-015  0.9000806E+02  0.7816164E-02  0.1186338E+00
        -11   -1    0    0    0    0  0.00000000000E+00  0.00000000000E+00  0.45593999997E+02  0.45594000000E+02  0.51100000000E-03 0.  1.
         11   -1    0    0    0    0 -0.00000000000E+00 -0.00000000000E+00 -0.45593999997E+02  0.45594000000E+02  0.51100000000E-03 0. -1.
    9900012    2    1    2    0    0 -0.28782930275E+00 -0.30865201423E+00  0.11018804583E+01  0.90008062579E+02  0.90000328204E+02 0.  0.
         12    1    1    2    0    0  0.28782930275E+00  0.30865201423E+00 -0.11018804583E+01  0.11799374212E+01  0.00000000000E+00 0. -1.
         11    1    3    3    0    0  0.32077702525E+01  0.58911311189E+01  0.71655050220E+01  0.98152778022E+01  0.51100000000E-03 0. -1.
        -11    1    3    3    0    0  0.10772836270E+02  0.27885985237E+02  0.19110391749E+02  0.35480829288E+02  0.51100000000E-03 0.  1.
         12    1    3    3    0    0 -0.14268435825E+02 -0.34085768370E+02 -0.25174016313E+02  0.44711955488E+02  0.00000000000E+00 0. -1.
</event>
<event>
 7    1  0.3707147E-015  0.9000764E+02  0.7816164E-02  0.1186339E+00
        -11   -1    0    0    0    0  0.00000000000E+00  0.00000000000E+00  0.45593999997E+02  0.45594000000E+02  0.51100000000E-03 0. -1.
         11   -1    0    0    0    0 -0.00000000000E+00 -0.00000000000E+00 -0.45593999997E+02  0.45594000000E+02  0.51100000000E-03 0.  1.
    9900012    2    1    2    0    0 -0.49085731150E+00  0.23401277914E+00 -0.10476338375E+01  0.90007644317E+02  0.89999904422E+02 0.  0.
         12    1    1    2    0    0  0.49085731150E+00 -0.23401277914E+00  0.10476338375E+01  0.11803556830E+01  0.00000000000E+00 0. -1.
         11    1    3    3    0    0  0.23976887479E+02 -0.36802339407E+01  0.27987123890E+02  0.37036662362E+02  0.51100000000E-03 0. -1.
        -11    1    3    3    0    0  0.48753599810E+01 -0.86828633712E+01 -0.22153339807E+00  0.99604381718E+01  0.51100000000E-03 0.  1.
        -12    1    3    3    0    0 -0.29343104771E+02  0.12597110091E+02 -0.28813224329E+02  0.43010543783E+02  0.00000000000E+00 0.  1.
</event>
<event>
 7    1  0.3707147E-015  0.9000774E+02  0.7816164E-02  0.1186339E+00
        -11   -1    0    0    0    0  0.00000000000E+00  0.00000000000E+00  0.45593999997E+02  0.45594000000E+02  0.51100000000E-03 0. -1.
         11   -1    0    0    0    0 -0.00000000000E+00 -0.00000000000E+00 -0.45593999997E+02  0.45594000000E+02  0.51100000000E-03 0.  1.
    9900012    2    1    2    0    0 -0.11190158371E+01  0.19853050180E+00 -0.31842752853E+00  0.90007742869E+02  0.90000004275E+02 0.  0.
         12    1    1    2    0    0  0.11190158371E+01 -0.19853050180E+00  0.31842752853E+00  0.11802571308E+01  0.00000000000E+00 0. -1.
         11    1    3    3    0    0  0.43814410964E+00 -0.16223338311E+02  0.38673411501E+02  0.41940689474E+02  0.51100000000E-03 0. -1.
        -11    1    3    3    0    0 -0.88105600556E+01  0.25879556147E+01 -0.45490078862E+01  0.10247778089E+02  0.51100000000E-03 0.  1.
        -12    1    3    3    0    0  0.72534001088E+01  0.13833913198E+02 -0.34442831143E+02  0.37819275306E+02  0.00000000000E+00 0.  1.
</event>
<event>
 7    1  0.3707147E-015  0.9000751E+02  0.7816164E-02  0.1186339E+00
        -11   -1    0    0    0    0  0.00000000000E+00  0.00000000000E+00  0.45593999997E+02  0.45594000000E+02  0.51100000000E-03 0.  1.
         11   -1    0    0    0    0 -0.00000000000E+00 -0.00000000000E+00 -0.45593999997E+02  0.45594000000E+02  0.51100000000E-03 0. -1.
    9900012    2    1    2    0    0 -0.44365366952E+00  0.10774317683E+01 -0.18937117317E+00  0.90007513136E+02  0.89999771510E+02 0.  0.
         12    1    1    2    0    0  0.44365366952E+00 -0.10774317683E+01  0.18937117317E+00  0.11804868635E+01  0.00000000000E+00 0. -1.
         11    1    3    3    0    0 -0.48300996354E+01 -0.23941717087E+01  0.75445721555E+01  0.92726743677E+01  0.51100000000E-03 0. -1.
        -11    1    3    3    0    0 -0.44006373430E+01 -0.17936906633E+02  0.30725941128E+02  0.35849430777E+02  0.51100000000E-03 0.  1.
         12    1    3    3    0    0  0.87870833089E+01  0.21408510110E+02 -0.38459884456E+02  0.44885407992E+02  0.00000000000E+00 0. -1.
</event>
<event>
 7    1  0.3707147E-015  0.9000774E+02  0.7816164E-02  0.1186339E+00
        -11   -1    0    0    0    0  0.00000000000E+00  0.00000000000E+00  0.45593999997E+02  0.45594000000E+02  0.51100000000E-03 0. -1.
         11   -1    0    0    0    0 -0.00000000000E+00 -0.00000000000E+00 -0.45593999997E+02  0.45594000000E+02  0.51100000000E-03 0.  1.
    9900012    2    1    2    0    0 -0.63906368858E-01 -0.11378857442E+01 -0.30684989332E+00  0.90007735264E+02  0.89999996569E+02 0.  0.
         12    1    1    2    0    0  0.63906368858E-01  0.11378857442E+01  0.30684989332E+00  0.11802647363E+01  0.00000000000E+00 0. -1.
         11    1    3    3    0    0 -0.39310736921E+01  0.42773265022E+01  0.97484187491E+01  0.11348150984E+02  0.51100000000E-03 0. -1.
        -11    1    3    3    0    0  0.38066642634E+02 -0.16961886975E+02 -0.84830003218E+01  0.42529239188E+02  0.51100000000E-03 0.  1.
         12    1    3    3    0    0 -0.34199475311E+02  0.11546674728E+02 -0.15722683206E+01  0.36130345092E+02  0.00000000000E+00 0. -1.
</event>
<event>
 7    1  0.3707147E-015  0.9000877E+02  0.7816164E-02  0.1186337E+00
        -11   -1    0    0    0    0  0.00000000000E+00  0.00000000000E+00  0.45593999997E+02  0.45594000000E+02  0.51100000000E-03 0.  1.
         11   -1    0    0    0    0 -0.00000000000E+00 -0.00000000000E+00 -0.45593999997E+02  0.45594000000E+02  0.51100000000E-03 0. -1.
    9900012    2    1    2    0    0  0.10725400423E+00  0.11393202429E+01  0.28464422718E+00  0.90008772976E+02  0.90001047974E+02 0.  0.
         12    1    1    2    0    0 -0.10725400423E+00 -0.11393202429E+01 -0.28464422718E+00  0.11792270236E+01  0.00000000000E+00 0. -1.
         11    1    3    3    0    0 -0.35406544460E+02  0.26522562421E+01 -0.64975122905E+01  0.36095367016E+02  0.51100000000E-03 0. -1.
        -11    1    3    3    0    0 -0.88429394681E+01 -0.15740856880E+01 -0.34051895448E+00  0.89883968320E+01  0.51100000000E-03 0.  1.
        -12    1    3    3    0    0  0.44356737933E+02  0.61149688724E-01  0.71226754721E+01  0.44925009128E+02  0.00000000000E+00 0.  1.
</event>
<event>
 7    1  0.3707147E-015  0.9000743E+02  0.7816164E-02  0.1186340E+00
        -11   -1    0    0    0    0  0.00000000000E+00  0.00000000000E+00  0.45593999997E+02  0.45594000000E+02  0.51100000000E-03 0. -1.
         11   -1    0    0    0    0 -0.00000000000E+00 -0.00000000000E+00 -0.45593999997E+02  0.45594000000E+02  0.51100000000E-03 0.  1.
    9900012    2    1    2    0    0 -0.92537381008E-01 -0.46062918241E-01 -0.11760373898E+01  0.90007428570E+02  0.89999685826E+02 0.  0.
         12    1    1    2    0    0  0.92537381008E-01  0.46062918241E-01  0.11760373898E+01  0.11805714301E+01  0.00000000000E+00 0. -1.
         11    1    3    3    0    0  0.68129024536E+01  0.57409573031E+01  0.36573956254E-02  0.89092224261E+01  0.51100000000E-03 0. -1.
        -11    1    3    3    0    0 -0.16853378152E-01  0.33447940213E+02 -0.17853207837E+02  0.37914403844E+02  0.51100000000E-03 0.  1.
         12    1    3    3    0    0 -0.68885864565E+01 -0.39234960434E+02  0.16673513051E+02  0.43183802300E+02  0.00000000000E+00 0. -1.
</event>
<event>
 7    1  0.3707147E-015  0.9000771E+02  0.7816164E-02  0.1186339E+00
        -11   -1    0    0    0    0  0.00000000000E+00  0.00000000000E+00  0.45593999997E+02  0.45594000000E+02  0.51100000000E-03 0. -1.
         11   -1    0    0    0    0 -0.00000000000E+00 -0.00000000000E+00 -0.45593999997E+02  0.45594000000E+02  0.51100000000E-03 0.  1.
    9900012    2    1    2    0    0  0.10575676120E+01 -0.24881269417E+00  0.46123489669E+00  0.90007705697E+02  0.89999966613E+02 0.  0.
         12    1    1    2    0    0 -0.10575676120E+01  0.24881269417E+00 -0.46123489669E+00  0.11802943025E+01  0.00000000000E+00 0. -1.
         11    1    3    3    0    0 -0.29985738137E+01  0.43492914991E+01 -0.71018992735E+01  0.88512572561E+01  0.51100000000E-03 0. -1.
        -11    1    3    3    0    0 -0.15675659149E+02  0.13076111248E+02 -0.29332166234E+02  0.35736353359E+02  0.51100000000E-03 0.  1.
         12    1    3    3    0    0  0.19731800575E+02 -0.17674215441E+02  0.36895300404E+02  0.45420095083E+02  0.00000000000E+00 0. -1.
</event>
<event>
 7    1  0.3707147E-015  0.9000777E+02  0.7816164E-02  0.1186339E+00
        -11   -1    0    0    0    0  0.00000000000E+00  0.00000000000E+00  0.45593999997E+02  0.45594000000E+02  0.51100000000E-03 0.  1.
         11   -1    0    0    0    0 -0.00000000000E+00 -0.00000000000E+00 -0.45593999997E+02  0.45594000000E+02  0.51100000000E-03 0. -1.
    9900012    2    1    2    0    0  0.53700499519E+00  0.83400491366E+00  0.63953065225E+00  0.90007772049E+02  0.90000033840E+02 0.  0.
         12    1    1    2    0    0 -0.53700499519E+00 -0.83400491366E+00 -0.63953065225E+00  0.11802279509E+01  0.00000000000E+00 0. -1.
         11    1    3    3    0    0  0.11211467123E+02 -0.24450022799E+02  0.20840286406E+02  0.34026726961E+02  0.51100000000E-03 0. -1.
        -11    1    3    3    0    0 -0.54404862305E+01 -0.10383145086E+02  0.41981082093E+01  0.12451212997E+02  0.51100000000E-03 0.  1.
        -12    1    3    3    0    0 -0.52339758973E+01  0.35667172799E+02 -0.24398863963E+02  0.43529832091E+02  0.00000000000E+00 0.  1.
</event>
<event>
 7    1  0.3707147E-015  0.9000771E+02  0.7816164E-02  0.1186339E+00
        -11   -1    0    0    0    0  0.00000000000E+00  0.00000000000E+00  0.45593999997E+02  0.45594000000E+02  0.51100000000E-03 0.  1.
         11   -1    0    0    0    0 -0.00000000000E+00 -0.00000000000E+00 -0.45593999997E+02  0.45594000000E+02  0.51100000000E-03 0. -1.
    9900012    2    1    2    0    0  0.98838653628E+00 -0.63147563058E+00  0.13200965414E+00  0.90007705136E+02  0.89999966044E+02 0.  0.
         12    1    1    2    0    0 -0.98838653628E+00  0.63147563058E+00 -0.13200965414E+00  0.11802948640E+01  0.00000000000E+00 0. -1.
         11    1    3    3    0    0  0.30581984814E+02  0.15983736721E+02  0.22981723693E+02  0.41459585851E+02  0.51100000000E-03 0. -1.
        -11    1    3    3    0    0 -0.81018822132E+01  0.51089554753E+00  0.49094305881E+01  0.94870447779E+01  0.51100000000E-03 0.  1.
        -12    1    3    3    0    0 -0.21491716065E+02 -0.17126107899E+02 -0.27759144627E+02  0.39061074507E+02  0.00000000000E+00 0.  1.
</event>
<event>
 7    1  0.3707147E-015  0.9000782E+02  0.7816164E-02  0.1186339E+00
        -11   -1    0    0    0    0  0.00000000000E+00  0.00000000000E+00  0.45593999997E+02  0.45594000000E+02  0.51100000000E-03 0. -1.
         11   -1    0    0    0    0 -0.00000000000E+00 -0.00000000000E+00 -0.45593999997E+02  0.45594000000E+02  0.51100000000E-03 0.  1.
    9900012    2    1    2    0    0 -0.83283354294E+00 -0.79993983765E+00 -0.24355812658E+00  0.90007815262E+02  0.90000077624E+02 0.  0.
         12    1    1    2    0    0  0.83283354294E+00  0.79993983765E+00  0.24355812658E+00  0.11801847377E+01  0.00000000000E+00 0. -1.
         11    1    3    3    0    0 -0.29206113358E+02 -0.66974238578E+00 -0.22125294420E+02  0.36646613292E+02  0.51100000000E-03 0. -1.
        -11    1    3    3    0    0 -0.84161938112E+01  0.25119417944E+01 -0.25179678862E+01  0.91368666612E+01  0.51100000000E-03 0.  1.
        -12    1    3    3    0    0  0.36789473626E+02 -0.26421392463E+01  0.24399704180E+02  0.44224335309E+02  0.00000000000E+00 0.  1.
</event>
<event>
 7    1  0.3707147E-015  0.9000771E+02  0.7816164E-02  0.1186339E+00
        -11   -1    0    0    0    0  0.00000000000E+00  0.00000000000E+00  0.45593999997E+02  0.45594000000E+02  0.51100000000E-03 0.  1.
         11   -1    0    0    0    0 -0.00000000000E+00 -0.00000000000E+00 -0.45593999997E+02  0.45594000000E+02  0.51100000000E-03 0. -1.
    9900012    2    1    2    0    0 -0.88194910728E-02  0.10507174854E+01  0.53758199426E+00  0.90007712146E+02  0.89999973146E+02 0.  0.
         12    1    1    2    0    0  0.88194910728E-02 -0.10507174854E+01 -0.53758199426E+00  0.11802878539E+01  0.00000000000E+00 0. -1.
         11    1    3    3    0    0 -0.52100764934E+01 -0.88836422182E+01  0.76600443774E+01  0.12835118864E+02  0.51100000000E-03 0. -1.
        -11    1    3    3    0    0  0.35202612601E+02 -0.14092953102E+02 -0.78770058085E+01  0.38728316280E+02  0.51100000000E-03 0.  1.
         12    1    3    3    0    0 -0.30001355599E+02  0.24027312806E+02  0.75454342527E+00  0.38444277002E+02  0.00000000000E+00 0. -1.
</event>
<event>
 7    1  0.3707147E-015  0.9000764E+02  0.7816164E-02  0.1186339E+00
        -11   -1    0    0    0    0  0.00000000000E+00  0.00000000000E+00  0.45593999997E+02  0.45594000000E+02  0.51100000000E-03 0.  1.
         11   -1    0    0    0    0 -0.00000000000E+00 -0.00000000000E+00 -0.45593999997E+02  0.45594000000E+02  0.51100000000E-03 0. -1.
    9900012    2    1    2    0    0  0.88964137925E+00  0.64692861313E-02  0.77571610122E+00  0.90007644501E+02  0.89999904608E+02 0.  0.
         12    1    1    2    0    0 -0.88964137925E+00 -0.64692861313E-02 -0.77571610122E+00  0.11803554994E+01  0.00000000000E+00 0. -1.
         11    1    3    3    0    0 -0.11872297560E+02 -0.24186392938E+02 -0.26241643266E+02  0.37610595506E+02  0.51100000000E-03 0. -1.
        -11    1    3    3    0    0  0.33252416386E+01  0.39347169670E+01 -0.87897233712E+01  0.10188153256E+02  0.51100000000E-03 0.  1.
        -12    1    3    3    0    0  0.94366973006E+01  0.20258145258E+02  0.35807082739E+02  0.42208895739E+02  0.00000000000E+00 0.  1.
</event>
<event>
 7    1  0.3707147E-015  0.9000784E+02  0.7816164E-02  0.1186339E+00
        -11   -1    0    0    0    0  0.00000000000E+00  0.00000000000E+00  0.45593999997E+02  0.45594000000E+02  0.51100000000E-03 0.  1.
         11   -1    0    0    0    0 -0.00000000000E+00 -0.00000000000E+00 -0.45593999997E+02  0.45594000000E+02  0.51100000000E-03 0. -1.
    9900012    2    1    2    0    0  0.90396085256E+00  0.54890379104E+00  0.52377795636E+00  0.90007837324E+02  0.90000099976E+02 0.  0.
         12    1    1    2    0    0 -0.90396085256E+00 -0.54890379104E+00 -0.52377795636E+00  0.11801626762E+01  0.00000000000E+00 0. -1.
         11    1    3    3    0    0  0.29926172603E+02 -0.14234573465E+01 -0.24135305506E+02  0.38472262860E+02  0.51100000000E-03 0. -1.
        -11    1    3    3    0    0  0.78708833571E+01 -0.12538149445E+01  0.23849396054E+01  0.83193024899E+01  0.51100000000E-03 0.  1.
        -12    1    3    3    0    0 -0.36893095108E+02  0.32261760820E+01  0.22274143857E+02  0.43216271973E+02  0.00000000000E+00 0.  1.
</event>
<event>
 7    1  0.3707147E-015  0.9000773E+02  0.7816164E-02  0.1186339E+00
        -11   -1    0    0    0    0  0.00000000000E+00  0.00000000000E+00  0.45593999997E+02  0.45594000000E+02  0.51100000000E-03 0.  1.
         11   -1    0    0    0    0 -0.00000000000E+00 -0.00000000000E+00 -0.45593999997E+02  0.45594000000E+02  0.51100000000E-03 0. -1.
    9900012    2    1    2    0    0 -0.10124221705E+01  0.47866583398E+00  0.37271361014E+00  0.90007730934E+02  0.89999992183E+02 0.  0.
         12    1    1    2    0    0  0.10124221705E+01 -0.47866583398E+00 -0.37271361014E+00  0.11802690656E+01  0.00000000000E+00 0. -1.
         11    1    3    3    0    0 -0.35575556299E+02  0.81047576625E+01  0.99912132553E+01  0.37830300624E+02  0.51100000000E-03 0. -1.
        -11    1    3    3    0    0 -0.44282226980E+01 -0.51230426303E+00  0.77210713391E+01  0.89155232491E+01  0.51100000000E-03 0.  1.
        -12    1    3    3    0    0  0.38991356826E+02 -0.71137875655E+01 -0.17339570984E+02  0.43261907061E+02  0.00000000000E+00 0.  1.
</event>
<event>
 7    1  0.3707147E-015  0.9000780E+02  0.7816164E-02  0.1186339E+00
        -11   -1    0    0    0    0  0.00000000000E+00  0.00000000000E+00  0.45593999997E+02  0.45594000000E+02  0.51100000000E-03 0. -1.
         11   -1    0    0    0    0 -0.00000000000E+00 -0.00000000000E+00 -0.45593999997E+02  0.45594000000E+02  0.51100000000E-03 0.  1.
    9900012    2    1    2    0    0  0.31059085649E-01 -0.53391909461E+00 -0.10520652864E+01  0.90007798478E+02  0.90000060618E+02 0.  0.
         12    1    1    2    0    0 -0.31059085649E-01  0.53391909461E+00  0.10520652864E+01  0.11802015223E+01  0.00000000000E+00 0. -1.
         11    1    3    3    0    0 -0.14964699437E+02  0.13961116128E+02  0.13110935738E+02  0.24305382716E+02  0.51100000000E-03 0. -1.
        -11    1    3    3    0    0  0.23915181944E+02  0.16583931193E+02 -0.16194663809E+02  0.33305102273E+02  0.51100000000E-03 0.  1.
         12    1    3    3    0    0 -0.89194234220E+01 -0.31078966416E+02  0.20316627845E+01  0.32397313489E+02  0.00000000000E+00 0. -1.
</event>
<event>
 7    1  0.3707147E-015  0.9000749E+02  0.7816164E-02  0.1186340E+00
        -11   -1    0    0    0    0  0.00000000000E+00  0.00000000000E+00  0.45593999997E+02  0.45594000000E+02  0.51100000000E-03 0. -1.
         11   -1    0    0    0    0 -0.00000000000E+00 -0.00000000000E+00 -0.45593999997E+02  0.45594000000E+02  0.51100000000E-03 0.  1.
    9900012    2    1    2    0    0 -0.11186513651E+01 -0.27287078971E+00 -0.26030128641E+00  0.90007493285E+02  0.89999751396E+02 0.  0.
         12    1    1    2    0    0  0.11186513651E+01  0.27287078971E+00  0.26030128641E+00  0.11805067150E+01  0.00000000000E+00 0. -1.
         11    1    3    3    0    0 -0.17654428674E+01  0.28828118449E+02 -0.22673126279E+02  0.36718494759E+02  0.51100000000E-03 0. -1.
        -11    1    3    3    0    0  0.12076512236E+01  0.95442381446E+01  0.32874896137E+01  0.10166537831E+02  0.51100000000E-03 0.  1.
        -12    1    3    3    0    0 -0.56085972123E+00 -0.38645227383E+02  0.19125335379E+02  0.43122460696E+02  0.00000000000E+00 0.  1.
</event>
<event>
 7    1  0.3707147E-015  0.9000778E+02  0.7816164E-02  0.1186339E+00
        -11   -1    0    0    0    0  0.00000000000E+00  0.00000000000E+00  0.45593999997E+02  0.45594000000E+02  0.51100000000E-03 0. -1.
         11   -1    0    0    0    0 -0.00000000000E+00 -0.00000000000E+00 -0.45593999997E+02  0.45594000000E+02  0.51100000000E-03 0.  1.
    9900012    2    1    2    0    0  0.35286222083E+00  0.79622309226E-01 -0.11234187235E+01  0.90007779221E+02  0.90000041107E+02 0.  0.
         12    1    1    2    0    0 -0.35286222083E+00 -0.79622309226E-01  0.11234187235E+01  0.11802207791E+01  0.00000000000E+00 0. -1.
         11    1    3    3    0    0 -0.26103671918E+02  0.11507886217E+02  0.21421317264E+02  0.35675004785E+02  0.51100000000E-03 0. -1.
        -11    1    3    3    0    0 -0.45865086577E+01  0.62863263562E+01  0.49643957672E+01  0.92303405310E+01  0.51100000000E-03 0.  1.
        -12    1    3    3    0    0  0.31043042797E+02 -0.17714590264E+02 -0.27509131755E+02  0.45102433905E+02  0.00000000000E+00 0.  1.
</event>
<event>
 7    1  0.3707147E-015  0.9000764E+02  0.7816164E-02  0.1186339E+00
        -11   -1    0    0    0    0  0.00000000000E+00  0.00000000000E+00  0.45593999997E+02  0.45594000000E+02  0.51100000000E-03 0. -1.
         11   -1    0    0    0    0 -0.00000000000E+00 -0.00000000000E+00 -0.45593999997E+02  0.45594000000E+02  0.51100000000E-03 0.  1.
    9900012    2    1    2    0    0 -0.31704559764E+00  0.10958097964E+01 -0.30318742451E+00  0.90007644276E+02  0.89999904380E+02 0.  0.
         12    1    1    2    0    0  0.31704559764E+00 -0.10958097964E+01  0.30318742451E+00  0.11803557240E+01  0.00000000000E+00 0. -1.
         11    1    3    3    0    0 -0.97769846694E+01 -0.24017858760E+02  0.27907067012E+02  0.38095293123E+02  0.51100000000E-03 0. -1.
        -11    1    3    3    0    0 -0.51249621191E+01  0.34214751441E+01  0.61722762751E+01  0.87217385630E+01  0.51100000000E-03 0.  1.
        -12    1    3    3    0    0  0.14584901191E+02  0.21692193413E+02 -0.34382530711E+02  0.43190612590E+02  0.00000000000E+00 0.  1.
</event>
<event>
 7    1  0.3707147E-015  0.9000774E+02  0.7816164E-02  0.1186339E+00
        -11   -1    0    0    0    0  0.00000000000E+00  0.00000000000E+00  0.45593999997E+02  0.45594000000E+02  0.51100000000E-03 0.  1.
         11   -1    0    0    0    0 -0.00000000000E+00 -0.00000000000E+00 -0.45593999997E+02  0.45594000000E+02  0.51100000000E-03 0. -1.
    9900012    2    1    2    0    0  0.59313729124E+00  0.51026649225E+00  0.88364220889E+00  0.90007742701E+02  0.90000004104E+02 0.  0.
         12    1    1    2    0    0 -0.59313729124E+00 -0.51026649225E+00 -0.88364220889E+00  0.11802572994E+01  0.00000000000E+00 0. -1.
         11    1    3    3    0    0 -0.30846706090E+02  0.26084026273E+02 -0.14112384710E+02  0.42790829691E+02  0.51100000000E-03 0. -1.
        -11    1    3    3    0    0  0.12215793049E+00 -0.72012329254E+01 -0.14665911699E+01  0.73500726613E+01  0.51100000000E-03 0.  1.
        -12    1    3    3    0    0  0.31317685451E+02 -0.18372526855E+02  0.16462618089E+02  0.39866840348E+02  0.00000000000E+00 0.  1.
</event>
<event>
 7    1  0.3707147E-015  0.9000786E+02  0.7816164E-02  0.1186339E+00
        -11   -1    0    0    0    0  0.00000000000E+00  0.00000000000E+00  0.45593999997E+02  0.45594000000E+02  0.51100000000E-03 0. -1.
         11   -1    0    0    0    0 -0.00000000000E+00 -0.00000000000E+00 -0.45593999997E+02  0.45594000000E+02  0.51100000000E-03 0.  1.
    9900012    2    1    2    0    0  0.10372279522E+01  0.38268365433E+00 -0.41284217860E+00  0.90007861335E+02  0.90000124305E+02 0.  0.
         12    1    1    2    0    0 -0.10372279522E+01 -0.38268365433E+00  0.41284217860E+00  0.11801386650E+01  0.00000000000E+00 0. -1.
         11    1    3    3    0    0 -0.13425225274E+01  0.73496727790E+01  0.44173268930E+01  0.86794489362E+01  0.51100000000E-03 0. -1.
        -11    1    3    3    0    0 -0.25874365141E+02 -0.23795523538E+02 -0.24647696442E+02  0.42932722393E+02  0.51100000000E-03 0.  1.
         12    1    3    3    0    0  0.28254115620E+02  0.16828534413E+02  0.19817527370E+02  0.38395690006E+02  0.00000000000E+00 0. -1.
</event>
<event>
 7    1  0.3707147E-015  0.9000767E+02  0.7816164E-02  0.1186339E+00
        -11   -1    0    0    0    0  0.00000000000E+00  0.00000000000E+00  0.45593999997E+02  0.45594000000E+02  0.51100000000E-03 0. -1.
         11   -1    0    0    0    0 -0.00000000000E+00 -0.00000000000E+00 -0.45593999997E+02  0.45594000000E+02  0.51100000000E-03 0.  1.
    9900012    2    1    2    0    0  0.10338912948E+01  0.43882335646E+00 -0.36289145637E+00  0.90007666421E+02  0.89999926818E+02 0.  0.
         12    1    1    2    0    0 -0.10338912948E+01 -0.43882335646E+00  0.36289145637E+00  0.11803335786E+01  0.00000000000E+00 0. -1.
         11    1    3    3    0    0 -0.36627805310E+02  0.11046498123E+02 -0.12752555461E+01  0.38278551691E+02  0.51100000000E-03 0. -1.
        -11    1    3    3    0    0 -0.23842292438E+01 -0.43626034561E+01 -0.87495971478E+01  0.10063414357E+02  0.51100000000E-03 0.  1.
        -12    1    3    3    0    0  0.40045925848E+02 -0.62450713100E+01  0.96619612375E+01  0.41665700374E+02  0.00000000000E+00 0.  1.
</event>
<event>
 7    1  0.3707147E-015  0.9000772E+02  0.7816164E-02  0.1186339E+00
        -11   -1    0    0    0    0  0.00000000000E+00  0.00000000000E+00  0.45593999997E+02  0.45594000000E+02  0.51100000000E-03 0.  1.
         11   -1    0    0    0    0 -0.00000000000E+00 -0.00000000000E+00 -0.45593999997E+02  0.45594000000E+02  0.51100000000E-03 0. -1.
    9900012    2    1    2    0    0 -0.15929612573E+00  0.27931826392E+00  0.11356300013E+01  0.90007724842E+02  0.89999986010E+02 0.  0.
         12    1    1    2    0    0  0.15929612573E+00 -0.27931826392E+00 -0.11356300013E+01  0.11802751578E+01  0.00000000000E+00 0. -1.
         11    1    3    3    0    0  0.55212896003E+01 -0.46337387964E+01 -0.59284985554E+01  0.93329132357E+01  0.51100000000E-03 0. -1.
        -11    1    3    3    0    0  0.30158850977E+02  0.99466742609E+01  0.24874118007E+02  0.40338745245E+02  0.51100000000E-03 0.  1.
         12    1    3    3    0    0 -0.35839436703E+02 -0.50336172007E+01 -0.17809989450E+02  0.40336066361E+02  0.00000000000E+00 0. -1.
</event>
<event>
 7    1  0.3707147E-015  0.9000771E+02  0.7816164E-02  0.1186339E+00
        -11   -1    0    0    0    0  0.00000000000E+00  0.00000000000E+00  0.45593999997E+02  0.45594000000E+02  0.51100000000E-03 0.  1.
         11   -1    0    0    0    0 -0.00000000000E+00 -0.00000000000E+00 -0.45593999997E+02  0.45594000000E+02  0.51100000000E-03 0. -1.
    9900012    2    1    2    0    0 -0.11261194301E+01  0.33749144077E+00  0.10511593929E+00  0.90007705628E+02  0.89999966542E+02 0.  0.
         12    1    1    2    0    0  0.11261194301E+01 -0.33749144077E+00 -0.10511593929E+00  0.11802943718E+01  0.00000000000E+00 0. -1.
         11    1    3    3    0    0 -0.29398720968E+01  0.93162184720E+01  0.79654472978E+00  0.98014926583E+01  0.51100000000E-03 0. -1.
        -11    1    3    3    0    0 -0.20777207619E+02  0.28665638058E+02 -0.62566880950E+01  0.35952153035E+02  0.51100000000E-03 0.  1.
         12    1    3    3    0    0  0.22590960286E+02 -0.37644365089E+02  0.55652593045E+01  0.44254059935E+02  0.00000000000E+00 0. -1.
</event>
<event>
 7    1  0.5581432E-015  0.9000773E+02  0.7816164E-02  0.1186339E+00
        -11   -1    0    0    0    0  0.00000000000E+00  0.00000000000E+00  0.45593999997E+02  0.45594000000E+02  0.51100000000E-03 0. -1.
         11   -1    0    0    0    0 -0.00000000000E+00 -0.00000000000E+00 -0.45593999997E+02  0.45594000000E+02  0.51100000000E-03 0.  1.
    9900012    2    1    2    0    0 -0.90538917077E+00  0.40806114484E+00 -0.63780454908E+00  0.90007729653E+02  0.89999990885E+02 0.  0.
         12    1    1    2    0    0  0.90538917077E+00 -0.40806114484E+00  0.63780454908E+00  0.11802703467E+01  0.00000000000E+00 0. -1.
         11    1    3    3    0    0  0.88810760839E+01  0.32620931403E+01  0.11917725251E+01  0.95359889931E+01  0.51100000000E-03 0. -1.
        -11    1    3    3    0    0 -0.97610979768E+01 -0.27153291895E+02 -0.31103701209E+02  0.42426648743E+02  0.51100000000E-03 0.  1.
         12    1    3    3    0    0 -0.25367277886E-01  0.24299259899E+02  0.29274124135E+02  0.38045091917E+02  0.00000000000E+00 0. -1.
</event>
<event>
 7    1  0.3707147E-015  0.9000774E+02  0.7816164E-02  0.1186339E+00
        -11   -1    0    0    0    0  0.00000000000E+00  0.00000000000E+00  0.45593999997E+02  0.45594000000E+02  0.51100000000E-03 0.  1.
         11   -1    0    0    0    0 -0.00000000000E+00 -0.00000000000E+00 -0.45593999997E+02  0.45594000000E+02  0.51100000000E-03 0. -1.
    9900012    2    1    2    0    0 -0.25026346928E+00 -0.11522334218E+01 -0.52254849687E-01  0.90007743997E+02  0.90000005418E+02 0.  0.
         12    1    1    2    0    0  0.25026346928E+00  0.11522334218E+01  0.52254849687E-01  0.11802560026E+01  0.00000000000E+00 0. -1.
         11    1    3    3    0    0 -0.23653083628E+02 -0.21863354420E+02  0.18600364701E+02  0.37194733483E+02  0.51100000000E-03 0. -1.
        -11    1    3    3    0    0 -0.17229671480E+01 -0.63130876209E+01  0.56361772987E+01  0.86365609999E+01  0.51100000000E-03 0.  1.
        -12    1    3    3    0    0  0.25125787307E+02  0.27024208619E+02 -0.24288796850E+02  0.44176449514E+02  0.00000000000E+00 0.  1.
</event>
<event>
 7    1  0.3707147E-015  0.9000780E+02  0.7816164E-02  0.1186339E+00
        -11   -1    0    0    0    0  0.00000000000E+00  0.00000000000E+00  0.45593999997E+02  0.45594000000E+02  0.51100000000E-03 0.  1.
         11   -1    0    0    0    0 -0.00000000000E+00 -0.00000000000E+00 -0.45593999997E+02  0.45594000000E+02  0.51100000000E-03 0. -1.
    9900012    2    1    2    0    0  0.10795491936E+01 -0.42923381014E+00 -0.20783667498E+00  0.90007803318E+02  0.90000065522E+02 0.  0.
         12    1    1    2    0    0 -0.10795491936E+01  0.42923381014E+00  0.20783667498E+00  0.11801966821E+01  0.00000000000E+00 0. -1.
         11    1    3    3    0    0 -0.19191417304E+02 -0.20942779645E+02 -0.72933632106E+01  0.29327524011E+02  0.51100000000E-03 0. -1.
        -11    1    3    3    0    0 -0.15013115041E+02  0.11233845721E+02 -0.90105463410E+01  0.20803433816E+02  0.51100000000E-03 0.  1.
        -12    1    3    3    0    0  0.35284081539E+02  0.92797001137E+01  0.16096072877E+02  0.39876845491E+02  0.00000000000E+00 0.  1.
</event>
<event>
 7    1  0.3707147E-015  0.9000768E+02  0.7816164E-02  0.1186339E+00
        -11   -1    0    0    0    0  0.00000000000E+00  0.00000000000E+00  0.45593999997E+02  0.45594000000E+02  0.51100000000E-03 0. -1.
         11   -1    0    0    0    0 -0.00000000000E+00 -0.00000000000E+00 -0.45593999997E+02  0.45594000000E+02  0.51100000000E-03 0.  1.
    9900012    2    1    2    0    0  0.45624752197E+00 -0.88374260173E+00  0.63560635361E+00  0.90007678762E+02  0.89999939322E+02 0.  0.
         12    1    1    2    0    0 -0.45624752197E+00  0.88374260173E+00 -0.63560635361E+00  0.11803212377E+01  0.00000000000E+00 0. -1.
         11    1    3    3    0    0  0.35508325311E+02 -0.10716837770E+02 -0.12005127057E+01  0.37109742780E+02  0.51100000000E-03 0. -1.
        -11    1    3    3    0    0  0.73510134135E+01  0.69181449700E+01  0.24612168263E+01  0.10390174039E+02  0.51100000000E-03 0.  1.
        -12    1    3    3    0    0 -0.42403091203E+02  0.29149501983E+01 -0.62509776700E+00  0.42507761943E+02  0.00000000000E+00 0.  1.
</event>
<event>
 7    1  0.3707147E-015  0.9000764E+02  0.7816164E-02  0.1186339E+00
        -11   -1    0    0    0    0  0.00000000000E+00  0.00000000000E+00  0.45593999997E+02  0.45594000000E+02  0.51100000000E-03 0. -1.
         11   -1    0    0    0    0 -0.00000000000E+00 -0.00000000000E+00 -0.45593999997E+02  0.45594000000E+02  0.51100000000E-03 0.  1.
    9900012    2    1    2    0    0  0.11764912109E+00 -0.18042550577E+00 -0.11605424987E+01  0.90007638373E+02  0.89999898400E+02 0.  0.
         12    1    1    2    0    0 -0.11764912109E+00  0.18042550577E+00  0.11605424987E+01  0.11803616268E+01  0.00000000000E+00 0. -1.
         11    1    3    3    0    0  0.18810758104E+01 -0.78827965762E+01  0.19111649853E+01  0.83264326051E+01  0.51100000000E-03 0. -1.
        -11    1    3    3    0    0 -0.32242871521E+02 -0.17385820735E+02  0.13262673948E+02  0.38958542671E+02  0.51100000000E-03 0.  1.
         12    1    3    3    0    0  0.30479444831E+02  0.25088191806E+02 -0.16334381432E+02  0.42722663097E+02  0.00000000000E+00 0. -1.
</event>
<event>
 7    1  0.3707147E-015  0.9000783E+02  0.7816164E-02  0.1186339E+00
        -11   -1    0    0    0    0  0.00000000000E+00  0.00000000000E+00  0.45593999997E+02  0.45594000000E+02  0.51100000000E-03 0. -1.
         11   -1    0    0    0    0 -0.00000000000E+00 -0.00000000000E+00 -0.45593999997E+02  0.45594000000E+02  0.51100000000E-03 0.  1.
    9900012    2    1    2    0    0  0.31554156165E+00  0.98466631985E+00 -0.56890815094E+00  0.90007834451E+02  0.90000097066E+02 0.  0.
         12    1    1    2    0    0 -0.31554156165E+00 -0.98466631985E+00  0.56890815094E+00  0.11801655489E+01  0.00000000000E+00 0. -1.
         11    1    3    3    0    0 -0.32535555784E+02 -0.16085033852E+02  0.16455901415E+02  0.39850814243E+02  0.51100000000E-03 0. -1.
        -11    1    3    3    0    0 -0.49751798406E+01  0.46080952465E+01 -0.54008022319E+01  0.86692341793E+01  0.51100000000E-03 0.  1.
        -12    1    3    3    0    0  0.37826277186E+02  0.12461604925E+02 -0.11624007334E+02  0.41487786029E+02  0.00000000000E+00 0.  1.
</event>
<event>
 7    1  0.3707147E-015  0.9000775E+02  0.7816164E-02  0.1186339E+00
        -11   -1    0    0    0    0  0.00000000000E+00  0.00000000000E+00  0.45593999997E+02  0.45594000000E+02  0.51100000000E-03 0. -1.
         11   -1    0    0    0    0 -0.00000000000E+00 -0.00000000000E+00 -0.45593999997E+02  0.45594000000E+02  0.51100000000E-03 0.  1.
    9900012    2    1    2    0    0 -0.63869528222E+00  0.70951708634E+00 -0.69400381377E+00  0.90007751106E+02  0.90000012620E+02 0.  0.
         12    1    1    2    0    0  0.63869528222E+00 -0.70951708634E+00  0.69400381377E+00  0.11802488945E+01  0.00000000000E+00 0. -1.
         11    1    3    3    0    0 -0.75562368846E+01  0.74390965903E+01  0.58830945453E+01  0.12126321603E+02  0.51100000000E-03 0. -1.
        -11    1    3    3    0    0 -0.24188610568E+02  0.17073403710E+02 -0.20829697442E+02  0.36200363137E+02  0.51100000000E-03 0.  1.
         12    1    3    3    0    0  0.31106152171E+02 -0.23802983214E+02  0.14252599083E+02  0.41681066365E+02  0.00000000000E+00 0. -1.
</event>
<event>
 7    1  0.3707147E-015  0.9000773E+02  0.7816164E-02  0.1186339E+00
        -11   -1    0    0    0    0  0.00000000000E+00  0.00000000000E+00  0.45593999997E+02  0.45594000000E+02  0.51100000000E-03 0. -1.
         11   -1    0    0    0    0 -0.00000000000E+00 -0.00000000000E+00 -0.45593999997E+02  0.45594000000E+02  0.51100000000E-03 0.  1.
    9900012    2    1    2    0    0  0.44539131711E+00 -0.99208832201E+00 -0.45872091538E+00  0.90007729886E+02  0.89999991120E+02 0.  0.
         12    1    1    2    0    0 -0.44539131711E+00  0.99208832201E+00  0.45872091538E+00  0.11802701141E+01  0.00000000000E+00 0. -1.
         11    1    3    3    0    0 -0.99733656858E+01 -0.89386197676E+01  0.91237731317E+01  0.16205251707E+02  0.51100000000E-03 0. -1.
        -11    1    3    3    0    0  0.36919707873E+01 -0.28768158285E+02  0.11187591242E+02  0.31086971185E+02  0.51100000000E-03 0.  1.
         12    1    3    3    0    0  0.67267862156E+01  0.36714689731E+02 -0.20770085289E+02  0.42715506994E+02  0.00000000000E+00 0. -1.
</event>
<event>
 7    1  0.3707147E-015  0.9000769E+02  0.7816164E-02  0.1186339E+00
        -11   -1    0    0    0    0  0.00000000000E+00  0.00000000000E+00  0.45593999997E+02  0.45594000000E+02  0.51100000000E-03 0.  1.
         11   -1    0    0    0    0 -0.00000000000E+00 -0.00000000000E+00 -0.45593999997E+02  0.45594000000E+02  0.51100000000E-03 0. -1.
    9900012    2    1    2    0    0  0.83300363889E+00 -0.55167165373E+00  0.62840198282E+00  0.90007692528E+02  0.89999953270E+02 0.  0.
         12    1    1    2    0    0 -0.83300363889E+00  0.55167165373E+00 -0.62840198282E+00  0.11803074718E+01  0.00000000000E+00 0. -1.
         11    1    3    3    0    0 -0.78071724526E+01  0.21663242834E+02 -0.33743281582E+02  0.40851647261E+02  0.51100000000E-03 0. -1.
        -11    1    3    3    0    0 -0.14766100639E+01 -0.69149826961E+01 -0.28788655111E+01  0.76344763972E+01  0.51100000000E-03 0.  1.
        -12    1    3    3    0    0  0.10116786155E+02 -0.15299931791E+02  0.37250549076E+02  0.41521568870E+02  0.00000000000E+00 0.  1.
</event>
<event>
 7    1  0.3707147E-015  0.9000772E+02  0.7816164E-02  0.1186339E+00
        -11   -1    0    0    0    0  0.00000000000E+00  0.00000000000E+00  0.45593999997E+02  0.45594000000E+02  0.51100000000E-03 0.  1.
         11   -1    0    0    0    0 -0.00000000000E+00 -0.00000000000E+00 -0.45593999997E+02  0.45594000000E+02  0.51100000000E-03 0. -1.
    9900012    2    1    2    0    0  0.19773704523E+00  0.29185878138E+00  0.11263990406E+01  0.90007721945E+02  0.89999983075E+02 0.  0.
         12    1    1    2    0    0 -0.19773704523E+00 -0.29185878138E+00 -0.11263990406E+01  0.11802780545E+01  0.00000000000E+00 0. -1.
         11    1    3    3    0    0 -0.28685018711E+00 -0.59803296887E+01 -0.83131579107E+01  0.10244765538E+02  0.51100000000E-03 0. -1.
        -11    1    3    3    0    0 -0.14436272202E+02 -0.11157021199E+02  0.38578523464E+02  0.42675374047E+02  0.51100000000E-03 0.  1.
         12    1    3    3    0    0  0.14920859434E+02  0.17429209669E+02 -0.29138966513E+02  0.37087582361E+02  0.00000000000E+00 0. -1.
</event>
<event>
 7    1  0.3707147E-015  0.9000768E+02  0.7816164E-02  0.1186339E+00
        -11   -1    0    0    0    0  0.00000000000E+00  0.00000000000E+00  0.45593999997E+02  0.45594000000E+02  0.51100000000E-03 0.  1.
         11   -1    0    0    0    0 -0.00000000000E+00 -0.00000000000E+00 -0.45593999997E+02  0.45594000000E+02  0.51100000000E-03 0. -1.
    9900012    2    1    2    0    0  0.91310259135E+00 -0.34833424949E+00  0.66185702136E+00  0.90007683175E+02  0.89999943792E+02 0.  0.
         12    1    1    2    0    0 -0.91310259135E+00  0.34833424949E+00 -0.66185702136E+00  0.11803168254E+01  0.00000000000E+00 0. -1.
         11    1    3    3    0    0  0.20686056609E+02  0.25354071829E+02 -0.20402868690E+02  0.38561884645E+02  0.51100000000E-03 0. -1.
        -11    1    3    3    0    0 -0.68093702737E+01  0.12054151716E+01 -0.74410343222E+01  0.10158225303E+02  0.51100000000E-03 0.  1.
        -12    1    3    3    0    0 -0.12963583744E+02 -0.26907821250E+02  0.28505760033E+02  0.41287573227E+02  0.00000000000E+00 0.  1.
</event>
<event>
 7    1  0.3707147E-015  0.9000787E+02  0.7816164E-02  0.1186339E+00
        -11   -1    0    0    0    0  0.00000000000E+00  0.00000000000E+00  0.45593999997E+02  0.45594000000E+02  0.51100000000E-03 0.  1.
         11   -1    0    0    0    0 -0.00000000000E+00 -0.00000000000E+00 -0.45593999997E+02  0.45594000000E+02  0.51100000000E-03 0. -1.
    9900012    2    1    2    0    0  0.30740274132E-02 -0.23243434381E+00  0.11570127842E+01  0.90007867060E+02  0.90000130105E+02 0.  0.
         12    1    1    2    0    0 -0.30740274132E-02  0.23243434381E+00 -0.11570127842E+01  0.11801329402E+01  0.00000000000E+00 0. -1.
         11    1    3    3    0    0  0.46837567429E+01  0.11243175665E+02 -0.66635040649E+01  0.13883402427E+02  0.51100000000E-03 0. -1.
        -11    1    3    3    0    0  0.40020977460E+01  0.30028848424E+02 -0.72026715516E+01  0.31138834304E+02  0.51100000000E-03 0.  1.
         12    1    3    3    0    0 -0.86827804615E+01 -0.41504458433E+02  0.15023188401E+02  0.44985630329E+02  0.00000000000E+00 0. -1.
</event>
<event>
 7    1  0.5587295E-015  0.9000778E+02  0.7816164E-02  0.1186339E+00
        -11   -1    0    0    0    0  0.00000000000E+00  0.00000000000E+00  0.45593999997E+02  0.45594000000E+02  0.51100000000E-03 0. -1.
         11   -1    0    0    0    0 -0.00000000000E+00 -0.00000000000E+00 -0.45593999997E+02  0.45594000000E+02  0.51100000000E-03 0.  1.
    9900012    2    1    2    0    0  0.93975679952E+00 -0.52036253030E+00 -0.48888419784E+00  0.90007776392E+02  0.90000038241E+02 0.  0.
         12    1    1    2    0    0 -0.93975679952E+00  0.52036253030E+00  0.48888419784E+00  0.11802236077E+01  0.00000000000E+00 0. -1.
         11    1    3    3    0    0 -0.17926834566E+00 -0.96824348081E+01 -0.35624819085E+00  0.96906446631E+01  0.51100000000E-03 0. -1.
        -11    1    3    3    0    0 -0.76387331149E+01  0.10545362469E+02 -0.38654131988E+02  0.40788439946E+02  0.51100000000E-03 0.  1.
         12    1    3    3    0    0  0.87577582601E+01 -0.13832901917E+01  0.38521495981E+02  0.39528691783E+02  0.00000000000E+00 0. -1.
</event>
<event>
 7    1  0.3707147E-015  0.9000789E+02  0.7816164E-02  0.1186339E+00
        -11   -1    0    0    0    0  0.00000000000E+00  0.00000000000E+00  0.45593999997E+02  0.45594000000E+02  0.51100000000E-03 0.  1.
         11   -1    0    0    0    0 -0.00000000000E+00 -0.00000000000E+00 -0.45593999997E+02  0.45594000000E+02  0.51100000000E-03 0. -1.
    9900012    2    1    2    0    0  0.10237889818E+01  0.58624602633E+00  0.28755401861E-01  0.90007891888E+02  0.90000155261E+02 0.  0.
         12    1    1    2    0    0 -0.10237889818E+01 -0.58624602633E+00 -0.28755401861E-01  0.11801081119E+01  0.00000000000E+00 0. -1.
         11    1    3    3    0    0 -0.91666799665E+01 -0.20363964210E+01 -0.51543293333E+01  0.10711771241E+02  0.51100000000E-03 0. -1.
        -11    1    3    3    0    0 -0.49965843152E+01 -0.34957338219E+02  0.13702118292E+02  0.37877821956E+02  0.51100000000E-03 0.  1.
         12    1    3    3    0    0  0.15187053263E+02  0.37579980666E+02 -0.85190335566E+01  0.41418298691E+02  0.00000000000E+00 0. -1.
</event>
<event>
 7    1  0.3707147E-015  0.9000787E+02  0.7816164E-02  0.1186339E+00
        -11   -1    0    0    0    0  0.00000000000E+00  0.00000000000E+00  0.45593999997E+02  0.45594000000E+02  0.51100000000E-03 0.  1.
         11   -1    0    0    0    0 -0.00000000000E+00 -0.00000000000E+00 -0.45593999997E+02  0.45594000000E+02  0.51100000000E-03 0. -1.
    9900012    2    1    2    0    0 -0.68793830461E+00  0.95551865471E+00  0.80171952030E-01  0.90007871807E+02  0.90000134915E+02 0.  0.
         12    1    1    2    0    0  0.68793830461E+00 -0.95551865471E+00 -0.80171952030E-01  0.11801281932E+01  0.00000000000E+00 0. -1.
         11    1    3    3    0    0  0.61826854928E+01 -0.15392233795E+01  0.73076427022E+01  0.96951766688E+01  0.51100000000E-03 0. -1.
        -11    1    3    3    0    0 -0.16723122330E+02 -0.27427081639E+02  0.20698743263E+02  0.38214468473E+02  0.51100000000E-03 0.  1.
         12    1    3    3    0    0  0.98524985327E+01  0.29921823673E+02 -0.27926214013E+02  0.42098226666E+02  0.00000000000E+00 0. -1.
</event>
<event>
 7    1  0.3707147E-015  0.9000797E+02  0.7816164E-02  0.1186339E+00
        -11   -1    0    0    0    0  0.00000000000E+00  0.00000000000E+00  0.45593999997E+02  0.45594000000E+02  0.51100000000E-03 0. -1.
         11   -1    0    0    0    0 -0.00000000000E+00 -0.00000000000E+00 -0.45593999997E+02  0.45594000000E+02  0.51100000000E-03 0.  1.
    9900012    2    1    2    0    0 -0.49525287473E+00  0.16585935663E+00 -0.10581496917E+01  0.90007972243E+02  0.90000236677E+02 0.  0.
         12    1    1    2    0    0  0.49525287473E+00 -0.16585935663E+00  0.10581496917E+01  0.11800277565E+01  0.00000000000E+00 0. -1.
         11    1    3    3    0    0  0.30384471269E+02  0.22529865793E+02  0.14331326681E+02  0.40449942789E+02  0.51100000000E-03 0. -1.
        -11    1    3    3    0    0 -0.77178447645E+00 -0.74489955266E+01  0.61128690370E+01  0.96669723160E+01  0.51100000000E-03 0.  1.
        -12    1    3    3    0    0 -0.30107939668E+02 -0.14915010910E+02 -0.21502345410E+02  0.39891057138E+02  0.00000000000E+00 0.  1.
</event>
<event>
 7    1  0.3707147E-015  0.9000783E+02  0.7816164E-02  0.1186339E+00
        -11   -1    0    0    0    0  0.00000000000E+00  0.00000000000E+00  0.45593999997E+02  0.45594000000E+02  0.51100000000E-03 0.  1.
         11   -1    0    0    0    0 -0.00000000000E+00 -0.00000000000E+00 -0.45593999997E+02  0.45594000000E+02  0.51100000000E-03 0. -1.
    9900012    2    1    2    0    0  0.47382244237E+00 -0.10456084280E+01  0.27387298182E+00  0.90007825817E+02  0.90000088318E+02 0.  0.
         12    1    1    2    0    0 -0.47382244237E+00  0.10456084280E+01 -0.27387298182E+00  0.11801741828E+01  0.00000000000E+00 0. -1.
         11    1    3    3    0    0 -0.35322651622E+01  0.61478412586E+01 -0.15460506028E+01  0.72569361334E+01  0.51100000000E-03 0. -1.
        -11    1    3    3    0    0  0.11159237339E+02  0.27838016213E+02  0.25913912337E+02  0.39636026258E+02  0.51100000000E-03 0.  1.
         12    1    3    3    0    0 -0.71531497349E+01 -0.35031465900E+02 -0.24093988752E+02  0.43114863426E+02  0.00000000000E+00 0. -1.
</event>
<event>
 7    1  0.3707147E-015  0.9000776E+02  0.7816164E-02  0.1186339E+00
        -11   -1    0    0    0    0  0.00000000000E+00  0.00000000000E+00  0.45593999997E+02  0.45594000000E+02  0.51100000000E-03 0.  1.
         11   -1    0    0    0    0 -0.00000000000E+00 -0.00000000000E+00 -0.45593999997E+02  0.45594000000E+02  0.51100000000E-03 0. -1.
    9900012    2    1    2    0    0 -0.31809076410E+00  0.71993072014E+00  0.87947465412E+00  0.90007763734E+02  0.90000025415E+02 0.  0.
         12    1    1    2    0    0  0.31809076410E+00 -0.71993072014E+00 -0.87947465412E+00  0.11802362659E+01  0.00000000000E+00 0. -1.
         11    1    3    3    0    0  0.11692410388E+02  0.31792315424E+01  0.98064957000E+00  0.12156547525E+02  0.51100000000E-03 0. -1.
        -11    1    3    3    0    0  0.25009373756E+02  0.20739496613E+02  0.78995932265E+01  0.33436493070E+02  0.51100000000E-03 0.  1.
         12    1    3    3    0    0 -0.37019874908E+02 -0.23198797435E+02 -0.80007681424E+01  0.44414723139E+02  0.00000000000E+00 0. -1.
</event>
<event>
 7    1  0.3707147E-015  0.9000748E+02  0.7816164E-02  0.1186340E+00
        -11   -1    0    0    0    0  0.00000000000E+00  0.00000000000E+00  0.45593999997E+02  0.45594000000E+02  0.51100000000E-03 0. -1.
         11   -1    0    0    0    0 -0.00000000000E+00 -0.00000000000E+00 -0.45593999997E+02  0.45594000000E+02  0.51100000000E-03 0.  1.
    9900012    2    1    2    0    0  0.14780548838E-01 -0.24007003137E+00 -0.11557583406E+01  0.90007479172E+02  0.89999737096E+02 0.  0.
         12    1    1    2    0    0 -0.14780548838E-01  0.24007003137E+00  0.11557583406E+01  0.11805208284E+01  0.00000000000E+00 0. -1.
         11    1    3    3    0    0  0.19327246315E+02  0.50524161384E+00  0.34626769593E+02  0.39658679906E+02  0.51100000000E-03 0. -1.
        -11    1    3    3    0    0 -0.81041019403E+01 -0.35244927756E+01  0.34236579307E+01  0.94773388391E+01  0.51100000000E-03 0.  1.
        -12    1    3    3    0    0 -0.11208363826E+02  0.27791811304E+01 -0.39206185864E+02  0.40871460426E+02  0.00000000000E+00 0.  1.
</event>
<event>
 7    1  0.3707147E-015  0.9000771E+02  0.7816164E-02  0.1186339E+00
        -11   -1    0    0    0    0  0.00000000000E+00  0.00000000000E+00  0.45593999997E+02  0.45594000000E+02  0.51100000000E-03 0. -1.
         11   -1    0    0    0    0 -0.00000000000E+00 -0.00000000000E+00 -0.45593999997E+02  0.45594000000E+02  0.51100000000E-03 0.  1.
    9900012    2    1    2    0    0  0.74544828642E+00  0.35586576828E+00 -0.84305936776E+00  0.90007710760E+02  0.89999971742E+02 0.  0.
         12    1    1    2    0    0 -0.74544828642E+00 -0.35586576828E+00  0.84305936776E+00  0.11802892401E+01  0.00000000000E+00 0. -1.
         11    1    3    3    0    0  0.95456961294E+01 -0.27132208633E+02 -0.98774674335E+01  0.30411205551E+02  0.51100000000E-03 0. -1.
        -11    1    3    3    0    0  0.20493653746E+02  0.18719469526E+02  0.16014685465E+00  0.27756693435E+02  0.51100000000E-03 0.  1.
        -12    1    3    3    0    0 -0.29293901589E+02  0.87686048751E+01  0.88742612111E+01  0.31839811774E+02  0.00000000000E+00 0.  1.
</event>
<event>
 7    1  0.3707147E-015  0.9000773E+02  0.7816164E-02  0.1186339E+00
        -11   -1    0    0    0    0  0.00000000000E+00  0.00000000000E+00  0.45593999997E+02  0.45594000000E+02  0.51100000000E-03 0.  1.
         11   -1    0    0    0    0 -0.00000000000E+00 -0.00000000000E+00 -0.45593999997E+02  0.45594000000E+02  0.51100000000E-03 0. -1.
    9900012    2    1    2    0    0  0.18148654948E+00  0.90221711405E+00 -0.73899260888E+00  0.90007727504E+02  0.89999988707E+02 0.  0.
         12    1    1    2    0    0 -0.18148654948E+00 -0.90221711405E+00  0.73899260888E+00  0.11802724959E+01  0.00000000000E+00 0. -1.
         11    1    3    3    0    0 -0.40184244755E+01  0.49417139726E+01  0.83239041765E+01  0.10481204762E+02  0.51100000000E-03 0. -1.
        -11    1    3    3    0    0 -0.46452479640E+01  0.87872312161E+01  0.33108818991E+02  0.34568593496E+02  0.51100000000E-03 0.  1.
         12    1    3    3    0    0  0.88451589890E+01 -0.12826728075E+02 -0.42171715776E+02  0.44957929246E+02  0.00000000000E+00 0. -1.
</event>
<event>
 7    1  0.3707147E-015  0.9000773E+02  0.7816164E-02  0.1186339E+00
        -11   -1    0    0    0    0  0.00000000000E+00  0.00000000000E+00  0.45593999997E+02  0.45594000000E+02  0.51100000000E-03 0. -1.
         11   -1    0    0    0    0 -0.00000000000E+00 -0.00000000000E+00 -0.45593999997E+02  0.45594000000E+02  0.51100000000E-03 0.  1.
    9900012    2    1    2    0    0 -0.11541394431E+01 -0.38835787347E-01 -0.24389382697E+00  0.90007732966E+02  0.89999994241E+02 0.  0.
         12    1    1    2    0    0  0.11541394431E+01  0.38835787347E-01  0.24389382697E+00  0.11802670339E+01  0.00000000000E+00 0. -1.
         11    1    3    3    0    0 -0.96248826231E+01  0.49356195896E+00 -0.47971462163E+01  0.10765434548E+02  0.51100000000E-03 0. -1.
        -11    1    3    3    0    0 -0.15737606613E+02  0.24939793554E+02  0.24934654193E+02  0.38618681288E+02  0.51100000000E-03 0.  1.
         12    1    3    3    0    0  0.24208349793E+02 -0.25472191300E+02 -0.20381401803E+02  0.40623617131E+02  0.00000000000E+00 0. -1.
</event>
<event>
 7    1  0.3707147E-015  0.9000806E+02  0.7816164E-02  0.1186338E+00
        -11   -1    0    0    0    0  0.00000000000E+00  0.00000000000E+00  0.45593999997E+02  0.45594000000E+02  0.51100000000E-03 0. -1.
         11   -1    0    0    0    0 -0.00000000000E+00 -0.00000000000E+00 -0.45593999997E+02  0.45594000000E+02  0.51100000000E-03 0.  1.
    9900012    2    1    2    0    0  0.98442291760E-01 -0.10085304778E+01 -0.60450611685E+00  0.90008062606E+02  0.90000328231E+02 0.  0.
         12    1    1    2    0    0 -0.98442291760E-01  0.10085304778E+01  0.60450611685E+00  0.11799373944E+01  0.00000000000E+00 0. -1.
         11    1    3    3    0    0 -0.46923107067E+00  0.29324956591E+02  0.55668330724E+01  0.29852351458E+02  0.51100000000E-03 0. -1.
        -11    1    3    3    0    0  0.68401577524E+01  0.13457749155E+02  0.18062079854E+01  0.15203984936E+02  0.51100000000E-03 0.  1.
        -12    1    3    3    0    0 -0.62724843899E+01 -0.43791236224E+02 -0.79775471747E+01  0.44951726211E+02  0.00000000000E+00 0.  1.
</event>
<event>
 7    1  0.3707147E-015  0.9000775E+02  0.7816164E-02  0.1186339E+00
        -11   -1    0    0    0    0  0.00000000000E+00  0.00000000000E+00  0.45593999997E+02  0.45594000000E+02  0.51100000000E-03 0.  1.
         11   -1    0    0    0    0 -0.00000000000E+00 -0.00000000000E+00 -0.45593999997E+02  0.45594000000E+02  0.51100000000E-03 0. -1.
    9900012    2    1    2    0    0  0.45320714586E+00 -0.84955779935E+00  0.68253529747E+00  0.90007745958E+02  0.90000007405E+02 0.  0.
         12    1    1    2    0    0 -0.45320714586E+00  0.84955779935E+00 -0.68253529747E+00  0.11802540421E+01  0.00000000000E+00 0. -1.
         11    1    3    3    0    0 -0.27629408752E+02  0.21288655351E+02 -0.62298134647E+01  0.35431647587E+02  0.51100000000E-03 0. -1.
        -11    1    3    3    0    0 -0.66015334979E+01 -0.17628310231E+02  0.53312727243E+01  0.19564254017E+02  0.51100000000E-03 0.  1.
        -12    1    3    3    0    0  0.34684149396E+02 -0.45099029194E+01  0.15810760379E+01  0.35011844354E+02  0.00000000000E+00 0.  1.
</event>
<event>
 7    1  0.3707147E-015  0.9000765E+02  0.7816164E-02  0.1186339E+00
        -11   -1    0    0    0    0  0.00000000000E+00  0.00000000000E+00  0.45593999997E+02  0.45594000000E+02  0.51100000000E-03 0.  1.
         11   -1    0    0    0    0 -0.00000000000E+00 -0.00000000000E+00 -0.45593999997E+02  0.45594000000E+02  0.51100000000E-03 0. -1.
    9900012    2    1    2    0    0 -0.51454600360E+00  0.30481352497E+00  0.10176271804E+01  0.90007646683E+02  0.89999906819E+02 0.  0.
         12    1    1    2    0    0  0.51454600360E+00 -0.30481352497E+00 -0.10176271804E+01  0.11803533170E+01  0.00000000000E+00 0. -1.
         11    1    3    3    0    0 -0.13484409752E+02  0.16012342605E+02  0.44978787279E+01  0.21411570129E+02  0.51100000000E-03 0. -1.
        -11    1    3    3    0    0 -0.41847076532E+01  0.96073563441E+01  0.24813064245E+02  0.26935130063E+02  0.51100000000E-03 0.  1.
        -12    1    3    3    0    0  0.17154571401E+02 -0.25314885424E+02 -0.28293315792E+02  0.41660946491E+02  0.00000000000E+00 0.  1.
</event>
<event>
 7    1  0.3707147E-015  0.9000759E+02  0.7816164E-02  0.1186339E+00
        -11   -1    0    0    0    0  0.00000000000E+00  0.00000000000E+00  0.45593999997E+02  0.45594000000E+02  0.51100000000E-03 0.  1.
         11   -1    0    0    0    0 -0.00000000000E+00 -0.00000000000E+00 -0.45593999997E+02  0.45594000000E+02  0.51100000000E-03 0. -1.
    9900012    2    1    2    0    0 -0.35041746734E+00  0.95832411641E+00  0.59346498782E+00  0.90007585579E+02  0.89999844909E+02 0.  0.
         12    1    1    2    0    0  0.35041746734E+00 -0.95832411641E+00 -0.59346498782E+00  0.11804144210E+01  0.00000000000E+00 0. -1.
         11    1    3    3    0    0 -0.33710557460E+02 -0.18205375814E+02 -0.98510660468E+01  0.39558575497E+02  0.51100000000E-03 0. -1.
        -11    1    3    3    0    0 -0.28127482580E+01  0.43846291937E+00  0.92728305681E+01  0.96999582216E+01  0.51100000000E-03 0.  1.
        -12    1    3    3    0    0  0.36172888251E+02  0.18725237011E+02  0.11717004665E+01  0.40749051861E+02  0.00000000000E+00 0.  1.
</event>
<event>
 7    1  0.3707147E-015  0.9000767E+02  0.7816164E-02  0.1186339E+00
        -11   -1    0    0    0    0  0.00000000000E+00  0.00000000000E+00  0.45593999997E+02  0.45594000000E+02  0.51100000000E-03 0.  1.
         11   -1    0    0    0    0 -0.00000000000E+00 -0.00000000000E+00 -0.45593999997E+02  0.45594000000E+02  0.51100000000E-03 0. -1.
    9900012    2    1    2    0    0  0.50116461504E-01  0.95652058057E+00  0.68973527799E+00  0.90007670370E+02  0.89999930819E+02 0.  0.
         12    1    1    2    0    0 -0.50116461504E-01 -0.95652058057E+00 -0.68973527799E+00  0.11803296296E+01  0.00000000000E+00 0. -1.
         11    1    3    3    0    0  0.16987731207E+02  0.68158588148E+01  0.43308443549E+01  0.18809443267E+02  0.51100000000E-03 0. -1.
        -11    1    3    3    0    0  0.24571963983E+02  0.24633229981E+01  0.10111124550E+02  0.26684906110E+02  0.51100000000E-03 0.  1.
        -12    1    3    3    0    0 -0.41509578728E+02 -0.83226612323E+01 -0.13752233627E+02  0.44513320994E+02  0.00000000000E+00 0.  1.
</event>
<event>
 7    1  0.3707147E-015  0.9000757E+02  0.7816164E-02  0.1186339E+00
        -11   -1    0    0    0    0  0.00000000000E+00  0.00000000000E+00  0.45593999997E+02  0.45594000000E+02  0.51100000000E-03 0.  1.
         11   -1    0    0    0    0 -0.00000000000E+00 -0.00000000000E+00 -0.45593999997E+02  0.45594000000E+02  0.51100000000E-03 0. -1.
    9900012    2    1    2    0    0 -0.89277141391E+00  0.53042700948E+00  0.56127409805E+00  0.90007566934E+02  0.89999826017E+02 0.  0.
         12    1    1    2    0    0  0.89277141391E+00 -0.53042700948E+00 -0.56127409805E+00  0.11804330659E+01  0.00000000000E+00 0. -1.
         11    1    3    3    0    0 -0.19099677296E+02 -0.21890834893E+02 -0.27146257580E+02  0.39760855448E+02  0.51100000000E-03 0. -1.
        -11    1    3    3    0    0  0.14685631849E+01 -0.65031997449E+01 -0.25619053643E+00  0.66718751939E+01  0.51100000000E-03 0.  1.
        -12    1    3    3    0    0  0.16738342697E+02  0.28924461647E+02  0.27963722214E+02  0.43574836292E+02  0.00000000000E+00 0.  1.
</event>
<event>
 7    1  0.3707147E-015  0.9000774E+02  0.7816164E-02  0.1186339E+00
        -11   -1    0    0    0    0  0.00000000000E+00  0.00000000000E+00  0.45593999997E+02  0.45594000000E+02  0.51100000000E-03 0.  1.
         11   -1    0    0    0    0 -0.00000000000E+00 -0.00000000000E+00 -0.45593999997E+02  0.45594000000E+02  0.51100000000E-03 0. -1.
    9900012    2    1    2    0    0 -0.40600164331E+00  0.38953009614E+00 -0.10375223944E+01  0.90007735729E+02  0.89999997041E+02 0.  0.
         12    1    1    2    0    0  0.40600164331E+00 -0.38953009614E+00  0.10375223944E+01  0.11802642708E+01  0.00000000000E+00 0. -1.
         11    1    3    3    0    0  0.18927404313E+01  0.70459205025E+01 -0.90646901947E+01  0.11635981723E+02  0.51100000000E-03 0. -1.
        -11    1    3    3    0    0  0.33640985945E+02  0.14038505330E+02  0.49225723821E+01  0.36783519223E+02  0.51100000000E-03 0.  1.
         12    1    3    3    0    0 -0.35939728020E+02 -0.20694895737E+02  0.31045954181E+01  0.41588234784E+02  0.00000000000E+00 0. -1.
</event>
<event>
 7    1  0.3707147E-015  0.9000779E+02  0.7816164E-02  0.1186339E+00
        -11   -1    0    0    0    0  0.00000000000E+00  0.00000000000E+00  0.45593999997E+02  0.45594000000E+02  0.51100000000E-03 0.  1.
         11   -1    0    0    0    0 -0.00000000000E+00 -0.00000000000E+00 -0.45593999997E+02  0.45594000000E+02  0.51100000000E-03 0. -1.
    9900012    2    1    2    0    0  0.89412407565E+00  0.31144622620E+00  0.70458311736E+00  0.90007790703E+02  0.90000052741E+02 0.  0.
         12    1    1    2    0    0 -0.89412407565E+00 -0.31144622620E+00 -0.70458311736E+00  0.11802092966E+01  0.00000000000E+00 0. -1.
         11    1    3    3    0    0  0.29386181701E+01  0.93074286081E+01  0.56659362223E+01  0.11285678428E+02  0.51100000000E-03 0. -1.
        -11    1    3    3    0    0  0.18630396475E+02  0.27108783329E+02 -0.14642452742E+02  0.36005266684E+02  0.51100000000E-03 0.  1.
         12    1    3    3    0    0 -0.20674890570E+02 -0.36104765711E+02  0.96810996373E+01  0.42716845592E+02  0.00000000000E+00 0. -1.
</event>
<event>
 7    1  0.3707147E-015  0.9000759E+02  0.7816164E-02  0.1186339E+00
        -11   -1    0    0    0    0  0.00000000000E+00  0.00000000000E+00  0.45593999997E+02  0.45594000000E+02  0.51100000000E-03 0. -1.
         11   -1    0    0    0    0 -0.00000000000E+00 -0.00000000000E+00 -0.45593999997E+02  0.45594000000E+02  0.51100000000E-03 0.  1.
    9900012    2    1    2    0    0  0.45243400982E+00  0.95011228640E+00 -0.53476122025E+00  0.90007585051E+02  0.89999844373E+02 0.  0.
         12    1    1    2    0    0 -0.45243400982E+00 -0.95011228640E+00  0.53476122025E+00  0.11804149494E+01  0.00000000000E+00 0. -1.
         11    1    3    3    0    0  0.94493759161E+01 -0.19059413128E+01 -0.21846279154E+01  0.98841244873E+01  0.51100000000E-03 0. -1.
        -11    1    3    3    0    0  0.29562922441E+02 -0.19524985957E+02 -0.11898630387E+01  0.35448656310E+02  0.51100000000E-03 0.  1.
         12    1    3    3    0    0 -0.38559864347E+02  0.22381039556E+02  0.28397297338E+01  0.44674804253E+02  0.00000000000E+00 0. -1.
</event>
<event>
 7    1  0.3707147E-015  0.9000777E+02  0.7816164E-02  0.1186339E+00
        -11   -1    0    0    0    0  0.00000000000E+00  0.00000000000E+00  0.45593999997E+02  0.45594000000E+02  0.51100000000E-03 0.  1.
         11   -1    0    0    0    0 -0.00000000000E+00 -0.00000000000E+00 -0.45593999997E+02  0.45594000000E+02  0.51100000000E-03 0. -1.
    9900012    2    1    2    0    0 -0.64617806788E+00  0.61037451737E+00  0.77643147142E+00  0.90007767406E+02  0.90000029135E+02 0.  0.
         12    1    1    2    0    0  0.64617806788E+00 -0.61037451737E+00 -0.77643147142E+00  0.11802325943E+01  0.00000000000E+00 0. -1.
         11    1    3    3    0    0 -0.39447893145E+02  0.70559342239E+01  0.81726894979E+01  0.40898842712E+02  0.51100000000E-03 0. -1.
        -11    1    3    3    0    0  0.67216176150E+01  0.88972331217E+01  0.38752622049E+01  0.11805022575E+02  0.51100000000E-03 0.  1.
        -12    1    3    3    0    0  0.32080097462E+02 -0.15342792828E+02 -0.11271520231E+02  0.37303902118E+02  0.00000000000E+00 0.  1.
</event>
<event>
 7    1  0.3707147E-015  0.9000774E+02  0.7816164E-02  0.1186339E+00
        -11   -1    0    0    0    0  0.00000000000E+00  0.00000000000E+00  0.45593999997E+02  0.45594000000E+02  0.51100000000E-03 0.  1.
         11   -1    0    0    0    0 -0.00000000000E+00 -0.00000000000E+00 -0.45593999997E+02  0.45594000000E+02  0.51100000000E-03 0. -1.
    9900012    2    1    2    0    0 -0.71082407242E+00 -0.21625346922E+00  0.91704840475E+00  0.90007739774E+02  0.90000001139E+02 0.  0.
         12    1    1    2    0    0  0.71082407242E+00  0.21625346922E+00 -0.91704840475E+00  0.11802602262E+01  0.00000000000E+00 0. -1.
         11    1    3    3    0    0  0.65899369724E+01 -0.79274526726E+01  0.12406776461E+01  0.10383210316E+02  0.51100000000E-03 0. -1.
        -11    1    3    3    0    0 -0.20267624984E+02  0.13652892328E+02  0.34336284699E+02  0.42144495947E+02  0.51100000000E-03 0.  1.
         12    1    3    3    0    0  0.12966863939E+02 -0.59416931250E+01 -0.34659913941E+02  0.37480033511E+02  0.00000000000E+00 0. -1.
</event>
<event>
 7    1  0.3707147E-015  0.9000779E+02  0.7816164E-02  0.1186339E+00
        -11   -1    0    0    0    0  0.00000000000E+00  0.00000000000E+00  0.45593999997E+02  0.45594000000E+02  0.51100000000E-03 0.  1.
         11   -1    0    0    0    0 -0.00000000000E+00 -0.00000000000E+00 -0.45593999997E+02  0.45594000000E+02  0.51100000000E-03 0. -1.
    9900012    2    1    2    0    0  0.50222085515E+00 -0.10205328840E+01  0.31491833784E+00  0.90007793783E+02  0.90000055861E+02 0.  0.
         12    1    1    2    0    0 -0.50222085515E+00  0.10205328840E+01 -0.31491833784E+00  0.11802062168E+01  0.00000000000E+00 0. -1.
         11    1    3    3    0    0  0.13369149905E+02  0.10391787170E+02 -0.27863674569E+02  0.32605333467E+02  0.51100000000E-03 0. -1.
        -11    1    3    3    0    0  0.15125904392E+01  0.30631275938E+00 -0.12552094433E+02  0.12646613470E+02  0.51100000000E-03 0.  1.
        -12    1    3    3    0    0 -0.14379519489E+02 -0.11718632813E+02  0.40730687339E+02  0.44755846846E+02  0.00000000000E+00 0.  1.
</event>
<event>
 7    1  0.3707147E-015  0.9000721E+02  0.7816164E-02  0.1186340E+00
        -11   -1    0    0    0    0  0.00000000000E+00  0.00000000000E+00  0.45593999997E+02  0.45594000000E+02  0.51100000000E-03 0. -1.
         11   -1    0    0    0    0 -0.00000000000E+00 -0.00000000000E+00 -0.45593999997E+02  0.45594000000E+02  0.51100000000E-03 0.  1.
    9900012    2    1    2    0    0 -0.56576915093E+00  0.99873699338E+00  0.27692826735E+00  0.90007212306E+02  0.89999466706E+02 0.  0.
         12    1    1    2    0    0  0.56576915093E+00 -0.99873699338E+00 -0.27692826735E+00  0.11807876944E+01  0.00000000000E+00 0. -1.
         11    1    3    3    0    0  0.25762181089E+02 -0.17692252159E+02  0.16973970215E+02  0.35564327999E+02  0.51100000000E-03 0. -1.
        -11    1    3    3    0    0  0.49325852743E+01  0.19109753784E+01  0.91347556718E+01  0.10555850787E+02  0.51100000000E-03 0.  1.
        -12    1    3    3    0    0 -0.31260535515E+02  0.16780013774E+02 -0.25831797619E+02  0.43887033520E+02  0.00000000000E+00 0.  1.
</event>
<event>
 7    1  0.3707147E-015  0.9000777E+02  0.7816164E-02  0.1186339E+00
        -11   -1    0    0    0    0  0.00000000000E+00  0.00000000000E+00  0.45593999997E+02  0.45594000000E+02  0.51100000000E-03 0.  1.
         11   -1    0    0    0    0 -0.00000000000E+00 -0.00000000000E+00 -0.45593999997E+02  0.45594000000E+02  0.51100000000E-03 0. -1.
    9900012    2    1    2    0    0  0.15470351026E+00 -0.10095499621E+01  0.59144876267E+00  0.90007772928E+02  0.90000034731E+02 0.  0.
         12    1    1    2    0    0 -0.15470351026E+00  0.10095499621E+01 -0.59144876267E+00  0.11802270718E+01  0.00000000000E+00 0. -1.
         11    1    3    3    0    0  0.17505577846E+02  0.29457918846E+02  0.41950391798E+01  0.34522638840E+02  0.51100000000E-03 0. -1.
        -11    1    3    3    0    0 -0.93729999719E+01  0.10116539285E+02 -0.30315299244E+01  0.14120469876E+02  0.51100000000E-03 0.  1.
        -12    1    3    3    0    0 -0.79778743638E+01 -0.40584008093E+02 -0.57206049282E+00  0.41364664213E+02  0.00000000000E+00 0.  1.
</event>
<event>
 7    1  0.3707147E-015  0.9000780E+02  0.7816164E-02  0.1186339E+00
        -11   -1    0    0    0    0  0.00000000000E+00  0.00000000000E+00  0.45593999997E+02  0.45594000000E+02  0.51100000000E-03 0.  1.
         11   -1    0    0    0    0 -0.00000000000E+00 -0.00000000000E+00 -0.45593999997E+02  0.45594000000E+02  0.51100000000E-03 0. -1.
    9900012    2    1    2    0    0  0.99493375803E+00  0.17490935629E+00  0.61024132358E+00  0.90007796230E+02  0.90000058340E+02 0.  0.
         12    1    1    2    0    0 -0.99493375803E+00 -0.17490935629E+00 -0.61024132358E+00  0.11802037700E+01  0.00000000000E+00 0. -1.
         11    1    3    3    0    0  0.26597857792E+01  0.39033236590E+02  0.10075140543E+02  0.40400203914E+02  0.51100000000E-03 0. -1.
        -11    1    3    3    0    0 -0.80519117370E+01  0.83289149963E+00 -0.40219349697E+01  0.90389685270E+01  0.51100000000E-03 0.  1.
        -12    1    3    3    0    0  0.63870597158E+01 -0.39691218733E+02 -0.54429642495E+01  0.40568623789E+02  0.00000000000E+00 0.  1.
</event>
<event>
 7    1  0.3707147E-015  0.9000778E+02  0.7816164E-02  0.1186339E+00
        -11   -1    0    0    0    0  0.00000000000E+00  0.00000000000E+00  0.45593999997E+02  0.45594000000E+02  0.51100000000E-03 0.  1.
         11   -1    0    0    0    0 -0.00000000000E+00 -0.00000000000E+00 -0.45593999997E+02  0.45594000000E+02  0.51100000000E-03 0. -1.
    9900012    2    1    2    0    0 -0.29018770670E+00 -0.85151995424E+00  0.76395797592E+00  0.90007776747E+02  0.90000038600E+02 0.  0.
         12    1    1    2    0    0  0.29018770670E+00  0.85151995424E+00 -0.76395797592E+00  0.11802232528E+01  0.00000000000E+00 0. -1.
         11    1    3    3    0    0 -0.38918309851E+01 -0.32520458432E+02 -0.16256518135E+02  0.36565023549E+02  0.51100000000E-03 0. -1.
        -11    1    3    3    0    0 -0.55455454736E+01 -0.63002135298E+01 -0.37669158932E+01  0.91997511232E+01  0.51100000000E-03 0.  1.
        -12    1    3    3    0    0  0.91471887520E+01  0.37969152007E+02  0.20787392004E+02  0.44243002075E+02  0.00000000000E+00 0.  1.
</event>
<event>
 7    1  0.3707147E-015  0.9000795E+02  0.7816164E-02  0.1186339E+00
        -11   -1    0    0    0    0  0.00000000000E+00  0.00000000000E+00  0.45593999997E+02  0.45594000000E+02  0.51100000000E-03 0.  1.
         11   -1    0    0    0    0 -0.00000000000E+00 -0.00000000000E+00 -0.45593999997E+02  0.45594000000E+02  0.51100000000E-03 0. -1.
    9900012    2    1    2    0    0  0.68493637241E+00  0.50326575072E+00 -0.81859934742E+00  0.90007949517E+02  0.90000213651E+02 0.  0.
         12    1    1    2    0    0 -0.68493637241E+00 -0.50326575072E+00  0.81859934742E+00  0.11800504827E+01  0.00000000000E+00 0. -1.
         11    1    3    3    0    0 -0.38315524130E+02  0.29796737910E-02 -0.17024392178E+02  0.41927429298E+02  0.51100000000E-03 0. -1.
        -11    1    3    3    0    0  0.71882591126E+01 -0.94833158259E+01  0.35587035032E+01  0.12420495924E+02  0.51100000000E-03 0.  1.
        -12    1    3    3    0    0  0.31812201390E+02  0.99836019028E+01  0.12647089327E+02  0.35660024295E+02  0.00000000000E+00 0.  1.
</event>
<event>
 7    1  0.3707147E-015  0.9000772E+02  0.7816164E-02  0.1186339E+00
        -11   -1    0    0    0    0  0.00000000000E+00  0.00000000000E+00  0.45593999997E+02  0.45594000000E+02  0.51100000000E-03 0.  1.
         11   -1    0    0    0    0 -0.00000000000E+00 -0.00000000000E+00 -0.45593999997E+02  0.45594000000E+02  0.51100000000E-03 0. -1.
    9900012    2    1    2    0    0  0.86851313995E+00  0.23754142735E+00  0.76309176000E+00  0.90007724592E+02  0.89999985757E+02 0.  0.
         12    1    1    2    0    0 -0.86851313995E+00 -0.23754142735E+00 -0.76309176000E+00  0.11802754078E+01  0.00000000000E+00 0. -1.
         11    1    3    3    0    0  0.59083599022E+01 -0.11853340542E+01  0.76742145719E+01  0.97574229749E+01  0.51100000000E-03 0. -1.
        -11    1    3    3    0    0 -0.11855771465E+02 -0.15435914975E+02  0.31912153842E+02  0.37379303782E+02  0.51100000000E-03 0.  1.
         12    1    3    3    0    0  0.68159247028E+01  0.16858790456E+02 -0.38823276654E+02  0.42870997835E+02  0.00000000000E+00 0. -1.
</event>
<event>
 7    1  0.3707147E-015  0.9000893E+02  0.7816164E-02  0.1186337E+00
        -11   -1    0    0    0    0  0.00000000000E+00  0.00000000000E+00  0.45593999997E+02  0.45594000000E+02  0.51100000000E-03 0. -1.
         11   -1    0    0    0    0 -0.00000000000E+00 -0.00000000000E+00 -0.45593999997E+02  0.45594000000E+02  0.51100000000E-03 0.  1.
    9900012    2    1    2    0    0  0.23531360771E+00 -0.63627272821E+00 -0.96436050409E+00  0.90008929747E+02  0.90001206812E+02 0.  0.
         12    1    1    2    0    0 -0.23531360771E+00  0.63627272821E+00  0.96436050409E+00  0.11790702526E+01  0.00000000000E+00 0. -1.
         11    1    3    3    0    0 -0.22301065159E+01  0.11933702509E+02  0.16293398048E+01  0.12249137892E+02  0.51100000000E-03 0. -1.
        -11    1    3    3    0    0  0.18433840323E+02 -0.10245442283E+02  0.32723472352E+02  0.38930723081E+02  0.51100000000E-03 0.  1.
         12    1    3    3    0    0 -0.15968420199E+02 -0.23245329540E+01 -0.35317172661E+02  0.38829068774E+02  0.00000000000E+00 0. -1.
</event>
<event>
 7    1  0.3707147E-015  0.9000775E+02  0.7816164E-02  0.1186339E+00
        -11   -1    0    0    0    0  0.00000000000E+00  0.00000000000E+00  0.45593999997E+02  0.45594000000E+02  0.51100000000E-03 0. -1.
         11   -1    0    0    0    0 -0.00000000000E+00 -0.00000000000E+00 -0.45593999997E+02  0.45594000000E+02  0.51100000000E-03 0.  1.
    9900012    2    1    2    0    0  0.84970272814E+00 -0.64579148246E+00  0.50393512571E+00  0.90007749189E+02  0.90000010679E+02 0.  0.
         12    1    1    2    0    0 -0.84970272814E+00  0.64579148246E+00 -0.50393512571E+00  0.11802508106E+01  0.00000000000E+00 0. -1.
         11    1    3    3    0    0 -0.41614368633E+01 -0.61271539154E+01  0.35911323461E+00  0.74154254393E+01  0.51100000000E-03 0. -1.
        -11    1    3    3    0    0 -0.31786720470E+02 -0.19819680251E+02  0.44762090146E+01  0.37726009210E+02  0.51100000000E-03 0.  1.
         12    1    3    3    0    0  0.36797860061E+02  0.25301042684E+02 -0.43313871235E+01  0.44866314540E+02  0.00000000000E+00 0. -1.
</event>
<event>
 7    1  0.3707147E-015  0.9000851E+02  0.7816164E-02  0.1186337E+00
        -11   -1    0    0    0    0  0.00000000000E+00  0.00000000000E+00  0.45593999997E+02  0.45594000000E+02  0.51100000000E-03 0.  1.
         11   -1    0    0    0    0 -0.00000000000E+00 -0.00000000000E+00 -0.45593999997E+02  0.45594000000E+02  0.51100000000E-03 0. -1.
    9900012    2    1    2    0    0 -0.72921097151E+00 -0.71467046014E+00  0.59049799692E+00  0.90008512657E+02  0.90000784221E+02 0.  0.
         12    1    1    2    0    0  0.72921097151E+00  0.71467046014E+00 -0.59049799692E+00  0.11794873428E+01  0.00000000000E+00 0. -1.
         11    1    3    3    0    0 -0.15662224718E+02 -0.25250114651E+02 -0.21907559630E+02  0.36916320811E+02  0.51100000000E-03 0. -1.
        -11    1    3    3    0    0  0.58253106270E+01 -0.78967379631E+01 -0.36274980463E+01  0.10461905022E+02  0.51100000000E-03 0.  1.
        -12    1    3    3    0    0  0.91077031200E+01  0.32432182154E+02  0.26125555673E+02  0.42630286823E+02  0.00000000000E+00 0.  1.
</event>
<event>
 7    1  0.3707147E-015  0.9000775E+02  0.7816164E-02  0.1186339E+00
        -11   -1    0    0    0    0  0.00000000000E+00  0.00000000000E+00  0.45593999997E+02  0.45594000000E+02  0.51100000000E-03 0.  1.
         11   -1    0    0    0    0 -0.00000000000E+00 -0.00000000000E+00 -0.45593999997E+02  0.45594000000E+02  0.51100000000E-03 0. -1.
    9900012    2    1    2    0    0 -0.11774267893E+01 -0.62733653780E-01  0.52203264549E-01  0.90007748105E+02  0.90000009580E+02 0.  0.
         12    1    1    2    0    0  0.11774267893E+01  0.62733653780E-01 -0.52203264549E-01  0.11802518953E+01  0.00000000000E+00 0. -1.
         11    1    3    3    0    0  0.34899701611E+02 -0.35748624892E+01  0.49164410870E+00  0.35085759626E+02  0.51100000000E-03 0. -1.
        -11    1    3    3    0    0  0.87981928204E+01 -0.26896697970E+01 -0.26255034893E+01  0.95674337915E+01  0.51100000000E-03 0.  1.
        -12    1    3    3    0    0 -0.44875321221E+02  0.62017986324E+01  0.21860626452E+01  0.45354554687E+02  0.00000000000E+00 0.  1.
</event>
<event>
 8    1  0.3707147E-015  0.9000776E+02  0.7816164E-02  0.1186339E+00
        -11   -1    0    0    0    0  0.00000000000E+00  0.00000000000E+00  0.45593999997E+02  0.45594000000E+02  0.51100000000E-03 0. -1.
         11   -1    0    0    0    0 -0.00000000000E+00 -0.00000000000E+00 -0.45593999997E+02  0.45594000000E+02  0.51100000000E-03 0.  1.
    9900012    2    1    2    0    0 -0.62990597178E+00  0.89234582118E+00  0.44711057524E+00  0.90007758303E+02  0.90000019912E+02 0.  0.
         23    2    3    3    0    0  0.20005743366E+02  0.11745001370E+02 -0.76284541491E+01  0.65333380871E+02  0.60597710505E+02 0.  0.
         12    1    1    2    0    0  0.62990597178E+00 -0.89234582118E+00 -0.44711057524E+00  0.11802416974E+01  0.00000000000E+00 0. -1.
         11    1    4    4    0    0  0.30982732533E+02  0.30269646881E+02 -0.61591878477E+01  0.43750620941E+02  0.51100000000E-03 0. -1.
        -11    1    4    4    0    0 -0.10976989167E+02 -0.18524645511E+02 -0.14692663013E+01  0.21582759930E+02  0.51100000000E-03 0.  1.
        -12    1    3    3    0    0 -0.20635649337E+02 -0.10852655549E+02  0.80755647243E+01  0.24674377432E+02  0.00000000000E+00 0.  1.
</event>
<event>
 7    1  0.3707147E-015  0.9000776E+02  0.7816164E-02  0.1186339E+00
        -11   -1    0    0    0    0  0.00000000000E+00  0.00000000000E+00  0.45593999997E+02  0.45594000000E+02  0.51100000000E-03 0. -1.
         11   -1    0    0    0    0 -0.00000000000E+00 -0.00000000000E+00 -0.45593999997E+02  0.45594000000E+02  0.51100000000E-03 0.  1.
    9900012    2    1    2    0    0  0.13319071070E+00  0.16217206869E+00 -0.11614372723E+01  0.90007755922E+02  0.90000017501E+02 0.  0.
         12    1    1    2    0    0 -0.13319071070E+00 -0.16217206869E+00  0.11614372723E+01  0.11802440776E+01  0.00000000000E+00 0. -1.
         11    1    3    3    0    0 -0.34514850183E+02  0.13375485526E+02  0.18568933122E+02  0.41412362571E+02  0.51100000000E-03 0. -1.
        -11    1    3    3    0    0  0.86227557187E+01 -0.37722514971E+01  0.57001715048E+01  0.11003351898E+02  0.51100000000E-03 0.  1.
        -12    1    3    3    0    0  0.26025285175E+02 -0.94410619602E+01 -0.25430541899E+02  0.37592041453E+02  0.00000000000E+00 0.  1.
</event>
<event>
 7    1  0.3707147E-015  0.9000779E+02  0.7816164E-02  0.1186339E+00
        -11   -1    0    0    0    0  0.00000000000E+00  0.00000000000E+00  0.45593999997E+02  0.45594000000E+02  0.51100000000E-03 0.  1.
         11   -1    0    0    0    0 -0.00000000000E+00 -0.00000000000E+00 -0.45593999997E+02  0.45594000000E+02  0.51100000000E-03 0. -1.
    9900012    2    1    2    0    0  0.29316133106E+00 -0.39026961353E+00  0.10745398595E+01  0.90007792456E+02  0.90000054516E+02 0.  0.
         12    1    1    2    0    0 -0.29316133106E+00  0.39026961353E+00 -0.10745398595E+01  0.11802075440E+01  0.00000000000E+00 0. -1.
         11    1    3    3    0    0 -0.11244270307E+02  0.15233193250E+02 -0.29940536393E+02  0.35424843135E+02  0.51100000000E-03 0. -1.
        -11    1    3    3    0    0 -0.98241413562E+01  0.13762577718E+01 -0.35507005374E+01  0.10536380470E+02  0.51100000000E-03 0.  1.
        -12    1    3    3    0    0  0.21361572995E+02 -0.16999720636E+02  0.34565776790E+02  0.44046568851E+02  0.00000000000E+00 0.  1.
</event>
<event>
 7    1  0.3707147E-015  0.9000762E+02  0.7816164E-02  0.1186339E+00
        -11   -1    0    0    0    0  0.00000000000E+00  0.00000000000E+00  0.45593999997E+02  0.45594000000E+02  0.51100000000E-03 0. -1.
         11   -1    0    0    0    0 -0.00000000000E+00 -0.00000000000E+00 -0.45593999997E+02  0.45594000000E+02  0.51100000000E-03 0.  1.
    9900012    2    1    2    0    0 -0.16223588646E+00 -0.57628610568E+00 -0.10172809529E+01  0.90007624341E+02  0.89999884183E+02 0.  0.
         12    1    1    2    0    0  0.16223588646E+00  0.57628610568E+00  0.10172809529E+01  0.11803756587E+01  0.00000000000E+00 0. -1.
         11    1    3    3    0    0  0.47327719768E+01 -0.19290691403E+01  0.94418180506E+01  0.10736310665E+02  0.51100000000E-03 0. -1.
        -11    1    3    3    0    0  0.93548323187E+01 -0.34548776073E+02 -0.17766969668E+02  0.39959930271E+02  0.51100000000E-03 0.  1.
         12    1    3    3    0    0 -0.14249840182E+02  0.35901559107E+02  0.73078706646E+01  0.39311383405E+02  0.00000000000E+00 0. -1.
</event>
<event>
 7    1  0.3707147E-015  0.9000772E+02  0.7816164E-02  0.1186339E+00
        -11   -1    0    0    0    0  0.00000000000E+00  0.00000000000E+00  0.45593999997E+02  0.45594000000E+02  0.51100000000E-03 0.  1.
         11   -1    0    0    0    0 -0.00000000000E+00 -0.00000000000E+00 -0.45593999997E+02  0.45594000000E+02  0.51100000000E-03 0. -1.
    9900012    2    1    2    0    0  0.17667587416E+00  0.34593905557E+00  0.11145305755E+01  0.90007717577E+02  0.89999978649E+02 0.  0.
         12    1    1    2    0    0 -0.17667587416E+00 -0.34593905557E+00 -0.11145305755E+01  0.11802824231E+01  0.00000000000E+00 0. -1.
         11    1    3    3    0    0  0.55597117043E+01 -0.14654074350E+02 -0.18948103673E+02  0.24590301388E+02  0.51100000000E-03 0. -1.
        -11    1    3    3    0    0 -0.11689644503E+02  0.29488429548E+02 -0.84428392156E+01  0.32825246383E+02  0.51100000000E-03 0.  1.
        -12    1    3    3    0    0  0.63066086729E+01 -0.14488416143E+02  0.28505473464E+02  0.32592169806E+02  0.00000000000E+00 0.  1.
</event>
<event>
 7    1  0.3707147E-015  0.9000769E+02  0.7816164E-02  0.1186339E+00
        -11   -1    0    0    0    0  0.00000000000E+00  0.00000000000E+00  0.45593999997E+02  0.45594000000E+02  0.51100000000E-03 0.  1.
         11   -1    0    0    0    0 -0.00000000000E+00 -0.00000000000E+00 -0.45593999997E+02  0.45594000000E+02  0.51100000000E-03 0. -1.
    9900012    2    1    2    0    0 -0.77550484273E+00 -0.69968356874E+00 -0.54968958863E+00  0.90007693471E+02  0.89999954225E+02 0.  0.
         12    1    1    2    0    0  0.77550484273E+00  0.69968356874E+00  0.54968958863E+00  0.11803065285E+01  0.00000000000E+00 0. -1.
         11    1    3    3    0    0 -0.14393963160E+01 -0.94967020995E+00  0.43445936752E+01  0.46743159635E+01  0.51100000000E-03 0. -1.
        -11    1    3    3    0    0  0.19619105332E+02 -0.34468155033E+02  0.13249250266E+02  0.41815136474E+02  0.51100000000E-03 0.  1.
         12    1    3    3    0    0 -0.18955213859E+02  0.34718141674E+02 -0.18143533530E+02  0.43518241034E+02  0.00000000000E+00 0. -1.
</event>
<event>
 7    1  0.3707147E-015  0.9000775E+02  0.7816164E-02  0.1186339E+00
        -11   -1    0    0    0    0  0.00000000000E+00  0.00000000000E+00  0.45593999997E+02  0.45594000000E+02  0.51100000000E-03 0.  1.
         11   -1    0    0    0    0 -0.00000000000E+00 -0.00000000000E+00 -0.45593999997E+02  0.45594000000E+02  0.51100000000E-03 0. -1.
    9900012    2    1    2    0    0  0.92274881545E+00 -0.43165621345E+00 -0.59598645025E+00  0.90007749047E+02  0.90000010534E+02 0.  0.
         12    1    1    2    0    0 -0.92274881545E+00  0.43165621345E+00  0.59598645025E+00  0.11802509529E+01  0.00000000000E+00 0. -1.
         11    1    3    3    0    0  0.24783421112E+02 -0.27646074751E+02  0.13565990744E+02  0.39529223573E+02  0.51100000000E-03 0. -1.
        -11    1    3    3    0    0 -0.36490308628E+01 -0.36634839334E+01  0.64035032651E+01  0.82305160892E+01  0.51100000000E-03 0.  1.
        -12    1    3    3    0    0 -0.20211641434E+02  0.30877902470E+02 -0.20565480460E+02  0.42248009385E+02  0.00000000000E+00 0.  1.
</event>
<event>
 7    1  0.3707147E-015  0.9000791E+02  0.7816164E-02  0.1186339E+00
        -11   -1    0    0    0    0  0.00000000000E+00  0.00000000000E+00  0.45593999997E+02  0.45594000000E+02  0.51100000000E-03 0.  1.
         11   -1    0    0    0    0 -0.00000000000E+00 -0.00000000000E+00 -0.45593999997E+02  0.45594000000E+02  0.51100000000E-03 0. -1.
    9900012    2    1    2    0    0  0.96927987638E+00 -0.55199133047E+00 -0.38525810391E+00  0.90007906057E+02  0.90000169617E+02 0.  0.
         12    1    1    2    0    0 -0.96927987638E+00  0.55199133047E+00  0.38525810391E+00  0.11800939430E+01  0.00000000000E+00 0. -1.
         11    1    3    3    0    0 -0.30922886799E+02 -0.22879389663E+01 -0.13480736634E+02  0.33811090682E+02  0.51100000000E-03 0. -1.
        -11    1    3    3    0    0 -0.91548111245E+01 -0.17241719255E+01 -0.56974247244E+01  0.10919889391E+02  0.51100000000E-03 0.  1.
        -12    1    3    3    0    0  0.41046977799E+02  0.34601195614E+01  0.18792903254E+02  0.45276925984E+02  0.00000000000E+00 0.  1.
</event>
<event>
 7    1  0.3707147E-015  0.9000772E+02  0.7816164E-02  0.1186339E+00
        -11   -1    0    0    0    0  0.00000000000E+00  0.00000000000E+00  0.45593999997E+02  0.45594000000E+02  0.51100000000E-03 0.  1.
         11   -1    0    0    0    0 -0.00000000000E+00 -0.00000000000E+00 -0.45593999997E+02  0.45594000000E+02  0.51100000000E-03 0. -1.
    9900012    2    1    2    0    0 -0.10126564353E+01  0.39934803347E+00 -0.45618630876E+00  0.90007721280E+02  0.89999982401E+02 0.  0.
         12    1    1    2    0    0  0.10126564353E+01 -0.39934803347E+00  0.45618630876E+00  0.11802787197E+01  0.00000000000E+00 0. -1.
         11    1    3    3    0    0  0.26777685490E+02 -0.26805715234E+02  0.12286517093E+01  0.37909107015E+02  0.51100000000E-03 0. -1.
        -11    1    3    3    0    0 -0.65350551513E+01  0.40714087359E+01 -0.15862049472E+02  0.17632014311E+02  0.51100000000E-03 0.  1.
        -12    1    3    3    0    0 -0.21255286774E+02  0.23133654531E+02  0.14177211454E+02  0.34466599955E+02  0.00000000000E+00 0.  1.
</event>
<event>
 7    1  0.3707147E-015  0.9000761E+02  0.7816164E-02  0.1186339E+00
        -11   -1    0    0    0    0  0.00000000000E+00  0.00000000000E+00  0.45593999997E+02  0.45594000000E+02  0.51100000000E-03 0.  1.
         11   -1    0    0    0    0 -0.00000000000E+00 -0.00000000000E+00 -0.45593999997E+02  0.45594000000E+02  0.51100000000E-03 0. -1.
    9900012    2    1    2    0    0  0.33080539367E-01 -0.57241013432E+00  0.10317791750E+01  0.90007611949E+02  0.89999871627E+02 0.  0.
         12    1    1    2    0    0 -0.33080539367E-01  0.57241013432E+00 -0.10317791750E+01  0.11803880506E+01  0.00000000000E+00 0. -1.
         11    1    3    3    0    0  0.21390467396E+02 -0.38170181175E+02  0.80220171999E+01  0.44484464553E+02  0.51100000000E-03 0. -1.
        -11    1    3    3    0    0 -0.63335957881E+01  0.72842406171E+01  0.32334240438E+01  0.10179863864E+02  0.51100000000E-03 0.  1.
        -12    1    3    3    0    0 -0.15023791069E+02  0.30313530423E+02 -0.10223662069E+02  0.35343283533E+02  0.00000000000E+00 0.  1.
</event>
<event>
 7    1  0.3707147E-015  0.9000772E+02  0.7816164E-02  0.1186339E+00
        -11   -1    0    0    0    0  0.00000000000E+00  0.00000000000E+00  0.45593999997E+02  0.45594000000E+02  0.51100000000E-03 0.  1.
         11   -1    0    0    0    0 -0.00000000000E+00 -0.00000000000E+00 -0.45593999997E+02  0.45594000000E+02  0.51100000000E-03 0. -1.
    9900012    2    1    2    0    0  0.82869302888E+00  0.70198246830E+00  0.46210564512E+00  0.90007723274E+02  0.89999984422E+02 0.  0.
         12    1    1    2    0    0 -0.82869302888E+00 -0.70198246830E+00 -0.46210564512E+00  0.11802767257E+01  0.00000000000E+00 0. -1.
         11    1    3    3    0    0 -0.34269063419E+02  0.27249579934E+02 -0.42734966080E+01  0.43990579534E+02  0.51100000000E-03 0. -1.
        -11    1    3    3    0    0  0.10928607827E+02 -0.17085294897E+01  0.18953703292E+00  0.11062977294E+02  0.51100000000E-03 0.  1.
        -12    1    3    3    0    0  0.24169148621E+02 -0.24839067976E+02  0.45460652202E+01  0.34954166446E+02  0.00000000000E+00 0.  1.
</event>
