<event>
 7    1  0.2148778E-015  0.9000766E+02  0.7816164E-02  0.1186339E+00
        -11   -1    0    0    0    0  0.00000000000E+00  0.00000000000E+00  0.45593999997E+02  0.45594000000E+02  0.51100000000E-03 0.  1.
         11   -1    0    0    0    0 -0.00000000000E+00 -0.00000000000E+00 -0.45593999997E+02  0.45594000000E+02  0.51100000000E-03 0. -1.
    9900012    2    1    2    0    0  0.49289191327E+00 -0.76206832256E+00 -0.75465777463E+00  0.90007661522E+02  0.89999921854E+02 0.  0.
         12    1    1    2    0    0 -0.49289191327E+00  0.76206832256E+00  0.75465777463E+00  0.11803384782E+01  0.00000000000E+00 0. -1.
         11    1    3    3    0    0  0.73138742251E+01  0.29865414250E+01 -0.38759473135E+02  0.39556402059E+02  0.51100000000E-03 0. -1.
        -11    1    3    3    0    0 -0.11620160438E+01  0.31172272309E+01 -0.52913911756E+01  0.62502966114E+01  0.51100000000E-03 0.  1.
        -12    1    3    3    0    0 -0.56589662680E+01 -0.68658369785E+01  0.43296206536E+02  0.44200962852E+02  0.00000000000E+00 0.  1.
</event>
<event>
 7    1  0.2148778E-015  0.9000772E+02  0.7816164E-02  0.1186339E+00
        -11   -1    0    0    0    0  0.00000000000E+00  0.00000000000E+00  0.45593999997E+02  0.45594000000E+02  0.51100000000E-03 0. -1.
         11   -1    0    0    0    0 -0.00000000000E+00 -0.00000000000E+00 -0.45593999997E+02  0.45594000000E+02  0.51100000000E-03 0.  1.
    9900012    2    1    2    0    0  0.46177462000E+00 -0.10584942278E+01  0.24372951474E+00  0.90007724648E+02  0.89999985813E+02 0.  0.
         12    1    1    2    0    0 -0.46177462000E+00  0.10584942278E+01 -0.24372951474E+00  0.11802753519E+01  0.00000000000E+00 0. -1.
         11    1    3    3    0    0 -0.72674220320E+01  0.29142857530E+02  0.19959620228E+02  0.36062556869E+02  0.51100000000E-03 0. -1.
        -11    1    3    3    0    0 -0.38574745691E+01  0.56301118921E+01  0.53804474217E+01  0.86906550207E+01  0.51100000000E-03 0.  1.
        -12    1    3    3    0    0  0.11586671221E+02 -0.35831463650E+02 -0.25096338135E+02  0.45254512759E+02  0.00000000000E+00 0.  1.
</event>
<event>
 7    1  0.2148778E-015  0.9000758E+02  0.7816164E-02  0.1186339E+00
        -11   -1    0    0    0    0  0.00000000000E+00  0.00000000000E+00  0.45593999997E+02  0.45594000000E+02  0.51100000000E-03 0.  1.
         11   -1    0    0    0    0 -0.00000000000E+00 -0.00000000000E+00 -0.45593999997E+02  0.45594000000E+02  0.51100000000E-03 0. -1.
    9900012    2    1    2    0    0 -0.14786317170E+00 -0.21003556616E+00  0.11521319884E+01  0.90007582034E+02  0.89999841316E+02 0.  0.
         12    1    1    2    0    0  0.14786317170E+00  0.21003556616E+00 -0.11521319884E+01  0.11804179664E+01  0.00000000000E+00 0. -1.
         11    1    3    3    0    0 -0.18380414690E+02 -0.44920991954E+01  0.17925631334E+01  0.19006101184E+02  0.51100000000E-03 0. -1.
        -11    1    3    3    0    0  0.60459746330E+01  0.35012622717E+02  0.88327451450E+01  0.36612223995E+02  0.51100000000E-03 0.  1.
         12    1    3    3    0    0  0.12186576885E+02 -0.30730559088E+02 -0.94731762899E+01  0.34389256855E+02  0.00000000000E+00 0. -1.
</event>
<event>
 7    1  0.2148778E-015  0.9000766E+02  0.7816164E-02  0.1186339E+00
        -11   -1    0    0    0    0  0.00000000000E+00  0.00000000000E+00  0.45593999997E+02  0.45594000000E+02  0.51100000000E-03 0.  1.
         11   -1    0    0    0    0 -0.00000000000E+00 -0.00000000000E+00 -0.45593999997E+02  0.45594000000E+02  0.51100000000E-03 0. -1.
    9900012    2    1    2    0    0  0.81289156781E+00  0.80845179420E+00  0.28073311814E+00  0.90007661875E+02  0.89999922212E+02 0.  0.
         12    1    1    2    0    0 -0.81289156781E+00 -0.80845179420E+00 -0.28073311814E+00  0.11803381245E+01  0.00000000000E+00 0. -1.
         11    1    3    3    0    0  0.55954490785E+01 -0.13388474034E+02 -0.39658255271E+02  0.42229580850E+02  0.51100000000E-03 0. -1.
        -11    1    3    3    0    0  0.63534260556E+01  0.52088937557E+01  0.40884119419E+01  0.91768027804E+01  0.51100000000E-03 0.  1.
        -12    1    3    3    0    0 -0.11135983566E+02  0.89880320725E+01  0.35850576448E+02  0.38601278245E+02  0.00000000000E+00 0.  1.
</event>
<event>
 7    1  0.2148778E-015  0.9000767E+02  0.7816164E-02  0.1186339E+00
        -11   -1    0    0    0    0  0.00000000000E+00  0.00000000000E+00  0.45593999997E+02  0.45594000000E+02  0.51100000000E-03 0.  1.
         11   -1    0    0    0    0 -0.00000000000E+00 -0.00000000000E+00 -0.45593999997E+02  0.45594000000E+02  0.51100000000E-03 0. -1.
    9900012    2    1    2    0    0  0.10872978580E+01  0.42871200407E+00  0.16486154385E+00  0.90007665326E+02  0.89999925708E+02 0.  0.
         12    1    1    2    0    0 -0.10872978580E+01 -0.42871200407E+00 -0.16486154385E+00  0.11803346742E+01  0.00000000000E+00 0. -1.
         11    1    3    3    0    0  0.30390917765E+02  0.17934906765E+02 -0.16596234921E+02  0.38996202086E+02  0.51100000000E-03 0. -1.
        -11    1    3    3    0    0  0.49504699085E+01 -0.22430732370E+01 -0.52263996003E+01  0.75401447536E+01  0.51100000000E-03 0.  1.
        -12    1    3    3    0    0 -0.34254089815E+02 -0.15263121524E+02  0.21987496066E+02  0.43471318487E+02  0.00000000000E+00 0.  1.
</event>
<event>
 7    1  0.2148778E-015  0.9000778E+02  0.7816164E-02  0.1186339E+00
        -11   -1    0    0    0    0  0.00000000000E+00  0.00000000000E+00  0.45593999997E+02  0.45594000000E+02  0.51100000000E-03 0.  1.
         11   -1    0    0    0    0 -0.00000000000E+00 -0.00000000000E+00 -0.45593999997E+02  0.45594000000E+02  0.51100000000E-03 0. -1.
    9900012    2    1    2    0    0  0.11253159754E+01  0.33207799041E+00  0.12769659215E+00  0.90007780420E+02  0.90000042322E+02 0.  0.
         12    1    1    2    0    0 -0.11253159754E+01 -0.33207799041E+00 -0.12769659215E+00  0.11802195795E+01  0.00000000000E+00 0. -1.
         11    1    3    3    0    0 -0.90130631288E+01 -0.67538685604E+01  0.25502331520E+01  0.11547888850E+02  0.51100000000E-03 0. -1.
        -11    1    3    3    0    0  0.28050162876E+02  0.11952562674E+02  0.28926042089E+02  0.42028458252E+02  0.51100000000E-03 0.  1.
         12    1    3    3    0    0 -0.17911783772E+02 -0.48666161232E+01 -0.31348578649E+02  0.36431433319E+02  0.00000000000E+00 0. -1.
</event>
<event>
 7    1  0.2148778E-015  0.9000773E+02  0.7816164E-02  0.1186339E+00
        -11   -1    0    0    0    0  0.00000000000E+00  0.00000000000E+00  0.45593999997E+02  0.45594000000E+02  0.51100000000E-03 0.  1.
         11   -1    0    0    0    0 -0.00000000000E+00 -0.00000000000E+00 -0.45593999997E+02  0.45594000000E+02  0.51100000000E-03 0. -1.
    9900012    2    1    2    0    0 -0.24186879418E+00  0.72166435470E+00  0.90207245269E+00  0.90007731105E+02  0.89999992356E+02 0.  0.
         12    1    1    2    0    0  0.24186879418E+00 -0.72166435470E+00 -0.90207245269E+00  0.11802688949E+01  0.00000000000E+00 0. -1.
         11    1    3    3    0    0 -0.21719510083E+02 -0.23389048576E+02 -0.17073291413E+02  0.36197817496E+02  0.51100000000E-03 0. -1.
        -11    1    3    3    0    0  0.11556908670E+00 -0.73067608955E+01 -0.55036057406E+01  0.91483215623E+01  0.51100000000E-03 0.  1.
        -12    1    3    3    0    0  0.21362072202E+02  0.31417473826E+02  0.23478969606E+02  0.44661592047E+02  0.00000000000E+00 0.  1.
</event>
<event>
 7    1  0.2148778E-015  0.9000771E+02  0.7816164E-02  0.1186339E+00
        -11   -1    0    0    0    0  0.00000000000E+00  0.00000000000E+00  0.45593999997E+02  0.45594000000E+02  0.51100000000E-03 0.  1.
         11   -1    0    0    0    0 -0.00000000000E+00 -0.00000000000E+00 -0.45593999997E+02  0.45594000000E+02  0.51100000000E-03 0. -1.
    9900012    2    1    2    0    0  0.24501166799E+00 -0.53404937875E+00  0.10236454986E+01  0.90007707848E+02  0.89999968792E+02 0.  0.
         12    1    1    2    0    0 -0.24501166799E+00  0.53404937875E+00 -0.10236454986E+01  0.11802921517E+01  0.00000000000E+00 0. -1.
         11    1    3    3    0    0 -0.41236840739E+00  0.74217078567E+01 -0.95669263188E+01  0.12115191895E+02  0.51100000000E-03 0. -1.
        -11    1    3    3    0    0 -0.60325012567E+01  0.26677941411E+02  0.27490403747E+02  0.38779194522E+02  0.51100000000E-03 0.  1.
         12    1    3    3    0    0  0.66898813321E+01 -0.34633698646E+02 -0.16899831929E+02  0.39113321431E+02  0.00000000000E+00 0. -1.
</event>
<event>
 7    1  0.2148778E-015  0.9000763E+02  0.7816164E-02  0.1186339E+00
        -11   -1    0    0    0    0  0.00000000000E+00  0.00000000000E+00  0.45593999997E+02  0.45594000000E+02  0.51100000000E-03 0.  1.
         11   -1    0    0    0    0 -0.00000000000E+00 -0.00000000000E+00 -0.45593999997E+02  0.45594000000E+02  0.51100000000E-03 0. -1.
    9900012    2    1    2    0    0  0.85711101312E+00  0.10337933894E+00  0.80495582552E+00  0.90007626984E+02  0.89999886860E+02 0.  0.
         12    1    1    2    0    0 -0.85711101312E+00 -0.10337933894E+00 -0.80495582552E+00  0.11803730163E+01  0.00000000000E+00 0. -1.
         11    1    3    3    0    0  0.14685285177E+02  0.25823297033E+02  0.19301697803E+02  0.35426766840E+02  0.51100000000E-03 0. -1.
        -11    1    3    3    0    0  0.18644417229E+01  0.99061247667E+01  0.24507914088E+01  0.10373708576E+02  0.51100000000E-03 0.  1.
        -12    1    3    3    0    0 -0.15692615887E+02 -0.35626042460E+02 -0.20947533386E+02  0.44207151568E+02  0.00000000000E+00 0.  1.
</event>
<event>
 7    1  0.2148778E-015  0.9000773E+02  0.7816164E-02  0.1186339E+00
        -11   -1    0    0    0    0  0.00000000000E+00  0.00000000000E+00  0.45593999997E+02  0.45594000000E+02  0.51100000000E-03 0.  1.
         11   -1    0    0    0    0 -0.00000000000E+00 -0.00000000000E+00 -0.45593999997E+02  0.45594000000E+02  0.51100000000E-03 0. -1.
    9900012    2    1    2    0    0  0.11704580904E+00 -0.10892550159E+01  0.43915384855E+00  0.90007732101E+02  0.89999993365E+02 0.  0.
         12    1    1    2    0    0 -0.11704580904E+00  0.10892550159E+01 -0.43915384855E+00  0.11802678992E+01  0.00000000000E+00 0. -1.
         11    1    3    3    0    0 -0.36480907991E+02 -0.77087132776E+01 -0.95413550087E+01  0.38487898928E+02  0.51100000000E-03 0. -1.
        -11    1    3    3    0    0  0.10279901412E+01  0.29701012250E+01 -0.10053427924E+02  0.10533265320E+02  0.51100000000E-03 0.  1.
        -12    1    3    3    0    0  0.35569963658E+02  0.36493570367E+01  0.20033936781E+02  0.40986567853E+02  0.00000000000E+00 0.  1.
</event>
<event>
 7    1  0.2148778E-015  0.9000775E+02  0.7816164E-02  0.1186339E+00
        -11   -1    0    0    0    0  0.00000000000E+00  0.00000000000E+00  0.45593999997E+02  0.45594000000E+02  0.51100000000E-03 0.  1.
         11   -1    0    0    0    0 -0.00000000000E+00 -0.00000000000E+00 -0.45593999997E+02  0.45594000000E+02  0.51100000000E-03 0. -1.
    9900012    2    1    2    0    0 -0.21769078220E+00  0.48100952049E+00 -0.10555748522E+01  0.90007746763E+02  0.90000008220E+02 0.  0.
         12    1    1    2    0    0  0.21769078220E+00 -0.48100952049E+00  0.10555748522E+01  0.11802532373E+01  0.00000000000E+00 0. -1.
         11    1    3    3    0    0  0.67128120532E+01  0.65154474504E+01  0.48405444460E+01  0.10532984949E+02  0.51100000000E-03 0. -1.
        -11    1    3    3    0    0 -0.35363397055E+01  0.35929274856E+02  0.37068826674E+01  0.36292691682E+02  0.51100000000E-03 0.  1.
         12    1    3    3    0    0 -0.33941631299E+01 -0.41963712786E+02 -0.96030019657E+01  0.43182070132E+02  0.00000000000E+00 0. -1.
</event>
<event>
 7    1  0.2148778E-015  0.9000769E+02  0.7816164E-02  0.1186339E+00
        -11   -1    0    0    0    0  0.00000000000E+00  0.00000000000E+00  0.45593999997E+02  0.45594000000E+02  0.51100000000E-03 0.  1.
         11   -1    0    0    0    0 -0.00000000000E+00 -0.00000000000E+00 -0.45593999997E+02  0.45594000000E+02  0.51100000000E-03 0. -1.
    9900012    2    1    2    0    0  0.37383044539E+00  0.10577894424E+01 -0.36668048370E+00  0.90007693987E+02  0.89999954748E+02 0.  0.
         12    1    1    2    0    0 -0.37383044539E+00 -0.10577894424E+01  0.36668048370E+00  0.11803060127E+01  0.00000000000E+00 0. -1.
         11    1    3    3    0    0 -0.84800645324E+01  0.86696642721E+00 -0.76456669193E+01  0.11450735704E+02  0.51100000000E-03 0. -1.
        -11    1    3    3    0    0 -0.30597275113E+02  0.12755352578E+02  0.15090717668E+02  0.36422822841E+02  0.51100000000E-03 0.  1.
         12    1    3    3    0    0  0.39451170090E+02 -0.12564529563E+02 -0.78117312323E+01  0.42134135442E+02  0.00000000000E+00 0. -1.
</event>
<event>
 7    1  0.2148778E-015  0.9000773E+02  0.7816164E-02  0.1186339E+00
        -11   -1    0    0    0    0  0.00000000000E+00  0.00000000000E+00  0.45593999997E+02  0.45594000000E+02  0.51100000000E-03 0. -1.
         11   -1    0    0    0    0 -0.00000000000E+00 -0.00000000000E+00 -0.45593999997E+02  0.45594000000E+02  0.51100000000E-03 0.  1.
    9900012    2    1    2    0    0 -0.56952535903E+00  0.36004727017E+00 -0.96904330759E+00  0.90007729648E+02  0.89999990880E+02 0.  0.
         12    1    1    2    0    0  0.56952535903E+00 -0.36004727017E+00  0.96904330759E+00  0.11802703518E+01  0.00000000000E+00 0. -1.
         11    1    3    3    0    0 -0.51496761830E+00  0.29402095413E+02  0.21545105969E+02  0.36454629305E+02  0.51100000000E-03 0. -1.
        -11    1    3    3    0    0 -0.84544793109E+01 -0.26077720534E+01  0.82739802258E+01  0.12113523209E+02  0.51100000000E-03 0.  1.
        -12    1    3    3    0    0  0.83999215702E+01 -0.26434276089E+02 -0.30788129502E+02  0.41439577134E+02  0.00000000000E+00 0.  1.
</event>
<event>
 7    1  0.2148778E-015  0.9000775E+02  0.7816164E-02  0.1186339E+00
        -11   -1    0    0    0    0  0.00000000000E+00  0.00000000000E+00  0.45593999997E+02  0.45594000000E+02  0.51100000000E-03 0. -1.
         11   -1    0    0    0    0 -0.00000000000E+00 -0.00000000000E+00 -0.45593999997E+02  0.45594000000E+02  0.51100000000E-03 0.  1.
    9900012    2    1    2    0    0  0.15015809627E+00  0.36299903398E+00 -0.11129582364E+01  0.90007749269E+02  0.90000010759E+02 0.  0.
         12    1    1    2    0    0 -0.15015809627E+00 -0.36299903398E+00  0.11129582364E+01  0.11802507312E+01  0.00000000000E+00 0. -1.
         11    1    3    3    0    0  0.11172941350E+02 -0.23249740625E+01  0.20533606922E+01  0.11595534192E+02  0.51100000000E-03 0. -1.
        -11    1    3    3    0    0  0.26265488810E+02 -0.45389984800E+00  0.21200968238E+02  0.33757413734E+02  0.51100000000E-03 0.  1.
         12    1    3    3    0    0 -0.37288272064E+02  0.31418729445E+01 -0.24367287167E+02  0.44654801343E+02  0.00000000000E+00 0. -1.
</event>
<event>
 7    1  0.2148778E-015  0.9000768E+02  0.7816164E-02  0.1186339E+00
        -11   -1    0    0    0    0  0.00000000000E+00  0.00000000000E+00  0.45593999997E+02  0.45594000000E+02  0.51100000000E-03 0.  1.
         11   -1    0    0    0    0 -0.00000000000E+00 -0.00000000000E+00 -0.45593999997E+02  0.45594000000E+02  0.51100000000E-03 0. -1.
    9900012    2    1    2    0    0 -0.91806150526E+00 -0.18599454776E+00  0.71813587174E+00  0.90007682234E+02  0.89999942839E+02 0.  0.
         12    1    1    2    0    0  0.91806150526E+00  0.18599454776E+00 -0.71813587174E+00  0.11803177663E+01  0.00000000000E+00 0. -1.
         11    1    3    3    0    0 -0.48270899705E+01 -0.81602113093E+01  0.23485918192E+00  0.94839340620E+01  0.51100000000E-03 0. -1.
        -11    1    3    3    0    0 -0.16755368088E+02 -0.26490051932E+02 -0.18160048890E+02  0.36225027082E+02  0.51100000000E-03 0.  1.
         12    1    3    3    0    0  0.20664396553E+02  0.34464268694E+02  0.18643325580E+02  0.44298721090E+02  0.00000000000E+00 0. -1.
</event>
<event>
 7    1  0.2148778E-015  0.9000781E+02  0.7816164E-02  0.1186339E+00
        -11   -1    0    0    0    0  0.00000000000E+00  0.00000000000E+00  0.45593999997E+02  0.45594000000E+02  0.51100000000E-03 0.  1.
         11   -1    0    0    0    0 -0.00000000000E+00 -0.00000000000E+00 -0.45593999997E+02  0.45594000000E+02  0.51100000000E-03 0. -1.
    9900012    2    1    2    0    0  0.35584135162E+00 -0.10688864227E+01 -0.35171692991E+00  0.90007811010E+02  0.90000073316E+02 0.  0.
         12    1    1    2    0    0 -0.35584135162E+00  0.10688864227E+01  0.35171692991E+00  0.11801889895E+01  0.00000000000E+00 0. -1.
         11    1    3    3    0    0  0.17318681841E+02  0.16132077208E+02 -0.34173061542E+02  0.41568964278E+02  0.51100000000E-03 0. -1.
        -11    1    3    3    0    0  0.33749269498E+01  0.37864872004E+01  0.78231107794E+01  0.93235551033E+01  0.51100000000E-03 0.  1.
        -12    1    3    3    0    0 -0.20337767439E+02 -0.20987450831E+02  0.25998233832E+02  0.39115291629E+02  0.00000000000E+00 0.  1.
</event>
<event>
 7    1  0.2148778E-015  0.9000771E+02  0.7816164E-02  0.1186339E+00
        -11   -1    0    0    0    0  0.00000000000E+00  0.00000000000E+00  0.45593999997E+02  0.45594000000E+02  0.51100000000E-03 0.  1.
         11   -1    0    0    0    0 -0.00000000000E+00 -0.00000000000E+00 -0.45593999997E+02  0.45594000000E+02  0.51100000000E-03 0. -1.
    9900012    2    1    2    0    0  0.13271163876E+00  0.71808294808E+00  0.92727467156E+00  0.90007706047E+02  0.89999966967E+02 0.  0.
         12    1    1    2    0    0 -0.13271163876E+00 -0.71808294808E+00 -0.92727467156E+00  0.11802939532E+01  0.00000000000E+00 0. -1.
         11    1    3    3    0    0  0.52376591046E+01  0.12457682838E+01 -0.15598183995E+02  0.16501162254E+02  0.51100000000E-03 0. -1.
        -11    1    3    3    0    0  0.32360278878E+02  0.40910326401E+01  0.84028709309E+00  0.32628672664E+02  0.51100000000E-03 0.  1.
         12    1    3    3    0    0 -0.37465226344E+02 -0.46187179758E+01  0.15685171574E+02  0.40877871129E+02  0.00000000000E+00 0. -1.
</event>
<event>
 7    1  0.2148778E-015  0.9000762E+02  0.7816164E-02  0.1186339E+00
        -11   -1    0    0    0    0  0.00000000000E+00  0.00000000000E+00  0.45593999997E+02  0.45594000000E+02  0.51100000000E-03 0.  1.
         11   -1    0    0    0    0 -0.00000000000E+00 -0.00000000000E+00 -0.45593999997E+02  0.45594000000E+02  0.51100000000E-03 0. -1.
    9900012    2    1    2    0    0  0.11695356329E+01  0.99885526480E-02  0.15929748339E+00  0.90007623342E+02  0.89999883170E+02 0.  0.
         12    1    1    2    0    0 -0.11695356329E+01 -0.99885526480E-02 -0.15929748339E+00  0.11803766585E+01  0.00000000000E+00 0. -1.
         11    1    3    3    0    0  0.17270691169E+01  0.68485922868E+01 -0.32365299037E+01  0.77692412837E+01  0.51100000000E-03 0. -1.
        -11    1    3    3    0    0  0.35317822561E+02 -0.21409163894E+02  0.11083010426E+02  0.42761361174E+02  0.51100000000E-03 0.  1.
         12    1    3    3    0    0 -0.35875356045E+02  0.14570560160E+02 -0.76871830392E+01  0.39477020883E+02  0.00000000000E+00 0. -1.
</event>
<event>
 7    1  0.2148778E-015  0.9000767E+02  0.7816164E-02  0.1186339E+00
        -11   -1    0    0    0    0  0.00000000000E+00  0.00000000000E+00  0.45593999997E+02  0.45594000000E+02  0.51100000000E-03 0.  1.
         11   -1    0    0    0    0 -0.00000000000E+00 -0.00000000000E+00 -0.45593999997E+02  0.45594000000E+02  0.51100000000E-03 0. -1.
    9900012    2    1    2    0    0 -0.75223899357E+00  0.63564800284E+00  0.65058879961E+00  0.90007670523E+02  0.89999930974E+02 0.  0.
         12    1    1    2    0    0  0.75223899357E+00 -0.63564800284E+00 -0.65058879961E+00  0.11803294765E+01  0.00000000000E+00 0. -1.
         11    1    3    3    0    0 -0.19583117871E+01 -0.76153238424E+01 -0.38550527559E+01  0.87572583776E+01  0.51100000000E-03 0. -1.
        -11    1    3    3    0    0 -0.34036805669E+02 -0.16042902073E+02 -0.31753310524E+01  0.37761906395E+02  0.51100000000E-03 0.  1.
         12    1    3    3    0    0  0.35242878462E+02  0.24293873918E+02  0.76809726079E+01  0.43488505751E+02  0.00000000000E+00 0. -1.
</event>
<event>
 7    1  0.2148778E-015  0.9000777E+02  0.7816164E-02  0.1186339E+00
        -11   -1    0    0    0    0  0.00000000000E+00  0.00000000000E+00  0.45593999997E+02  0.45594000000E+02  0.51100000000E-03 0.  1.
         11   -1    0    0    0    0 -0.00000000000E+00 -0.00000000000E+00 -0.45593999997E+02  0.45594000000E+02  0.51100000000E-03 0. -1.
    9900012    2    1    2    0    0 -0.14965185659E+00 -0.56397830189E+00  0.10259015757E+01  0.90007770681E+02  0.90000032454E+02 0.  0.
         12    1    1    2    0    0  0.14965185659E+00  0.56397830189E+00 -0.10259015757E+01  0.11802293193E+01  0.00000000000E+00 0. -1.
         11    1    3    3    0    0 -0.83749823285E+01 -0.34576672671E+01 -0.36495940244E+01  0.97680770235E+01  0.51100000000E-03 0. -1.
        -11    1    3    3    0    0 -0.22248124259E+02  0.29708528600E+02 -0.74909866717E+01  0.37864106832E+02  0.51100000000E-03 0.  1.
         12    1    3    3    0    0  0.30473454731E+02 -0.26814839635E+02  0.12166482272E+02  0.42375586825E+02  0.00000000000E+00 0. -1.
</event>
<event>
 7    1  0.2148778E-015  0.9000768E+02  0.7816164E-02  0.1186339E+00
        -11   -1    0    0    0    0  0.00000000000E+00  0.00000000000E+00  0.45593999997E+02  0.45594000000E+02  0.51100000000E-03 0. -1.
         11   -1    0    0    0    0 -0.00000000000E+00 -0.00000000000E+00 -0.45593999997E+02  0.45594000000E+02  0.51100000000E-03 0.  1.
    9900012    2    1    2    0    0  0.60440562461E+00 -0.97844494588E+00  0.26548713782E+00  0.90007684749E+02  0.89999945388E+02 0.  0.
         12    1    1    2    0    0 -0.60440562461E+00  0.97844494588E+00 -0.26548713782E+00  0.11803152509E+01  0.00000000000E+00 0. -1.
         11    1    3    3    0    0  0.19320474641E+00  0.41261914872E+02 -0.41557262546E+01  0.41471110522E+02  0.51100000000E-03 0. -1.
        -11    1    3    3    0    0  0.17069810907E+01  0.64723819146E-01 -0.49070558923E+01  0.51958802342E+01  0.51100000000E-03 0.  1.
        -12    1    3    3    0    0 -0.12957802125E+01 -0.42305083637E+02  0.93282692848E+01  0.43340693993E+02  0.00000000000E+00 0.  1.
</event>
<event>
 7    1  0.2148778E-015  0.9000792E+02  0.7816164E-02  0.1186339E+00
        -11   -1    0    0    0    0  0.00000000000E+00  0.00000000000E+00  0.45593999997E+02  0.45594000000E+02  0.51100000000E-03 0. -1.
         11   -1    0    0    0    0 -0.00000000000E+00 -0.00000000000E+00 -0.45593999997E+02  0.45594000000E+02  0.51100000000E-03 0.  1.
    9900012    2    1    2    0    0  0.83373042393E-01  0.46862473938E+00 -0.10798287931E+01  0.90007919311E+02  0.90000183046E+02 0.  0.
         12    1    1    2    0    0 -0.83373042393E-01 -0.46862473938E+00  0.10798287931E+01  0.11800806892E+01  0.00000000000E+00 0. -1.
         11    1    3    3    0    0  0.32307444858E+02  0.14710353696E+02 -0.17135651024E+02  0.39418219587E+02  0.51100000000E-03 0. -1.
        -11    1    3    3    0    0  0.56247411312E+00 -0.31440138493E+01 -0.78821973075E+01  0.85047183885E+01  0.51100000000E-03 0.  1.
        -12    1    3    3    0    0 -0.32786545929E+02 -0.11097715107E+02  0.23938019538E+02  0.42084981335E+02  0.00000000000E+00 0.  1.
</event>
<event>
 7    1  0.2148778E-015  0.9000774E+02  0.7816164E-02  0.1186339E+00
        -11   -1    0    0    0    0  0.00000000000E+00  0.00000000000E+00  0.45593999997E+02  0.45594000000E+02  0.51100000000E-03 0. -1.
         11   -1    0    0    0    0 -0.00000000000E+00 -0.00000000000E+00 -0.45593999997E+02  0.45594000000E+02  0.51100000000E-03 0.  1.
    9900012    2    1    2    0    0 -0.25954724427E+00  0.38514812211E+00 -0.10850407061E+01  0.90007738511E+02  0.89999999860E+02 0.  0.
         12    1    1    2    0    0  0.25954724427E+00 -0.38514812211E+00  0.10850407061E+01  0.11802614888E+01  0.00000000000E+00 0. -1.
         11    1    3    3    0    0 -0.33199243311E+02 -0.19297324144E+02  0.15958665410E+02  0.41584317687E+02  0.51100000000E-03 0. -1.
        -11    1    3    3    0    0  0.84717797610E+01 -0.48894888208E+01  0.72765880019E-02  0.97815237288E+01  0.51100000000E-03 0.  1.
        -12    1    3    3    0    0  0.24467916305E+02  0.24571961087E+02 -0.17050982704E+02  0.38641897096E+02  0.00000000000E+00 0.  1.
</event>
<event>
 7    1  0.2148778E-015  0.9000776E+02  0.7816164E-02  0.1186339E+00
        -11   -1    0    0    0    0  0.00000000000E+00  0.00000000000E+00  0.45593999997E+02  0.45594000000E+02  0.51100000000E-03 0. -1.
         11   -1    0    0    0    0 -0.00000000000E+00 -0.00000000000E+00 -0.45593999997E+02  0.45594000000E+02  0.51100000000E-03 0.  1.
    9900012    2    1    2    0    0 -0.11443938168E+01 -0.89258360274E-02  0.28854947212E+00  0.90007755247E+02  0.90000016817E+02 0.  0.
         12    1    1    2    0    0  0.11443938168E+01  0.89258360274E-02 -0.28854947212E+00  0.11802447527E+01  0.00000000000E+00 0. -1.
         11    1    3    3    0    0  0.33823373080E+02  0.82996193876E+01  0.15743801260E+02  0.38220040906E+02  0.51100000000E-03 0. -1.
        -11    1    3    3    0    0  0.47558460419E+01 -0.78604205980E+01 -0.59326294502E+01  0.10936195682E+02  0.51100000000E-03 0.  1.
        -12    1    3    3    0    0 -0.39723612938E+02 -0.44812462566E+00 -0.95226223375E+01  0.40851518659E+02  0.00000000000E+00 0.  1.
</event>
<event>
 7    1  0.2148778E-015  0.9000796E+02  0.7816164E-02  0.1186339E+00
        -11   -1    0    0    0    0  0.00000000000E+00  0.00000000000E+00  0.45593999997E+02  0.45594000000E+02  0.51100000000E-03 0.  1.
         11   -1    0    0    0    0 -0.00000000000E+00 -0.00000000000E+00 -0.45593999997E+02  0.45594000000E+02  0.51100000000E-03 0. -1.
    9900012    2    1    2    0    0  0.62317485745E+00 -0.65510743597E+00  0.75826992967E+00  0.90007963585E+02  0.90000227904E+02 0.  0.
         12    1    1    2    0    0 -0.62317485745E+00  0.65510743597E+00 -0.75826992967E+00  0.11800364155E+01  0.00000000000E+00 0. -1.
         11    1    3    3    0    0 -0.72910087950E+01 -0.39952123116E+00 -0.48119454911E+01  0.87448982918E+01  0.51100000000E-03 0. -1.
        -11    1    3    3    0    0 -0.73767202141E+01  0.37565914085E+02  0.11650583713E+02  0.40016871483E+02  0.51100000000E-03 0.  1.
         12    1    3    3    0    0  0.15290903867E+02 -0.37821500290E+02 -0.60803682917E+01  0.41246193810E+02  0.00000000000E+00 0. -1.
</event>
<event>
 7    1  0.2148778E-015  0.9000773E+02  0.7816164E-02  0.1186339E+00
        -11   -1    0    0    0    0  0.00000000000E+00  0.00000000000E+00  0.45593999997E+02  0.45594000000E+02  0.51100000000E-03 0. -1.
         11   -1    0    0    0    0 -0.00000000000E+00 -0.00000000000E+00 -0.45593999997E+02  0.45594000000E+02  0.51100000000E-03 0.  1.
    9900012    2    1    2    0    0  0.10831739856E+01  0.43173075450E+00 -0.18268254027E+00  0.90007732980E+02  0.89999994256E+02 0.  0.
         12    1    1    2    0    0 -0.10831739856E+01 -0.43173075450E+00  0.18268254027E+00  0.11802670198E+01  0.00000000000E+00 0. -1.
         11    1    3    3    0    0 -0.11539746983E+02 -0.12862751113E+02  0.65169963648E+00  0.17292797324E+02  0.51100000000E-03 0. -1.
        -11    1    3    3    0    0  0.93554596582E+01  0.37607328292E+02 -0.18044574580E+02  0.42748595752E+02  0.51100000000E-03 0.  1.
         12    1    3    3    0    0  0.32674613105E+01 -0.24312846425E+02  0.17210192403E+02  0.29966339904E+02  0.00000000000E+00 0. -1.
</event>
<event>
 7    1  0.2148778E-015  0.9000774E+02  0.7816164E-02  0.1186339E+00
        -11   -1    0    0    0    0  0.00000000000E+00  0.00000000000E+00  0.45593999997E+02  0.45594000000E+02  0.51100000000E-03 0. -1.
         11   -1    0    0    0    0 -0.00000000000E+00 -0.00000000000E+00 -0.45593999997E+02  0.45594000000E+02  0.51100000000E-03 0.  1.
    9900012    2    1    2    0    0 -0.56967448759E+00  0.42196054049E+00  0.94362247870E+00  0.90007744476E+02  0.90000005903E+02 0.  0.
         12    1    1    2    0    0  0.56967448759E+00 -0.42196054049E+00 -0.94362247870E+00  0.11802555240E+01  0.00000000000E+00 0. -1.
         11    1    3    3    0    0 -0.37843238922E+01  0.91161758515E+01  0.36717454269E+01  0.10531262233E+02  0.51100000000E-03 0. -1.
        -11    1    3    3    0    0  0.35973594639E+02 -0.23533148694E+02  0.28577432970E+01  0.43082192327E+02  0.51100000000E-03 0.  1.
         12    1    3    3    0    0 -0.32758945234E+02  0.14838933383E+02 -0.55858662453E+01  0.36394289916E+02  0.00000000000E+00 0. -1.
</event>
<event>
 7    1  0.2148778E-015  0.9000758E+02  0.7816164E-02  0.1186339E+00
        -11   -1    0    0    0    0  0.00000000000E+00  0.00000000000E+00  0.45593999997E+02  0.45594000000E+02  0.51100000000E-03 0. -1.
         11   -1    0    0    0    0 -0.00000000000E+00 -0.00000000000E+00 -0.45593999997E+02  0.45594000000E+02  0.51100000000E-03 0.  1.
    9900012    2    1    2    0    0  0.11477802097E+01  0.18390665821E+00 -0.20533063056E+00  0.90007584083E+02  0.89999843393E+02 0.  0.
         12    1    1    2    0    0 -0.11477802097E+01 -0.18390665821E+00  0.20533063056E+00  0.11804159168E+01  0.00000000000E+00 0. -1.
         11    1    3    3    0    0  0.15777220981E+02  0.33795672975E+02  0.51629351939E+01  0.37652677379E+02  0.51100000000E-03 0. -1.
        -11    1    3    3    0    0 -0.37493486872E+01  0.59297645529E+01 -0.87376607475E+01  0.11205643169E+02  0.51100000000E-03 0.  1.
        -12    1    3    3    0    0 -0.10880092084E+02 -0.39541530870E+02  0.33693949230E+01  0.41149263535E+02  0.00000000000E+00 0.  1.
</event>
<event>
 7    1  0.2148778E-015  0.9000769E+02  0.7816164E-02  0.1186339E+00
        -11   -1    0    0    0    0  0.00000000000E+00  0.00000000000E+00  0.45593999997E+02  0.45594000000E+02  0.51100000000E-03 0.  1.
         11   -1    0    0    0    0 -0.00000000000E+00 -0.00000000000E+00 -0.45593999997E+02  0.45594000000E+02  0.51100000000E-03 0. -1.
    9900012    2    1    2    0    0 -0.99315871833E+00 -0.50244797812E+00 -0.39283468391E+00  0.90007687626E+02  0.89999948303E+02 0.  0.
         12    1    1    2    0    0  0.99315871833E+00  0.50244797812E+00  0.39283468391E+00  0.11803123737E+01  0.00000000000E+00 0. -1.
         11    1    3    3    0    0 -0.24114201155E+01  0.36641724244E+01 -0.59096449746E+01  0.73596882078E+01  0.51100000000E-03 0. -1.
        -11    1    3    3    0    0  0.17784896629E+02 -0.35466515853E+02 -0.14268209663E+02  0.42163468810E+02  0.51100000000E-03 0.  1.
         12    1    3    3    0    0 -0.16366635232E+02  0.31299895451E+02  0.19785019953E+02  0.40484530608E+02  0.00000000000E+00 0. -1.
</event>
<event>
 7    1  0.2148778E-015  0.9000773E+02  0.7816164E-02  0.1186339E+00
        -11   -1    0    0    0    0  0.00000000000E+00  0.00000000000E+00  0.45593999997E+02  0.45594000000E+02  0.51100000000E-03 0.  1.
         11   -1    0    0    0    0 -0.00000000000E+00 -0.00000000000E+00 -0.45593999997E+02  0.45594000000E+02  0.51100000000E-03 0. -1.
    9900012    2    1    2    0    0 -0.90308679135E+00  0.75932742250E+00 -0.29873960207E-01  0.90007730395E+02  0.89999991636E+02 0.  0.
         12    1    1    2    0    0  0.90308679135E+00 -0.75932742250E+00  0.29873960207E-01  0.11802696051E+01  0.00000000000E+00 0. -1.
         11    1    3    3    0    0  0.17587894235E+02 -0.99095974060E+01 -0.29981606427E+02  0.36144582838E+02  0.51100000000E-03 0. -1.
        -11    1    3    3    0    0  0.54669501676E+01  0.86782877281E+01 -0.50247748557E+01  0.11421409048E+02  0.51100000000E-03 0.  1.
        -12    1    3    3    0    0 -0.23957931194E+02  0.19906371004E+01  0.34976507323E+02  0.42441738509E+02  0.00000000000E+00 0.  1.
</event>
<event>
 7    1  0.2148778E-015  0.9000778E+02  0.7816164E-02  0.1186339E+00
        -11   -1    0    0    0    0  0.00000000000E+00  0.00000000000E+00  0.45593999997E+02  0.45594000000E+02  0.51100000000E-03 0.  1.
         11   -1    0    0    0    0 -0.00000000000E+00 -0.00000000000E+00 -0.45593999997E+02  0.45594000000E+02  0.51100000000E-03 0. -1.
    9900012    2    1    2    0    0 -0.42899198681E+00 -0.10953051800E+01  0.95828114771E-01  0.90007783668E+02  0.90000045613E+02 0.  0.
         12    1    1    2    0    0  0.42899198681E+00  0.10953051800E+01 -0.95828114771E-01  0.11802163317E+01  0.00000000000E+00 0. -1.
         11    1    3    3    0    0  0.43437116600E+01  0.33179120986E+02  0.12839892908E+02  0.35841104204E+02  0.51100000000E-03 0. -1.
        -11    1    3    3    0    0  0.71590136468E+01  0.13290439488E+01  0.83652167889E+01  0.11090296948E+02  0.51100000000E-03 0.  1.
        -12    1    3    3    0    0 -0.11931717294E+02 -0.35603470115E+02 -0.21109281582E+02  0.43076382516E+02  0.00000000000E+00 0.  1.
</event>
<event>
 7    1  0.2148778E-015  0.9000784E+02  0.7816164E-02  0.1186339E+00
        -11   -1    0    0    0    0  0.00000000000E+00  0.00000000000E+00  0.45593999997E+02  0.45594000000E+02  0.51100000000E-03 0.  1.
         11   -1    0    0    0    0 -0.00000000000E+00 -0.00000000000E+00 -0.45593999997E+02  0.45594000000E+02  0.51100000000E-03 0. -1.
    9900012    2    1    2    0    0 -0.49726272596E+00 -0.10000528391E+01  0.38132612763E+00  0.90007836657E+02  0.90000099301E+02 0.  0.
         12    1    1    2    0    0  0.49726272596E+00  0.10000528391E+01 -0.38132612763E+00  0.11801633426E+01  0.00000000000E+00 0. -1.
         11    1    3    3    0    0 -0.31090087103E+02 -0.27680875051E+02 -0.15452216541E+02  0.44402650325E+02  0.51100000000E-03 0. -1.
        -11    1    3    3    0    0  0.77235787044E+01  0.89681393131E+00  0.58289051196E+01  0.97177198140E+01  0.51100000000E-03 0.  1.
        -12    1    3    3    0    0  0.22869245672E+02  0.25784008280E+02  0.10004637549E+02  0.35887466518E+02  0.00000000000E+00 0.  1.
</event>
<event>
 7    1  0.2148778E-015  0.9000760E+02  0.7816164E-02  0.1186339E+00
        -11   -1    0    0    0    0  0.00000000000E+00  0.00000000000E+00  0.45593999997E+02  0.45594000000E+02  0.51100000000E-03 0.  1.
         11   -1    0    0    0    0 -0.00000000000E+00 -0.00000000000E+00 -0.45593999997E+02  0.45594000000E+02  0.51100000000E-03 0. -1.
    9900012    2    1    2    0    0  0.77423170098E+00 -0.23024447439E+00  0.86075867661E+00  0.90007596364E+02  0.89999855836E+02 0.  0.
         12    1    1    2    0    0 -0.77423170098E+00  0.23024447439E+00 -0.86075867661E+00  0.11804036361E+01  0.00000000000E+00 0. -1.
         11    1    3    3    0    0  0.27116804555E+02 -0.33677764348E+02 -0.38395913963E+00  0.43239568981E+02  0.51100000000E-03 0. -1.
        -11    1    3    3    0    0  0.62453696426E+00  0.93497679638E+01  0.46162260143E+01  0.10445944202E+02  0.51100000000E-03 0.  1.
        -12    1    3    3    0    0 -0.26967109819E+02  0.24097751910E+02 -0.33715081980E+01  0.36322083181E+02  0.00000000000E+00 0.  1.
</event>
<event>
 7    1  0.2148778E-015  0.9000796E+02  0.7816164E-02  0.1186339E+00
        -11   -1    0    0    0    0  0.00000000000E+00  0.00000000000E+00  0.45593999997E+02  0.45594000000E+02  0.51100000000E-03 0. -1.
         11   -1    0    0    0    0 -0.00000000000E+00 -0.00000000000E+00 -0.45593999997E+02  0.45594000000E+02  0.51100000000E-03 0.  1.
    9900012    2    1    2    0    0 -0.15002901148E-01 -0.10879852998E+01  0.45668676989E+00  0.90007957668E+02  0.90000221909E+02 0.  0.
         12    1    1    2    0    0  0.15002901148E-01  0.10879852998E+01 -0.45668676989E+00  0.11800423320E+01  0.00000000000E+00 0. -1.
         11    1    3    3    0    0 -0.23269469293E+01 -0.38252176549E+02  0.85141818448E+01  0.39257292131E+02  0.51100000000E-03 0. -1.
        -11    1    3    3    0    0 -0.79969615401E+01 -0.55728839935E+00  0.50889280542E+01  0.94952173875E+01  0.51100000000E-03 0.  1.
        -12    1    3    3    0    0  0.10308905568E+02  0.37721479649E+02 -0.13146423129E+02  0.41255448149E+02  0.00000000000E+00 0.  1.
</event>
<event>
 7    1  0.2148778E-015  0.9000778E+02  0.7816164E-02  0.1186339E+00
        -11   -1    0    0    0    0  0.00000000000E+00  0.00000000000E+00  0.45593999997E+02  0.45594000000E+02  0.51100000000E-03 0.  1.
         11   -1    0    0    0    0 -0.00000000000E+00 -0.00000000000E+00 -0.45593999997E+02  0.45594000000E+02  0.51100000000E-03 0. -1.
    9900012    2    1    2    0    0  0.10348732853E+01 -0.21298522318E+00  0.52591940540E+00  0.90007781104E+02  0.90000043014E+02 0.  0.
         12    1    1    2    0    0 -0.10348732853E+01  0.21298522318E+00 -0.52591940540E+00  0.11802188962E+01  0.00000000000E+00 0. -1.
         11    1    3    3    0    0  0.21172889206E+01 -0.12981387805E+01 -0.79144956088E+01  0.82950176413E+01  0.51100000000E-03 0. -1.
        -11    1    3    3    0    0 -0.26866657495E+02 -0.17899520328E+02  0.29218622874E+02  0.43542370582E+02  0.51100000000E-03 0.  1.
         12    1    3    3    0    0  0.25784241860E+02  0.18984673885E+02 -0.20778207860E+02  0.38170392881E+02  0.00000000000E+00 0. -1.
</event>
<event>
 7    1  0.2148778E-015  0.9000771E+02  0.7816164E-02  0.1186339E+00
        -11   -1    0    0    0    0  0.00000000000E+00  0.00000000000E+00  0.45593999997E+02  0.45594000000E+02  0.51100000000E-03 0.  1.
         11   -1    0    0    0    0 -0.00000000000E+00 -0.00000000000E+00 -0.45593999997E+02  0.45594000000E+02  0.51100000000E-03 0. -1.
    9900012    2    1    2    0    0  0.48293488089E+00  0.68356298438E-01  0.10747938566E+01  0.90007711681E+02  0.89999972675E+02 0.  0.
         12    1    1    2    0    0 -0.48293488089E+00 -0.68356298438E-01 -0.10747938566E+01  0.11802883194E+01  0.00000000000E+00 0. -1.
         11    1    3    3    0    0 -0.17339464731E+01 -0.93875266175E+01  0.11999722958E+01  0.96214427264E+01  0.51100000000E-03 0. -1.
        -11    1    3    3    0    0 -0.15888408863E+02 -0.29928863788E+02 -0.11126932210E+02  0.35664927373E+02  0.51100000000E-03 0.  1.
         12    1    3    3    0    0  0.18105290217E+02  0.39384746704E+02  0.11001753770E+02  0.44721341581E+02  0.00000000000E+00 0. -1.
</event>
<event>
 7    1  0.2148778E-015  0.9000769E+02  0.7816164E-02  0.1186339E+00
        -11   -1    0    0    0    0  0.00000000000E+00  0.00000000000E+00  0.45593999997E+02  0.45594000000E+02  0.51100000000E-03 0.  1.
         11   -1    0    0    0    0 -0.00000000000E+00 -0.00000000000E+00 -0.45593999997E+02  0.45594000000E+02  0.51100000000E-03 0. -1.
    9900012    2    1    2    0    0  0.18511117603E+00  0.20754150525E+00  0.11470842179E+01  0.90007685708E+02  0.89999946360E+02 0.  0.
         12    1    1    2    0    0 -0.18511117603E+00 -0.20754150525E+00 -0.11470842179E+01  0.11803142915E+01  0.00000000000E+00 0. -1.
         11    1    3    3    0    0 -0.34668360784E+01  0.21324895675E+01 -0.17943345791E+02  0.18399188096E+02  0.51100000000E-03 0. -1.
        -11    1    3    3    0    0  0.19705470717E+02  0.27660547722E+02  0.24246859198E+01  0.34048356473E+02  0.51100000000E-03 0.  1.
         12    1    3    3    0    0 -0.16053523463E+02 -0.29585495784E+02  0.16665744089E+02  0.37560141139E+02  0.00000000000E+00 0. -1.
</event>
<event>
 7    1  0.2148778E-015  0.9000773E+02  0.7816164E-02  0.1186339E+00
        -11   -1    0    0    0    0  0.00000000000E+00  0.00000000000E+00  0.45593999997E+02  0.45594000000E+02  0.51100000000E-03 0.  1.
         11   -1    0    0    0    0 -0.00000000000E+00 -0.00000000000E+00 -0.45593999997E+02  0.45594000000E+02  0.51100000000E-03 0. -1.
    9900012    2    1    2    0    0  0.71299076430E+00 -0.86512833211E+00  0.36910264040E+00  0.90007729006E+02  0.89999990228E+02 0.  0.
         12    1    1    2    0    0 -0.71299076430E+00  0.86512833211E+00 -0.36910264040E+00  0.11802709944E+01  0.00000000000E+00 0. -1.
         11    1    3    3    0    0  0.69355318254E+01  0.16036747885E+02  0.16058580760E+02  0.23730927093E+02  0.51100000000E-03 0. -1.
        -11    1    3    3    0    0 -0.20665416049E+02 -0.80644523939E+01  0.18002814343E+02  0.28569146600E+02  0.51100000000E-03 0.  1.
         12    1    3    3    0    0  0.14442874988E+02 -0.88374238232E+01 -0.33692292463E+02  0.37707655312E+02  0.00000000000E+00 0. -1.
</event>
<event>
 7    1  0.2148778E-015  0.9000775E+02  0.7816164E-02  0.1186339E+00
        -11   -1    0    0    0    0  0.00000000000E+00  0.00000000000E+00  0.45593999997E+02  0.45594000000E+02  0.51100000000E-03 0.  1.
         11   -1    0    0    0    0 -0.00000000000E+00 -0.00000000000E+00 -0.45593999997E+02  0.45594000000E+02  0.51100000000E-03 0. -1.
    9900012    2    1    2    0    0  0.93248460318E+00 -0.71379823094E+00 -0.11816210740E+00  0.90007746750E+02  0.90000008207E+02 0.  0.
         12    1    1    2    0    0 -0.93248460318E+00  0.71379823094E+00  0.11816210740E+00  0.11802532496E+01  0.00000000000E+00 0. -1.
         11    1    3    3    0    0 -0.95082615348E+01  0.39100464533E+02 -0.48568316473E+01  0.40531989564E+02  0.51100000000E-03 0. -1.
        -11    1    3    3    0    0 -0.61041267348E+01  0.35343376960E-02  0.11182027381E+01  0.62057032889E+01  0.51100000000E-03 0.  1.
        -12    1    3    3    0    0  0.16544872873E+02 -0.39817797102E+02  0.36204668018E+01  0.43270053897E+02  0.00000000000E+00 0.  1.
</event>
<event>
 7    1  0.2148778E-015  0.9000773E+02  0.7816164E-02  0.1186339E+00
        -11   -1    0    0    0    0  0.00000000000E+00  0.00000000000E+00  0.45593999997E+02  0.45594000000E+02  0.51100000000E-03 0. -1.
         11   -1    0    0    0    0 -0.00000000000E+00 -0.00000000000E+00 -0.45593999997E+02  0.45594000000E+02  0.51100000000E-03 0.  1.
    9900012    2    1    2    0    0  0.10208604745E+01 -0.57647402191E+00 -0.13625827958E+00  0.90007726843E+02  0.89999988037E+02 0.  0.
         12    1    1    2    0    0 -0.10208604745E+01  0.57647402191E+00  0.13625827958E+00  0.11802731570E+01  0.00000000000E+00 0. -1.
         11    1    3    3    0    0  0.78254837187E+00 -0.13922041608E+01 -0.65288725637E+01  0.67213682829E+01  0.51100000000E-03 0. -1.
        -11    1    3    3    0    0 -0.59962688751E+01 -0.25218189033E+01 -0.37889140436E+02  0.38443488060E+02  0.51100000000E-03 0.  1.
         12    1    3    3    0    0  0.62345809777E+01  0.33375490422E+01  0.44281754720E+02  0.44842870500E+02  0.00000000000E+00 0. -1.
</event>
<event>
 7    1  0.2148778E-015  0.9000776E+02  0.7816164E-02  0.1186339E+00
        -11   -1    0    0    0    0  0.00000000000E+00  0.00000000000E+00  0.45593999997E+02  0.45594000000E+02  0.51100000000E-03 0.  1.
         11   -1    0    0    0    0 -0.00000000000E+00 -0.00000000000E+00 -0.45593999997E+02  0.45594000000E+02  0.51100000000E-03 0. -1.
    9900012    2    1    2    0    0 -0.39177652913E+00 -0.77125968009E+00  0.80289525802E+00  0.90007758017E+02  0.90000019623E+02 0.  0.
         12    1    1    2    0    0  0.39177652913E+00  0.77125968009E+00 -0.80289525802E+00  0.11802419829E+01  0.00000000000E+00 0. -1.
         11    1    3    3    0    0 -0.37604288813E+02 -0.10405272608E+02  0.11817967247E+01  0.39035226129E+02  0.51100000000E-03 0. -1.
        -11    1    3    3    0    0 -0.20322970458E+01  0.94466943726E+01 -0.59289343006E+01  0.11336777675E+02  0.51100000000E-03 0.  1.
        -12    1    3    3    0    0  0.39244809330E+02  0.18731855548E+00  0.55500328339E+01  0.39635754213E+02  0.00000000000E+00 0.  1.
</event>
<event>
 7    1  0.2148778E-015  0.9000773E+02  0.7816164E-02  0.1186339E+00
        -11   -1    0    0    0    0  0.00000000000E+00  0.00000000000E+00  0.45593999997E+02  0.45594000000E+02  0.51100000000E-03 0. -1.
         11   -1    0    0    0    0 -0.00000000000E+00 -0.00000000000E+00 -0.45593999997E+02  0.45594000000E+02  0.51100000000E-03 0.  1.
    9900012    2    1    2    0    0 -0.93537524419E+00  0.59692113666E+00  0.40222669738E+00  0.90007733925E+02  0.89999995213E+02 0.  0.
         12    1    1    2    0    0  0.93537524419E+00 -0.59692113666E+00 -0.40222669738E+00  0.11802660746E+01  0.00000000000E+00 0. -1.
         11    1    3    3    0    0  0.15368159848E+02  0.10274792794E+02  0.34761464935E+02  0.39371450935E+02  0.51100000000E-03 0. -1.
        -11    1    3    3    0    0  0.79150430080E+01  0.25372488289E+01 -0.22647288697E+01  0.86147858100E+01  0.51100000000E-03 0.  1.
        -12    1    3    3    0    0 -0.24218578100E+02 -0.12215120487E+02 -0.32094509368E+02  0.42021497180E+02  0.00000000000E+00 0.  1.
</event>
<event>
 7    1  0.2148778E-015  0.9000772E+02  0.7816164E-02  0.1186339E+00
        -11   -1    0    0    0    0  0.00000000000E+00  0.00000000000E+00  0.45593999997E+02  0.45594000000E+02  0.51100000000E-03 0. -1.
         11   -1    0    0    0    0 -0.00000000000E+00 -0.00000000000E+00 -0.45593999997E+02  0.45594000000E+02  0.51100000000E-03 0.  1.
    9900012    2    1    2    0    0 -0.10822297644E+01  0.31073026616E+00  0.35395239201E+00  0.90007721704E+02  0.89999982830E+02 0.  0.
         12    1    1    2    0    0  0.10822297644E+01 -0.31073026616E+00 -0.35395239201E+00  0.11802782965E+01  0.00000000000E+00 0. -1.
         11    1    3    3    0    0 -0.18111801067E+02  0.31580534427E+02  0.30290460261E+01  0.36531392154E+02  0.51100000000E-03 0. -1.
        -11    1    3    3    0    0 -0.89265993293E+01  0.25775891492E+01  0.43302786353E+01  0.10250827027E+02  0.51100000000E-03 0.  1.
        -12    1    3    3    0    0  0.25956170632E+02 -0.33847393310E+02 -0.70053722694E+01  0.43225502523E+02  0.00000000000E+00 0.  1.
</event>
<event>
 7    1  0.2148778E-015  0.9000770E+02  0.7816164E-02  0.1186339E+00
        -11   -1    0    0    0    0  0.00000000000E+00  0.00000000000E+00  0.45593999997E+02  0.45594000000E+02  0.51100000000E-03 0.  1.
         11   -1    0    0    0    0 -0.00000000000E+00 -0.00000000000E+00 -0.45593999997E+02  0.45594000000E+02  0.51100000000E-03 0. -1.
    9900012    2    1    2    0    0  0.68022604800E+00 -0.35205679728E+00  0.89802320967E+00  0.90007704634E+02  0.89999965536E+02 0.  0.
         12    1    1    2    0    0 -0.68022604800E+00  0.35205679728E+00 -0.89802320967E+00  0.11802953656E+01  0.00000000000E+00 0. -1.
         11    1    3    3    0    0 -0.34824720226E+02  0.39478536996E+01 -0.13201063501E+02  0.37451498841E+02  0.51100000000E-03 0. -1.
        -11    1    3    3    0    0 -0.53027761148E+01  0.59279607849E+01  0.53516964439E+01  0.95864909471E+01  0.51100000000E-03 0.  1.
        -12    1    3    3    0    0  0.40807722388E+02 -0.10227871282E+02  0.87473902668E+01  0.42969714846E+02  0.00000000000E+00 0.  1.
</event>
<event>
 7    1  0.2148778E-015  0.9000786E+02  0.7816164E-02  0.1186339E+00
        -11   -1    0    0    0    0  0.00000000000E+00  0.00000000000E+00  0.45593999997E+02  0.45594000000E+02  0.51100000000E-03 0. -1.
         11   -1    0    0    0    0 -0.00000000000E+00 -0.00000000000E+00 -0.45593999997E+02  0.45594000000E+02  0.51100000000E-03 0.  1.
    9900012    2    1    2    0    0  0.10703672931E+01  0.40687944029E+00 -0.28548234465E+00  0.90007857131E+02  0.90000120046E+02 0.  0.
         12    1    1    2    0    0 -0.10703672931E+01 -0.40687944029E+00  0.28548234465E+00  0.11801428685E+01  0.00000000000E+00 0. -1.
         11    1    3    3    0    0  0.32347489795E+02 -0.32093205945E+01 -0.19915400372E+02  0.38121949150E+02  0.51100000000E-03 0. -1.
        -11    1    3    3    0    0  0.37986369699E+01 -0.92747899412E+01  0.77629879161E+01  0.12677355912E+02  0.51100000000E-03 0.  1.
        -12    1    3    3    0    0 -0.35075759472E+02  0.12890989976E+02  0.11866930111E+02  0.39208552069E+02  0.00000000000E+00 0.  1.
</event>
<event>
 7    1  0.2148778E-015  0.9000754E+02  0.7816164E-02  0.1186339E+00
        -11   -1    0    0    0    0  0.00000000000E+00  0.00000000000E+00  0.45593999997E+02  0.45594000000E+02  0.51100000000E-03 0. -1.
         11   -1    0    0    0    0 -0.00000000000E+00 -0.00000000000E+00 -0.45593999997E+02  0.45594000000E+02  0.51100000000E-03 0.  1.
    9900012    2    1    2    0    0  0.85659398603E+00  0.64892984687E+00 -0.48849882634E+00  0.90007536402E+02  0.89999795082E+02 0.  0.
         12    1    1    2    0    0 -0.85659398603E+00 -0.64892984687E+00  0.48849882634E+00  0.11804635981E+01  0.00000000000E+00 0. -1.
         11    1    3    3    0    0  0.30835257435E+01  0.38850218381E+02  0.16725655433E+02  0.42409847314E+02  0.51100000000E-03 0. -1.
        -11    1    3    3    0    0  0.78879975353E+01 -0.52342938305E+01 -0.10864408842E+01  0.95288347177E+01  0.51100000000E-03 0.  1.
        -12    1    3    3    0    0 -0.10114929293E+02 -0.32966994704E+02 -0.16127713375E+02  0.38068854371E+02  0.00000000000E+00 0.  1.
</event>
<event>
 7    1  0.2148778E-015  0.9000782E+02  0.7816164E-02  0.1186339E+00
        -11   -1    0    0    0    0  0.00000000000E+00  0.00000000000E+00  0.45593999997E+02  0.45594000000E+02  0.51100000000E-03 0. -1.
         11   -1    0    0    0    0 -0.00000000000E+00 -0.00000000000E+00 -0.45593999997E+02  0.45594000000E+02  0.51100000000E-03 0.  1.
    9900012    2    1    2    0    0  0.70052614326E+00 -0.68934892949E+00 -0.65337072516E+00  0.90007816909E+02  0.90000079292E+02 0.  0.
         12    1    1    2    0    0 -0.70052614326E+00  0.68934892949E+00  0.65337072516E+00  0.11801830911E+01  0.00000000000E+00 0. -1.
         11    1    3    3    0    0  0.11438882364E+02  0.81313559199E+00  0.19303589775E+01  0.11629080156E+02  0.51100000000E-03 0. -1.
        -11    1    3    3    0    0 -0.21890889364E+02 -0.35699363749E+02 -0.57524613367E+01  0.42269923361E+02  0.51100000000E-03 0.  1.
         12    1    3    3    0    0  0.11152533143E+02  0.34196879228E+02  0.31687316340E+01  0.36108813392E+02  0.00000000000E+00 0. -1.
</event>
<event>
 7    1  0.2148778E-015  0.9000775E+02  0.7816164E-02  0.1186339E+00
        -11   -1    0    0    0    0  0.00000000000E+00  0.00000000000E+00  0.45593999997E+02  0.45594000000E+02  0.51100000000E-03 0.  1.
         11   -1    0    0    0    0 -0.00000000000E+00 -0.00000000000E+00 -0.45593999997E+02  0.45594000000E+02  0.51100000000E-03 0. -1.
    9900012    2    1    2    0    0  0.31674209188E+00  0.52645528391E+00  0.10077237682E+01  0.90007750911E+02  0.90000012423E+02 0.  0.
         12    1    1    2    0    0 -0.31674209188E+00 -0.52645528391E+00 -0.10077237682E+01  0.11802490888E+01  0.00000000000E+00 0. -1.
         11    1    3    3    0    0 -0.33368718070E+02  0.27172138414E+02 -0.65136445115E+01  0.43522683932E+02  0.51100000000E-03 0. -1.
        -11    1    3    3    0    0  0.69728443916E+01 -0.54033338057E+01 -0.49899563427E+01  0.10134902056E+02  0.51100000000E-03 0.  1.
        -12    1    3    3    0    0  0.26712615770E+02 -0.21242349324E+02  0.12511324622E+02  0.36350164923E+02  0.00000000000E+00 0.  1.
</event>
<event>
 7    1  0.2148778E-015  0.9000764E+02  0.7816164E-02  0.1186339E+00
        -11   -1    0    0    0    0  0.00000000000E+00  0.00000000000E+00  0.45593999997E+02  0.45594000000E+02  0.51100000000E-03 0. -1.
         11   -1    0    0    0    0 -0.00000000000E+00 -0.00000000000E+00 -0.45593999997E+02  0.45594000000E+02  0.51100000000E-03 0.  1.
    9900012    2    1    2    0    0  0.10561732351E+01 -0.48801560934E+00  0.19897359564E+00  0.90007639195E+02  0.89999899233E+02 0.  0.
         12    1    1    2    0    0 -0.10561732351E+01  0.48801560934E+00 -0.19897359564E+00  0.11803608047E+01  0.00000000000E+00 0. -1.
         11    1    3    3    0    0  0.79982456256E+01 -0.77822322254E-01 -0.43124843570E+01  0.90871068549E+01  0.51100000000E-03 0. -1.
        -11    1    3    3    0    0 -0.17400957352E+01  0.18238286080E+02 -0.33545228714E+02  0.38222315236E+02  0.51100000000E-03 0.  1.
         12    1    3    3    0    0 -0.52019766554E+01 -0.18648479367E+02  0.38056686667E+02  0.42698217104E+02  0.00000000000E+00 0. -1.
</event>
<event>
 7    1  0.2148778E-015  0.9000777E+02  0.7816164E-02  0.1186339E+00
        -11   -1    0    0    0    0  0.00000000000E+00  0.00000000000E+00  0.45593999997E+02  0.45594000000E+02  0.51100000000E-03 0. -1.
         11   -1    0    0    0    0 -0.00000000000E+00 -0.00000000000E+00 -0.45593999997E+02  0.45594000000E+02  0.51100000000E-03 0.  1.
    9900012    2    1    2    0    0  0.82960810681E+00 -0.15006854491E+00 -0.82593968872E+00  0.90007768434E+02  0.90000030178E+02 0.  0.
         12    1    1    2    0    0 -0.82960810681E+00  0.15006854491E+00  0.82593968872E+00  0.11802315656E+01  0.00000000000E+00 0. -1.
         11    1    3    3    0    0 -0.18894963209E+01 -0.91364415968E+01 -0.80862351900E+01  0.12346333918E+02  0.51100000000E-03 0. -1.
        -11    1    3    3    0    0 -0.36392588145E+02 -0.14659738755E+01 -0.57148016037E+00  0.36426585636E+02  0.51100000000E-03 0.  1.
         12    1    3    3    0    0  0.39111692572E+02  0.10452346927E+02  0.78317756617E+01  0.41234848880E+02  0.00000000000E+00 0. -1.
</event>
<event>
 7    1  0.2148778E-015  0.9000770E+02  0.7816164E-02  0.1186339E+00
        -11   -1    0    0    0    0  0.00000000000E+00  0.00000000000E+00  0.45593999997E+02  0.45594000000E+02  0.51100000000E-03 0.  1.
         11   -1    0    0    0    0 -0.00000000000E+00 -0.00000000000E+00 -0.45593999997E+02  0.45594000000E+02  0.51100000000E-03 0. -1.
    9900012    2    1    2    0    0 -0.43904598469E+00 -0.77150979693E+00  0.77789270241E+00  0.90007700970E+02  0.89999961823E+02 0.  0.
         12    1    1    2    0    0  0.43904598469E+00  0.77150979693E+00 -0.77789270241E+00  0.11802990299E+01  0.00000000000E+00 0. -1.
         11    1    3    3    0    0 -0.18086520979E+01 -0.98781761029E+01  0.45293390936E+01  0.11016555651E+02  0.51100000000E-03 0. -1.
        -11    1    3    3    0    0  0.18823411017E+02  0.52812325525E+01  0.32869174363E+02  0.38243886350E+02  0.51100000000E-03 0.  1.
         12    1    3    3    0    0 -0.17453804904E+02  0.38254337535E+01 -0.36620620754E+02  0.40747258969E+02  0.00000000000E+00 0. -1.
</event>
<event>
 7    1  0.2148778E-015  0.9000775E+02  0.7816164E-02  0.1186339E+00
        -11   -1    0    0    0    0  0.00000000000E+00  0.00000000000E+00  0.45593999997E+02  0.45594000000E+02  0.51100000000E-03 0.  1.
         11   -1    0    0    0    0 -0.00000000000E+00 -0.00000000000E+00 -0.45593999997E+02  0.45594000000E+02  0.51100000000E-03 0. -1.
    9900012    2    1    2    0    0 -0.69817614969E+00  0.67280284533E+00  0.67295826782E+00  0.90007751537E+02  0.90000013057E+02 0.  0.
         12    1    1    2    0    0  0.69817614969E+00 -0.67280284533E+00 -0.67295826782E+00  0.11802484632E+01  0.00000000000E+00 0. -1.
         11    1    3    3    0    0 -0.10741974454E+02  0.39565415061E+01  0.12158000085E+01  0.11511837637E+02  0.51100000000E-03 0. -1.
        -11    1    3    3    0    0 -0.61375382710E+01 -0.20804964142E+02  0.31687518807E+02  0.38400712980E+02  0.51100000000E-03 0.  1.
         12    1    3    3    0    0  0.16181336575E+02  0.17521225481E+02 -0.32230360548E+02  0.40095200919E+02  0.00000000000E+00 0. -1.
</event>
<event>
 7    1  0.2148778E-015  0.9000775E+02  0.7816164E-02  0.1186339E+00
        -11   -1    0    0    0    0  0.00000000000E+00  0.00000000000E+00  0.45593999997E+02  0.45594000000E+02  0.51100000000E-03 0.  1.
         11   -1    0    0    0    0 -0.00000000000E+00 -0.00000000000E+00 -0.45593999997E+02  0.45594000000E+02  0.51100000000E-03 0. -1.
    9900012    2    1    2    0    0  0.29042972265E+00  0.18088113627E+00  0.11295694385E+01  0.90007748109E+02  0.90000009584E+02 0.  0.
         12    1    1    2    0    0 -0.29042972265E+00 -0.18088113627E+00 -0.11295694385E+01  0.11802518908E+01  0.00000000000E+00 0. -1.
         11    1    3    3    0    0 -0.22486146297E+02 -0.23480109455E+02 -0.21451242952E+02  0.38949944028E+02  0.51100000000E-03 0. -1.
        -11    1    3    3    0    0  0.73208955332E+00  0.49178211730E+01 -0.77057351241E+01  0.91705656460E+01  0.51100000000E-03 0.  1.
        -12    1    3    3    0    0  0.22044486466E+02  0.18743169418E+02  0.30286547515E+02  0.41887238436E+02  0.00000000000E+00 0.  1.
</event>
<event>
 7    1  0.2148778E-015  0.9000650E+02  0.7816164E-02  0.1186342E+00
        -11   -1    0    0    0    0  0.00000000000E+00  0.00000000000E+00  0.45593999997E+02  0.45594000000E+02  0.51100000000E-03 0.  1.
         11   -1    0    0    0    0 -0.00000000000E+00 -0.00000000000E+00 -0.45593999997E+02  0.45594000000E+02  0.51100000000E-03 0. -1.
    9900012    2    1    2    0    0  0.72564863243E+00  0.20785965226E+00  0.90893722185E+00  0.90006501610E+02  0.89998746622E+02 0.  0.
         12    1    1    2    0    0 -0.72564863243E+00 -0.20785965226E+00 -0.90893722185E+00  0.11814983902E+01  0.00000000000E+00 0. -1.
         11    1    3    3    0    0  0.45220588314E+01  0.12292480247E+01 -0.31724284601E+01  0.56590078085E+01  0.51100000000E-03 0. -1.
        -11    1    3    3    0    0  0.31057302810E+02  0.21627276223E+02  0.16026253362E+02  0.41099098916E+02  0.51100000000E-03 0.  1.
         12    1    3    3    0    0 -0.34853713009E+02 -0.22648664595E+02 -0.11944887680E+02  0.43248394885E+02  0.00000000000E+00 0. -1.
</event>
<event>
 7    1  0.2148778E-015  0.9000889E+02  0.7816164E-02  0.1186337E+00
        -11   -1    0    0    0    0  0.00000000000E+00  0.00000000000E+00  0.45593999997E+02  0.45594000000E+02  0.51100000000E-03 0.  1.
         11   -1    0    0    0    0 -0.00000000000E+00 -0.00000000000E+00 -0.45593999997E+02  0.45594000000E+02  0.51100000000E-03 0. -1.
    9900012    2    1    2    0    0  0.48360753532E+00  0.10515245070E+01  0.22519696679E+00  0.90008892833E+02  0.90001169411E+02 0.  0.
         12    1    1    2    0    0 -0.48360753532E+00 -0.10515245070E+01 -0.22519696679E+00  0.11791071668E+01  0.00000000000E+00 0. -1.
         11    1    3    3    0    0  0.36336544744E+02 -0.84144251347E+00 -0.13845765213E+02  0.38894186250E+02  0.51100000000E-03 0. -1.
        -11    1    3    3    0    0 -0.14471805299E+00  0.77098040124E+01 -0.59734695303E+01  0.97541970308E+01  0.51100000000E-03 0.  1.
        -12    1    3    3    0    0 -0.35708219156E+02 -0.58168369920E+01  0.20044431710E+02  0.41360509553E+02  0.00000000000E+00 0.  1.
</event>
<event>
 7    1  0.2148778E-015  0.9000772E+02  0.7816164E-02  0.1186339E+00
        -11   -1    0    0    0    0  0.00000000000E+00  0.00000000000E+00  0.45593999997E+02  0.45594000000E+02  0.51100000000E-03 0.  1.
         11   -1    0    0    0    0 -0.00000000000E+00 -0.00000000000E+00 -0.45593999997E+02  0.45594000000E+02  0.51100000000E-03 0. -1.
    9900012    2    1    2    0    0  0.33408299097E+00 -0.25028693496E+00  0.11039990968E+01  0.90007716559E+02  0.89999977618E+02 0.  0.
         12    1    1    2    0    0 -0.33408299097E+00  0.25028693496E+00 -0.11039990968E+01  0.11802834407E+01  0.00000000000E+00 0. -1.
         11    1    3    3    0    0  0.18052159945E+02  0.24731503921E+02 -0.17727499859E+02  0.35380672922E+02  0.51100000000E-03 0. -1.
        -11    1    3    3    0    0  0.38067250637E+01  0.49698909117E+01 -0.71557558978E+01  0.95076713298E+01  0.51100000000E-03 0.  1.
        -12    1    3    3    0    0 -0.21524802018E+02 -0.29951681768E+02  0.25987254853E+02  0.45119372308E+02  0.00000000000E+00 0.  1.
</event>
<event>
 7    1  0.2148778E-015  0.9000764E+02  0.7816164E-02  0.1186339E+00
        -11   -1    0    0    0    0  0.00000000000E+00  0.00000000000E+00  0.45593999997E+02  0.45594000000E+02  0.51100000000E-03 0.  1.
         11   -1    0    0    0    0 -0.00000000000E+00 -0.00000000000E+00 -0.45593999997E+02  0.45594000000E+02  0.51100000000E-03 0. -1.
    9900012    2    1    2    0    0  0.32758452137E+00 -0.28877269129E+00  0.10966042894E+01  0.90007643167E+02  0.89999903257E+02 0.  0.
         12    1    1    2    0    0 -0.32758452137E+00  0.28877269129E+00 -0.10966042894E+01  0.11803568331E+01  0.00000000000E+00 0. -1.
         11    1    3    3    0    0  0.97148074033E+01  0.45279484561E+01  0.20629456227E+01  0.10914923042E+02  0.51100000000E-03 0. -1.
        -11    1    3    3    0    0  0.24043258670E+02  0.19342370959E+02  0.15681024742E+02  0.34613583157E+02  0.51100000000E-03 0.  1.
         12    1    3    3    0    0 -0.33430481551E+02 -0.24159092107E+02 -0.16647366075E+02  0.44479136968E+02  0.00000000000E+00 0. -1.
</event>
<event>
 7    1  0.2148778E-015  0.9000777E+02  0.7816164E-02  0.1186339E+00
        -11   -1    0    0    0    0  0.00000000000E+00  0.00000000000E+00  0.45593999997E+02  0.45594000000E+02  0.51100000000E-03 0. -1.
         11   -1    0    0    0    0 -0.00000000000E+00 -0.00000000000E+00 -0.45593999997E+02  0.45594000000E+02  0.51100000000E-03 0.  1.
    9900012    2    1    2    0    0 -0.11768582345E+01  0.84972965815E-01 -0.26870715547E-01  0.90007772164E+02  0.90000033957E+02 0.  0.
         12    1    1    2    0    0  0.11768582345E+01 -0.84972965815E-01  0.26870715547E-01  0.11802278357E+01  0.00000000000E+00 0. -1.
         11    1    3    3    0    0  0.39838817815E+01 -0.14321119141E+01  0.10016329233E+02  0.10874240670E+02  0.51100000000E-03 0. -1.
        -11    1    3    3    0    0 -0.12637705905E+02  0.32532788001E+02  0.15573185392E+02  0.38218032513E+02  0.51100000000E-03 0.  1.
         12    1    3    3    0    0  0.74769658891E+01 -0.31015703122E+02 -0.25616385340E+02  0.40915498981E+02  0.00000000000E+00 0. -1.
</event>
<event>
 7    1  0.2148778E-015  0.9000776E+02  0.7816164E-02  0.1186339E+00
        -11   -1    0    0    0    0  0.00000000000E+00  0.00000000000E+00  0.45593999997E+02  0.45594000000E+02  0.51100000000E-03 0. -1.
         11   -1    0    0    0    0 -0.00000000000E+00 -0.00000000000E+00 -0.45593999997E+02  0.45594000000E+02  0.51100000000E-03 0.  1.
    9900012    2    1    2    0    0  0.10341209607E+01 -0.40955974946E+00 -0.39475127377E+00  0.90007756840E+02  0.90000018430E+02 0.  0.
         12    1    1    2    0    0 -0.10341209607E+01  0.40955974946E+00  0.39475127377E+00  0.11802431605E+01  0.00000000000E+00 0. -1.
         11    1    3    3    0    0  0.50327676600E+01  0.42935163101E+01 -0.54113716033E+01  0.85466938354E+01  0.51100000000E-03 0. -1.
        -11    1    3    3    0    0  0.32589060293E+02  0.82803131618E+01 -0.16085066711E+02  0.37273848851E+02  0.51100000000E-03 0.  1.
         12    1    3    3    0    0 -0.36587706992E+02 -0.12983389221E+02  0.21101687041E+02  0.44187214153E+02  0.00000000000E+00 0. -1.
</event>
<event>
 7    1  0.2148778E-015  0.9000782E+02  0.7816164E-02  0.1186339E+00
        -11   -1    0    0    0    0  0.00000000000E+00  0.00000000000E+00  0.45593999997E+02  0.45594000000E+02  0.51100000000E-03 0. -1.
         11   -1    0    0    0    0 -0.00000000000E+00 -0.00000000000E+00 -0.45593999997E+02  0.45594000000E+02  0.51100000000E-03 0.  1.
    9900012    2    1    2    0    0 -0.66709524978E+00 -0.89313671138E+00 -0.38744480522E+00  0.90007820889E+02  0.90000083324E+02 0.  0.
         12    1    1    2    0    0  0.66709524978E+00  0.89313671138E+00  0.38744480522E+00  0.11801791112E+01  0.00000000000E+00 0. -1.
         11    1    3    3    0    0  0.38233053356E+02 -0.41635074728E+01  0.81151634646E+01  0.39305941558E+02  0.51100000000E-03 0. -1.
        -11    1    3    3    0    0  0.20417374905E+01  0.50049303970E+01 -0.80796938338E+01  0.97210839400E+01  0.51100000000E-03 0.  1.
        -12    1    3    3    0    0 -0.40941886096E+02 -0.17345596356E+01 -0.42291443600E+00  0.40980795391E+02  0.00000000000E+00 0.  1.
</event>
<event>
 7    1  0.2148778E-015  0.9000780E+02  0.7816164E-02  0.1186339E+00
        -11   -1    0    0    0    0  0.00000000000E+00  0.00000000000E+00  0.45593999997E+02  0.45594000000E+02  0.51100000000E-03 0.  1.
         11   -1    0    0    0    0 -0.00000000000E+00 -0.00000000000E+00 -0.45593999997E+02  0.45594000000E+02  0.51100000000E-03 0. -1.
    9900012    2    1    2    0    0  0.11712615467E+01  0.94384217072E-01 -0.11001028344E+00  0.90007803299E+02  0.90000065502E+02 0.  0.
         12    1    1    2    0    0 -0.11712615467E+01 -0.94384217072E-01  0.11001028344E+00  0.11801967012E+01  0.00000000000E+00 0. -1.
         11    1    3    3    0    0  0.76463090539E+01  0.61667644659E+01  0.24070297721E+01  0.10113793488E+02  0.51100000000E-03 0. -1.
        -11    1    3    3    0    0  0.32809205118E+02 -0.39768413152E+01  0.15643212308E+02  0.36564590779E+02  0.51100000000E-03 0.  1.
         12    1    3    3    0    0 -0.39284252625E+02 -0.20955389336E+01 -0.18160252364E+02  0.43329419032E+02  0.00000000000E+00 0. -1.
</event>
<event>
 7    1  0.2148778E-015  0.9000769E+02  0.7816164E-02  0.1186339E+00
        -11   -1    0    0    0    0  0.00000000000E+00  0.00000000000E+00  0.45593999997E+02  0.45594000000E+02  0.51100000000E-03 0.  1.
         11   -1    0    0    0    0 -0.00000000000E+00 -0.00000000000E+00 -0.45593999997E+02  0.45594000000E+02  0.51100000000E-03 0. -1.
    9900012    2    1    2    0    0 -0.72844362175E+00  0.82202803611E+00 -0.43216802737E+00  0.90007690970E+02  0.89999951691E+02 0.  0.
         12    1    1    2    0    0  0.72844362175E+00 -0.82202803611E+00  0.43216802737E+00  0.11803090299E+01  0.00000000000E+00 0. -1.
         11    1    3    3    0    0 -0.26167474416E+02  0.26965989464E+02 -0.68924939308E+01  0.38202195983E+02  0.51100000000E-03 0. -1.
        -11    1    3    3    0    0 -0.80662260752E+01 -0.37499736511E+01 -0.46013189313E+01  0.10014910966E+02  0.51100000000E-03 0.  1.
        -12    1    3    3    0    0  0.33505256869E+02 -0.22393987777E+02  0.11061644835E+02  0.41790584022E+02  0.00000000000E+00 0.  1.
</event>
<event>
 7    1  0.2148778E-015  0.9000783E+02  0.7816164E-02  0.1186339E+00
        -11   -1    0    0    0    0  0.00000000000E+00  0.00000000000E+00  0.45593999997E+02  0.45594000000E+02  0.51100000000E-03 0.  1.
         11   -1    0    0    0    0 -0.00000000000E+00 -0.00000000000E+00 -0.45593999997E+02  0.45594000000E+02  0.51100000000E-03 0. -1.
    9900012    2    1    2    0    0  0.41592339256E-01  0.45161405326E+00  0.10895496794E+01  0.90007828962E+02  0.90000091504E+02 0.  0.
         12    1    1    2    0    0 -0.41592339256E-01 -0.45161405326E+00 -0.10895496794E+01  0.11801710383E+01  0.00000000000E+00 0. -1.
         11    1    3    3    0    0 -0.68172238208E-01  0.12276224737E+02  0.73555011501E+01  0.14311315057E+02  0.51100000000E-03 0. -1.
        -11    1    3    3    0    0 -0.21985588422E+02  0.21915321855E+02  0.93925156889E+01  0.32432495764E+02  0.51100000000E-03 0.  1.
         12    1    3    3    0    0  0.22095352999E+02 -0.33739932538E+02 -0.15658467160E+02  0.43264018140E+02  0.00000000000E+00 0. -1.
</event>
<event>
 7    1  0.2148778E-015  0.9000775E+02  0.7816164E-02  0.1186339E+00
        -11   -1    0    0    0    0  0.00000000000E+00  0.00000000000E+00  0.45593999997E+02  0.45594000000E+02  0.51100000000E-03 0. -1.
         11   -1    0    0    0    0 -0.00000000000E+00 -0.00000000000E+00 -0.45593999997E+02  0.45594000000E+02  0.51100000000E-03 0.  1.
    9900012    2    1    2    0    0  0.10521757703E+01  0.93355653179E-01 -0.52650150307E+00  0.90007748772E+02  0.90000010255E+02 0.  0.
         12    1    1    2    0    0 -0.10521757703E+01 -0.93355653179E-01  0.52650150307E+00  0.11802512285E+01  0.00000000000E+00 0. -1.
         11    1    3    3    0    0  0.31793424738E+02  0.18833249405E+02  0.14911804903E+02  0.39848150088E+02  0.51100000000E-03 0. -1.
        -11    1    3    3    0    0 -0.32559728260E+01 -0.48394021286E+01  0.90799590619E+01  0.10791979838E+02  0.51100000000E-03 0.  1.
        -12    1    3    3    0    0 -0.27485276142E+02 -0.13900491623E+02 -0.24518265468E+02  0.39367618845E+02  0.00000000000E+00 0.  1.
</event>
<event>
 7    1  0.2148778E-015  0.9000770E+02  0.7816164E-02  0.1186339E+00
        -11   -1    0    0    0    0  0.00000000000E+00  0.00000000000E+00  0.45593999997E+02  0.45594000000E+02  0.51100000000E-03 0.  1.
         11   -1    0    0    0    0 -0.00000000000E+00 -0.00000000000E+00 -0.45593999997E+02  0.45594000000E+02  0.51100000000E-03 0. -1.
    9900012    2    1    2    0    0 -0.61059531611E+00  0.97707833441E+00 -0.25610238823E+00  0.90007704637E+02  0.89999965538E+02 0.  0.
         12    1    1    2    0    0  0.61059531611E+00 -0.97707833441E+00  0.25610238823E+00  0.11802953634E+01  0.00000000000E+00 0. -1.
         11    1    3    3    0    0  0.24487083050E+02 -0.94908828943E+01 -0.58189476102E+01  0.26898963660E+02  0.51100000000E-03 0. -1.
        -11    1    3    3    0    0  0.15300418117E+02 -0.21309246841E+01 -0.95642301714E+01  0.18169153354E+02  0.51100000000E-03 0.  1.
        -12    1    3    3    0    0 -0.40398096484E+02  0.12598885913E+02  0.15127075393E+02  0.44939587623E+02  0.00000000000E+00 0.  1.
</event>
<event>
 7    1  0.2148778E-015  0.9000770E+02  0.7816164E-02  0.1186339E+00
        -11   -1    0    0    0    0  0.00000000000E+00  0.00000000000E+00  0.45593999997E+02  0.45594000000E+02  0.51100000000E-03 0.  1.
         11   -1    0    0    0    0 -0.00000000000E+00 -0.00000000000E+00 -0.45593999997E+02  0.45594000000E+02  0.51100000000E-03 0. -1.
    9900012    2    1    2    0    0 -0.17560210452E+00 -0.44635542249E+00  0.10784459296E+01  0.90007697121E+02  0.89999957923E+02 0.  0.
         12    1    1    2    0    0  0.17560210452E+00  0.44635542249E+00 -0.10784459296E+01  0.11803028787E+01  0.00000000000E+00 0. -1.
         11    1    3    3    0    0  0.16561929624E+01 -0.33789636146E+01 -0.95350730946E+01  0.10250755554E+02  0.51100000000E-03 0. -1.
        -11    1    3    3    0    0  0.14754175109E+02 -0.18947744432E+02  0.35393771199E+02  0.42771739994E+02  0.51100000000E-03 0.  1.
         12    1    3    3    0    0 -0.16585970176E+02  0.21880352624E+02 -0.24780252174E+02  0.36985201574E+02  0.00000000000E+00 0. -1.
</event>
<event>
 7    1  0.2148778E-015  0.9000774E+02  0.7816164E-02  0.1186339E+00
        -11   -1    0    0    0    0  0.00000000000E+00  0.00000000000E+00  0.45593999997E+02  0.45594000000E+02  0.51100000000E-03 0.  1.
         11   -1    0    0    0    0 -0.00000000000E+00 -0.00000000000E+00 -0.45593999997E+02  0.45594000000E+02  0.51100000000E-03 0. -1.
    9900012    2    1    2    0    0  0.81751166145E+00 -0.63166063230E+00  0.57068960359E+00  0.90007742785E+02  0.90000004189E+02 0.  0.
         12    1    1    2    0    0 -0.81751166145E+00  0.63166063230E+00 -0.57068960359E+00  0.11802572155E+01  0.00000000000E+00 0. -1.
         11    1    3    3    0    0 -0.18181190700E+02 -0.21766437769E+02 -0.23859493429E+02  0.37062230577E+02  0.51100000000E-03 0. -1.
        -11    1    3    3    0    0  0.80329215537E+00  0.34129423352E+01 -0.97499746481E+01  0.10361247974E+02  0.51100000000E-03 0.  1.
        -12    1    3    3    0    0  0.18195410206E+02  0.17721834802E+02  0.34180157680E+02  0.42584264234E+02  0.00000000000E+00 0.  1.
</event>
<event>
 7    1  0.2148778E-015  0.9000785E+02  0.7816164E-02  0.1186339E+00
        -11   -1    0    0    0    0  0.00000000000E+00  0.00000000000E+00  0.45593999997E+02  0.45594000000E+02  0.51100000000E-03 0.  1.
         11   -1    0    0    0    0 -0.00000000000E+00 -0.00000000000E+00 -0.45593999997E+02  0.45594000000E+02  0.51100000000E-03 0. -1.
    9900012    2    1    2    0    0  0.52315863193E+00  0.48558039243E+00  0.93983000769E+00  0.90007845894E+02  0.90000108659E+02 0.  0.
         12    1    1    2    0    0 -0.52315863193E+00 -0.48558039243E+00 -0.93983000769E+00  0.11801541065E+01  0.00000000000E+00 0. -1.
         11    1    3    3    0    0  0.25323046162E+02 -0.17812823559E+02 -0.22957194388E+02  0.38543301940E+02  0.51100000000E-03 0. -1.
        -11    1    3    3    0    0 -0.64445932403E+01  0.17606567724E+02 -0.29046298915E+01  0.18972635140E+02  0.51100000000E-03 0.  1.
        -12    1    3    3    0    0 -0.18355294290E+02  0.69183622652E+00  0.26801654287E+02  0.32491908814E+02  0.00000000000E+00 0.  1.
</event>
<event>
 7    1  0.2148778E-015  0.9000790E+02  0.7816164E-02  0.1186339E+00
        -11   -1    0    0    0    0  0.00000000000E+00  0.00000000000E+00  0.45593999997E+02  0.45594000000E+02  0.51100000000E-03 0. -1.
         11   -1    0    0    0    0 -0.00000000000E+00 -0.00000000000E+00 -0.45593999997E+02  0.45594000000E+02  0.51100000000E-03 0.  1.
    9900012    2    1    2    0    0 -0.85094209888E+00  0.74322791140E+00 -0.34081097642E+00  0.90007897333E+02  0.90000160777E+02 0.  0.
         12    1    1    2    0    0  0.85094209888E+00 -0.74322791140E+00  0.34081097642E+00  0.11801026674E+01  0.00000000000E+00 0. -1.
         11    1    3    3    0    0 -0.70968355533E+01  0.31596049295E+01  0.77502761575E+01  0.10973375003E+02  0.51100000000E-03 0. -1.
        -11    1    3    3    0    0  0.14970845477E+02  0.14170923842E+02 -0.38293517264E+02  0.43489478746E+02  0.51100000000E-03 0.  1.
         12    1    3    3    0    0 -0.87249520228E+01 -0.16587300860E+02  0.30202430130E+02  0.35545043584E+02  0.00000000000E+00 0. -1.
</event>
<event>
 7    1  0.2148778E-015  0.9000776E+02  0.7816164E-02  0.1186339E+00
        -11   -1    0    0    0    0  0.00000000000E+00  0.00000000000E+00  0.45593999997E+02  0.45594000000E+02  0.51100000000E-03 0. -1.
         11   -1    0    0    0    0 -0.00000000000E+00 -0.00000000000E+00 -0.45593999997E+02  0.45594000000E+02  0.51100000000E-03 0.  1.
    9900012    2    1    2    0    0 -0.98709362359E+00  0.55155374327E+00 -0.33822318716E+00  0.90007762618E+02  0.90000024285E+02 0.  0.
         12    1    1    2    0    0  0.98709362359E+00 -0.55155374327E+00  0.33822318716E+00  0.11802373820E+01  0.00000000000E+00 0. -1.
         11    1    3    3    0    0  0.59786148293E+01 -0.80081027210E+01 -0.16868311576E+01  0.10135035475E+02  0.51100000000E-03 0. -1.
        -11    1    3    3    0    0 -0.23130578100E+01  0.12984796476E+02 -0.37886021152E+02  0.40116153542E+02  0.51100000000E-03 0.  1.
         12    1    3    3    0    0 -0.46526506430E+01 -0.44251400122E+01  0.39234629123E+02  0.39756573601E+02  0.00000000000E+00 0. -1.
</event>
<event>
 7    1  0.2148778E-015  0.9000766E+02  0.7816164E-02  0.1186339E+00
        -11   -1    0    0    0    0  0.00000000000E+00  0.00000000000E+00  0.45593999997E+02  0.45594000000E+02  0.51100000000E-03 0.  1.
         11   -1    0    0    0    0 -0.00000000000E+00 -0.00000000000E+00 -0.45593999997E+02  0.45594000000E+02  0.51100000000E-03 0. -1.
    9900012    2    1    2    0    0  0.36924540848E+00  0.96257575719E+00  0.57472848484E+00  0.90007658062E+02  0.89999918348E+02 0.  0.
         12    1    1    2    0    0 -0.36924540848E+00 -0.96257575719E+00 -0.57472848484E+00  0.11803419383E+01  0.00000000000E+00 0. -1.
         11    1    3    3    0    0  0.39324267807E+01 -0.11765488074E+02  0.34727296271E+01  0.12882179215E+02  0.51100000000E-03 0. -1.
        -11    1    3    3    0    0  0.13814642522E+02 -0.22410731929E+02  0.18771829383E+02  0.32333679534E+02  0.51100000000E-03 0.  1.
         12    1    3    3    0    0 -0.17377823894E+02  0.35138795759E+02 -0.21669830525E+02  0.44791799313E+02  0.00000000000E+00 0. -1.
</event>
<event>
 7    1  0.2148778E-015  0.9000794E+02  0.7816164E-02  0.1186339E+00
        -11   -1    0    0    0    0  0.00000000000E+00  0.00000000000E+00  0.45593999997E+02  0.45594000000E+02  0.51100000000E-03 0.  1.
         11   -1    0    0    0    0 -0.00000000000E+00 -0.00000000000E+00 -0.45593999997E+02  0.45594000000E+02  0.51100000000E-03 0. -1.
    9900012    2    1    2    0    0 -0.49554203636E-01  0.11698421126E+01 -0.14678170406E+00  0.90007944469E+02  0.90000208536E+02 0.  0.
         12    1    1    2    0    0  0.49554203636E-01 -0.11698421126E+01  0.14678170406E+00  0.11800555310E+01  0.00000000000E+00 0. -1.
         11    1    3    3    0    0  0.46510828549E+01 -0.80062286954E+01  0.15930237514E+01  0.93952112578E+01  0.51100000000E-03 0. -1.
        -11    1    3    3    0    0  0.14029859888E+02  0.75571561554E+01  0.35490953566E+02  0.38904438859E+02  0.51100000000E-03 0.  1.
         12    1    3    3    0    0 -0.18730496946E+02  0.16189146526E+01 -0.37230759021E+02  0.41708294353E+02  0.00000000000E+00 0. -1.
</event>
<event>
 7    1  0.2148778E-015  0.9000765E+02  0.7816164E-02  0.1186339E+00
        -11   -1    0    0    0    0  0.00000000000E+00  0.00000000000E+00  0.45593999997E+02  0.45594000000E+02  0.51100000000E-03 0. -1.
         11   -1    0    0    0    0 -0.00000000000E+00 -0.00000000000E+00 -0.45593999997E+02  0.45594000000E+02  0.51100000000E-03 0.  1.
    9900012    2    1    2    0    0 -0.85970350973E+00  0.16076761661E+00 -0.79264066660E+00  0.90007654467E+02  0.89999914706E+02 0.  0.
         12    1    1    2    0    0  0.85970350973E+00 -0.16076761661E+00  0.79264066660E+00  0.11803455331E+01  0.00000000000E+00 0. -1.
         11    1    3    3    0    0 -0.15357902736E+02 -0.12421090784E+02  0.34592083870E+02  0.39834167990E+02  0.51100000000E-03 0. -1.
        -11    1    3    3    0    0  0.65408288177E+01  0.11090758285E+01  0.44328534262E+01  0.79788896832E+01  0.51100000000E-03 0.  1.
        -12    1    3    3    0    0  0.79573704081E+01  0.11472782572E+02 -0.39817577963E+02  0.42194596794E+02  0.00000000000E+00 0.  1.
</event>
<event>
 7    1  0.3218254E-015  0.9000819E+02  0.7816164E-02  0.1186338E+00
        -11   -1    0    0    0    0  0.00000000000E+00  0.00000000000E+00  0.45593999997E+02  0.45594000000E+02  0.51100000000E-03 0. -1.
         11   -1    0    0    0    0 -0.00000000000E+00 -0.00000000000E+00 -0.45593999997E+02  0.45594000000E+02  0.51100000000E-03 0.  1.
    9900012    2    1    2    0    0  0.62635505436E-01  0.39339432119E+00 -0.11105303713E+01  0.90008186454E+02  0.90000453714E+02 0.  0.
         12    1    1    2    0    0 -0.62635505436E-01 -0.39339432119E+00  0.11105303713E+01  0.11798135463E+01  0.00000000000E+00 0. -1.
         11    1    3    3    0    0  0.80362881625E+01  0.53602866304E+00 -0.56841795255E+01  0.98579486353E+01  0.51100000000E-03 0. -1.
        -11    1    3    3    0    0  0.11379615135E+02 -0.91554545547E+01 -0.33474353991E+02  0.36521916217E+02  0.51100000000E-03 0.  1.
         12    1    3    3    0    0 -0.19353267792E+02  0.90128202129E+01  0.38048003146E+02  0.43628321602E+02  0.00000000000E+00 0. -1.
</event>
<event>
 7    1  0.2148778E-015  0.9000782E+02  0.7816164E-02  0.1186339E+00
        -11   -1    0    0    0    0  0.00000000000E+00  0.00000000000E+00  0.45593999997E+02  0.45594000000E+02  0.51100000000E-03 0.  1.
         11   -1    0    0    0    0 -0.00000000000E+00 -0.00000000000E+00 -0.45593999997E+02  0.45594000000E+02  0.51100000000E-03 0. -1.
    9900012    2    1    2    0    0 -0.50702498291E+00 -0.93606970650E+00  0.50942954316E+00  0.90007822349E+02  0.90000084804E+02 0.  0.
         12    1    1    2    0    0  0.50702498291E+00  0.93606970650E+00 -0.50942954316E+00  0.11801776511E+01  0.00000000000E+00 0. -1.
         11    1    3    3    0    0  0.31600764115E+02  0.24438429896E+02  0.73045811164E+01  0.40610368799E+02  0.51100000000E-03 0. -1.
        -11    1    3    3    0    0 -0.59518122795E+01 -0.10094144903E+01 -0.11846623966E+02  0.13296070347E+02  0.51100000000E-03 0.  1.
        -12    1    3    3    0    0 -0.26155976819E+02 -0.24365085112E+02  0.50514723924E+01  0.36101383203E+02  0.00000000000E+00 0.  1.
</event>
<event>
 7    1  0.2965147E-015  0.9000766E+02  0.7816164E-02  0.1186339E+00
        -11   -1    0    0    0    0  0.00000000000E+00  0.00000000000E+00  0.45593999997E+02  0.45594000000E+02  0.51100000000E-03 0.  1.
         11   -1    0    0    0    0 -0.00000000000E+00 -0.00000000000E+00 -0.45593999997E+02  0.45594000000E+02  0.51100000000E-03 0. -1.
    9900012    2    1    2    0    0  0.73255887510E+00 -0.75889923141E+00  0.52974898601E+00  0.90007659144E+02  0.89999919444E+02 0.  0.
         12    1    1    2    0    0 -0.73255887510E+00  0.75889923141E+00 -0.52974898601E+00  0.11803408563E+01  0.00000000000E+00 0. -1.
         11    1    3    3    0    0 -0.11520268013E+01 -0.35541784074E+01  0.92041797408E+01  0.99335932504E+01  0.51100000000E-03 0. -1.
        -11    1    3    3    0    0 -0.19071185549E+01  0.16069918940E+01  0.35567112848E+02  0.35654439285E+02  0.51100000000E-03 0.  1.
         12    1    3    3    0    0  0.37917042313E+01  0.11882872820E+01 -0.44241543603E+02  0.44419626608E+02  0.00000000000E+00 0. -1.
</event>
<event>
 7    1  0.2148778E-015  0.9000777E+02  0.7816164E-02  0.1186339E+00
        -11   -1    0    0    0    0  0.00000000000E+00  0.00000000000E+00  0.45593999997E+02  0.45594000000E+02  0.51100000000E-03 0.  1.
         11   -1    0    0    0    0 -0.00000000000E+00 -0.00000000000E+00 -0.45593999997E+02  0.45594000000E+02  0.51100000000E-03 0. -1.
    9900012    2    1    2    0    0 -0.63447595414E+00  0.90421301695E+00  0.41568105781E+00  0.90007766270E+02  0.90000027984E+02 0.  0.
         12    1    1    2    0    0  0.63447595414E+00 -0.90421301695E+00 -0.41568105781E+00  0.11802337303E+01  0.00000000000E+00 0. -1.
         11    1    3    3    0    0 -0.26293903765E+01 -0.74785427225E+01 -0.92046234897E+01  0.12147731840E+02  0.51100000000E-03 0. -1.
        -11    1    3    3    0    0 -0.64553589255E+01  0.39231288807E+02  0.19636215630E+02  0.44343507359E+02  0.51100000000E-03 0.  1.
         12    1    3    3    0    0  0.84502733478E+01 -0.30848533068E+02 -0.10015911082E+02  0.33516527071E+02  0.00000000000E+00 0. -1.
</event>
<event>
 7    1  0.2148778E-015  0.9000755E+02  0.7816164E-02  0.1186339E+00
        -11   -1    0    0    0    0  0.00000000000E+00  0.00000000000E+00  0.45593999997E+02  0.45594000000E+02  0.51100000000E-03 0. -1.
         11   -1    0    0    0    0 -0.00000000000E+00 -0.00000000000E+00 -0.45593999997E+02  0.45594000000E+02  0.51100000000E-03 0.  1.
    9900012    2    1    2    0    0 -0.33110273298E+00 -0.43497324968E+00 -0.10462513875E+01  0.90007545548E+02  0.89999804349E+02 0.  0.
         12    1    1    2    0    0  0.33110273298E+00  0.43497324968E+00  0.10462513875E+01  0.11804544521E+01  0.00000000000E+00 0. -1.
         11    1    3    3    0    0 -0.69424088639E+01  0.29464803847E+02 -0.79986807576E+01  0.31310550948E+02  0.51100000000E-03 0. -1.
        -11    1    3    3    0    0  0.82443269102E+01  0.65362156433E+01 -0.13316194338E+02  0.16970918450E+02  0.51100000000E-03 0.  1.
        -12    1    3    3    0    0 -0.16330207793E+01 -0.36435992740E+02  0.20268623708E+02  0.41726076149E+02  0.00000000000E+00 0.  1.
</event>
<event>
 7    1  0.2148778E-015  0.9000775E+02  0.7816164E-02  0.1186339E+00
        -11   -1    0    0    0    0  0.00000000000E+00  0.00000000000E+00  0.45593999997E+02  0.45594000000E+02  0.51100000000E-03 0.  1.
         11   -1    0    0    0    0 -0.00000000000E+00 -0.00000000000E+00 -0.45593999997E+02  0.45594000000E+02  0.51100000000E-03 0. -1.
    9900012    2    1    2    0    0  0.10731904109E+01 -0.40137370086E+00 -0.28309908709E+00  0.90007752738E+02  0.90000014274E+02 0.  0.
         12    1    1    2    0    0 -0.10731904109E+01  0.40137370086E+00  0.28309908709E+00  0.11802472618E+01  0.00000000000E+00 0. -1.
         11    1    3    3    0    0  0.87941399635E+01  0.45652257725E+01 -0.37257139262E+00  0.99154926129E+01  0.51100000000E-03 0. -1.
        -11    1    3    3    0    0  0.85360529531E+01 -0.55614811760E+01  0.37732889856E+02  0.39084079240E+02  0.51100000000E-03 0.  1.
         12    1    3    3    0    0 -0.16257002506E+02  0.59488170269E+00 -0.37643417550E+02  0.41008180886E+02  0.00000000000E+00 0. -1.
</event>
<event>
 7    1  0.2148778E-015  0.9000774E+02  0.7816164E-02  0.1186339E+00
        -11   -1    0    0    0    0  0.00000000000E+00  0.00000000000E+00  0.45593999997E+02  0.45594000000E+02  0.51100000000E-03 0.  1.
         11   -1    0    0    0    0 -0.00000000000E+00 -0.00000000000E+00 -0.45593999997E+02  0.45594000000E+02  0.51100000000E-03 0. -1.
    9900012    2    1    2    0    0 -0.51564330968E+00 -0.10590759600E+01  0.73993929802E-01  0.90007743666E+02  0.90000005083E+02 0.  0.
         12    1    1    2    0    0  0.51564330968E+00  0.10590759600E+01 -0.73993929802E-01  0.11802563338E+01  0.00000000000E+00 0. -1.
         11    1    3    3    0    0  0.65965075179E+01 -0.58683862991E+01  0.19536989707E+01  0.90426107468E+01  0.51100000000E-03 0. -1.
        -11    1    3    3    0    0 -0.11039966882E+02  0.28813664938E+02  0.28529791227E+02  0.42024482669E+02  0.51100000000E-03 0.  1.
         12    1    3    3    0    0  0.39278160539E+01 -0.24004354598E+02 -0.30409496268E+02  0.38940650250E+02  0.00000000000E+00 0. -1.
</event>
<event>
 7    1  0.2148778E-015  0.9000751E+02  0.7816164E-02  0.1186340E+00
        -11   -1    0    0    0    0  0.00000000000E+00  0.00000000000E+00  0.45593999997E+02  0.45594000000E+02  0.51100000000E-03 0. -1.
         11   -1    0    0    0    0 -0.00000000000E+00 -0.00000000000E+00 -0.45593999997E+02  0.45594000000E+02  0.51100000000E-03 0.  1.
    9900012    2    1    2    0    0 -0.73746139068E+00  0.34899222682E-01 -0.92114075986E+00  0.90007505376E+02  0.89999763646E+02 0.  0.
         12    1    1    2    0    0  0.73746139068E+00 -0.34899222682E-01  0.92114075986E+00  0.11804946243E+01  0.00000000000E+00 0. -1.
         11    1    3    3    0    0 -0.47076658906E+01  0.83944966229E+01 -0.24353119247E+01  0.99277608815E+01  0.51100000000E-03 0. -1.
        -11    1    3    3    0    0 -0.40710788796E+01 -0.38449672005E+02  0.20337922711E+02  0.43687321513E+02  0.51100000000E-03 0.  1.
         12    1    3    3    0    0  0.80412833796E+01  0.30090074605E+02 -0.18823751546E+02  0.36392422981E+02  0.00000000000E+00 0. -1.
</event>
<event>
 7    1  0.2148778E-015  0.9000774E+02  0.7816164E-02  0.1186339E+00
        -11   -1    0    0    0    0  0.00000000000E+00  0.00000000000E+00  0.45593999997E+02  0.45594000000E+02  0.51100000000E-03 0.  1.
         11   -1    0    0    0    0 -0.00000000000E+00 -0.00000000000E+00 -0.45593999997E+02  0.45594000000E+02  0.51100000000E-03 0. -1.
    9900012    2    1    2    0    0  0.38316279117E+00 -0.11001652577E+01 -0.18929105856E+00  0.90007742221E+02  0.90000003619E+02 0.  0.
         12    1    1    2    0    0 -0.38316279117E+00  0.11001652577E+01  0.18929105856E+00  0.11802577785E+01  0.00000000000E+00 0. -1.
         11    1    3    3    0    0 -0.68369619196E+01  0.12722054968E+02 -0.36530057120E+02  0.39281545341E+02  0.51100000000E-03 0. -1.
        -11    1    3    3    0    0  0.11839345025E+02  0.50307468357E-01  0.31195608518E+00  0.11843561049E+02  0.51100000000E-03 0.  1.
        -12    1    3    3    0    0 -0.46192203141E+01 -0.13872527694E+02  0.36028809976E+02  0.38882635832E+02  0.00000000000E+00 0.  1.
</event>
<event>
 7    1  0.2148778E-015  0.9000773E+02  0.7816164E-02  0.1186339E+00
        -11   -1    0    0    0    0  0.00000000000E+00  0.00000000000E+00  0.45593999997E+02  0.45594000000E+02  0.51100000000E-03 0.  1.
         11   -1    0    0    0    0 -0.00000000000E+00 -0.00000000000E+00 -0.45593999997E+02  0.45594000000E+02  0.51100000000E-03 0. -1.
    9900012    2    1    2    0    0 -0.40603847819E+00 -0.17284920562E+00  0.10946612975E+01  0.90007734161E+02  0.89999995452E+02 0.  0.
         12    1    1    2    0    0  0.40603847819E+00  0.17284920562E+00 -0.10946612975E+01  0.11802658386E+01  0.00000000000E+00 0. -1.
         11    1    3    3    0    0 -0.18137686760E+02 -0.35607406553E+02  0.17216750436E+02  0.43511832624E+02  0.51100000000E-03 0. -1.
        -11    1    3    3    0    0  0.22270402937E+01  0.25385480114E+01 -0.87641827427E+01  0.93922752240E+01  0.51100000000E-03 0.  1.
        -12    1    3    3    0    0  0.15504607988E+02  0.32896009336E+02 -0.73579063954E+01  0.37103626314E+02  0.00000000000E+00 0.  1.
</event>
<event>
 7    1  0.2148778E-015  0.9000785E+02  0.7816164E-02  0.1186339E+00
        -11   -1    0    0    0    0  0.00000000000E+00  0.00000000000E+00  0.45593999997E+02  0.45594000000E+02  0.51100000000E-03 0.  1.
         11   -1    0    0    0    0 -0.00000000000E+00 -0.00000000000E+00 -0.45593999997E+02  0.45594000000E+02  0.51100000000E-03 0. -1.
    9900012    2    1    2    0    0  0.52185941108E+00 -0.86596642437E+00 -0.60870530649E+00  0.90007848635E+02  0.90000111437E+02 0.  0.
         12    1    1    2    0    0 -0.52185941108E+00  0.86596642437E+00  0.60870530649E+00  0.11801513645E+01  0.00000000000E+00 0. -1.
         11    1    3    3    0    0  0.67900808584E+01 -0.35978697965E+02 -0.10123863030E+02  0.37987688904E+02  0.51100000000E-03 0. -1.
        -11    1    3    3    0    0  0.93334632451E+01 -0.13429881458E+01 -0.38345390408E+01  0.10179432363E+02  0.51100000000E-03 0.  1.
        -12    1    3    3    0    0 -0.15601684692E+02  0.36455719686E+02  0.13349696764E+02  0.41840727369E+02  0.00000000000E+00 0.  1.
</event>
<event>
 7    1  0.2148778E-015  0.9000786E+02  0.7816164E-02  0.1186339E+00
        -11   -1    0    0    0    0  0.00000000000E+00  0.00000000000E+00  0.45593999997E+02  0.45594000000E+02  0.51100000000E-03 0. -1.
         11   -1    0    0    0    0 -0.00000000000E+00 -0.00000000000E+00 -0.45593999997E+02  0.45594000000E+02  0.51100000000E-03 0.  1.
    9900012    2    1    2    0    0  0.24522111274E+00  0.10659917626E+01  0.44301103094E+00  0.90007859921E+02  0.90000122872E+02 0.  0.
         12    1    1    2    0    0 -0.24522111274E+00 -0.10659917626E+01 -0.44301103094E+00  0.11801400788E+01  0.00000000000E+00 0. -1.
         11    1    3    3    0    0  0.35094298952E+01 -0.12417493993E+02  0.26568230025E+02  0.29536098290E+02  0.51100000000E-03 0. -1.
        -11    1    3    3    0    0  0.11949821791E+01 -0.16892554650E+02  0.40622288903E+01  0.17415168355E+02  0.51100000000E-03 0.  1.
        -12    1    3    3    0    0 -0.44591909615E+01  0.30376040406E+02 -0.30187447884E+02  0.43056593276E+02  0.00000000000E+00 0.  1.
</event>
<event>
 7    1  0.2148778E-015  0.9000776E+02  0.7816164E-02  0.1186339E+00
        -11   -1    0    0    0    0  0.00000000000E+00  0.00000000000E+00  0.45593999997E+02  0.45594000000E+02  0.51100000000E-03 0. -1.
         11   -1    0    0    0    0 -0.00000000000E+00 -0.00000000000E+00 -0.45593999997E+02  0.45594000000E+02  0.51100000000E-03 0.  1.
    9900012    2    1    2    0    0 -0.91762553650E+00 -0.51582387535E+00 -0.53371113954E+00  0.90007763381E+02  0.90000025058E+02 0.  0.
         12    1    1    2    0    0  0.91762553650E+00  0.51582387535E+00  0.53371113954E+00  0.11802366187E+01  0.00000000000E+00 0. -1.
         11    1    3    3    0    0  0.19841075995E+02 -0.20539728763E+02 -0.80654682568E+01  0.29674914200E+02  0.51100000000E-03 0. -1.
        -11    1    3    3    0    0  0.11691812354E+02 -0.56320477628E+01 -0.89908903312E+01  0.15787797419E+02  0.51100000000E-03 0.  1.
        -12    1    3    3    0    0 -0.32450513886E+02  0.25655952651E+02  0.16522647448E+02  0.44545051763E+02  0.00000000000E+00 0.  1.
</event>
<event>
 7    1  0.2148778E-015  0.9000775E+02  0.7816164E-02  0.1186339E+00
        -11   -1    0    0    0    0  0.00000000000E+00  0.00000000000E+00  0.45593999997E+02  0.45594000000E+02  0.51100000000E-03 0.  1.
         11   -1    0    0    0    0 -0.00000000000E+00 -0.00000000000E+00 -0.45593999997E+02  0.45594000000E+02  0.51100000000E-03 0. -1.
    9900012    2    1    2    0    0  0.25333554937E+00 -0.10844814022E+01  0.39079622103E+00  0.90007745579E+02  0.90000007020E+02 0.  0.
         12    1    1    2    0    0 -0.25333554937E+00  0.10844814022E+01 -0.39079622103E+00  0.11802544212E+01  0.00000000000E+00 0. -1.
         11    1    3    3    0    0  0.92905483590E+01 -0.12078981103E+02 -0.56815203276E+01  0.16263325207E+02  0.51100000000E-03 0. -1.
        -11    1    3    3    0    0  0.11928372614E+02 -0.21463635138E+02 -0.15938408320E+02  0.29274674492E+02  0.51100000000E-03 0.  1.
        -12    1    3    3    0    0 -0.20965585423E+02  0.32458134839E+02  0.22010724869E+02  0.44469745880E+02  0.00000000000E+00 0.  1.
</event>
<event>
 7    1  0.2148778E-015  0.9000782E+02  0.7816164E-02  0.1186339E+00
        -11   -1    0    0    0    0  0.00000000000E+00  0.00000000000E+00  0.45593999997E+02  0.45594000000E+02  0.51100000000E-03 0. -1.
         11   -1    0    0    0    0 -0.00000000000E+00 -0.00000000000E+00 -0.45593999997E+02  0.45594000000E+02  0.51100000000E-03 0.  1.
    9900012    2    1    2    0    0 -0.47902356500E+00  0.59181328373E+00  0.90172674343E+00  0.90007823039E+02  0.90000085503E+02 0.  0.
         12    1    1    2    0    0  0.47902356500E+00 -0.59181328373E+00 -0.90172674343E+00  0.11801769606E+01  0.00000000000E+00 0. -1.
         11    1    3    3    0    0  0.50692649559E+01  0.23688348940E+01  0.67210094214E+01  0.87453298309E+01  0.51100000000E-03 0. -1.
        -11    1    3    3    0    0  0.89560708448E+01  0.33867529093E+02 -0.19894498453E+02  0.40286620618E+02  0.51100000000E-03 0.  1.
         12    1    3    3    0    0 -0.14504359366E+02 -0.35644550703E+02  0.14075215775E+02  0.40975872591E+02  0.00000000000E+00 0. -1.
</event>
<event>
 7    1  0.2148778E-015  0.9000770E+02  0.7816164E-02  0.1186339E+00
        -11   -1    0    0    0    0  0.00000000000E+00  0.00000000000E+00  0.45593999997E+02  0.45594000000E+02  0.51100000000E-03 0. -1.
         11   -1    0    0    0    0 -0.00000000000E+00 -0.00000000000E+00 -0.45593999997E+02  0.45594000000E+02  0.51100000000E-03 0.  1.
    9900012    2    1    2    0    0 -0.11454925578E+01  0.16055276105E+00 -0.23489453737E+00  0.90007700956E+02  0.89999961809E+02 0.  0.
         12    1    1    2    0    0  0.11454925578E+01 -0.16055276105E+00  0.23489453737E+00  0.11802990438E+01  0.00000000000E+00 0. -1.
         11    1    3    3    0    0 -0.16301247060E+02 -0.72396459516E+01  0.35832816183E+02  0.40026664176E+02  0.51100000000E-03 0. -1.
        -11    1    3    3    0    0  0.64089053399E+01  0.66456233230E+01  0.31789337554E+01  0.97644250772E+01  0.51100000000E-03 0.  1.
        -12    1    3    3    0    0  0.87468491624E+01  0.75457538972E+00 -0.39246644475E+02  0.40216611703E+02  0.00000000000E+00 0.  1.
</event>
<event>
 7    1  0.2148778E-015  0.9000769E+02  0.7816164E-02  0.1186339E+00
        -11   -1    0    0    0    0  0.00000000000E+00  0.00000000000E+00  0.45593999997E+02  0.45594000000E+02  0.51100000000E-03 0.  1.
         11   -1    0    0    0    0 -0.00000000000E+00 -0.00000000000E+00 -0.45593999997E+02  0.45594000000E+02  0.51100000000E-03 0. -1.
    9900012    2    1    2    0    0  0.96491900294E+00  0.46425320104E-01  0.67817004308E+00  0.90007687075E+02  0.89999947745E+02 0.  0.
         12    1    1    2    0    0 -0.96491900294E+00 -0.46425320104E-01 -0.67817004308E+00  0.11803129246E+01  0.00000000000E+00 0. -1.
         11    1    3    3    0    0 -0.86165343467E+01 -0.32232708405E+02 -0.15727121955E+02  0.36885424228E+02  0.51100000000E-03 0. -1.
        -11    1    3    3    0    0 -0.12484371821E+02  0.49195555611E+01 -0.17992227149E+01  0.13538787587E+02  0.51100000000E-03 0.  1.
        -12    1    3    3    0    0  0.22065825170E+02  0.27359578164E+02  0.18204514713E+02  0.39583475260E+02  0.00000000000E+00 0.  1.
</event>
<event>
 7    1  0.2353092E-015  0.9000771E+02  0.7816164E-02  0.1186339E+00
        -11   -1    0    0    0    0  0.00000000000E+00  0.00000000000E+00  0.45593999997E+02  0.45594000000E+02  0.51100000000E-03 0.  1.
         11   -1    0    0    0    0 -0.00000000000E+00 -0.00000000000E+00 -0.45593999997E+02  0.45594000000E+02  0.51100000000E-03 0. -1.
    9900012    2    1    2    0    0  0.86266951814E+00  0.77649704800E-01  0.80178826614E+00  0.90007706563E+02  0.89999967489E+02 0.  0.
         12    1    1    2    0    0 -0.86266951814E+00 -0.77649704800E-01 -0.80178826614E+00  0.11802934372E+01  0.00000000000E+00 0. -1.
         11    1    3    3    0    0 -0.52951001179E+01 -0.27450686151E+01  0.75340915286E+01  0.96091634591E+01  0.51100000000E-03 0. -1.
        -11    1    3    3    0    0  0.19023027282E+02  0.16532293992E+02  0.29971533787E+02  0.39159738883E+02  0.51100000000E-03 0.  1.
         12    1    3    3    0    0 -0.12865257646E+02 -0.13709575672E+02 -0.36703837049E+02  0.41238804221E+02  0.00000000000E+00 0. -1.
</event>
<event>
 7    1  0.2148778E-015  0.9000776E+02  0.7816164E-02  0.1186339E+00
        -11   -1    0    0    0    0  0.00000000000E+00  0.00000000000E+00  0.45593999997E+02  0.45594000000E+02  0.51100000000E-03 0.  1.
         11   -1    0    0    0    0 -0.00000000000E+00 -0.00000000000E+00 -0.45593999997E+02  0.45594000000E+02  0.51100000000E-03 0. -1.
    9900012    2    1    2    0    0  0.94582999470E+00  0.14257852008E+00  0.69140833813E+00  0.90007759133E+02  0.90000020754E+02 0.  0.
         12    1    1    2    0    0 -0.94582999470E+00 -0.14257852008E+00 -0.69140833813E+00  0.11802408666E+01  0.00000000000E+00 0. -1.
         11    1    3    3    0    0  0.11941697007E+02 -0.16618933646E+02 -0.32139968473E+02  0.38102108297E+02  0.51100000000E-03 0. -1.
        -11    1    3    3    0    0  0.28782711108E-01 -0.97191546030E+01  0.22479516168E+01  0.99757747256E+01  0.51100000000E-03 0.  1.
        -12    1    3    3    0    0 -0.11024649723E+02  0.26480666769E+02  0.30583425195E+02  0.41929876111E+02  0.00000000000E+00 0.  1.
</event>
<event>
 7    1  0.2148778E-015  0.9000775E+02  0.7816164E-02  0.1186339E+00
        -11   -1    0    0    0    0  0.00000000000E+00  0.00000000000E+00  0.45593999997E+02  0.45594000000E+02  0.51100000000E-03 0.  1.
         11   -1    0    0    0    0 -0.00000000000E+00 -0.00000000000E+00 -0.45593999997E+02  0.45594000000E+02  0.51100000000E-03 0. -1.
    9900012    2    1    2    0    0  0.63801021457E+00  0.62528053351E+00  0.77133424848E+00  0.90007750322E+02  0.90000011826E+02 0.  0.
         12    1    1    2    0    0 -0.63801021457E+00 -0.62528053351E+00 -0.77133424848E+00  0.11802496780E+01  0.00000000000E+00 0. -1.
         11    1    3    3    0    0  0.26827892512E+01 -0.94731350829E+01  0.31653917749E+00  0.98507788412E+01  0.51100000000E-03 0. -1.
        -11    1    3    3    0    0 -0.40220113250E+02 -0.10673521419E+00 -0.38659205891E+01  0.40405621446E+02  0.51100000000E-03 0.  1.
         12    1    3    3    0    0  0.38175334213E+02  0.10205150831E+02  0.43207156601E+01  0.39751350034E+02  0.00000000000E+00 0. -1.
</event>
<event>
 7    1  0.2148778E-015  0.9000779E+02  0.7816164E-02  0.1186339E+00
        -11   -1    0    0    0    0  0.00000000000E+00  0.00000000000E+00  0.45593999997E+02  0.45594000000E+02  0.51100000000E-03 0. -1.
         11   -1    0    0    0    0 -0.00000000000E+00 -0.00000000000E+00 -0.45593999997E+02  0.45594000000E+02  0.51100000000E-03 0.  1.
    9900012    2    1    2    0    0 -0.87958162607E+00 -0.64889261345E+00 -0.44516904365E+00  0.90007787757E+02  0.90000049756E+02 0.  0.
         12    1    1    2    0    0  0.87958162607E+00  0.64889261345E+00  0.44516904365E+00  0.11802122428E+01  0.00000000000E+00 0. -1.
         11    1    3    3    0    0  0.98327767333E+01 -0.40216728793E+01  0.69173663151E+00  0.10645931188E+02  0.51100000000E-03 0. -1.
        -11    1    3    3    0    0  0.11629218469E+02  0.24690871011E+02 -0.27510496042E+02  0.38751841585E+02  0.51100000000E-03 0.  1.
         12    1    3    3    0    0 -0.22341576828E+02 -0.21318090745E+02  0.26373590367E+02  0.40610014984E+02  0.00000000000E+00 0. -1.
</event>
<event>
 7    1  0.2148778E-015  0.9000783E+02  0.7816164E-02  0.1186339E+00
        -11   -1    0    0    0    0  0.00000000000E+00  0.00000000000E+00  0.45593999997E+02  0.45594000000E+02  0.51100000000E-03 0.  1.
         11   -1    0    0    0    0 -0.00000000000E+00 -0.00000000000E+00 -0.45593999997E+02  0.45594000000E+02  0.51100000000E-03 0. -1.
    9900012    2    1    2    0    0  0.69303924559E+00 -0.81879272263E+00  0.49200801601E+00  0.90007831874E+02  0.90000094454E+02 0.  0.
         12    1    1    2    0    0 -0.69303924559E+00  0.81879272263E+00 -0.49200801601E+00  0.11801681263E+01  0.00000000000E+00 0. -1.
         11    1    3    3    0    0  0.24458539909E+02  0.25976943794E+02  0.46127836031E+01  0.35976374973E+02  0.51100000000E-03 0. -1.
        -11    1    3    3    0    0  0.22281380454E+01  0.90503839329E+01  0.13427335381E+01  0.94168456554E+01  0.51100000000E-03 0.  1.
        -12    1    3    3    0    0 -0.25993638708E+02 -0.35846120450E+02 -0.54635091251E+01  0.44614611245E+02  0.00000000000E+00 0.  1.
</event>
<event>
 7    1  0.2148778E-015  0.9000780E+02  0.7816164E-02  0.1186339E+00
        -11   -1    0    0    0    0  0.00000000000E+00  0.00000000000E+00  0.45593999997E+02  0.45594000000E+02  0.51100000000E-03 0. -1.
         11   -1    0    0    0    0 -0.00000000000E+00 -0.00000000000E+00 -0.45593999997E+02  0.45594000000E+02  0.51100000000E-03 0.  1.
    9900012    2    1    2    0    0 -0.55746604439E+00  0.39064742916E+00 -0.96410642634E+00  0.90007798743E+02  0.90000060887E+02 0.  0.
         12    1    1    2    0    0  0.55746604439E+00 -0.39064742916E+00  0.96410642634E+00  0.11802012565E+01  0.00000000000E+00 0. -1.
         11    1    3    3    0    0  0.33598242548E+02  0.11049082151E+02  0.15682407566E+02  0.38689301183E+02  0.51100000000E-03 0. -1.
        -11    1    3    3    0    0  0.14385064145E+01  0.67339415562E+01 -0.83850016573E+01  0.10850047126E+02  0.51100000000E-03 0.  1.
        -12    1    3    3    0    0 -0.35594215006E+02 -0.17392376278E+02 -0.82615123352E+01  0.40468450435E+02  0.00000000000E+00 0.  1.
</event>
<event>
 7    1  0.2148778E-015  0.9000773E+02  0.7816164E-02  0.1186339E+00
        -11   -1    0    0    0    0  0.00000000000E+00  0.00000000000E+00  0.45593999997E+02  0.45594000000E+02  0.51100000000E-03 0. -1.
         11   -1    0    0    0    0 -0.00000000000E+00 -0.00000000000E+00 -0.45593999997E+02  0.45594000000E+02  0.51100000000E-03 0.  1.
    9900012    2    1    2    0    0  0.82185519116E+00  0.12936747214E-01 -0.84700511906E+00  0.90007732663E+02  0.89999993934E+02 0.  0.
         12    1    1    2    0    0 -0.82185519116E+00 -0.12936747214E-01  0.84700511906E+00  0.11802673368E+01  0.00000000000E+00 0. -1.
         11    1    3    3    0    0 -0.21055482591E+02  0.56327080876E+01 -0.81488559597E+01  0.23269391940E+02  0.51100000000E-03 0. -1.
        -11    1    3    3    0    0  0.12328783451E+02 -0.15929995937E+02 -0.24649454630E+02  0.31833304663E+02  0.51100000000E-03 0.  1.
         12    1    3    3    0    0  0.95485543315E+01  0.10310224597E+02  0.31951305471E+02  0.34905036060E+02  0.00000000000E+00 0. -1.
</event>
<event>
 7    1  0.2148778E-015  0.9000772E+02  0.7816164E-02  0.1186339E+00
        -11   -1    0    0    0    0  0.00000000000E+00  0.00000000000E+00  0.45593999997E+02  0.45594000000E+02  0.51100000000E-03 0.  1.
         11   -1    0    0    0    0 -0.00000000000E+00 -0.00000000000E+00 -0.45593999997E+02  0.45594000000E+02  0.51100000000E-03 0. -1.
    9900012    2    1    2    0    0  0.81581020800E+00  0.75868636190E+00 -0.38974847938E+00  0.90007722419E+02  0.89999983555E+02 0.  0.
         12    1    1    2    0    0 -0.81581020800E+00 -0.75868636190E+00  0.38974847938E+00  0.11802775811E+01  0.00000000000E+00 0. -1.
         11    1    3    3    0    0  0.53596556632E+01  0.33578892113E+01  0.14050803825E+01  0.64788563748E+01  0.51100000000E-03 0. -1.
        -11    1    3    3    0    0  0.31072539111E+02  0.21675092760E+02  0.93239404726E+01  0.39015999271E+02  0.51100000000E-03 0.  1.
         12    1    3    3    0    0 -0.35616384566E+02 -0.24274295609E+02 -0.11118769334E+02  0.44512866773E+02  0.00000000000E+00 0. -1.
</event>
<event>
 7    1  0.2148778E-015  0.9000750E+02  0.7816164E-02  0.1186340E+00
        -11   -1    0    0    0    0  0.00000000000E+00  0.00000000000E+00  0.45593999997E+02  0.45594000000E+02  0.51100000000E-03 0.  1.
         11   -1    0    0    0    0 -0.00000000000E+00 -0.00000000000E+00 -0.45593999997E+02  0.45594000000E+02  0.51100000000E-03 0. -1.
    9900012    2    1    2    0    0 -0.72934849134E+00  0.36615181914E+00  0.85297434585E+00  0.90007499423E+02  0.89999757616E+02 0.  0.
         12    1    1    2    0    0  0.72934849134E+00 -0.36615181914E+00 -0.85297434585E+00  0.11805005765E+01  0.00000000000E+00 0. -1.
         11    1    3    3    0    0  0.54875647587E+01  0.82888489069E+01 -0.23920548217E+01  0.10224495573E+02  0.51100000000E-03 0. -1.
        -11    1    3    3    0    0  0.48985147650E+01  0.27878037569E+02  0.23843936557E+02  0.37009643829E+02  0.51100000000E-03 0.  1.
         12    1    3    3    0    0 -0.11115428015E+02 -0.35800734656E+02 -0.20598907389E+02  0.42773360022E+02  0.00000000000E+00 0. -1.
</event>
<event>
 7    1  0.2148778E-015  0.9000765E+02  0.7816164E-02  0.1186339E+00
        -11   -1    0    0    0    0  0.00000000000E+00  0.00000000000E+00  0.45593999997E+02  0.45594000000E+02  0.51100000000E-03 0.  1.
         11   -1    0    0    0    0 -0.00000000000E+00 -0.00000000000E+00 -0.45593999997E+02  0.45594000000E+02  0.51100000000E-03 0. -1.
    9900012    2    1    2    0    0 -0.64103949295E+00 -0.37303613259E+00  0.91822513204E+00  0.90007650484E+02  0.89999910670E+02 0.  0.
         12    1    1    2    0    0  0.64103949295E+00  0.37303613259E+00 -0.91822513204E+00  0.11803495164E+01  0.00000000000E+00 0. -1.
         11    1    3    3    0    0 -0.36542937988E+02 -0.73952379402E+01  0.11479615065E+02  0.39010991058E+02  0.51100000000E-03 0. -1.
        -11    1    3    3    0    0 -0.46440721091E+01 -0.23031633539E+01  0.43840968856E+01  0.67891290275E+01  0.51100000000E-03 0.  1.
        -12    1    3    3    0    0  0.40545970604E+02  0.93253651615E+01 -0.14945486819E+02  0.44207530398E+02  0.00000000000E+00 0.  1.
</event>
<event>
 7    1  0.2148778E-015  0.9000777E+02  0.7816164E-02  0.1186339E+00
        -11   -1    0    0    0    0  0.00000000000E+00  0.00000000000E+00  0.45593999997E+02  0.45594000000E+02  0.51100000000E-03 0.  1.
         11   -1    0    0    0    0 -0.00000000000E+00 -0.00000000000E+00 -0.45593999997E+02  0.45594000000E+02  0.51100000000E-03 0. -1.
    9900012    2    1    2    0    0  0.65404089617E-01  0.57292507857E+00  0.10297709491E+01  0.90007767375E+02  0.90000029105E+02 0.  0.
         12    1    1    2    0    0 -0.65404089617E-01 -0.57292507857E+00 -0.10297709491E+01  0.11802326246E+01  0.00000000000E+00 0. -1.
         11    1    3    3    0    0  0.21958662857E+00 -0.41273285641E+02  0.13910837026E+02  0.43555065295E+02  0.51100000000E-03 0. -1.
        -11    1    3    3    0    0  0.52086247585E+01  0.51532003857E+01 -0.38892568798E+01  0.82952736802E+01  0.51100000000E-03 0.  1.
        -12    1    3    3    0    0 -0.53628072975E+01  0.36693010334E+02 -0.89918091972E+01  0.38157428400E+02  0.00000000000E+00 0.  1.
</event>
<event>
 7    1  0.2148778E-015  0.9000785E+02  0.7816164E-02  0.1186339E+00
        -11   -1    0    0    0    0  0.00000000000E+00  0.00000000000E+00  0.45593999997E+02  0.45594000000E+02  0.51100000000E-03 0. -1.
         11   -1    0    0    0    0 -0.00000000000E+00 -0.00000000000E+00 -0.45593999997E+02  0.45594000000E+02  0.51100000000E-03 0.  1.
    9900012    2    1    2    0    0 -0.16371639470E+00 -0.92845601864E+00 -0.70987727320E+00  0.90007847730E+02  0.90000110520E+02 0.  0.
         12    1    1    2    0    0  0.16371639470E+00  0.92845601864E+00  0.70987727320E+00  0.11801522696E+01  0.00000000000E+00 0. -1.
         11    1    3    3    0    0 -0.32370682710E+02  0.16731597380E+02 -0.13813703831E+02  0.38969550469E+02  0.51100000000E-03 0. -1.
        -11    1    3    3    0    0 -0.58001357073E+01 -0.83551487107E+01  0.20258300191E+01  0.10370827919E+02  0.51100000000E-03 0.  1.
        -12    1    3    3    0    0  0.38007102022E+02 -0.93049046880E+01  0.11077996538E+02  0.40667469342E+02  0.00000000000E+00 0.  1.
</event>
<event>
 7    1  0.2148778E-015  0.9000778E+02  0.7816164E-02  0.1186339E+00
        -11   -1    0    0    0    0  0.00000000000E+00  0.00000000000E+00  0.45593999997E+02  0.45594000000E+02  0.51100000000E-03 0. -1.
         11   -1    0    0    0    0 -0.00000000000E+00 -0.00000000000E+00 -0.45593999997E+02  0.45594000000E+02  0.51100000000E-03 0.  1.
    9900012    2    1    2    0    0 -0.11521821863E+01  0.25568857185E+00  0.50779270747E-02  0.90007777046E+02  0.90000038903E+02 0.  0.
         12    1    1    2    0    0  0.11521821863E+01 -0.25568857185E+00 -0.50779270747E-02  0.11802229542E+01  0.00000000000E+00 0. -1.
         11    1    3    3    0    0 -0.80724118437E+00  0.87010947988E+01 -0.57866016228E+01  0.10480717897E+02  0.51100000000E-03 0. -1.
        -11    1    3    3    0    0  0.43079344891E+01  0.29012622917E+02 -0.18465024317E+02  0.34659020635E+02  0.51100000000E-03 0.  1.
         12    1    3    3    0    0 -0.46528754910E+01 -0.37458029144E+02  0.24256703866E+02  0.44868038515E+02  0.00000000000E+00 0. -1.
</event>
<event>
 7    1  0.2148778E-015  0.9000784E+02  0.7816164E-02  0.1186339E+00
        -11   -1    0    0    0    0  0.00000000000E+00  0.00000000000E+00  0.45593999997E+02  0.45594000000E+02  0.51100000000E-03 0.  1.
         11   -1    0    0    0    0 -0.00000000000E+00 -0.00000000000E+00 -0.45593999997E+02  0.45594000000E+02  0.51100000000E-03 0. -1.
    9900012    2    1    2    0    0  0.93936546566E+00  0.64471265116E+00  0.30777144571E+00  0.90007836815E+02  0.90000099461E+02 0.  0.
         12    1    1    2    0    0 -0.93936546566E+00 -0.64471265116E+00 -0.30777144571E+00  0.11801631851E+01  0.00000000000E+00 0. -1.
         11    1    3    3    0    0  0.23021143721E+02 -0.19320924532E+02 -0.16554163673E+02  0.34311973394E+02  0.51100000000E-03 0. -1.
        -11    1    3    3    0    0  0.80910095756E+01 -0.74615126999E+01 -0.12532466784E+01  0.11077420062E+02  0.51100000000E-03 0.  1.
        -12    1    3    3    0    0 -0.30172787831E+02  0.27427149883E+02  0.18115181797E+02  0.44618443359E+02  0.00000000000E+00 0.  1.
</event>
<event>
 7    1  0.2148778E-015  0.9000773E+02  0.7816164E-02  0.1186339E+00
        -11   -1    0    0    0    0  0.00000000000E+00  0.00000000000E+00  0.45593999997E+02  0.45594000000E+02  0.51100000000E-03 0. -1.
         11   -1    0    0    0    0 -0.00000000000E+00 -0.00000000000E+00 -0.45593999997E+02  0.45594000000E+02  0.51100000000E-03 0.  1.
    9900012    2    1    2    0    0 -0.79253981757E+00 -0.78121410156E+00  0.39323265384E+00  0.90007725983E+02  0.89999987166E+02 0.  0.
         12    1    1    2    0    0  0.79253981757E+00  0.78121410156E+00 -0.39323265384E+00  0.11802740169E+01  0.00000000000E+00 0. -1.
         11    1    3    3    0    0  0.41077902855E+02 -0.30023813264E+01  0.11259998004E+02  0.42698898720E+02  0.51100000000E-03 0. -1.
        -11    1    3    3    0    0 -0.57331807624E+01  0.67915770958E+01 -0.55997576147E+01  0.10504863955E+02  0.51100000000E-03 0.  1.
        -12    1    3    3    0    0 -0.36137261910E+02 -0.45704098709E+01 -0.52670077353E+01  0.36803963309E+02  0.00000000000E+00 0.  1.
</event>
<event>
 7    1  0.2148778E-015  0.9000791E+02  0.7816164E-02  0.1186339E+00
        -11   -1    0    0    0    0  0.00000000000E+00  0.00000000000E+00  0.45593999997E+02  0.45594000000E+02  0.51100000000E-03 0.  1.
         11   -1    0    0    0    0 -0.00000000000E+00 -0.00000000000E+00 -0.45593999997E+02  0.45594000000E+02  0.51100000000E-03 0. -1.
    9900012    2    1    2    0    0  0.10886250603E+01  0.40375945543E+00 -0.21093540764E+00  0.90007906798E+02  0.90000170367E+02 0.  0.
         12    1    1    2    0    0 -0.10886250603E+01 -0.40375945543E+00  0.21093540764E+00  0.11800932022E+01  0.00000000000E+00 0. -1.
         11    1    3    3    0    0 -0.85842576843E+00  0.33714065287E+02 -0.10691993386E+02  0.35379285123E+02  0.51100000000E-03 0. -1.
        -11    1    3    3    0    0 -0.48578184861E+01  0.89780802071E+01 -0.10755869127E+01  0.10264560980E+02  0.51100000000E-03 0.  1.
        -12    1    3    3    0    0  0.68048693149E+01 -0.42288386039E+02  0.11556644891E+02  0.44364060694E+02  0.00000000000E+00 0.  1.
</event>
<event>
 7    1  0.2148778E-015  0.9000777E+02  0.7816164E-02  0.1186339E+00
        -11   -1    0    0    0    0  0.00000000000E+00  0.00000000000E+00  0.45593999997E+02  0.45594000000E+02  0.51100000000E-03 0. -1.
         11   -1    0    0    0    0 -0.00000000000E+00 -0.00000000000E+00 -0.45593999997E+02  0.45594000000E+02  0.51100000000E-03 0.  1.
    9900012    2    1    2    0    0 -0.37936523780E+00  0.92468083228E+00  0.62769119692E+00  0.90007767453E+02  0.90000029184E+02 0.  0.
         12    1    1    2    0    0  0.37936523780E+00 -0.92468083228E+00 -0.62769119692E+00  0.11802325466E+01  0.00000000000E+00 0. -1.
         11    1    3    3    0    0  0.23385279825E+01  0.65941228967E+01  0.30584938648E+01  0.76358074154E+01  0.51100000000E-03 0. -1.
        -11    1    3    3    0    0 -0.10616815659E+02  0.21979099292E+02 -0.32579695172E+02  0.40709140474E+02  0.51100000000E-03 0.  1.
         12    1    3    3    0    0  0.78989224383E+01 -0.27648541356E+02  0.30148892504E+02  0.41662819564E+02  0.00000000000E+00 0. -1.
</event>
<event>
 7    1  0.2148778E-015  0.9000862E+02  0.7816164E-02  0.1186337E+00
        -11   -1    0    0    0    0  0.00000000000E+00  0.00000000000E+00  0.45593999997E+02  0.45594000000E+02  0.51100000000E-03 0.  1.
         11   -1    0    0    0    0 -0.00000000000E+00 -0.00000000000E+00 -0.45593999997E+02  0.45594000000E+02  0.51100000000E-03 0. -1.
    9900012    2    1    2    0    0 -0.86334036557E+00 -0.75759418314E+00  0.26762000659E+00  0.90008624741E+02  0.90000897783E+02 0.  0.
         12    1    1    2    0    0  0.86334036557E+00  0.75759418314E+00 -0.26762000659E+00  0.11793752588E+01  0.00000000000E+00 0. -1.
         11    1    3    3    0    0  0.27887342356E+02  0.42628468628E+01 -0.23903088932E+02  0.36976119155E+02  0.51100000000E-03 0. -1.
        -11    1    3    3    0    0  0.80211428093E+01  0.36001849148E+01  0.13239268891E+01  0.88911667433E+01  0.51100000000E-03 0.  1.
        -12    1    3    3    0    0 -0.36771825531E+02 -0.86206259607E+01  0.22846782049E+02  0.44141338843E+02  0.00000000000E+00 0.  1.
</event>
<event>
 7    1  0.2148778E-015  0.9000762E+02  0.7816164E-02  0.1186339E+00
        -11   -1    0    0    0    0  0.00000000000E+00  0.00000000000E+00  0.45593999997E+02  0.45594000000E+02  0.51100000000E-03 0.  1.
         11   -1    0    0    0    0 -0.00000000000E+00 -0.00000000000E+00 -0.45593999997E+02  0.45594000000E+02  0.51100000000E-03 0. -1.
    9900012    2    1    2    0    0 -0.23708908747E+00 -0.10467297464E+01 -0.49137702922E+00  0.90007616256E+02  0.89999875991E+02 0.  0.
         12    1    1    2    0    0  0.23708908747E+00  0.10467297464E+01  0.49137702922E+00  0.11803837436E+01  0.00000000000E+00 0. -1.
         11    1    3    3    0    0  0.39842755775E+01 -0.77014772450E+01 -0.14734605468E+01  0.87953561540E+01  0.51100000000E-03 0. -1.
        -11    1    3    3    0    0 -0.25646095014E+02  0.15602729336E+02  0.31072822960E+02  0.43205181161E+02  0.51100000000E-03 0.  1.
         12    1    3    3    0    0  0.21424730349E+02 -0.89479818373E+01 -0.30090739442E+02  0.38007078942E+02  0.00000000000E+00 0. -1.
</event>
<event>
 7    1  0.2148778E-015  0.9000801E+02  0.7816164E-02  0.1186339E+00
        -11   -1    0    0    0    0  0.00000000000E+00  0.00000000000E+00  0.45593999997E+02  0.45594000000E+02  0.51100000000E-03 0.  1.
         11   -1    0    0    0    0 -0.00000000000E+00 -0.00000000000E+00 -0.45593999997E+02  0.45594000000E+02  0.51100000000E-03 0. -1.
    9900012    2    1    2    0    0 -0.11516962597E+01  0.15737698450E+00  0.20299608150E+00  0.90008008814E+02  0.90000273730E+02 0.  0.
         12    1    1    2    0    0  0.11516962597E+01 -0.15737698450E+00 -0.20299608150E+00  0.11799911859E+01  0.00000000000E+00 0. -1.
         11    1    3    3    0    0  0.31314806195E+01  0.38312294371E+02 -0.14163275042E+02  0.40966284077E+02  0.51100000000E-03 0. -1.
        -11    1    3    3    0    0  0.68456925038E+01 -0.55182210007E+01 -0.43475221305E+01  0.98089356102E+01  0.51100000000E-03 0.  1.
        -12    1    3    3    0    0 -0.11128869383E+02 -0.32636696386E+02  0.18713793254E+02  0.39232789127E+02  0.00000000000E+00 0.  1.
</event>
<event>
 7    1  0.2148778E-015  0.9000772E+02  0.7816164E-02  0.1186339E+00
        -11   -1    0    0    0    0  0.00000000000E+00  0.00000000000E+00  0.45593999997E+02  0.45594000000E+02  0.51100000000E-03 0. -1.
         11   -1    0    0    0    0 -0.00000000000E+00 -0.00000000000E+00 -0.45593999997E+02  0.45594000000E+02  0.51100000000E-03 0.  1.
    9900012    2    1    2    0    0  0.31606637077E+00  0.13500554077E+00 -0.11291312491E+01  0.90007719599E+02  0.89999980698E+02 0.  0.
         12    1    1    2    0    0 -0.31606637077E+00 -0.13500554077E+00  0.11291312491E+01  0.11802804008E+01  0.00000000000E+00 0. -1.
         11    1    3    3    0    0 -0.23867886840E+02  0.32061323123E+02  0.88600740998E+01  0.40940265948E+02  0.51100000000E-03 0. -1.
        -11    1    3    3    0    0  0.74131958328E+01 -0.36165988783E+01  0.80645099713E+01  0.11535665618E+02  0.51100000000E-03 0.  1.
        -12    1    3    3    0    0  0.16770757378E+02 -0.28309718704E+02 -0.18053715320E+02  0.37531788033E+02  0.00000000000E+00 0.  1.
</event>
<event>
 7    1  0.2148778E-015  0.9000772E+02  0.7816164E-02  0.1186339E+00
        -11   -1    0    0    0    0  0.00000000000E+00  0.00000000000E+00  0.45593999997E+02  0.45594000000E+02  0.51100000000E-03 0.  1.
         11   -1    0    0    0    0 -0.00000000000E+00 -0.00000000000E+00 -0.45593999997E+02  0.45594000000E+02  0.51100000000E-03 0. -1.
    9900012    2    1    2    0    0  0.82953181423E+00 -0.60386471866E+00 -0.58333222691E+00  0.90007723712E+02  0.89999984865E+02 0.  0.
         12    1    1    2    0    0 -0.82953181423E+00  0.60386471866E+00  0.58333222691E+00  0.11802762881E+01  0.00000000000E+00 0. -1.
         11    1    3    3    0    0  0.81077945617E+01  0.54255892304E+01  0.64333636955E+00  0.97768723576E+01  0.51100000000E-03 0. -1.
        -11    1    3    3    0    0 -0.35444808443E+02  0.76862487082E+01  0.20915638800E+02  0.41867371681E+02  0.51100000000E-03 0.  1.
         12    1    3    3    0    0  0.28166545696E+02 -0.13715702657E+02 -0.22142307396E+02  0.38363479673E+02  0.00000000000E+00 0. -1.
</event>
<event>
 7    1  0.2148778E-015  0.9000776E+02  0.7816164E-02  0.1186339E+00
        -11   -1    0    0    0    0  0.00000000000E+00  0.00000000000E+00  0.45593999997E+02  0.45594000000E+02  0.51100000000E-03 0.  1.
         11   -1    0    0    0    0 -0.00000000000E+00 -0.00000000000E+00 -0.45593999997E+02  0.45594000000E+02  0.51100000000E-03 0. -1.
    9900012    2    1    2    0    0  0.89681913799E+00  0.75665099464E+00  0.12716944078E+00  0.90007755381E+02  0.90000016952E+02 0.  0.
         12    1    1    2    0    0 -0.89681913799E+00 -0.75665099464E+00 -0.12716944078E+00  0.11802446190E+01  0.00000000000E+00 0. -1.
         11    1    3    3    0    0 -0.33787071146E+02  0.24989052496E+02  0.53216928291E+01  0.42359642775E+02  0.51100000000E-03 0. -1.
        -11    1    3    3    0    0  0.90908248723E+01  0.24796827480E+01  0.27394886236E+01  0.98130892979E+01  0.51100000000E-03 0.  1.
        -12    1    3    3    0    0  0.25593065411E+02 -0.26712084249E+02 -0.79340120119E+01  0.37835023308E+02  0.00000000000E+00 0.  1.
</event>
<event>
 7    1  0.2148778E-015  0.9000777E+02  0.7816164E-02  0.1186339E+00
        -11   -1    0    0    0    0  0.00000000000E+00  0.00000000000E+00  0.45593999997E+02  0.45594000000E+02  0.51100000000E-03 0.  1.
         11   -1    0    0    0    0 -0.00000000000E+00 -0.00000000000E+00 -0.45593999997E+02  0.45594000000E+02  0.51100000000E-03 0. -1.
    9900012    2    1    2    0    0 -0.17640470160E+00 -0.78045338915E+00  0.86759093336E+00  0.90007771150E+02  0.90000032929E+02 0.  0.
         12    1    1    2    0    0  0.17640470160E+00  0.78045338915E+00 -0.86759093336E+00  0.11802288503E+01  0.00000000000E+00 0. -1.
         11    1    3    3    0    0 -0.51204268161E+01  0.61242619983E+00  0.76673231024E+01  0.92402208008E+01  0.51100000000E-03 0. -1.
        -11    1    3    3    0    0 -0.45682513085E+01 -0.20671134308E+01  0.36290229368E+02  0.36634991822E+02  0.51100000000E-03 0.  1.
         12    1    3    3    0    0  0.95122734229E+01  0.67423384178E+00 -0.43089961537E+02  0.44132558527E+02  0.00000000000E+00 0. -1.
</event>
<event>
 7    1  0.2148778E-015  0.9000779E+02  0.7816164E-02  0.1186339E+00
        -11   -1    0    0    0    0  0.00000000000E+00  0.00000000000E+00  0.45593999997E+02  0.45594000000E+02  0.51100000000E-03 0. -1.
         11   -1    0    0    0    0 -0.00000000000E+00 -0.00000000000E+00 -0.45593999997E+02  0.45594000000E+02  0.51100000000E-03 0.  1.
    9900012    2    1    2    0    0  0.55515438157E+00  0.75930342787E+00  0.71284519068E+00  0.90007793938E+02  0.90000056018E+02 0.  0.
         12    1    1    2    0    0 -0.55515438157E+00 -0.75930342787E+00 -0.71284519068E+00  0.11802060620E+01  0.00000000000E+00 0. -1.
         11    1    3    3    0    0  0.30205869449E+02  0.21726530788E+02 -0.43519168739E+01  0.37461658665E+02  0.51100000000E-03 0. -1.
        -11    1    3    3    0    0  0.34497571505E+01  0.63693727928E+01  0.62985542297E+01  0.95990374421E+01  0.51100000000E-03 0.  1.
        -12    1    3    3    0    0 -0.33100472218E+02 -0.27336600153E+02 -0.12337921651E+01  0.42947097830E+02  0.00000000000E+00 0.  1.
</event>
<event>
 7    1  0.2148778E-015  0.9000779E+02  0.7816164E-02  0.1186339E+00
        -11   -1    0    0    0    0  0.00000000000E+00  0.00000000000E+00  0.45593999997E+02  0.45594000000E+02  0.51100000000E-03 0.  1.
         11   -1    0    0    0    0 -0.00000000000E+00 -0.00000000000E+00 -0.45593999997E+02  0.45594000000E+02  0.51100000000E-03 0. -1.
    9900012    2    1    2    0    0 -0.10254954639E+01 -0.19210816654E+00 -0.55168307371E+00  0.90007787855E+02  0.90000049854E+02 0.  0.
         12    1    1    2    0    0  0.10254954639E+01  0.19210816654E+00  0.55168307371E+00  0.11802121453E+01  0.00000000000E+00 0. -1.
         11    1    3    3    0    0 -0.26310517372E+02 -0.19582315353E+02 -0.19951958544E+02  0.38389986311E+02  0.51100000000E-03 0. -1.
        -11    1    3    3    0    0 -0.44063936238E+01 -0.66046511348E+01  0.59647581759E+01  0.99305620052E+01  0.51100000000E-03 0.  1.
        -12    1    3    3    0    0  0.29691415532E+02  0.25994858321E+02  0.13435517294E+02  0.41687239539E+02  0.00000000000E+00 0.  1.
</event>
<event>
 7    1  0.2148778E-015  0.9000771E+02  0.7816164E-02  0.1186339E+00
        -11   -1    0    0    0    0  0.00000000000E+00  0.00000000000E+00  0.45593999997E+02  0.45594000000E+02  0.51100000000E-03 0.  1.
         11   -1    0    0    0    0 -0.00000000000E+00 -0.00000000000E+00 -0.45593999997E+02  0.45594000000E+02  0.51100000000E-03 0. -1.
    9900012    2    1    2    0    0 -0.11585362999E+01 -0.84326814477E-02  0.22539450313E+00  0.90007711836E+02  0.89999972832E+02 0.  0.
         12    1    1    2    0    0  0.11585362999E+01  0.84326814477E-02 -0.22539450313E+00  0.11802881641E+01  0.00000000000E+00 0. -1.
         11    1    3    3    0    0  0.34835921389E+02 -0.69007143377E+01 -0.16545990850E+02  0.39178196626E+02  0.51100000000E-03 0. -1.
        -11    1    3    3    0    0  0.19062760943E+01 -0.64493762318E+01  0.65090402049E+01  0.93592706434E+01  0.51100000000E-03 0.  1.
        -12    1    3    3    0    0 -0.37900733783E+02  0.13341657888E+02  0.10262345149E+02  0.41470244567E+02  0.00000000000E+00 0.  1.
</event>
<event>
 7    1  0.2148778E-015  0.9000752E+02  0.7816164E-02  0.1186339E+00
        -11   -1    0    0    0    0  0.00000000000E+00  0.00000000000E+00  0.45593999997E+02  0.45594000000E+02  0.51100000000E-03 0.  1.
         11   -1    0    0    0    0 -0.00000000000E+00 -0.00000000000E+00 -0.45593999997E+02  0.45594000000E+02  0.51100000000E-03 0. -1.
    9900012    2    1    2    0    0 -0.88771793448E+00 -0.79883989388E-01  0.77402352938E+00  0.90007518316E+02  0.89999776757E+02 0.  0.
         12    1    1    2    0    0  0.88771793448E+00  0.79883989388E-01 -0.77402352938E+00  0.11804816843E+01  0.00000000000E+00 0. -1.
         11    1    3    3    0    0 -0.25695678048E+01 -0.12028627786E+02  0.17813849238E+01  0.12428350559E+02  0.51100000000E-03 0. -1.
        -11    1    3    3    0    0 -0.58929235368E+01 -0.29122398995E+02  0.14458432840E+02  0.33043712738E+02  0.51100000000E-03 0.  1.
         12    1    3    3    0    0  0.75747734071E+01  0.41071142792E+02 -0.15465794235E+02  0.44535455018E+02  0.00000000000E+00 0. -1.
</event>
<event>
 7    1  0.2148778E-015  0.9000762E+02  0.7816164E-02  0.1186339E+00
        -11   -1    0    0    0    0  0.00000000000E+00  0.00000000000E+00  0.45593999997E+02  0.45594000000E+02  0.51100000000E-03 0.  1.
         11   -1    0    0    0    0 -0.00000000000E+00 -0.00000000000E+00 -0.45593999997E+02  0.45594000000E+02  0.51100000000E-03 0. -1.
    9900012    2    1    2    0    0 -0.28803780693E+00  0.90830320957E+00  0.69664148466E+00  0.90007623002E+02  0.89999882826E+02 0.  0.
         12    1    1    2    0    0  0.28803780693E+00 -0.90830320957E+00 -0.69664148466E+00  0.11803769978E+01  0.00000000000E+00 0. -1.
         11    1    3    3    0    0  0.75884635047E+00 -0.88716374125E+01 -0.54964907170E+01  0.10463900259E+02  0.51100000000E-03 0. -1.
        -11    1    3    3    0    0  0.30615938008E+02 -0.16460976868E+02  0.14372872373E+02  0.37614875782E+02  0.51100000000E-03 0.  1.
         12    1    3    3    0    0 -0.31662822166E+02  0.26240917490E+02 -0.81797401714E+01  0.41928846961E+02  0.00000000000E+00 0. -1.
</event>
<event>
 7    1  0.2148778E-015  0.9000778E+02  0.7816164E-02  0.1186339E+00
        -11   -1    0    0    0    0  0.00000000000E+00  0.00000000000E+00  0.45593999997E+02  0.45594000000E+02  0.51100000000E-03 0.  1.
         11   -1    0    0    0    0 -0.00000000000E+00 -0.00000000000E+00 -0.45593999997E+02  0.45594000000E+02  0.51100000000E-03 0. -1.
    9900012    2    1    2    0    0 -0.59305692878E+00 -0.14331208639E+00  0.10102843773E+01  0.90007775700E+02  0.90000037539E+02 0.  0.
         12    1    1    2    0    0  0.59305692878E+00  0.14331208639E+00 -0.10102843773E+01  0.11802242998E+01  0.00000000000E+00 0. -1.
         11    1    3    3    0    0 -0.32819508937E+02  0.64454184099E+01 -0.22123845940E+02  0.40101473100E+02  0.51100000000E-03 0. -1.
        -11    1    3    3    0    0  0.21624609791E+01  0.83293131825E+01 -0.86199157656E+00  0.86485100057E+01  0.51100000000E-03 0.  1.
        -12    1    3    3    0    0  0.30063991029E+02 -0.14918043679E+02  0.23996121894E+02  0.41257792594E+02  0.00000000000E+00 0.  1.
</event>
<event>
 7    1  0.2148778E-015  0.9000786E+02  0.7816164E-02  0.1186339E+00
        -11   -1    0    0    0    0  0.00000000000E+00  0.00000000000E+00  0.45593999997E+02  0.45594000000E+02  0.51100000000E-03 0.  1.
         11   -1    0    0    0    0 -0.00000000000E+00 -0.00000000000E+00 -0.45593999997E+02  0.45594000000E+02  0.51100000000E-03 0. -1.
    9900012    2    1    2    0    0  0.10281316663E+01 -0.23106410620E+00 -0.53131351297E+00  0.90007856198E+02  0.90000119100E+02 0.  0.
         12    1    1    2    0    0 -0.10281316663E+01  0.23106410620E+00  0.53131351297E+00  0.11801438021E+01  0.00000000000E+00 0. -1.
         11    1    3    3    0    0 -0.23205673815E+02 -0.27333509399E+02 -0.37467450585E+01  0.36050827065E+02  0.51100000000E-03 0. -1.
        -11    1    3    3    0    0 -0.81662172348E+01 -0.34836292427E+01 -0.19873626355E+01  0.90979331242E+01  0.51100000000E-03 0.  1.
        -12    1    3    3    0    0  0.32400022716E+02  0.30586074535E+02  0.52027941810E+01  0.44859096009E+02  0.00000000000E+00 0.  1.
</event>
<event>
 7    1  0.2605991E-015  0.9000774E+02  0.7816164E-02  0.1186339E+00
        -11   -1    0    0    0    0  0.00000000000E+00  0.00000000000E+00  0.45593999997E+02  0.45594000000E+02  0.51100000000E-03 0.  1.
         11   -1    0    0    0    0 -0.00000000000E+00 -0.00000000000E+00 -0.45593999997E+02  0.45594000000E+02  0.51100000000E-03 0. -1.
    9900012    2    1    2    0    0  0.26938463584E+00 -0.11175173285E+01  0.26760128940E+00  0.90007735830E+02  0.89999997143E+02 0.  0.
         12    1    1    2    0    0 -0.26938463584E+00  0.11175173285E+01 -0.26760128940E+00  0.11802641702E+01  0.00000000000E+00 0. -1.
         11    1    3    3    0    0 -0.54746757795E+00  0.87171597097E+01  0.30221928472E+01  0.92424154862E+01  0.51100000000E-03 0. -1.
        -11    1    3    3    0    0 -0.46259847519E+01 -0.21826594949E+02  0.34592934169E+02  0.41163953608E+02  0.51100000000E-03 0.  1.
         12    1    3    3    0    0  0.54428369657E+01  0.11991917911E+02 -0.37347525726E+02  0.39601366735E+02  0.00000000000E+00 0. -1.
</event>
<event>
 7    1  0.2148778E-015  0.9000776E+02  0.7816164E-02  0.1186339E+00
        -11   -1    0    0    0    0  0.00000000000E+00  0.00000000000E+00  0.45593999997E+02  0.45594000000E+02  0.51100000000E-03 0. -1.
         11   -1    0    0    0    0 -0.00000000000E+00 -0.00000000000E+00 -0.45593999997E+02  0.45594000000E+02  0.51100000000E-03 0.  1.
    9900012    2    1    2    0    0  0.15571380999E+00 -0.14781908499E+00 -0.11605440490E+01  0.90007762836E+02  0.90000024506E+02 0.  0.
         12    1    1    2    0    0 -0.15571380999E+00  0.14781908499E+00  0.11605440490E+01  0.11802371635E+01  0.00000000000E+00 0. -1.
         11    1    3    3    0    0 -0.38575313820E+01  0.39513940003E+02 -0.15914019106E+01  0.39733670397E+02  0.51100000000E-03 0. -1.
        -11    1    3    3    0    0  0.54422332097E+01  0.11055713525E+01  0.70220905403E+01  0.89526502300E+01  0.51100000000E-03 0.  1.
        -12    1    3    3    0    0 -0.14289880177E+01 -0.40767330441E+02 -0.65912326787E+01  0.41321442209E+02  0.00000000000E+00 0.  1.
</event>
<event>
 7    1  0.2148778E-015  0.9000766E+02  0.7816164E-02  0.1186339E+00
        -11   -1    0    0    0    0  0.00000000000E+00  0.00000000000E+00  0.45593999997E+02  0.45594000000E+02  0.51100000000E-03 0. -1.
         11   -1    0    0    0    0 -0.00000000000E+00 -0.00000000000E+00 -0.45593999997E+02  0.45594000000E+02  0.51100000000E-03 0.  1.
    9900012    2    1    2    0    0 -0.48315395780E+00 -0.67392211908E+00 -0.83999974983E+00  0.90007657529E+02  0.89999917808E+02 0.  0.
         12    1    1    2    0    0  0.48315395780E+00  0.67392211908E+00  0.83999974983E+00  0.11803424712E+01  0.00000000000E+00 0. -1.
         11    1    3    3    0    0 -0.67529917522E+01  0.23467326399E+01 -0.13320441828E+01  0.72721656785E+01  0.51100000000E-03 0. -1.
        -11    1    3    3    0    0  0.88320714179E+01 -0.35444779712E+02 -0.22502030404E+02  0.42903138195E+02  0.51100000000E-03 0.  1.
         12    1    3    3    0    0 -0.25622336235E+01  0.32424124953E+02  0.22994074837E+02  0.39832353656E+02  0.00000000000E+00 0. -1.
</event>
<event>
 7    1  0.2148778E-015  0.9000684E+02  0.7816164E-02  0.1186341E+00
        -11   -1    0    0    0    0  0.00000000000E+00  0.00000000000E+00  0.45593999997E+02  0.45594000000E+02  0.51100000000E-03 0.  1.
         11   -1    0    0    0    0 -0.00000000000E+00 -0.00000000000E+00 -0.45593999997E+02  0.45594000000E+02  0.51100000000E-03 0. -1.
    9900012    2    1    2    0    0 -0.11823425133E+00  0.11208751705E+01 -0.35327093518E+00  0.90006839198E+02  0.89999088671E+02 0.  0.
         12    1    1    2    0    0  0.11823425133E+00 -0.11208751705E+01  0.35327093518E+00  0.11811608018E+01  0.00000000000E+00 0. -1.
         11    1    3    3    0    0  0.89730904015E+01  0.27355649633E+01 -0.11591261117E+01  0.94521553429E+01  0.51100000000E-03 0. -1.
        -11    1    3    3    0    0  0.82389408144E+01  0.33819887739E+02  0.15966382282E+02  0.38296087474E+02  0.51100000000E-03 0.  1.
         12    1    3    3    0    0 -0.17330265467E+02 -0.35434577531E+02 -0.15160527105E+02  0.42258596381E+02  0.00000000000E+00 0. -1.
</event>
<event>
 7    1  0.2148778E-015  0.9000769E+02  0.7816164E-02  0.1186339E+00
        -11   -1    0    0    0    0  0.00000000000E+00  0.00000000000E+00  0.45593999997E+02  0.45594000000E+02  0.51100000000E-03 0. -1.
         11   -1    0    0    0    0 -0.00000000000E+00 -0.00000000000E+00 -0.45593999997E+02  0.45594000000E+02  0.51100000000E-03 0.  1.
    9900012    2    1    2    0    0  0.90617303546E+00  0.17418757702E+00 -0.73596248371E+00  0.90007690015E+02  0.89999950724E+02 0.  0.
         12    1    1    2    0    0 -0.90617303546E+00 -0.17418757702E+00  0.73596248371E+00  0.11803099845E+01  0.00000000000E+00 0. -1.
         11    1    3    3    0    0 -0.30020321166E+02  0.23237948672E+01  0.10632125827E+02  0.31932143764E+02  0.51100000000E-03 0. -1.
        -11    1    3    3    0    0 -0.76769726486E+01 -0.48936499637E+01 -0.16688914829E+02  0.19010618018E+02  0.51100000000E-03 0.  1.
        -12    1    3    3    0    0  0.38603466850E+02  0.27440426735E+01  0.53208265180E+01  0.39064928233E+02  0.00000000000E+00 0.  1.
</event>
<event>
 7    1  0.2148778E-015  0.9000753E+02  0.7816164E-02  0.1186339E+00
        -11   -1    0    0    0    0  0.00000000000E+00  0.00000000000E+00  0.45593999997E+02  0.45594000000E+02  0.51100000000E-03 0. -1.
         11   -1    0    0    0    0 -0.00000000000E+00 -0.00000000000E+00 -0.45593999997E+02  0.45594000000E+02  0.51100000000E-03 0.  1.
    9900012    2    1    2    0    0  0.41581004299E+00  0.88939442321E+00 -0.65543062482E+00  0.90007529867E+02  0.89999788461E+02 0.  0.
         12    1    1    2    0    0 -0.41581004299E+00 -0.88939442321E+00  0.65543062482E+00  0.11804701334E+01  0.00000000000E+00 0. -1.
         11    1    3    3    0    0  0.17845221990E+01  0.75406565157E+01 -0.87237395220E+01  0.11668318288E+02  0.51100000000E-03 0. -1.
        -11    1    3    3    0    0  0.15395149058E+01  0.23559042129E+02 -0.24360266585E+02  0.33923755107E+02  0.51100000000E-03 0.  1.
         12    1    3    3    0    0 -0.29082270618E+01 -0.30210304221E+02  0.32428575482E+02  0.44415456472E+02  0.00000000000E+00 0. -1.
</event>
<event>
 7    1  0.2148778E-015  0.9000773E+02  0.7816164E-02  0.1186339E+00
        -11   -1    0    0    0    0  0.00000000000E+00  0.00000000000E+00  0.45593999997E+02  0.45594000000E+02  0.51100000000E-03 0. -1.
         11   -1    0    0    0    0 -0.00000000000E+00 -0.00000000000E+00 -0.45593999997E+02  0.45594000000E+02  0.51100000000E-03 0.  1.
    9900012    2    1    2    0    0 -0.10085849600E+01 -0.25787467803E-01 -0.61246888280E+00  0.90007734459E+02  0.89999995754E+02 0.  0.
         12    1    1    2    0    0  0.10085849600E+01  0.25787467803E-01  0.61246888280E+00  0.11802655411E+01  0.00000000000E+00 0. -1.
         11    1    3    3    0    0  0.19026602417E+02  0.56436297178E+01  0.23076401348E+02  0.30436531592E+02  0.51100000000E-03 0. -1.
        -11    1    3    3    0    0 -0.16507955061E+02  0.16756135834E+02  0.39001330574E+01  0.23843064117E+02  0.51100000000E-03 0.  1.
        -12    1    3    3    0    0 -0.35272323158E+01 -0.22425553020E+02 -0.27589003288E+02  0.35728138749E+02  0.00000000000E+00 0.  1.
</event>
<event>
 7    1  0.2148778E-015  0.9000774E+02  0.7816164E-02  0.1186339E+00
        -11   -1    0    0    0    0  0.00000000000E+00  0.00000000000E+00  0.45593999997E+02  0.45594000000E+02  0.51100000000E-03 0.  1.
         11   -1    0    0    0    0 -0.00000000000E+00 -0.00000000000E+00 -0.45593999997E+02  0.45594000000E+02  0.51100000000E-03 0. -1.
    9900012    2    1    2    0    0  0.77265630939E+00 -0.70256487725E+00  0.54991561881E+00  0.90007744787E+02  0.90000006219E+02 0.  0.
         12    1    1    2    0    0 -0.77265630939E+00  0.70256487725E+00 -0.54991561881E+00  0.11802552127E+01  0.00000000000E+00 0. -1.
         11    1    3    3    0    0  0.83882482534E+01  0.12365597180E+01 -0.32158058940E+01  0.90682521197E+01  0.51100000000E-03 0. -1.
        -11    1    3    3    0    0  0.22709317029E+02 -0.31055717681E+02 -0.18966190016E+01  0.38519707222E+02  0.51100000000E-03 0.  1.
         12    1    3    3    0    0 -0.30324908973E+02  0.29116593086E+02  0.56623405144E+01  0.42419785445E+02  0.00000000000E+00 0. -1.
</event>
<event>
 7    1  0.2148778E-015  0.9000773E+02  0.7816164E-02  0.1186339E+00
        -11   -1    0    0    0    0  0.00000000000E+00  0.00000000000E+00  0.45593999997E+02  0.45594000000E+02  0.51100000000E-03 0.  1.
         11   -1    0    0    0    0 -0.00000000000E+00 -0.00000000000E+00 -0.45593999997E+02  0.45594000000E+02  0.51100000000E-03 0. -1.
    9900012    2    1    2    0    0  0.83658609444E+00  0.78505737299E+00  0.27722250209E+00  0.90007727282E+02  0.89999988483E+02 0.  0.
         12    1    1    2    0    0 -0.83658609444E+00 -0.78505737299E+00 -0.27722250209E+00  0.11802727176E+01  0.00000000000E+00 0. -1.
         11    1    3    3    0    0  0.46592571743E+01  0.26896226939E+01  0.33785526554E+01  0.63527447579E+01  0.51100000000E-03 0. -1.
        -11    1    3    3    0    0 -0.50444737651E+01 -0.19214232843E+02  0.35865172596E+02  0.40999317859E+02  0.51100000000E-03 0.  1.
         12    1    3    3    0    0  0.12218026852E+01  0.17309667523E+02 -0.38966502749E+02  0.42655664665E+02  0.00000000000E+00 0. -1.
</event>
<event>
 7    1  0.2148778E-015  0.9000819E+02  0.7816164E-02  0.1186338E+00
        -11   -1    0    0    0    0  0.00000000000E+00  0.00000000000E+00  0.45593999997E+02  0.45594000000E+02  0.51100000000E-03 0. -1.
         11   -1    0    0    0    0 -0.00000000000E+00 -0.00000000000E+00 -0.45593999997E+02  0.45594000000E+02  0.51100000000E-03 0.  1.
    9900012    2    1    2    0    0 -0.10695654883E+01 -0.41461249079E+00 -0.27580397287E+00  0.90008194218E+02  0.90000461581E+02 0.  0.
         12    1    1    2    0    0  0.10695654883E+01  0.41461249079E+00  0.27580397287E+00  0.11798057818E+01  0.00000000000E+00 0. -1.
         11    1    3    3    0    0 -0.68429973056E+01  0.92737026031E+01 -0.11798427421E+01  0.11585344244E+02  0.51100000000E-03 0. -1.
        -11    1    3    3    0    0 -0.32886731833E+02 -0.19490851142E+02  0.38991449629E+01  0.38426992344E+02  0.51100000000E-03 0.  1.
         12    1    3    3    0    0  0.38660163650E+02  0.98025360485E+01 -0.29951061937E+01  0.39995857630E+02  0.00000000000E+00 0. -1.
</event>
<event>
 7    1  0.2148778E-015  0.9000780E+02  0.7816164E-02  0.1186339E+00
        -11   -1    0    0    0    0  0.00000000000E+00  0.00000000000E+00  0.45593999997E+02  0.45594000000E+02  0.51100000000E-03 0.  1.
         11   -1    0    0    0    0 -0.00000000000E+00 -0.00000000000E+00 -0.45593999997E+02  0.45594000000E+02  0.51100000000E-03 0. -1.
    9900012    2    1    2    0    0 -0.97635492183E+00  0.65674882300E+00  0.91080095732E-01  0.90007795131E+02  0.90000057226E+02 0.  0.
         12    1    1    2    0    0  0.97635492183E+00 -0.65674882300E+00 -0.91080095732E-01  0.11802048694E+01  0.00000000000E+00 0. -1.
         11    1    3    3    0    0  0.41553244796E+01 -0.22002147667E+01  0.80076197639E+01  0.92859916592E+01  0.51100000000E-03 0. -1.
        -11    1    3    3    0    0  0.14129170355E+02 -0.28241327451E+02  0.17571295589E+02  0.36138019592E+02  0.51100000000E-03 0.  1.
         12    1    3    3    0    0 -0.19260849756E+02  0.31098291040E+02 -0.25487835257E+02  0.44583783880E+02  0.00000000000E+00 0. -1.
</event>
<event>
 7    1  0.2148778E-015  0.9000779E+02  0.7816164E-02  0.1186339E+00
        -11   -1    0    0    0    0  0.00000000000E+00  0.00000000000E+00  0.45593999997E+02  0.45594000000E+02  0.51100000000E-03 0.  1.
         11   -1    0    0    0    0 -0.00000000000E+00 -0.00000000000E+00 -0.45593999997E+02  0.45594000000E+02  0.51100000000E-03 0. -1.
    9900012    2    1    2    0    0 -0.10900083694E+01 -0.40483780035E+00 -0.20221465172E+00  0.90007787030E+02  0.90000049018E+02 0.  0.
         12    1    1    2    0    0  0.10900083694E+01  0.40483780035E+00  0.20221465172E+00  0.11802129703E+01  0.00000000000E+00 0. -1.
         11    1    3    3    0    0  0.76559043227E+01 -0.21837772438E+01  0.47230016036E+01  0.92568082219E+01  0.51100000000E-03 0. -1.
        -11    1    3    3    0    0 -0.25390946941E+02  0.22793096230E+02  0.23691383850E+02  0.41539223528E+02  0.51100000000E-03 0.  1.
         12    1    3    3    0    0  0.16645034249E+02 -0.21014156786E+02 -0.28616600105E+02  0.39211755280E+02  0.00000000000E+00 0. -1.
</event>
<event>
 7    1  0.2148778E-015  0.9000776E+02  0.7816164E-02  0.1186339E+00
        -11   -1    0    0    0    0  0.00000000000E+00  0.00000000000E+00  0.45593999997E+02  0.45594000000E+02  0.51100000000E-03 0.  1.
         11   -1    0    0    0    0 -0.00000000000E+00 -0.00000000000E+00 -0.45593999997E+02  0.45594000000E+02  0.51100000000E-03 0. -1.
    9900012    2    1    2    0    0 -0.39588454059E+00  0.10523394037E+01  0.35893041287E+00  0.90007756876E+02  0.90000018467E+02 0.  0.
         12    1    1    2    0    0  0.39588454059E+00 -0.10523394037E+01 -0.35893041287E+00  0.11802431238E+01  0.00000000000E+00 0. -1.
         11    1    3    3    0    0 -0.19590230110E+02 -0.30985574060E+02 -0.15986608962E+02  0.39993181693E+02  0.51100000000E-03 0. -1.
        -11    1    3    3    0    0  0.97406303427E+01  0.19342485688E+01 -0.57675637286E+01  0.11484162513E+02  0.51100000000E-03 0.  1.
        -12    1    3    3    0    0  0.94537152267E+01  0.30103664895E+02  0.22113103103E+02  0.38530412670E+02  0.00000000000E+00 0.  1.
</event>
<event>
 7    1  0.2148778E-015  0.9000757E+02  0.7816164E-02  0.1186339E+00
        -11   -1    0    0    0    0  0.00000000000E+00  0.00000000000E+00  0.45593999997E+02  0.45594000000E+02  0.51100000000E-03 0.  1.
         11   -1    0    0    0    0 -0.00000000000E+00 -0.00000000000E+00 -0.45593999997E+02  0.45594000000E+02  0.51100000000E-03 0. -1.
    9900012    2    1    2    0    0  0.90304290196E+00  0.54488599171E+00 -0.53011406367E+00  0.90007572896E+02  0.89999832058E+02 0.  0.
         12    1    1    2    0    0 -0.90304290196E+00 -0.54488599171E+00  0.53011406367E+00  0.11804271037E+01  0.00000000000E+00 0. -1.
         11    1    3    3    0    0 -0.88905143643E+01 -0.84071024588E+00 -0.22004584521E+01  0.91972853082E+01  0.51100000000E-03 0. -1.
        -11    1    3    3    0    0 -0.29506275162E+02  0.12519302326E+02  0.18069386086E+02  0.36794781130E+02  0.51100000000E-03 0.  1.
         12    1    3    3    0    0  0.39299832428E+02 -0.11133706088E+02 -0.16399041697E+02  0.44015506458E+02  0.00000000000E+00 0. -1.
</event>
<event>
 7    1  0.2148778E-015  0.9000775E+02  0.7816164E-02  0.1186339E+00
        -11   -1    0    0    0    0  0.00000000000E+00  0.00000000000E+00  0.45593999997E+02  0.45594000000E+02  0.51100000000E-03 0.  1.
         11   -1    0    0    0    0 -0.00000000000E+00 -0.00000000000E+00 -0.45593999997E+02  0.45594000000E+02  0.51100000000E-03 0. -1.
    9900012    2    1    2    0    0  0.92970846964E+00  0.12885774529E+00  0.71556401084E+00  0.90007748327E+02  0.90000009805E+02 0.  0.
         12    1    1    2    0    0 -0.92970846964E+00 -0.12885774529E+00 -0.71556401084E+00  0.11802516726E+01  0.00000000000E+00 0. -1.
         11    1    3    3    0    0  0.17814943967E+02 -0.36683258874E+01 -0.15600829941E+02  0.23962778187E+02  0.51100000000E-03 0. -1.
        -11    1    3    3    0    0  0.43891250255E+01  0.20787714517E+02 -0.13886632462E+02  0.25381726788E+02  0.51100000000E-03 0.  1.
        -12    1    3    3    0    0 -0.21274360523E+02 -0.16990530884E+02  0.30203026414E+02  0.40663243352E+02  0.00000000000E+00 0.  1.
</event>
<event>
 7    1  0.2148778E-015  0.9000765E+02  0.7816164E-02  0.1186339E+00
        -11   -1    0    0    0    0  0.00000000000E+00  0.00000000000E+00  0.45593999997E+02  0.45594000000E+02  0.51100000000E-03 0.  1.
         11   -1    0    0    0    0 -0.00000000000E+00 -0.00000000000E+00 -0.45593999997E+02  0.45594000000E+02  0.51100000000E-03 0. -1.
    9900012    2    1    2    0    0 -0.11016347415E+01  0.20904273734E+00  0.36868658926E+00  0.90007649302E+02  0.89999909473E+02 0.  0.
         12    1    1    2    0    0  0.11016347415E+01 -0.20904273734E+00 -0.36868658926E+00  0.11803506982E+01  0.00000000000E+00 0. -1.
         11    1    3    3    0    0 -0.21132236595E+02 -0.14259986416E+02 -0.22575464304E+02  0.34052462831E+02  0.51100000000E-03 0. -1.
        -11    1    3    3    0    0 -0.93913906120E+01 -0.29268433228E+01 -0.56918481145E+01  0.11364935754E+02  0.51100000000E-03 0.  1.
        -12    1    3    3    0    0  0.29421992465E+02  0.17395872476E+02  0.28635999008E+02  0.44590250717E+02  0.00000000000E+00 0.  1.
</event>
<event>
 7    1  0.2148778E-015  0.9000781E+02  0.7816164E-02  0.1186339E+00
        -11   -1    0    0    0    0  0.00000000000E+00  0.00000000000E+00  0.45593999997E+02  0.45594000000E+02  0.51100000000E-03 0. -1.
         11   -1    0    0    0    0 -0.00000000000E+00 -0.00000000000E+00 -0.45593999997E+02  0.45594000000E+02  0.51100000000E-03 0.  1.
    9900012    2    1    2    0    0  0.15258013458E+00  0.87683972852E+00  0.77506484877E+00  0.90007807589E+02  0.90000069849E+02 0.  0.
         12    1    1    2    0    0 -0.15258013458E+00 -0.87683972852E+00 -0.77506484877E+00  0.11801924109E+01  0.00000000000E+00 0. -1.
         11    1    3    3    0    0  0.67951836852E+01  0.29425057739E+01 -0.34969188918E+01  0.81890966255E+01  0.51100000000E-03 0. -1.
        -11    1    3    3    0    0  0.33062960241E+02  0.16969952309E+02 -0.25928394954E+01  0.37254012376E+02  0.51100000000E-03 0.  1.
         12    1    3    3    0    0 -0.39705563791E+02 -0.19035618354E+02  0.68648232360E+01  0.44564698587E+02  0.00000000000E+00 0. -1.
</event>
<event>
 7    1  0.2148778E-015  0.9000778E+02  0.7816164E-02  0.1186339E+00
        -11   -1    0    0    0    0  0.00000000000E+00  0.00000000000E+00  0.45593999997E+02  0.45594000000E+02  0.51100000000E-03 0.  1.
         11   -1    0    0    0    0 -0.00000000000E+00 -0.00000000000E+00 -0.45593999997E+02  0.45594000000E+02  0.51100000000E-03 0. -1.
    9900012    2    1    2    0    0 -0.74053575416E+00 -0.91551764015E-01 -0.91440347003E+00  0.90007784497E+02  0.90000046452E+02 0.  0.
         12    1    1    2    0    0  0.74053575416E+00  0.91551764015E-01  0.91440347003E+00  0.11802155035E+01  0.00000000000E+00 0. -1.
         11    1    3    3    0    0  0.33273382517E+02  0.60841952760E+01 -0.26528334803E+02  0.42987067404E+02  0.51100000000E-03 0. -1.
        -11    1    3    3    0    0 -0.10991964905E+02  0.62696586689E+01  0.46242816904E+01  0.13472783443E+02  0.51100000000E-03 0.  1.
        -12    1    3    3    0    0 -0.23021953366E+02 -0.12445405709E+02  0.20989649642E+02  0.33547933650E+02  0.00000000000E+00 0.  1.
</event>
<event>
 7    1  0.2148778E-015  0.9000774E+02  0.7816164E-02  0.1186339E+00
        -11   -1    0    0    0    0  0.00000000000E+00  0.00000000000E+00  0.45593999997E+02  0.45594000000E+02  0.51100000000E-03 0.  1.
         11   -1    0    0    0    0 -0.00000000000E+00 -0.00000000000E+00 -0.45593999997E+02  0.45594000000E+02  0.51100000000E-03 0. -1.
    9900012    2    1    2    0    0 -0.15329308668E+00 -0.11519805718E+01 -0.20603856232E+00  0.90007741597E+02  0.90000002986E+02 0.  0.
         12    1    1    2    0    0  0.15329308668E+00  0.11519805718E+01  0.20603856232E+00  0.11802584028E+01  0.00000000000E+00 0. -1.
         11    1    3    3    0    0 -0.17195355891E+02 -0.24731272541E+02 -0.15383166234E+02  0.33822446827E+02  0.51100000000E-03 0. -1.
        -11    1    3    3    0    0  0.17847261599E+01 -0.65967576925E+01 -0.11322291666E+02  0.13224853434E+02  0.51100000000E-03 0.  1.
        -12    1    3    3    0    0  0.15257336644E+02  0.30176049661E+02  0.26499419337E+02  0.42960441337E+02  0.00000000000E+00 0.  1.
</event>
<event>
 7    1  0.2148778E-015  0.9000794E+02  0.7816164E-02  0.1186339E+00
        -11   -1    0    0    0    0  0.00000000000E+00  0.00000000000E+00  0.45593999997E+02  0.45594000000E+02  0.51100000000E-03 0. -1.
         11   -1    0    0    0    0 -0.00000000000E+00 -0.00000000000E+00 -0.45593999997E+02  0.45594000000E+02  0.51100000000E-03 0.  1.
    9900012    2    1    2    0    0  0.74030634719E+00  0.17928988951E+00  0.90130318373E+00  0.90007938230E+02  0.90000202214E+02 0.  0.
         12    1    1    2    0    0 -0.74030634719E+00 -0.17928988951E+00 -0.90130318373E+00  0.11800617701E+01  0.00000000000E+00 0. -1.
         11    1    3    3    0    0 -0.40300715908E+01  0.29862131722E+02  0.28107868613E+02  0.41207288994E+02  0.51100000000E-03 0. -1.
        -11    1    3    3    0    0 -0.90579095201E+01 -0.17445344364E+01 -0.47073387847E+01  0.10356068944E+02  0.51100000000E-03 0.  1.
        -12    1    3    3    0    0  0.13828287458E+02 -0.27938307396E+02 -0.22499226645E+02  0.38444580292E+02  0.00000000000E+00 0.  1.
</event>
<event>
 7    1  0.2148778E-015  0.9000768E+02  0.7816164E-02  0.1186339E+00
        -11   -1    0    0    0    0  0.00000000000E+00  0.00000000000E+00  0.45593999997E+02  0.45594000000E+02  0.51100000000E-03 0.  1.
         11   -1    0    0    0    0 -0.00000000000E+00 -0.00000000000E+00 -0.45593999997E+02  0.45594000000E+02  0.51100000000E-03 0. -1.
    9900012    2    1    2    0    0  0.57434624436E+00 -0.72118120500E+00  0.73699984810E+00  0.90007684485E+02  0.89999945120E+02 0.  0.
         12    1    1    2    0    0 -0.57434624436E+00  0.72118120500E+00 -0.73699984810E+00  0.11803155150E+01  0.00000000000E+00 0. -1.
         11    1    3    3    0    0 -0.35112408034E+01  0.16229057309E+01 -0.88315925236E+01  0.96415590936E+01  0.51100000000E-03 0. -1.
        -11    1    3    3    0    0  0.22572238742E+02  0.20489063507E+02  0.31400134219E+02  0.43763867682E+02  0.51100000000E-03 0.  1.
         12    1    3    3    0    0 -0.18486651694E+02 -0.22833150443E+02 -0.21831541847E+02  0.36602257710E+02  0.00000000000E+00 0. -1.
</event>
<event>
 7    1  0.2148778E-015  0.9000786E+02  0.7816164E-02  0.1186339E+00
        -11   -1    0    0    0    0  0.00000000000E+00  0.00000000000E+00  0.45593999997E+02  0.45594000000E+02  0.51100000000E-03 0. -1.
         11   -1    0    0    0    0 -0.00000000000E+00 -0.00000000000E+00 -0.45593999997E+02  0.45594000000E+02  0.51100000000E-03 0.  1.
    9900012    2    1    2    0    0  0.26544329565E+00 -0.99147936833E+00 -0.58243254676E+00  0.90007864774E+02  0.90000127789E+02 0.  0.
         12    1    1    2    0    0 -0.26544329565E+00  0.99147936833E+00  0.58243254676E+00  0.11801352264E+01  0.00000000000E+00 0. -1.
         11    1    3    3    0    0 -0.12329104733E+01 -0.26250825161E+01 -0.90639807867E+01  0.95166629873E+01  0.51100000000E-03 0. -1.
        -11    1    3    3    0    0 -0.10499422373E+02 -0.33789709387E+02 -0.12598754140E+02  0.37559432061E+02  0.51100000000E-03 0.  1.
         12    1    3    3    0    0  0.11997776142E+02  0.35423312535E+02  0.21080302380E+02  0.42931769725E+02  0.00000000000E+00 0. -1.
</event>
<event>
 7    1  0.2148778E-015  0.9000772E+02  0.7816164E-02  0.1186339E+00
        -11   -1    0    0    0    0  0.00000000000E+00  0.00000000000E+00  0.45593999997E+02  0.45594000000E+02  0.51100000000E-03 0.  1.
         11   -1    0    0    0    0 -0.00000000000E+00 -0.00000000000E+00 -0.45593999997E+02  0.45594000000E+02  0.51100000000E-03 0. -1.
    9900012    2    1    2    0    0 -0.24984924217E+00 -0.10614021158E+01 -0.45173284496E+00  0.90007719670E+02  0.89999980769E+02 0.  0.
         12    1    1    2    0    0  0.24984924217E+00  0.10614021158E+01  0.45173284496E+00  0.11802803304E+01  0.00000000000E+00 0. -1.
         11    1    3    3    0    0  0.19787426039E+02 -0.81444902441E+00 -0.33934431611E+02  0.39290599455E+02  0.51100000000E-03 0. -1.
        -11    1    3    3    0    0 -0.11544527233E+02  0.12035392944E+02  0.32402960455E+01  0.16989005594E+02  0.51100000000E-03 0.  1.
        -12    1    3    3    0    0 -0.84927480479E+01 -0.12282346035E+02  0.30242402721E+02  0.33728114621E+02  0.00000000000E+00 0.  1.
</event>
<event>
 7    1  0.2148778E-015  0.9000775E+02  0.7816164E-02  0.1186339E+00
        -11   -1    0    0    0    0  0.00000000000E+00  0.00000000000E+00  0.45593999997E+02  0.45594000000E+02  0.51100000000E-03 0.  1.
         11   -1    0    0    0    0 -0.00000000000E+00 -0.00000000000E+00 -0.45593999997E+02  0.45594000000E+02  0.51100000000E-03 0. -1.
    9900012    2    1    2    0    0  0.85549164182E-01  0.41292451956E+00  0.11023437594E+01  0.90007751263E+02  0.90000012779E+02 0.  0.
         12    1    1    2    0    0 -0.85549164182E-01 -0.41292451956E+00 -0.11023437594E+01  0.11802487374E+01  0.00000000000E+00 0. -1.
         11    1    3    3    0    0  0.10071737468E+02 -0.33091433941E+02  0.14865312873E+02  0.37649175595E+02  0.51100000000E-03 0. -1.
        -11    1    3    3    0    0  0.46668640245E+01  0.19984891333E+01  0.93412289725E+01  0.10631657332E+02  0.51100000000E-03 0.  1.
        -12    1    3    3    0    0 -0.14653052329E+02  0.31505869327E+02 -0.23104198086E+02  0.41726918336E+02  0.00000000000E+00 0.  1.
</event>
<event>
 7    1  0.2148778E-015  0.9000775E+02  0.7816164E-02  0.1186339E+00
        -11   -1    0    0    0    0  0.00000000000E+00  0.00000000000E+00  0.45593999997E+02  0.45594000000E+02  0.51100000000E-03 0.  1.
         11   -1    0    0    0    0 -0.00000000000E+00 -0.00000000000E+00 -0.45593999997E+02  0.45594000000E+02  0.51100000000E-03 0. -1.
    9900012    2    1    2    0    0  0.60487292786E+00  0.50067412418E+00 -0.88116698045E+00  0.90007745330E+02  0.90000006769E+02 0.  0.
         12    1    1    2    0    0 -0.60487292786E+00 -0.50067412418E+00  0.88116698045E+00  0.11802546695E+01  0.00000000000E+00 0. -1.
         11    1    3    3    0    0 -0.10429297521E+01  0.83767210906E+01  0.48475751487E+01  0.97342767467E+01  0.51100000000E-03 0. -1.
        -11    1    3    3    0    0 -0.10321451451E+02  0.23072526811E+01  0.35029117400E+02  0.36590912001E+02  0.51100000000E-03 0.  1.
         12    1    3    3    0    0  0.11969254131E+02 -0.10183299648E+02 -0.40757859529E+02  0.43682556582E+02  0.00000000000E+00 0. -1.
</event>
<event>
 7    1  0.2148778E-015  0.9000769E+02  0.7816164E-02  0.1186339E+00
        -11   -1    0    0    0    0  0.00000000000E+00  0.00000000000E+00  0.45593999997E+02  0.45594000000E+02  0.51100000000E-03 0.  1.
         11   -1    0    0    0    0 -0.00000000000E+00 -0.00000000000E+00 -0.45593999997E+02  0.45594000000E+02  0.51100000000E-03 0. -1.
    9900012    2    1    2    0    0 -0.46401642530E+00 -0.78407386047E+00  0.75036016918E+00  0.90007693495E+02  0.89999954249E+02 0.  0.
         12    1    1    2    0    0  0.46401642530E+00  0.78407386047E+00 -0.75036016918E+00  0.11803065047E+01  0.00000000000E+00 0. -1.
         11    1    3    3    0    0  0.30638272632E+02 -0.16198294859E+02 -0.13844097300E+02  0.37319532909E+02  0.51100000000E-03 0. -1.
        -11    1    3    3    0    0 -0.35522804179E+01 -0.48995027102E+00 -0.11183099091E+02  0.11743953890E+02  0.51100000000E-03 0.  1.
        -12    1    3    3    0    0 -0.27550008639E+02  0.15904171270E+02  0.25777556560E+02  0.40944206697E+02  0.00000000000E+00 0.  1.
</event>
<event>
 7    1  0.2148778E-015  0.9000765E+02  0.7816164E-02  0.1186339E+00
        -11   -1    0    0    0    0  0.00000000000E+00  0.00000000000E+00  0.45593999997E+02  0.45594000000E+02  0.51100000000E-03 0. -1.
         11   -1    0    0    0    0 -0.00000000000E+00 -0.00000000000E+00 -0.45593999997E+02  0.45594000000E+02  0.51100000000E-03 0.  1.
    9900012    2    1    2    0    0 -0.68468765290E+00 -0.96015055232E+00  0.50502165220E-01  0.90007645505E+02  0.89999905626E+02 0.  0.
         12    1    1    2    0    0  0.68468765290E+00  0.96015055232E+00 -0.50502165220E-01  0.11803544950E+01  0.00000000000E+00 0. -1.
         11    1    3    3    0    0  0.19306031293E-01 -0.11810103394E+02  0.73769730850E+01  0.13924749444E+02  0.51100000000E-03 0. -1.
        -11    1    3    3    0    0  0.19665518646E+02 -0.15399907572E+02 -0.27549053833E+02  0.37186558650E+02  0.51100000000E-03 0.  1.
         12    1    3    3    0    0 -0.20369512330E+02  0.26249860414E+02  0.20222582914E+02  0.38896337412E+02  0.00000000000E+00 0. -1.
</event>
<event>
 7    1  0.2148778E-015  0.9000775E+02  0.7816164E-02  0.1186339E+00
        -11   -1    0    0    0    0  0.00000000000E+00  0.00000000000E+00  0.45593999997E+02  0.45594000000E+02  0.51100000000E-03 0. -1.
         11   -1    0    0    0    0 -0.00000000000E+00 -0.00000000000E+00 -0.45593999997E+02  0.45594000000E+02  0.51100000000E-03 0.  1.
    9900012    2    1    2    0    0  0.34150026675E+00 -0.97487238613E+00 -0.57094823598E+00  0.90007754055E+02  0.90000015609E+02 0.  0.
         12    1    1    2    0    0 -0.34150026675E+00  0.97487238613E+00  0.57094823598E+00  0.11802459445E+01  0.00000000000E+00 0. -1.
         11    1    3    3    0    0 -0.11397446822E+02  0.14352237089E+02  0.92587659390E+00  0.18350633538E+02  0.51100000000E-03 0. -1.
        -11    1    3    3    0    0 -0.12134786890E+02  0.23218689372E+02  0.13001975636E+01  0.26230728220E+02  0.51100000000E-03 0.  1.
         12    1    3    3    0    0  0.23873733979E+02 -0.38545798847E+02 -0.27970223935E+01  0.45426392297E+02  0.00000000000E+00 0. -1.
</event>
<event>
 7    1  0.2148778E-015  0.9000707E+02  0.7816164E-02  0.1186340E+00
        -11   -1    0    0    0    0  0.00000000000E+00  0.00000000000E+00  0.45593999997E+02  0.45594000000E+02  0.51100000000E-03 0. -1.
         11   -1    0    0    0    0 -0.00000000000E+00 -0.00000000000E+00 -0.45593999997E+02  0.45594000000E+02  0.51100000000E-03 0.  1.
    9900012    2    1    2    0    0  0.10063956648E+01 -0.91445266471E-01 -0.61106523250E+00  0.90007070201E+02  0.89999322726E+02 0.  0.
         12    1    1    2    0    0 -0.10063956648E+01  0.91445266471E-01  0.61106523250E+00  0.11809297986E+01  0.00000000000E+00 0. -1.
         11    1    3    3    0    0 -0.11203816630E+02  0.72548778138E+01  0.31284399329E+02  0.34012827004E+02  0.51100000000E-03 0. -1.
        -11    1    3    3    0    0  0.15873903169E+02  0.12401402806E+02 -0.23668864975E+01  0.20282449194E+02  0.51100000000E-03 0.  1.
        -12    1    3    3    0    0 -0.36636908740E+01 -0.19747725886E+02 -0.29528578064E+02  0.35711794004E+02  0.00000000000E+00 0.  1.
</event>
<event>
 7    1  0.2173685E-015  0.9000847E+02  0.7816164E-02  0.1186338E+00
        -11   -1    0    0    0    0  0.00000000000E+00  0.00000000000E+00  0.45593999997E+02  0.45594000000E+02  0.51100000000E-03 0. -1.
         11   -1    0    0    0    0 -0.00000000000E+00 -0.00000000000E+00 -0.45593999997E+02  0.45594000000E+02  0.51100000000E-03 0.  1.
    9900012    2    1    2    0    0  0.88539457915E+00 -0.50227854940E+00 -0.59588895060E+00  0.90008470033E+02  0.90000741034E+02 0.  0.
         12    1    1    2    0    0 -0.88539457915E+00  0.50227854940E+00  0.59588895060E+00  0.11795299672E+01  0.00000000000E+00 0. -1.
         11    1    3    3    0    0  0.98081733001E+01 -0.39037000520E+00  0.85222953933E+00  0.98528649476E+01  0.51100000000E-03 0. -1.
        -11    1    3    3    0    0  0.17955871796E+02 -0.33014726244E+02 -0.24081685259E+01  0.37658793884E+02  0.51100000000E-03 0.  1.
         12    1    3    3    0    0 -0.26878650517E+02  0.32902817699E+02  0.96005003594E+00  0.42496811201E+02  0.00000000000E+00 0. -1.
</event>
<event>
 7    1  0.2148778E-015  0.9000769E+02  0.7816164E-02  0.1186339E+00
        -11   -1    0    0    0    0  0.00000000000E+00  0.00000000000E+00  0.45593999997E+02  0.45594000000E+02  0.51100000000E-03 0.  1.
         11   -1    0    0    0    0 -0.00000000000E+00 -0.00000000000E+00 -0.45593999997E+02  0.45594000000E+02  0.51100000000E-03 0. -1.
    9900012    2    1    2    0    0  0.34595638425E+00 -0.58361659348E+00  0.96583337358E+00  0.90007691458E+02  0.89999952186E+02 0.  0.
         12    1    1    2    0    0 -0.34595638425E+00  0.58361659348E+00 -0.96583337358E+00  0.11803085417E+01  0.00000000000E+00 0. -1.
         11    1    3    3    0    0  0.23941294374E+02 -0.17906833952E+01  0.30794188516E+02  0.39047076330E+02  0.51100000000E-03 0. -1.
        -11    1    3    3    0    0 -0.98204791439E+01  0.25909754245E+01  0.65171931527E+01  0.12067674636E+02  0.51100000000E-03 0.  1.
        -12    1    3    3    0    0 -0.13774858846E+02 -0.13839086228E+01 -0.36345548295E+02  0.38892940492E+02  0.00000000000E+00 0.  1.
</event>
<event>
 7    1  0.2148778E-015  0.9000779E+02  0.7816164E-02  0.1186339E+00
        -11   -1    0    0    0    0  0.00000000000E+00  0.00000000000E+00  0.45593999997E+02  0.45594000000E+02  0.51100000000E-03 0. -1.
         11   -1    0    0    0    0 -0.00000000000E+00 -0.00000000000E+00 -0.45593999997E+02  0.45594000000E+02  0.51100000000E-03 0.  1.
    9900012    2    1    2    0    0 -0.12571794556E+00 -0.57994984246E+00  0.10201677854E+01  0.90007792759E+02  0.90000054823E+02 0.  0.
         12    1    1    2    0    0  0.12571794556E+00  0.57994984246E+00 -0.10201677854E+01  0.11802072411E+01  0.00000000000E+00 0. -1.
         11    1    3    3    0    0 -0.69073213740E+01  0.69352963207E+01 -0.72419866418E+01  0.12176033607E+02  0.51100000000E-03 0. -1.
        -11    1    3    3    0    0  0.99169533713E+01  0.24401745170E+02 -0.21559627726E+02  0.34038341315E+02  0.51100000000E-03 0.  1.
         12    1    3    3    0    0 -0.31353499429E+01 -0.31916991333E+02  0.29821782153E+02  0.43793417837E+02  0.00000000000E+00 0. -1.
</event>
<event>
 7    1  0.2148778E-015  0.9000776E+02  0.7816164E-02  0.1186339E+00
        -11   -1    0    0    0    0  0.00000000000E+00  0.00000000000E+00  0.45593999997E+02  0.45594000000E+02  0.51100000000E-03 0.  1.
         11   -1    0    0    0    0 -0.00000000000E+00 -0.00000000000E+00 -0.45593999997E+02  0.45594000000E+02  0.51100000000E-03 0. -1.
    9900012    2    1    2    0    0  0.28273914225E+00 -0.68073228329E+00  0.92175791176E+00  0.90007756164E+02  0.90000017746E+02 0.  0.
         12    1    1    2    0    0 -0.28273914225E+00  0.68073228329E+00 -0.92175791176E+00  0.11802438358E+01  0.00000000000E+00 0. -1.
         11    1    3    3    0    0 -0.73918314852E+01 -0.33860769450E+01 -0.39118095532E+01  0.90225796768E+01  0.51100000000E-03 0. -1.
        -11    1    3    3    0    0 -0.18374196047E+02 -0.29045926882E+02  0.16733341472E+02  0.38226714035E+02  0.51100000000E-03 0.  1.
         12    1    3    3    0    0  0.26048766675E+02  0.31751271543E+02 -0.11899774007E+02  0.42758462453E+02  0.00000000000E+00 0. -1.
</event>
<event>
 7    1  0.2148778E-015  0.9000787E+02  0.7816164E-02  0.1186339E+00
        -11   -1    0    0    0    0  0.00000000000E+00  0.00000000000E+00  0.45593999997E+02  0.45594000000E+02  0.51100000000E-03 0. -1.
         11   -1    0    0    0    0 -0.00000000000E+00 -0.00000000000E+00 -0.45593999997E+02  0.45594000000E+02  0.51100000000E-03 0.  1.
    9900012    2    1    2    0    0  0.97936146788E+00 -0.65280317469E+00  0.86093337782E-01  0.90007867409E+02  0.90000130459E+02 0.  0.
         12    1    1    2    0    0 -0.97936146788E+00  0.65280317469E+00 -0.86093337782E-01  0.11801325911E+01  0.00000000000E+00 0. -1.
         11    1    3    3    0    0 -0.10897069436E+02 -0.32487800401E+02  0.21502885545E+02  0.40454633655E+02  0.51100000000E-03 0. -1.
        -11    1    3    3    0    0  0.12504432747E+02  0.17725709949E+00 -0.95635808709E+01  0.15743390287E+02  0.51100000000E-03 0.  1.
        -12    1    3    3    0    0 -0.62800184291E+00  0.31657740126E+02 -0.11853211337E+02  0.33809843466E+02  0.00000000000E+00 0.  1.
</event>
<event>
 7    1  0.2148778E-015  0.9000778E+02  0.7816164E-02  0.1186339E+00
        -11   -1    0    0    0    0  0.00000000000E+00  0.00000000000E+00  0.45593999997E+02  0.45594000000E+02  0.51100000000E-03 0.  1.
         11   -1    0    0    0    0 -0.00000000000E+00 -0.00000000000E+00 -0.45593999997E+02  0.45594000000E+02  0.51100000000E-03 0. -1.
    9900012    2    1    2    0    0  0.42757789567E+00 -0.61231939588E+00  0.91386929219E+00  0.90007781807E+02  0.90000043727E+02 0.  0.
         12    1    1    2    0    0 -0.42757789567E+00  0.61231939588E+00 -0.91386929219E+00  0.11802181928E+01  0.00000000000E+00 0. -1.
         11    1    3    3    0    0 -0.67788358291E+01  0.44054137040E-01 -0.79458411869E+01  0.10444661239E+02  0.51100000000E-03 0. -1.
        -11    1    3    3    0    0 -0.15021996477E+02  0.33357678518E+02 -0.43378722954E+01  0.36840361434E+02  0.51100000000E-03 0.  1.
         12    1    3    3    0    0  0.22228410202E+02 -0.34014052051E+02  0.13197582774E+02  0.42722759135E+02  0.00000000000E+00 0. -1.
</event>
<event>
 7    1  0.2148778E-015  0.9000774E+02  0.7816164E-02  0.1186339E+00
        -11   -1    0    0    0    0  0.00000000000E+00  0.00000000000E+00  0.45593999997E+02  0.45594000000E+02  0.51100000000E-03 0. -1.
         11   -1    0    0    0    0 -0.00000000000E+00 -0.00000000000E+00 -0.45593999997E+02  0.45594000000E+02  0.51100000000E-03 0.  1.
    9900012    2    1    2    0    0  0.39935110237E+00  0.64787683271E-01 -0.11087588351E+01  0.90007735241E+02  0.89999996546E+02 0.  0.
         12    1    1    2    0    0 -0.39935110237E+00 -0.64787683271E-01  0.11087588351E+01  0.11802647590E+01  0.00000000000E+00 0. -1.
         11    1    3    3    0    0  0.11701291194E+01 -0.96479753388E+01 -0.39426013980E+01  0.10487932892E+02  0.51100000000E-03 0. -1.
        -11    1    3    3    0    0  0.35600739636E+02  0.64532939520E+01 -0.14648102507E+02  0.39033633866E+02  0.51100000000E-03 0.  1.
         12    1    3    3    0    0 -0.36371517654E+02  0.32594690700E+01  0.17481945070E+02  0.40486168483E+02  0.00000000000E+00 0. -1.
</event>
<event>
 7    1  0.2148778E-015  0.9000773E+02  0.7816164E-02  0.1186339E+00
        -11   -1    0    0    0    0  0.00000000000E+00  0.00000000000E+00  0.45593999997E+02  0.45594000000E+02  0.51100000000E-03 0. -1.
         11   -1    0    0    0    0 -0.00000000000E+00 -0.00000000000E+00 -0.45593999997E+02  0.45594000000E+02  0.51100000000E-03 0.  1.
    9900012    2    1    2    0    0  0.87925552543E+00  0.69318722677E+00 -0.37342721387E+00  0.90007726009E+02  0.89999987192E+02 0.  0.
         12    1    1    2    0    0 -0.87925552543E+00 -0.69318722677E+00  0.37342721387E+00  0.11802739912E+01  0.00000000000E+00 0. -1.
         11    1    3    3    0    0 -0.38517144265E+00 -0.30340792282E+02  0.19752318030E+02  0.36205884897E+02  0.51100000000E-03 0. -1.
        -11    1    3    3    0    0 -0.63132469593E+01 -0.62878554608E+01  0.28128361691E+01  0.93437819452E+01  0.51100000000E-03 0.  1.
        -12    1    3    3    0    0  0.75776739274E+01  0.37321834970E+02 -0.22938581413E+02  0.44458059167E+02  0.00000000000E+00 0.  1.
</event>
<event>
 7    1  0.2148778E-015  0.9000776E+02  0.7816164E-02  0.1186339E+00
        -11   -1    0    0    0    0  0.00000000000E+00  0.00000000000E+00  0.45593999997E+02  0.45594000000E+02  0.51100000000E-03 0. -1.
         11   -1    0    0    0    0 -0.00000000000E+00 -0.00000000000E+00 -0.45593999997E+02  0.45594000000E+02  0.51100000000E-03 0.  1.
    9900012    2    1    2    0    0 -0.35724260197E+00  0.75410385757E+00 -0.83466989676E+00  0.90007759033E+02  0.90000020652E+02 0.  0.
         12    1    1    2    0    0  0.35724260197E+00 -0.75410385757E+00  0.83466989676E+00  0.11802409674E+01  0.00000000000E+00 0. -1.
         11    1    3    3    0    0  0.48966379011E+00  0.15665404173E+01  0.73721915969E+01  0.75526835436E+01  0.51100000000E-03 0. -1.
        -11    1    3    3    0    0  0.16727482881E+02  0.33175464251E+02  0.12180641091E+02  0.39099720324E+02  0.51100000000E-03 0.  1.
        -12    1    3    3    0    0 -0.17574389273E+02 -0.33987900810E+02 -0.20387502584E+02  0.43355355165E+02  0.00000000000E+00 0.  1.
</event>
<event>
 7    1  0.2148778E-015  0.9000772E+02  0.7816164E-02  0.1186339E+00
        -11   -1    0    0    0    0  0.00000000000E+00  0.00000000000E+00  0.45593999997E+02  0.45594000000E+02  0.51100000000E-03 0. -1.
         11   -1    0    0    0    0 -0.00000000000E+00 -0.00000000000E+00 -0.45593999997E+02  0.45594000000E+02  0.51100000000E-03 0.  1.
    9900012    2    1    2    0    0 -0.11092901612E+01  0.39686574620E+00 -0.71002621154E-01  0.90007716791E+02  0.89999977852E+02 0.  0.
         12    1    1    2    0    0  0.11092901612E+01 -0.39686574620E+00  0.71002621154E-01  0.11802832094E+01  0.00000000000E+00 0. -1.
         11    1    3    3    0    0  0.12200838434E+01  0.24620080550E+01 -0.71312563072E+01  0.76423101892E+01  0.51100000000E-03 0. -1.
        -11    1    3    3    0    0  0.29504241875E+02 -0.16033478920E+02  0.26282025648E+02  0.42641735510E+02  0.51100000000E-03 0.  1.
         12    1    3    3    0    0 -0.31833615879E+02  0.13968336611E+02 -0.19221771962E+02  0.39723671091E+02  0.00000000000E+00 0. -1.
</event>
<event>
 7    1  0.2148778E-015  0.9000760E+02  0.7816164E-02  0.1186339E+00
        -11   -1    0    0    0    0  0.00000000000E+00  0.00000000000E+00  0.45593999997E+02  0.45594000000E+02  0.51100000000E-03 0. -1.
         11   -1    0    0    0    0 -0.00000000000E+00 -0.00000000000E+00 -0.45593999997E+02  0.45594000000E+02  0.51100000000E-03 0.  1.
    9900012    2    1    2    0    0 -0.60021698902E+00 -0.13396888706E+00 -0.10075405382E+01  0.90007599207E+02  0.89999858716E+02 0.  0.
         12    1    1    2    0    0  0.60021698902E+00  0.13396888706E+00  0.10075405382E+01  0.11804007932E+01  0.00000000000E+00 0. -1.
         11    1    3    3    0    0  0.23239887939E+01  0.20929214368E+01  0.36453459968E+02  0.36587374707E+02  0.51100000000E-03 0. -1.
        -11    1    3    3    0    0 -0.64139335190E+01 -0.34999250930E+01  0.62114330037E+01  0.95900948413E+01  0.51100000000E-03 0.  1.
        -12    1    3    3    0    0  0.34897277361E+01  0.12730347691E+01 -0.43672433510E+02  0.43830129658E+02  0.00000000000E+00 0.  1.
</event>
<event>
 7    1  0.2148778E-015  0.9000772E+02  0.7816164E-02  0.1186339E+00
        -11   -1    0    0    0    0  0.00000000000E+00  0.00000000000E+00  0.45593999997E+02  0.45594000000E+02  0.51100000000E-03 0.  1.
         11   -1    0    0    0    0 -0.00000000000E+00 -0.00000000000E+00 -0.45593999997E+02  0.45594000000E+02  0.51100000000E-03 0. -1.
    9900012    2    1    2    0    0  0.81602385365E+00 -0.28799228100E+00  0.80263034688E+00  0.90007724626E+02  0.89999985792E+02 0.  0.
         12    1    1    2    0    0 -0.81602385365E+00  0.28799228100E+00 -0.80263034688E+00  0.11802753735E+01  0.00000000000E+00 0. -1.
         11    1    3    3    0    0  0.44481630171E+01 -0.63969948767E+01  0.13510498090E+02  0.15596193657E+02  0.51100000000E-03 0. -1.
        -11    1    3    3    0    0  0.81599774284E+01 -0.20137969776E+02  0.20913748442E+02  0.30158049216E+02  0.51100000000E-03 0.  1.
         12    1    3    3    0    0 -0.11792116592E+02  0.26246972371E+02 -0.33621616186E+02  0.44253481754E+02  0.00000000000E+00 0. -1.
</event>
<event>
 7    1  0.2148778E-015  0.9000792E+02  0.7816164E-02  0.1186339E+00
        -11   -1    0    0    0    0  0.00000000000E+00  0.00000000000E+00  0.45593999997E+02  0.45594000000E+02  0.51100000000E-03 0.  1.
         11   -1    0    0    0    0 -0.00000000000E+00 -0.00000000000E+00 -0.45593999997E+02  0.45594000000E+02  0.51100000000E-03 0. -1.
    9900012    2    1    2    0    0 -0.92684680719E+00 -0.60698606577E+00 -0.40634274319E+00  0.90007918853E+02  0.90000182582E+02 0.  0.
         12    1    1    2    0    0  0.92684680719E+00  0.60698606577E+00  0.40634274319E+00  0.11800811468E+01  0.00000000000E+00 0. -1.
         11    1    3    3    0    0 -0.28237688410E+02 -0.26629114112E+02  0.93971034254E+01  0.39934725718E+02  0.51100000000E-03 0. -1.
        -11    1    3    3    0    0  0.10915959258E+01  0.35548611870E+01  0.97200864228E+01  0.10407146585E+02  0.51100000000E-03 0.  1.
        -12    1    3    3    0    0  0.26219245677E+02  0.22467266860E+02 -0.19523532591E+02  0.39666046549E+02  0.00000000000E+00 0.  1.
</event>
<event>
 7    1  0.2148778E-015  0.9000776E+02  0.7816164E-02  0.1186339E+00
        -11   -1    0    0    0    0  0.00000000000E+00  0.00000000000E+00  0.45593999997E+02  0.45594000000E+02  0.51100000000E-03 0.  1.
         11   -1    0    0    0    0 -0.00000000000E+00 -0.00000000000E+00 -0.45593999997E+02  0.45594000000E+02  0.51100000000E-03 0. -1.
    9900012    2    1    2    0    0  0.11382197581E+01  0.30803295691E+00  0.50430791096E-01  0.90007757743E+02  0.90000019345E+02 0.  0.
         12    1    1    2    0    0 -0.11382197581E+01 -0.30803295691E+00 -0.50430791096E-01  0.11802422569E+01  0.00000000000E+00 0. -1.
         11    1    3    3    0    0 -0.16996388641E+02 -0.19277805877E+02 -0.26470712401E+02  0.36894574690E+02  0.51100000000E-03 0. -1.
        -11    1    3    3    0    0 -0.61906169298E+01 -0.41107202656E+01 -0.30986274490E+01  0.80512888038E+01  0.51100000000E-03 0.  1.
        -12    1    3    3    0    0  0.24325225329E+02  0.23696559099E+02  0.29619770641E+02  0.45061894249E+02  0.00000000000E+00 0.  1.
</event>
<event>
 7    1  0.2148778E-015  0.9000778E+02  0.7816164E-02  0.1186339E+00
        -11   -1    0    0    0    0  0.00000000000E+00  0.00000000000E+00  0.45593999997E+02  0.45594000000E+02  0.51100000000E-03 0.  1.
         11   -1    0    0    0    0 -0.00000000000E+00 -0.00000000000E+00 -0.45593999997E+02  0.45594000000E+02  0.51100000000E-03 0. -1.
    9900012    2    1    2    0    0  0.99907578287E+00  0.62574412638E+00  0.56639925538E-01  0.90007781286E+02  0.90000043199E+02 0.  0.
         12    1    1    2    0    0 -0.99907578287E+00 -0.62574412638E+00 -0.56639925538E-01  0.11802187140E+01  0.00000000000E+00 0. -1.
         11    1    3    3    0    0 -0.20310695493E+02  0.28553706556E+02 -0.12622677005E+02  0.37244737676E+02  0.51100000000E-03 0. -1.
        -11    1    3    3    0    0 -0.74283542036E+01  0.36406161210E+01  0.40445918193E+01  0.92083253179E+01  0.51100000000E-03 0.  1.
        -12    1    3    3    0    0  0.28738125479E+02 -0.31568578551E+02  0.86347251114E+01  0.43554718292E+02  0.00000000000E+00 0.  1.
</event>
<event>
 7    1  0.2148778E-015  0.9000772E+02  0.7816164E-02  0.1186339E+00
        -11   -1    0    0    0    0  0.00000000000E+00  0.00000000000E+00  0.45593999997E+02  0.45594000000E+02  0.51100000000E-03 0.  1.
         11   -1    0    0    0    0 -0.00000000000E+00 -0.00000000000E+00 -0.45593999997E+02  0.45594000000E+02  0.51100000000E-03 0. -1.
    9900012    2    1    2    0    0 -0.75603142898E+00  0.37152565797E+00  0.82670518136E+00  0.90007721942E+02  0.89999983072E+02 0.  0.
         12    1    1    2    0    0  0.75603142898E+00 -0.37152565797E+00 -0.82670518136E+00  0.11802780575E+01  0.00000000000E+00 0. -1.
         11    1    3    3    0    0  0.15300942064E+02  0.30719819755E+02 -0.98325238462E+01  0.35700205591E+02  0.51100000000E-03 0. -1.
        -11    1    3    3    0    0  0.71638004916E+01  0.44400387957E+01 -0.48197456735E+01  0.97089613558E+01  0.51100000000E-03 0.  1.
        -12    1    3    3    0    0 -0.23220773985E+02 -0.34788332892E+02  0.15478974701E+02  0.44598554995E+02  0.00000000000E+00 0.  1.
</event>
<event>
 7    1  0.2148778E-015  0.9000776E+02  0.7816164E-02  0.1186339E+00
        -11   -1    0    0    0    0  0.00000000000E+00  0.00000000000E+00  0.45593999997E+02  0.45594000000E+02  0.51100000000E-03 0.  1.
         11   -1    0    0    0    0 -0.00000000000E+00 -0.00000000000E+00 -0.45593999997E+02  0.45594000000E+02  0.51100000000E-03 0. -1.
    9900012    2    1    2    0    0  0.11383628901E+01  0.28970263724E+00 -0.11473920696E+00  0.90007761561E+02  0.90000023214E+02 0.  0.
         12    1    1    2    0    0 -0.11383628901E+01 -0.28970263724E+00  0.11473920696E+00  0.11802384391E+01  0.00000000000E+00 0. -1.
         11    1    3    3    0    0 -0.54701094541E+01 -0.51167728720E+01 -0.34205730027E+00  0.74980307763E+01  0.51100000000E-03 0. -1.
        -11    1    3    3    0    0  0.69741646522E+01 -0.45926176255E+01  0.40326008231E+02  0.41181525583E+02  0.51100000000E-03 0.  1.
         12    1    3    3    0    0 -0.36569230798E+00  0.99990931348E+01 -0.40098690138E+02  0.41328205201E+02  0.00000000000E+00 0. -1.
</event>
<event>
 7    1  0.2148778E-015  0.9000772E+02  0.7816164E-02  0.1186339E+00
        -11   -1    0    0    0    0  0.00000000000E+00  0.00000000000E+00  0.45593999997E+02  0.45594000000E+02  0.51100000000E-03 0.  1.
         11   -1    0    0    0    0 -0.00000000000E+00 -0.00000000000E+00 -0.45593999997E+02  0.45594000000E+02  0.51100000000E-03 0. -1.
    9900012    2    1    2    0    0 -0.65472742069E+00 -0.47115373956E+00 -0.86163420041E+00  0.90007717264E+02  0.89999978332E+02 0.  0.
         12    1    1    2    0    0  0.65472742069E+00  0.47115373956E+00  0.86163420041E+00  0.11802827361E+01  0.00000000000E+00 0. -1.
         11    1    3    3    0    0  0.10308147259E+02  0.15946606583E+02  0.13850999562E+02  0.23503241277E+02  0.51100000000E-03 0. -1.
        -11    1    3    3    0    0 -0.74887806382E+01  0.22289715436E+02  0.31657816224E+01  0.23726260203E+02  0.51100000000E-03 0.  1.
         12    1    3    3    0    0 -0.34740940418E+01 -0.38707475758E+02 -0.17878415384E+02  0.42778215784E+02  0.00000000000E+00 0. -1.
</event>
<event>
 7    1  0.2148778E-015  0.9000771E+02  0.7816164E-02  0.1186339E+00
        -11   -1    0    0    0    0  0.00000000000E+00  0.00000000000E+00  0.45593999997E+02  0.45594000000E+02  0.51100000000E-03 0. -1.
         11   -1    0    0    0    0 -0.00000000000E+00 -0.00000000000E+00 -0.45593999997E+02  0.45594000000E+02  0.51100000000E-03 0.  1.
    9900012    2    1    2    0    0  0.45558954696E+00 -0.20483235075E+00 -0.10693736027E+01  0.90007712734E+02  0.89999973743E+02 0.  0.
         12    1    1    2    0    0 -0.45558954696E+00  0.20483235075E+00  0.10693736027E+01  0.11802872656E+01  0.00000000000E+00 0. -1.
         11    1    3    3    0    0 -0.69382336326E+01  0.37176470807E+01 -0.28116939886E+01  0.83585650146E+01  0.51100000000E-03 0. -1.
        -11    1    3    3    0    0  0.24357877890E+02 -0.23057362375E+02 -0.27087479987E+02  0.43112408275E+02  0.51100000000E-03 0.  1.
         12    1    3    3    0    0 -0.16964054710E+02  0.19134882944E+02  0.28829800373E+02  0.38536739445E+02  0.00000000000E+00 0. -1.
</event>
<event>
 7    1  0.2148778E-015  0.9000775E+02  0.7816164E-02  0.1186339E+00
        -11   -1    0    0    0    0  0.00000000000E+00  0.00000000000E+00  0.45593999997E+02  0.45594000000E+02  0.51100000000E-03 0.  1.
         11   -1    0    0    0    0 -0.00000000000E+00 -0.00000000000E+00 -0.45593999997E+02  0.45594000000E+02  0.51100000000E-03 0. -1.
    9900012    2    1    2    0    0  0.50747639135E+00  0.40306542908E-01  0.10648167299E+01  0.90007749360E+02  0.90000010851E+02 0.  0.
         12    1    1    2    0    0 -0.50747639135E+00 -0.40306542908E-01 -0.10648167299E+01  0.11802506401E+01  0.00000000000E+00 0. -1.
         11    1    3    3    0    0  0.98889184794E-01 -0.21017908409E+02 -0.22969945709E+02  0.31134878499E+02  0.51100000000E-03 0. -1.
        -11    1    3    3    0    0  0.30267639686E-01 -0.38230393201E+01 -0.13392905051E+02  0.13927901914E+02  0.51100000000E-03 0.  1.
        -12    1    3    3    0    0  0.37831956687E+00  0.24881254272E+02  0.37427667490E+02  0.44944968947E+02  0.00000000000E+00 0.  1.
</event>
<event>
 7    1  0.2412063E-015  0.9000773E+02  0.7816164E-02  0.1186339E+00
        -11   -1    0    0    0    0  0.00000000000E+00  0.00000000000E+00  0.45593999997E+02  0.45594000000E+02  0.51100000000E-03 0. -1.
         11   -1    0    0    0    0 -0.00000000000E+00 -0.00000000000E+00 -0.45593999997E+02  0.45594000000E+02  0.51100000000E-03 0.  1.
    9900012    2    1    2    0    0 -0.15250236995E+00  0.11597118048E+01 -0.15763385498E+00  0.90007730168E+02  0.89999991407E+02 0.  0.
         12    1    1    2    0    0  0.15250236995E+00 -0.11597118048E+01  0.15763385498E+00  0.11802698316E+01  0.00000000000E+00 0. -1.
         11    1    3    3    0    0 -0.62455468720E+01 -0.64820934838E+01 -0.27366400762E+01  0.94081661779E+01  0.51100000000E-03 0. -1.
        -11    1    3    3    0    0 -0.20664861550E+02 -0.17828106342E+02 -0.22979390585E+02  0.35678148362E+02  0.51100000000E-03 0.  1.
         12    1    3    3    0    0  0.26757906052E+02  0.25469911631E+02  0.25558396806E+02  0.44921415629E+02  0.00000000000E+00 0. -1.
</event>
<event>
 7    1  0.2278548E-015  0.9000775E+02  0.7816164E-02  0.1186339E+00
        -11   -1    0    0    0    0  0.00000000000E+00  0.00000000000E+00  0.45593999997E+02  0.45594000000E+02  0.51100000000E-03 0.  1.
         11   -1    0    0    0    0 -0.00000000000E+00 -0.00000000000E+00 -0.45593999997E+02  0.45594000000E+02  0.51100000000E-03 0. -1.
    9900012    2    1    2    0    0  0.56446954971E+00  0.47987062976E-01  0.10354042503E+01  0.90007749776E+02  0.90000011273E+02 0.  0.
         12    1    1    2    0    0 -0.56446954971E+00 -0.47987062976E-01 -0.10354042503E+01  0.11802502244E+01  0.00000000000E+00 0. -1.
         11    1    3    3    0    0  0.10913000706E+00 -0.77296614185E+01  0.56721610078E+01  0.95881690516E+01  0.51100000000E-03 0. -1.
        -11    1    3    3    0    0 -0.53634820932E+01 -0.16938156780E+02  0.31552610851E+02  0.36210983790E+02  0.51100000000E-03 0.  1.
         12    1    3    3    0    0  0.58188216359E+01  0.24715805261E+02 -0.36189367609E+02  0.44208596934E+02  0.00000000000E+00 0. -1.
</event>
<event>
 7    1  0.2148778E-015  0.9000773E+02  0.7816164E-02  0.1186339E+00
        -11   -1    0    0    0    0  0.00000000000E+00  0.00000000000E+00  0.45593999997E+02  0.45594000000E+02  0.51100000000E-03 0. -1.
         11   -1    0    0    0    0 -0.00000000000E+00 -0.00000000000E+00 -0.45593999997E+02  0.45594000000E+02  0.51100000000E-03 0.  1.
    9900012    2    1    2    0    0 -0.93365838226E+00 -0.66987179921E+00  0.26942599959E+00  0.90007730297E+02  0.89999991537E+02 0.  0.
         12    1    1    2    0    0  0.93365838226E+00  0.66987179921E+00 -0.26942599959E+00  0.11802697028E+01  0.00000000000E+00 0. -1.
         11    1    3    3    0    0 -0.38818179407E+02  0.83983972645E+01  0.14393832358E+02  0.42244130235E+02  0.51100000000E-03 0. -1.
        -11    1    3    3    0    0  0.84827067059E+01  0.59913738762E+01  0.26449227419E+01  0.10716738802E+02  0.51100000000E-03 0.  1.
        -12    1    3    3    0    0  0.29401814319E+02 -0.15059642940E+02 -0.16769329100E+02  0.37046861260E+02  0.00000000000E+00 0.  1.
</event>
<event>
 7    1  0.2148778E-015  0.9000783E+02  0.7816164E-02  0.1186339E+00
        -11   -1    0    0    0    0  0.00000000000E+00  0.00000000000E+00  0.45593999997E+02  0.45594000000E+02  0.51100000000E-03 0.  1.
         11   -1    0    0    0    0 -0.00000000000E+00 -0.00000000000E+00 -0.45593999997E+02  0.45594000000E+02  0.51100000000E-03 0. -1.
    9900012    2    1    2    0    0 -0.61917382435E+00 -0.21688366151E-01  0.10044674648E+01  0.90007829886E+02  0.90000092440E+02 0.  0.
         12    1    1    2    0    0  0.61917382435E+00  0.21688366151E-01 -0.10044674648E+01  0.11801701140E+01  0.00000000000E+00 0. -1.
         11    1    3    3    0    0  0.19781058724E+02  0.24366237465E+01 -0.32969349650E+02  0.38525386905E+02  0.51100000000E-03 0. -1.
        -11    1    3    3    0    0  0.45270418398E+01  0.77118644910E+01  0.11283634068E+01  0.90133326792E+01  0.51100000000E-03 0.  1.
        -12    1    3    3    0    0 -0.24927274388E+02 -0.10170176604E+02  0.32845453708E+02  0.42469110302E+02  0.00000000000E+00 0.  1.
</event>
<event>
 7    1  0.2148778E-015  0.9000774E+02  0.7816164E-02  0.1186339E+00
        -11   -1    0    0    0    0  0.00000000000E+00  0.00000000000E+00  0.45593999997E+02  0.45594000000E+02  0.51100000000E-03 0.  1.
         11   -1    0    0    0    0 -0.00000000000E+00 -0.00000000000E+00 -0.45593999997E+02  0.45594000000E+02  0.51100000000E-03 0. -1.
    9900012    2    1    2    0    0 -0.94237491956E+00 -0.40833374958E+00 -0.58156161109E+00  0.90007736958E+02  0.89999998286E+02 0.  0.
         12    1    1    2    0    0  0.94237491956E+00  0.40833374958E+00  0.58156161109E+00  0.11802630417E+01  0.00000000000E+00 0. -1.
         11    1    3    3    0    0 -0.95681521334E+01  0.39718624904E+02  0.42803267088E+00  0.40857091327E+02  0.51100000000E-03 0. -1.
        -11    1    3    3    0    0 -0.41858483250E+01 -0.17060504569E+00  0.52603491494E+01  0.67247085971E+01  0.51100000000E-03 0.  1.
        -12    1    3    3    0    0  0.12811625539E+02 -0.39956353608E+02 -0.62699434314E+01  0.42425937034E+02  0.00000000000E+00 0.  1.
</event>
<event>
 7    1  0.2148778E-015  0.9000767E+02  0.7816164E-02  0.1186339E+00
        -11   -1    0    0    0    0  0.00000000000E+00  0.00000000000E+00  0.45593999997E+02  0.45594000000E+02  0.51100000000E-03 0. -1.
         11   -1    0    0    0    0 -0.00000000000E+00 -0.00000000000E+00 -0.45593999997E+02  0.45594000000E+02  0.51100000000E-03 0.  1.
    9900012    2    1    2    0    0  0.92552128966E+00  0.69232737119E+00 -0.23929693917E+00  0.90007673828E+02  0.89999934323E+02 0.  0.
         12    1    1    2    0    0 -0.92552128966E+00 -0.69232737119E+00  0.23929693917E+00  0.11803261717E+01  0.00000000000E+00 0. -1.
         11    1    3    3    0    0  0.19768883893E+02 -0.70805099299E+01  0.30002002349E+02  0.36620520702E+02  0.51100000000E-03 0. -1.
        -11    1    3    3    0    0 -0.91632231869E-02  0.61755976562E+01  0.83675412434E+01  0.10399703702E+02  0.51100000000E-03 0.  1.
        -12    1    3    3    0    0 -0.18834199380E+02  0.15972396449E+01 -0.38608840532E+02  0.42987449424E+02  0.00000000000E+00 0.  1.
</event>
<event>
 7    1  0.2148778E-015  0.9000774E+02  0.7816164E-02  0.1186339E+00
        -11   -1    0    0    0    0  0.00000000000E+00  0.00000000000E+00  0.45593999997E+02  0.45594000000E+02  0.51100000000E-03 0.  1.
         11   -1    0    0    0    0 -0.00000000000E+00 -0.00000000000E+00 -0.45593999997E+02  0.45594000000E+02  0.51100000000E-03 0. -1.
    9900012    2    1    2    0    0 -0.24367757392E+00  0.11490964016E+01  0.11495721883E+00  0.90007738816E+02  0.90000000168E+02 0.  0.
         12    1    1    2    0    0  0.24367757392E+00 -0.11490964016E+01 -0.11495721883E+00  0.11802611840E+01  0.00000000000E+00 0. -1.
         11    1    3    3    0    0  0.12680563005E+02 -0.60417489109E+01  0.51618730120E+00  0.14055812237E+02  0.51100000000E-03 0. -1.
        -11    1    3    3    0    0  0.13495776626E+02 -0.28492289553E+02 -0.11188459839E+01  0.31546764768E+02  0.51100000000E-03 0.  1.
         12    1    3    3    0    0 -0.26420017206E+02  0.35683134865E+02  0.71761590153E+00  0.44405161812E+02  0.00000000000E+00 0. -1.
</event>
<event>
 7    1  0.2148778E-015  0.9000762E+02  0.7816164E-02  0.1186339E+00
        -11   -1    0    0    0    0  0.00000000000E+00  0.00000000000E+00  0.45593999997E+02  0.45594000000E+02  0.51100000000E-03 0. -1.
         11   -1    0    0    0    0 -0.00000000000E+00 -0.00000000000E+00 -0.45593999997E+02  0.45594000000E+02  0.51100000000E-03 0.  1.
    9900012    2    1    2    0    0  0.98633371409E-01 -0.23689236963E+00 -0.11521458191E+01  0.90007624413E+02  0.89999884256E+02 0.  0.
         12    1    1    2    0    0 -0.98633371409E-01  0.23689236963E+00  0.11521458191E+01  0.11803755865E+01  0.00000000000E+00 0. -1.
         11    1    3    3    0    0 -0.53070921825E+00 -0.73548051605E+01 -0.39253905018E+01  0.83536520203E+01  0.51100000000E-03 0. -1.
        -11    1    3    3    0    0 -0.24969978981E+02 -0.13009456578E+02 -0.25906492722E+02  0.38260843903E+02  0.51100000000E-03 0.  1.
         12    1    3    3    0    0  0.25599321570E+02  0.20127369369E+02  0.28679737404E+02  0.43393128490E+02  0.00000000000E+00 0. -1.
</event>
<event>
 7    1  0.2148778E-015  0.9000771E+02  0.7816164E-02  0.1186339E+00
        -11   -1    0    0    0    0  0.00000000000E+00  0.00000000000E+00  0.45593999997E+02  0.45594000000E+02  0.51100000000E-03 0.  1.
         11   -1    0    0    0    0 -0.00000000000E+00 -0.00000000000E+00 -0.45593999997E+02  0.45594000000E+02  0.51100000000E-03 0. -1.
    9900012    2    1    2    0    0  0.77220420440E+00  0.43161939951E+00  0.78133172294E+00  0.90007714483E+02  0.89999975515E+02 0.  0.
         12    1    1    2    0    0 -0.77220420440E+00 -0.43161939951E+00 -0.78133172294E+00  0.11802855166E+01  0.00000000000E+00 0. -1.
         11    1    3    3    0    0  0.86547567285E+01  0.41908181394E+01 -0.22870361150E+02  0.24809699516E+02  0.51100000000E-03 0. -1.
        -11    1    3    3    0    0  0.79181527588E+01 -0.45719400377E+01 -0.18248077509E+02  0.20410588229E+02  0.51100000000E-03 0.  1.
        -12    1    3    3    0    0 -0.15800705283E+02  0.81274129779E+00  0.41899770381E+02  0.44787426739E+02  0.00000000000E+00 0.  1.
</event>
<event>
 7    1  0.2148778E-015  0.9000789E+02  0.7816164E-02  0.1186339E+00
        -11   -1    0    0    0    0  0.00000000000E+00  0.00000000000E+00  0.45593999997E+02  0.45594000000E+02  0.51100000000E-03 0. -1.
         11   -1    0    0    0    0 -0.00000000000E+00 -0.00000000000E+00 -0.45593999997E+02  0.45594000000E+02  0.51100000000E-03 0.  1.
    9900012    2    1    2    0    0 -0.82102453019E+00  0.66863958330E+00 -0.52105102109E+00  0.90007892235E+02  0.90000155612E+02 0.  0.
         12    1    1    2    0    0  0.82102453019E+00 -0.66863958330E+00  0.52105102109E+00  0.11801077655E+01  0.00000000000E+00 0. -1.
         11    1    3    3    0    0  0.34050346476E+02 -0.76465924164E+01  0.20621425604E+02  0.40535659177E+02  0.51100000000E-03 0. -1.
        -11    1    3    3    0    0  0.27453964486E+01  0.23871378414E+01 -0.86673012933E+01  0.93998798239E+01  0.51100000000E-03 0.  1.
        -12    1    3    3    0    0 -0.37616767455E+02  0.59280941583E+01 -0.12475175332E+02  0.40072353233E+02  0.00000000000E+00 0.  1.
</event>
<event>
 7    1  0.2148778E-015  0.9000772E+02  0.7816164E-02  0.1186339E+00
        -11   -1    0    0    0    0  0.00000000000E+00  0.00000000000E+00  0.45593999997E+02  0.45594000000E+02  0.51100000000E-03 0. -1.
         11   -1    0    0    0    0 -0.00000000000E+00 -0.00000000000E+00 -0.45593999997E+02  0.45594000000E+02  0.51100000000E-03 0.  1.
    9900012    2    1    2    0    0 -0.56920500554E+00  0.22301851294E+00 -0.10096163578E+01  0.90007721734E+02  0.89999982861E+02 0.  0.
         12    1    1    2    0    0  0.56920500554E+00 -0.22301851294E+00  0.10096163578E+01  0.11802782661E+01  0.00000000000E+00 0. -1.
         11    1    3    3    0    0 -0.24556573210E+01 -0.40204865900E+02  0.26997482351E+01  0.40370163929E+02  0.51100000000E-03 0. -1.
        -11    1    3    3    0    0 -0.28219717652E+01 -0.37347681571E+01  0.15110261919E+01  0.49188635114E+01  0.51100000000E-03 0.  1.
        -12    1    3    3    0    0  0.47084240806E+01  0.44162652570E+02 -0.52203907848E+01  0.44718694293E+02  0.00000000000E+00 0.  1.
</event>
<event>
 7    1  0.2148778E-015  0.9000779E+02  0.7816164E-02  0.1186339E+00
        -11   -1    0    0    0    0  0.00000000000E+00  0.00000000000E+00  0.45593999997E+02  0.45594000000E+02  0.51100000000E-03 0.  1.
         11   -1    0    0    0    0 -0.00000000000E+00 -0.00000000000E+00 -0.45593999997E+02  0.45594000000E+02  0.51100000000E-03 0. -1.
    9900012    2    1    2    0    0 -0.84088745859E-01  0.11222145071E+01 -0.35560514411E+00  0.90007791825E+02  0.90000053877E+02 0.  0.
         12    1    1    2    0    0  0.84088745859E-01 -0.11222145071E+01  0.35560514411E+00  0.11802081747E+01  0.00000000000E+00 0. -1.
         11    1    3    3    0    0  0.62393617916E+01  0.13151653020E+02 -0.31550785176E+02  0.34746908614E+02  0.51100000000E-03 0. -1.
        -11    1    3    3    0    0 -0.15910437247E+01  0.66732337961E+01 -0.86207576776E+01  0.11017301513E+02  0.51100000000E-03 0.  1.
        -12    1    3    3    0    0 -0.47324068127E+01 -0.18702672309E+02  0.39815937710E+02  0.44243581698E+02  0.00000000000E+00 0.  1.
</event>
<event>
 7    1  0.2148778E-015  0.9000772E+02  0.7816164E-02  0.1186339E+00
        -11   -1    0    0    0    0  0.00000000000E+00  0.00000000000E+00  0.45593999997E+02  0.45594000000E+02  0.51100000000E-03 0.  1.
         11   -1    0    0    0    0 -0.00000000000E+00 -0.00000000000E+00 -0.45593999997E+02  0.45594000000E+02  0.51100000000E-03 0. -1.
    9900012    2    1    2    0    0 -0.41105092935E+00 -0.10897902253E+01 -0.19092464058E+00  0.90007721296E+02  0.89999982417E+02 0.  0.
         12    1    1    2    0    0  0.41105092935E+00  0.10897902253E+01  0.19092464058E+00  0.11802787044E+01  0.00000000000E+00 0. -1.
         11    1    3    3    0    0 -0.32133208536E+01  0.27645833870E+02 -0.14863346984E+02  0.31552125841E+02  0.51100000000E-03 0. -1.
        -11    1    3    3    0    0  0.40129531396E+01  0.60493020791E+01 -0.12394522442E+02  0.14363914347E+02  0.51100000000E-03 0.  1.
        -12    1    3    3    0    0 -0.12106832153E+01 -0.34784926175E+02  0.27066944785E+02  0.44091681107E+02  0.00000000000E+00 0.  1.
</event>
<event>
 7    1  0.2148778E-015  0.9000781E+02  0.7816164E-02  0.1186339E+00
        -11   -1    0    0    0    0  0.00000000000E+00  0.00000000000E+00  0.45593999997E+02  0.45594000000E+02  0.51100000000E-03 0. -1.
         11   -1    0    0    0    0 -0.00000000000E+00 -0.00000000000E+00 -0.45593999997E+02  0.45594000000E+02  0.51100000000E-03 0.  1.
    9900012    2    1    2    0    0 -0.40139685585E-01  0.11762582320E+01 -0.87437311696E-01  0.90007813614E+02  0.90000075953E+02 0.  0.
         12    1    1    2    0    0  0.40139685585E-01 -0.11762582320E+01  0.87437311696E-01  0.11801863862E+01  0.00000000000E+00 0. -1.
         11    1    3    3    0    0  0.39195014304E+01  0.46677384839E+01 -0.10500883731E+02  0.12141615766E+02  0.51100000000E-03 0. -1.
        -11    1    3    3    0    0 -0.13453911494E+02 -0.37771471665E+02 -0.21203974076E+01  0.40152059619E+02  0.51100000000E-03 0.  1.
         12    1    3    3    0    0  0.94942703778E+01  0.34279991413E+02  0.12533843827E+02  0.37714138229E+02  0.00000000000E+00 0. -1.
</event>
<event>
 7    1  0.2148778E-015  0.9000778E+02  0.7816164E-02  0.1186339E+00
        -11   -1    0    0    0    0  0.00000000000E+00  0.00000000000E+00  0.45593999997E+02  0.45594000000E+02  0.51100000000E-03 0. -1.
         11   -1    0    0    0    0 -0.00000000000E+00 -0.00000000000E+00 -0.45593999997E+02  0.45594000000E+02  0.51100000000E-03 0.  1.
    9900012    2    1    2    0    0 -0.25672546672E+00 -0.75534017434E+00 -0.86975564045E+00  0.90007778996E+02  0.90000040879E+02 0.  0.
         12    1    1    2    0    0  0.25672546672E+00  0.75534017434E+00  0.86975564045E+00  0.11802210040E+01  0.00000000000E+00 0. -1.
         11    1    3    3    0    0 -0.25812475204E+01 -0.27137297603E+01  0.37676013347E+02  0.37861710870E+02  0.51100000000E-03 0. -1.
        -11    1    3    3    0    0 -0.83287876114E+01  0.22277821512E+01  0.30973028521E+01  0.91610589785E+01  0.51100000000E-03 0.  1.
        -12    1    3    3    0    0  0.10653309665E+02 -0.26939256525E+00 -0.41643071840E+02  0.42985009148E+02  0.00000000000E+00 0.  1.
</event>
<event>
 7    1  0.2148778E-015  0.9000775E+02  0.7816164E-02  0.1186339E+00
        -11   -1    0    0    0    0  0.00000000000E+00  0.00000000000E+00  0.45593999997E+02  0.45594000000E+02  0.51100000000E-03 0. -1.
         11   -1    0    0    0    0 -0.00000000000E+00 -0.00000000000E+00 -0.45593999997E+02  0.45594000000E+02  0.51100000000E-03 0.  1.
    9900012    2    1    2    0    0 -0.82763620454E+00 -0.77370703767E+00 -0.33075297241E+00  0.90007745029E+02  0.90000006464E+02 0.  0.
         12    1    1    2    0    0  0.82763620454E+00  0.77370703767E+00  0.33075297241E+00  0.11802549707E+01  0.00000000000E+00 0. -1.
         11    1    3    3    0    0 -0.21082481045E+01 -0.63331351265E+01 -0.57493696650E+01  0.88095722034E+01  0.51100000000E-03 0. -1.
        -11    1    3    3    0    0 -0.36495376774E+01 -0.50658872491E+01 -0.36830193977E+02  0.37355662589E+02  0.51100000000E-03 0.  1.
         12    1    3    3    0    0  0.49301495773E+01  0.10625315338E+02  0.42248810669E+02  0.43842510237E+02  0.00000000000E+00 0. -1.
</event>
<event>
 7    1  0.2148778E-015  0.9000774E+02  0.7816164E-02  0.1186339E+00
        -11   -1    0    0    0    0  0.00000000000E+00  0.00000000000E+00  0.45593999997E+02  0.45594000000E+02  0.51100000000E-03 0. -1.
         11   -1    0    0    0    0 -0.00000000000E+00 -0.00000000000E+00 -0.45593999997E+02  0.45594000000E+02  0.51100000000E-03 0.  1.
    9900012    2    1    2    0    0 -0.82784003911E+00 -0.55498678567E+00 -0.63221068124E+00  0.90007737399E+02  0.89999998732E+02 0.  0.
         12    1    1    2    0    0  0.82784003911E+00  0.55498678567E+00  0.63221068124E+00  0.11802626013E+01  0.00000000000E+00 0. -1.
         11    1    3    3    0    0 -0.10525699143E+00  0.30173077098E+02  0.55153658670E+01  0.30673195489E+02  0.51100000000E-03 0. -1.
        -11    1    3    3    0    0 -0.14238386644E+01  0.13616848242E+02 -0.60889886948E+01  0.14984046722E+02  0.51100000000E-03 0.  1.
        -12    1    3    3    0    0  0.70125561672E+00 -0.44344912125E+02 -0.58587853461E-01  0.44350495188E+02  0.00000000000E+00 0.  1.
</event>
<event>
 7    1  0.2148778E-015  0.9000760E+02  0.7816164E-02  0.1186339E+00
        -11   -1    0    0    0    0  0.00000000000E+00  0.00000000000E+00  0.45593999997E+02  0.45594000000E+02  0.51100000000E-03 0. -1.
         11   -1    0    0    0    0 -0.00000000000E+00 -0.00000000000E+00 -0.45593999997E+02  0.45594000000E+02  0.51100000000E-03 0.  1.
    9900012    2    1    2    0    0 -0.63087261228E-01  0.70474960619E+00 -0.94482076120E+00  0.90007602490E+02  0.89999862043E+02 0.  0.
         12    1    1    2    0    0  0.63087261228E-01 -0.70474960619E+00  0.94482076120E+00  0.11803975096E+01  0.00000000000E+00 0. -1.
         11    1    3    3    0    0  0.70887443270E+01  0.32138279356E+02  0.14907512089E+02  0.36129672197E+02  0.51100000000E-03 0. -1.
        -11    1    3    3    0    0  0.60962530059E+01  0.31192751609E+01  0.74718407157E+01  0.10135214955E+02  0.51100000000E-03 0.  1.
        -12    1    3    3    0    0 -0.13248084594E+02 -0.34552804911E+02 -0.23324173566E+02  0.43742715338E+02  0.00000000000E+00 0.  1.
</event>
<event>
 7    1  0.2148778E-015  0.9000771E+02  0.7816164E-02  0.1186339E+00
        -11   -1    0    0    0    0  0.00000000000E+00  0.00000000000E+00  0.45593999997E+02  0.45594000000E+02  0.51100000000E-03 0.  1.
         11   -1    0    0    0    0 -0.00000000000E+00 -0.00000000000E+00 -0.45593999997E+02  0.45594000000E+02  0.51100000000E-03 0. -1.
    9900012    2    1    2    0    0  0.11322450278E+01 -0.17247264592E+00  0.28523467753E+00  0.90007710020E+02  0.89999970992E+02 0.  0.
         12    1    1    2    0    0 -0.11322450278E+01  0.17247264592E+00 -0.28523467753E+00  0.11802899804E+01  0.00000000000E+00 0. -1.
         11    1    3    3    0    0 -0.48489855348E+01  0.14123010600E+02 -0.34437229337E+02  0.37535248152E+02  0.51100000000E-03 0. -1.
        -11    1    3    3    0    0  0.88126366766E+01 -0.29436648019E+01 -0.53537849350E+01  0.10723373585E+02  0.51100000000E-03 0.  1.
        -12    1    3    3    0    0 -0.28314061141E+01 -0.11351818444E+02  0.40076248950E+02  0.41749088283E+02  0.00000000000E+00 0.  1.
</event>
<event>
 7    1  0.2148778E-015  0.9000773E+02  0.7816164E-02  0.1186339E+00
        -11   -1    0    0    0    0  0.00000000000E+00  0.00000000000E+00  0.45593999997E+02  0.45594000000E+02  0.51100000000E-03 0. -1.
         11   -1    0    0    0    0 -0.00000000000E+00 -0.00000000000E+00 -0.45593999997E+02  0.45594000000E+02  0.51100000000E-03 0.  1.
    9900012    2    1    2    0    0 -0.21599460593E+00  0.18109205013E+00 -0.11461230493E+01  0.90007726284E+02  0.89999987471E+02 0.  0.
         12    1    1    2    0    0  0.21599460593E+00 -0.18109205013E+00  0.11461230493E+01  0.11802737159E+01  0.00000000000E+00 0. -1.
         11    1    3    3    0    0  0.66379162127E+01  0.27742973352E+01  0.35217794509E+02  0.35945120777E+02  0.51100000000E-03 0. -1.
        -11    1    3    3    0    0 -0.19814349881E+00 -0.44033782711E+01  0.80170265151E+01  0.91488641617E+01  0.51100000000E-03 0.  1.
        -12    1    3    3    0    0 -0.66557673198E+01  0.18101729861E+01 -0.44380944073E+02  0.44913741346E+02  0.00000000000E+00 0.  1.
</event>
<event>
 7    1  0.2148778E-015  0.9000781E+02  0.7816164E-02  0.1186339E+00
        -11   -1    0    0    0    0  0.00000000000E+00  0.00000000000E+00  0.45593999997E+02  0.45594000000E+02  0.51100000000E-03 0. -1.
         11   -1    0    0    0    0 -0.00000000000E+00 -0.00000000000E+00 -0.45593999997E+02  0.45594000000E+02  0.51100000000E-03 0.  1.
    9900012    2    1    2    0    0  0.68559369331E+00 -0.90925221950E+00 -0.30993321329E+00  0.90007814884E+02  0.90000077241E+02 0.  0.
         12    1    1    2    0    0 -0.68559369331E+00  0.90925221950E+00  0.30993321329E+00  0.11801851158E+01  0.00000000000E+00 0. -1.
         11    1    3    3    0    0  0.58749225087E+01  0.35089524034E+02  0.68264639689E+01  0.36226923993E+02  0.51100000000E-03 0. -1.
        -11    1    3    3    0    0  0.12209022141E+01  0.71609856173E+01 -0.70855288737E+01  0.10147661647E+02  0.51100000000E-03 0.  1.
        -12    1    3    3    0    0 -0.64102310294E+01 -0.43159761871E+02 -0.50868308487E-01  0.43633229243E+02  0.00000000000E+00 0.  1.
</event>
<event>
 7    1  0.2148778E-015  0.9000780E+02  0.7816164E-02  0.1186339E+00
        -11   -1    0    0    0    0  0.00000000000E+00  0.00000000000E+00  0.45593999997E+02  0.45594000000E+02  0.51100000000E-03 0.  1.
         11   -1    0    0    0    0 -0.00000000000E+00 -0.00000000000E+00 -0.45593999997E+02  0.45594000000E+02  0.51100000000E-03 0. -1.
    9900012    2    1    2    0    0  0.96986451229E+00  0.33071405506E+00  0.58555194120E+00  0.90007796613E+02  0.90000058728E+02 0.  0.
         12    1    1    2    0    0 -0.96986451229E+00 -0.33071405506E+00 -0.58555194120E+00  0.11802033868E+01  0.00000000000E+00 0. -1.
         11    1    3    3    0    0 -0.39050339088E+01 -0.16644308036E+02 -0.57906208875E+00  0.17106068893E+02  0.51100000000E-03 0. -1.
        -11    1    3    3    0    0 -0.30556387420E+02  0.42933809900E+01 -0.11891759819E+02  0.33068714585E+02  0.51100000000E-03 0.  1.
         12    1    3    3    0    0  0.35431285841E+02  0.12681641101E+02  0.13056373849E+02  0.39833013135E+02  0.00000000000E+00 0. -1.
</event>
<event>
 7    1  0.2148778E-015  0.9000780E+02  0.7816164E-02  0.1186339E+00
        -11   -1    0    0    0    0  0.00000000000E+00  0.00000000000E+00  0.45593999997E+02  0.45594000000E+02  0.51100000000E-03 0. -1.
         11   -1    0    0    0    0 -0.00000000000E+00 -0.00000000000E+00 -0.45593999997E+02  0.45594000000E+02  0.51100000000E-03 0.  1.
    9900012    2    1    2    0    0  0.61605543470E+00  0.10011113030E+01  0.10545224205E+00  0.90007801578E+02  0.90000063759E+02 0.  0.
         12    1    1    2    0    0 -0.61605543470E+00 -0.10011113030E+01 -0.10545224205E+00  0.11801984219E+01  0.00000000000E+00 0. -1.
         11    1    3    3    0    0 -0.83765312032E+01 -0.40375334785E+01  0.13290854389E+01  0.93933178351E+01  0.51100000000E-03 0. -1.
        -11    1    3    3    0    0 -0.24886719932E+02 -0.14998304490E+02 -0.21681512839E+02  0.36254461322E+02  0.51100000000E-03 0.  1.
         12    1    3    3    0    0  0.33879306570E+02  0.20036949271E+02  0.20457879642E+02  0.44360022421E+02  0.00000000000E+00 0. -1.
</event>
<event>
 7    1  0.2148778E-015  0.9000781E+02  0.7816164E-02  0.1186339E+00
        -11   -1    0    0    0    0  0.00000000000E+00  0.00000000000E+00  0.45593999997E+02  0.45594000000E+02  0.51100000000E-03 0.  1.
         11   -1    0    0    0    0 -0.00000000000E+00 -0.00000000000E+00 -0.45593999997E+02  0.45594000000E+02  0.51100000000E-03 0. -1.
    9900012    2    1    2    0    0 -0.38014898063E+00 -0.47054133601E+00  0.10133680965E+01  0.90007814720E+02  0.90000077074E+02 0.  0.
         12    1    1    2    0    0  0.38014898063E+00  0.47054133601E+00 -0.10133680965E+01  0.11801852801E+01  0.00000000000E+00 0. -1.
         11    1    3    3    0    0  0.19649779318E+02  0.89058608239E+01 -0.15149736026E+02  0.26361765612E+02  0.51100000000E-03 0. -1.
        -11    1    3    3    0    0  0.57702004720E+01  0.44347951619E+00 -0.18470845607E+02  0.19356239957E+02  0.51100000000E-03 0.  1.
        -12    1    3    3    0    0 -0.25800128771E+02 -0.98198816761E+01  0.34633949730E+02  0.44289809151E+02  0.00000000000E+00 0.  1.
</event>
<event>
 7    1  0.2148778E-015  0.9000778E+02  0.7816164E-02  0.1186339E+00
        -11   -1    0    0    0    0  0.00000000000E+00  0.00000000000E+00  0.45593999997E+02  0.45594000000E+02  0.51100000000E-03 0.  1.
         11   -1    0    0    0    0 -0.00000000000E+00 -0.00000000000E+00 -0.45593999997E+02  0.45594000000E+02  0.51100000000E-03 0. -1.
    9900012    2    1    2    0    0 -0.85675088243E-01 -0.10788821820E+01  0.47073266988E+00  0.90007781279E+02  0.90000043192E+02 0.  0.
         12    1    1    2    0    0  0.85675088243E-01  0.10788821820E+01 -0.47073266988E+00  0.11802187212E+01  0.00000000000E+00 0. -1.
         11    1    3    3    0    0  0.38260528141E+02  0.10343861584E+02 -0.17430457473E+02  0.43297625039E+02  0.51100000000E-03 0. -1.
        -11    1    3    3    0    0 -0.10029133465E+01  0.29464701317E+01  0.94087280404E+00  0.32515785877E+01  0.51100000000E-03 0.  1.
        -12    1    3    3    0    0 -0.37343289883E+02 -0.14369213898E+02  0.16960317339E+02  0.43458577652E+02  0.00000000000E+00 0.  1.
</event>
<event>
 7    1  0.2148778E-015  0.9000773E+02  0.7816164E-02  0.1186339E+00
        -11   -1    0    0    0    0  0.00000000000E+00  0.00000000000E+00  0.45593999997E+02  0.45594000000E+02  0.51100000000E-03 0.  1.
         11   -1    0    0    0    0 -0.00000000000E+00 -0.00000000000E+00 -0.45593999997E+02  0.45594000000E+02  0.51100000000E-03 0. -1.
    9900012    2    1    2    0    0  0.86004540660E+00  0.26204202476E+00  0.76464658890E+00  0.90007733704E+02  0.89999994989E+02 0.  0.
         12    1    1    2    0    0 -0.86004540660E+00 -0.26204202476E+00 -0.76464658890E+00  0.11802662963E+01  0.00000000000E+00 0. -1.
         11    1    3    3    0    0 -0.70871817781E+01  0.52025452928E+01 -0.45139709626E+01  0.98828415545E+01  0.51100000000E-03 0. -1.
        -11    1    3    3    0    0 -0.12902968128E+02 -0.15084650546E+02  0.36313459115E+02  0.41384786839E+02  0.51100000000E-03 0.  1.
         12    1    3    3    0    0  0.20850195312E+02  0.10144147278E+02 -0.31034841563E+02  0.38740105310E+02  0.00000000000E+00 0. -1.
</event>
<event>
 7    1  0.2148778E-015  0.9000776E+02  0.7816164E-02  0.1186339E+00
        -11   -1    0    0    0    0  0.00000000000E+00  0.00000000000E+00  0.45593999997E+02  0.45594000000E+02  0.51100000000E-03 0.  1.
         11   -1    0    0    0    0 -0.00000000000E+00 -0.00000000000E+00 -0.45593999997E+02  0.45594000000E+02  0.51100000000E-03 0. -1.
    9900012    2    1    2    0    0 -0.11271683608E+00 -0.59884420894E+00  0.10107647186E+01  0.90007760707E+02  0.90000022349E+02 0.  0.
         12    1    1    2    0    0  0.11271683608E+00  0.59884420894E+00 -0.10107647186E+01  0.11802392928E+01  0.00000000000E+00 0. -1.
         11    1    3    3    0    0  0.64587052197E+01 -0.26862409515E+02 -0.27965945126E+02  0.39311550530E+02  0.51100000000E-03 0. -1.
        -11    1    3    3    0    0  0.91471178080E+01 -0.64548225280E+00  0.17950258460E+01  0.93439033375E+01  0.51100000000E-03 0.  1.
        -12    1    3    3    0    0 -0.15718539864E+02  0.26909047559E+02  0.27181683998E+02  0.41352306839E+02  0.00000000000E+00 0.  1.
</event>
<event>
 7    1  0.2148778E-015  0.9000794E+02  0.7816164E-02  0.1186339E+00
        -11   -1    0    0    0    0  0.00000000000E+00  0.00000000000E+00  0.45593999997E+02  0.45594000000E+02  0.51100000000E-03 0. -1.
         11   -1    0    0    0    0 -0.00000000000E+00 -0.00000000000E+00 -0.45593999997E+02  0.45594000000E+02  0.51100000000E-03 0.  1.
    9900012    2    1    2    0    0  0.23623033685E+00  0.96385854031E+00 -0.63852044539E+00  0.90007942198E+02  0.90000206234E+02 0.  0.
         12    1    1    2    0    0 -0.23623033685E+00 -0.96385854031E+00  0.63852044539E+00  0.11800578024E+01  0.00000000000E+00 0. -1.
         11    1    3    3    0    0 -0.69468487950E+01 -0.19191992159E+01 -0.51507797886E+01  0.88584742762E+01  0.51100000000E-03 0. -1.
        -11    1    3    3    0    0 -0.38329458712E+01  0.13668260211E+02 -0.35519835862E+02  0.38251425479E+02  0.51100000000E-03 0.  1.
         12    1    3    3    0    0  0.11016025003E+02 -0.10785202455E+02  0.40032095205E+02  0.42898042442E+02  0.00000000000E+00 0. -1.
</event>
<event>
 7    1  0.2148778E-015  0.9000777E+02  0.7816164E-02  0.1186339E+00
        -11   -1    0    0    0    0  0.00000000000E+00  0.00000000000E+00  0.45593999997E+02  0.45594000000E+02  0.51100000000E-03 0.  1.
         11   -1    0    0    0    0 -0.00000000000E+00 -0.00000000000E+00 -0.45593999997E+02  0.45594000000E+02  0.51100000000E-03 0. -1.
    9900012    2    1    2    0    0  0.77123457574E-01 -0.13742024238E-02  0.11777051403E+01  0.90007771499E+02  0.90000033283E+02 0.  0.
         12    1    1    2    0    0 -0.77123457574E-01  0.13742024238E-02 -0.11777051403E+01  0.11802285006E+01  0.00000000000E+00 0. -1.
         11    1    3    3    0    0 -0.15923605792E+01  0.95400965591E+01  0.52266546084E+00  0.96861877959E+01  0.51100000000E-03 0. -1.
        -11    1    3    3    0    0  0.15926214904E+02 -0.14950483600E+01  0.37082014143E+02  0.40385087148E+02  0.51100000000E-03 0.  1.
         12    1    3    3    0    0 -0.14256730868E+02 -0.80464224015E+01 -0.36426974464E+02  0.39936496555E+02  0.00000000000E+00 0. -1.
</event>
<event>
 7    1  0.2148778E-015  0.9000777E+02  0.7816164E-02  0.1186339E+00
        -11   -1    0    0    0    0  0.00000000000E+00  0.00000000000E+00  0.45593999997E+02  0.45594000000E+02  0.51100000000E-03 0.  1.
         11   -1    0    0    0    0 -0.00000000000E+00 -0.00000000000E+00 -0.45593999997E+02  0.45594000000E+02  0.51100000000E-03 0. -1.
    9900012    2    1    2    0    0 -0.68611663006E+00 -0.95862640796E+00 -0.56813923958E-01  0.90007767632E+02  0.90000029365E+02 0.  0.
         12    1    1    2    0    0  0.68611663006E+00  0.95862640796E+00  0.56813923958E-01  0.11802323678E+01  0.00000000000E+00 0. -1.
         11    1    3    3    0    0 -0.40853557017E+02  0.60765533791E+01 -0.57043164604E-01  0.41303037129E+02  0.51100000000E-03 0. -1.
        -11    1    3    3    0    0  0.21624734243E+01 -0.64117145312E+01  0.73501535007E+01  0.99905521011E+01  0.51100000000E-03 0.  1.
        -12    1    3    3    0    0  0.38004966962E+02 -0.62346525594E+00 -0.73499242601E+01  0.38714178402E+02  0.00000000000E+00 0.  1.
</event>
<event>
 7    1  0.2148778E-015  0.9000774E+02  0.7816164E-02  0.1186339E+00
        -11   -1    0    0    0    0  0.00000000000E+00  0.00000000000E+00  0.45593999997E+02  0.45594000000E+02  0.51100000000E-03 0. -1.
         11   -1    0    0    0    0 -0.00000000000E+00 -0.00000000000E+00 -0.45593999997E+02  0.45594000000E+02  0.51100000000E-03 0.  1.
    9900012    2    1    2    0    0  0.92215363900E+00 -0.56492334250E+00 -0.47275463679E+00  0.90007744662E+02  0.90000006091E+02 0.  0.
         12    1    1    2    0    0 -0.92215363900E+00  0.56492334250E+00  0.47275463679E+00  0.11802553382E+01  0.00000000000E+00 0. -1.
         11    1    3    3    0    0 -0.27583082869E+02 -0.10988668937E+02  0.23684601911E+02  0.37980753988E+02  0.51100000000E-03 0. -1.
        -11    1    3    3    0    0  0.33869093939E+01  0.58507012624E+01  0.83170798982E+01  0.10718007221E+02  0.51100000000E-03 0.  1.
        -12    1    3    3    0    0  0.25118327114E+02  0.45730443321E+01 -0.32474436445E+02  0.41308983453E+02  0.00000000000E+00 0.  1.
</event>
<event>
 7    1  0.2148778E-015  0.9000773E+02  0.7816164E-02  0.1186339E+00
        -11   -1    0    0    0    0  0.00000000000E+00  0.00000000000E+00  0.45593999997E+02  0.45594000000E+02  0.51100000000E-03 0.  1.
         11   -1    0    0    0    0 -0.00000000000E+00 -0.00000000000E+00 -0.45593999997E+02  0.45594000000E+02  0.51100000000E-03 0. -1.
    9900012    2    1    2    0    0 -0.37332357122E+00 -0.10633467079E+00  0.11146147060E+01  0.90007727365E+02  0.89999988566E+02 0.  0.
         12    1    1    2    0    0  0.37332357122E+00  0.10633467079E+00 -0.11146147060E+01  0.11802726354E+01  0.00000000000E+00 0. -1.
         11    1    3    3    0    0  0.18487202739E+01 -0.20623728314E+00 -0.41923000103E+02  0.41964249527E+02  0.51100000000E-03 0. -1.
        -11    1    3    3    0    0  0.62687288151E+01  0.57426378693E+01  0.84573482816E+01  0.11991730103E+02  0.51100000000E-03 0.  1.
        -12    1    3    3    0    0 -0.84907726602E+01 -0.56427352570E+01  0.34580266528E+02  0.36051747734E+02  0.00000000000E+00 0.  1.
</event>
<event>
 7    1  0.2148778E-015  0.9000770E+02  0.7816164E-02  0.1186339E+00
        -11   -1    0    0    0    0  0.00000000000E+00  0.00000000000E+00  0.45593999997E+02  0.45594000000E+02  0.51100000000E-03 0.  1.
         11   -1    0    0    0    0 -0.00000000000E+00 -0.00000000000E+00 -0.45593999997E+02  0.45594000000E+02  0.51100000000E-03 0. -1.
    9900012    2    1    2    0    0  0.18925918778E+00  0.88214180320E+00  0.76098935490E+00  0.90007704275E+02  0.89999965171E+02 0.  0.
         12    1    1    2    0    0 -0.18925918778E+00 -0.88214180320E+00 -0.76098935490E+00  0.11802957254E+01  0.00000000000E+00 0. -1.
         11    1    3    3    0    0  0.50754316875E+01  0.57073554650E+01  0.12960492022E+01  0.77468481987E+01  0.51100000000E-03 0. -1.
        -11    1    3    3    0    0 -0.12965798546E+02 -0.19161914779E+02  0.35655608275E+02  0.42504274040E+02  0.51100000000E-03 0.  1.
         12    1    3    3    0    0  0.80796260468E+01  0.14336701117E+02 -0.36190668123E+02  0.39756582036E+02  0.00000000000E+00 0. -1.
</event>
<event>
 7    1  0.2148778E-015  0.9000776E+02  0.7816164E-02  0.1186339E+00
        -11   -1    0    0    0    0  0.00000000000E+00  0.00000000000E+00  0.45593999997E+02  0.45594000000E+02  0.51100000000E-03 0.  1.
         11   -1    0    0    0    0 -0.00000000000E+00 -0.00000000000E+00 -0.45593999997E+02  0.45594000000E+02  0.51100000000E-03 0. -1.
    9900012    2    1    2    0    0  0.11316242950E+01  0.31300307062E+00 -0.12005448722E+00  0.90007763775E+02  0.90000025457E+02 0.  0.
         12    1    1    2    0    0 -0.11316242950E+01 -0.31300307062E+00  0.12005448722E+00  0.11802362251E+01  0.00000000000E+00 0. -1.
         11    1    3    3    0    0 -0.26636393516E+02  0.11002930398E+02 -0.30624508939E+02  0.42052615672E+02  0.51100000000E-03 0. -1.
        -11    1    3    3    0    0  0.42752030588E+01  0.64568268015E+01  0.46011948963E+01  0.90077171511E+01  0.51100000000E-03 0.  1.
        -12    1    3    3    0    0  0.23492814752E+02 -0.17146754129E+02  0.25903259555E+02  0.38947430952E+02  0.00000000000E+00 0.  1.
</event>
<event>
 7    1  0.2148778E-015  0.9000776E+02  0.7816164E-02  0.1186339E+00
        -11   -1    0    0    0    0  0.00000000000E+00  0.00000000000E+00  0.45593999997E+02  0.45594000000E+02  0.51100000000E-03 0.  1.
         11   -1    0    0    0    0 -0.00000000000E+00 -0.00000000000E+00 -0.45593999997E+02  0.45594000000E+02  0.51100000000E-03 0. -1.
    9900012    2    1    2    0    0 -0.97018540274E+00  0.68342431294E-01  0.66861233904E+00  0.90007757286E+02  0.90000018882E+02 0.  0.
         12    1    1    2    0    0  0.97018540274E+00 -0.68342431294E-01 -0.66861233904E+00  0.11802427138E+01  0.00000000000E+00 0. -1.
         11    1    3    3    0    0 -0.91517778493E+01 -0.10655835865E+02 -0.89009227378E+01  0.16629140135E+02  0.51100000000E-03 0. -1.
        -11    1    3    3    0    0 -0.30112435499E+02  0.78365375815E+01 -0.64357805150E+01  0.31774036005E+02  0.51100000000E-03 0.  1.
         12    1    3    3    0    0  0.38294027945E+02  0.28876407146E+01  0.16005315592E+02  0.41604581146E+02  0.00000000000E+00 0. -1.
</event>
<event>
 7    1  0.2148778E-015  0.9000774E+02  0.7816164E-02  0.1186339E+00
        -11   -1    0    0    0    0  0.00000000000E+00  0.00000000000E+00  0.45593999997E+02  0.45594000000E+02  0.51100000000E-03 0.  1.
         11   -1    0    0    0    0 -0.00000000000E+00 -0.00000000000E+00 -0.45593999997E+02  0.45594000000E+02  0.51100000000E-03 0. -1.
    9900012    2    1    2    0    0 -0.74442228994E+00 -0.88902499350E+00  0.22017560587E+00  0.90007742705E+02  0.90000004109E+02 0.  0.
         12    1    1    2    0    0  0.74442228994E+00  0.88902499350E+00 -0.22017560587E+00  0.11802572949E+01  0.00000000000E+00 0. -1.
         11    1    3    3    0    0 -0.47279966515E+01 -0.92711620007E+01  0.26330356675E+01  0.10735048871E+02  0.51100000000E-03 0. -1.
        -11    1    3    3    0    0 -0.33447343508E+02  0.35507251841E+01 -0.18337441906E+02  0.38309192278E+02  0.51100000000E-03 0.  1.
         12    1    3    3    0    0  0.37430917870E+02  0.48314118231E+01  0.15924581844E+02  0.40963501556E+02  0.00000000000E+00 0. -1.
</event>
<event>
 7    1  0.2148778E-015  0.9000783E+02  0.7816164E-02  0.1186339E+00
        -11   -1    0    0    0    0  0.00000000000E+00  0.00000000000E+00  0.45593999997E+02  0.45594000000E+02  0.51100000000E-03 0.  1.
         11   -1    0    0    0    0 -0.00000000000E+00 -0.00000000000E+00 -0.45593999997E+02  0.45594000000E+02  0.51100000000E-03 0. -1.
    9900012    2    1    2    0    0 -0.74274594211E-01 -0.74036556196E-01  0.11755018884E+01  0.90007829327E+02  0.90000091874E+02 0.  0.
         12    1    1    2    0    0  0.74274594211E-01  0.74036556196E-01 -0.11755018884E+01  0.11801706727E+01  0.00000000000E+00 0. -1.
         11    1    3    3    0    0 -0.12664680671E-01 -0.65731853870E+01 -0.27273637745E+02  0.28054558322E+02  0.51100000000E-03 0. -1.
        -11    1    3    3    0    0 -0.13638084680E+02  0.22261691489E+02 -0.73027303104E+00  0.26117303855E+02  0.51100000000E-03 0.  1.
         12    1    3    3    0    0  0.13576474766E+02 -0.15762542658E+02  0.29179412665E+02  0.35835967150E+02  0.00000000000E+00 0. -1.
</event>
<event>
 7    1  0.2148778E-015  0.9000775E+02  0.7816164E-02  0.1186339E+00
        -11   -1    0    0    0    0  0.00000000000E+00  0.00000000000E+00  0.45593999997E+02  0.45594000000E+02  0.51100000000E-03 0.  1.
         11   -1    0    0    0    0 -0.00000000000E+00 -0.00000000000E+00 -0.45593999997E+02  0.45594000000E+02  0.51100000000E-03 0. -1.
    9900012    2    1    2    0    0 -0.24202701311E+00 -0.21124103495E+00  0.11356864331E+01  0.90007752770E+02  0.90000014306E+02 0.  0.
         12    1    1    2    0    0  0.24202701311E+00  0.21124103495E+00 -0.11356864331E+01  0.11802472302E+01  0.00000000000E+00 0. -1.
         11    1    3    3    0    0  0.63536532261E+01 -0.33194020746E+01  0.64564847064E+01  0.96474625926E+01  0.51100000000E-03 0. -1.
        -11    1    3    3    0    0 -0.18702212785E+02  0.35857537857E+02  0.10864710257E+02  0.41875741348E+02  0.51100000000E-03 0.  1.
         12    1    3    3    0    0  0.12106532545E+02 -0.32749376817E+02 -0.16185508530E+02  0.38484548829E+02  0.00000000000E+00 0. -1.
</event>
<event>
 7    1  0.2148778E-015  0.9000768E+02  0.7816164E-02  0.1186339E+00
        -11   -1    0    0    0    0  0.00000000000E+00  0.00000000000E+00  0.45593999997E+02  0.45594000000E+02  0.51100000000E-03 0.  1.
         11   -1    0    0    0    0 -0.00000000000E+00 -0.00000000000E+00 -0.45593999997E+02  0.45594000000E+02  0.51100000000E-03 0. -1.
    9900012    2    1    2    0    0 -0.11679746191E+01 -0.97329341943E-01  0.13966700110E+00  0.90007684541E+02  0.89999945177E+02 0.  0.
         12    1    1    2    0    0  0.11679746191E+01  0.97329341943E-01 -0.13966700110E+00  0.11803154590E+01  0.00000000000E+00 0. -1.
         11    1    3    3    0    0 -0.29609941024E+01  0.20602284145E+02 -0.32875031691E+02  0.38910015510E+02  0.51100000000E-03 0. -1.
        -11    1    3    3    0    0  0.65805570922E+01  0.25383180672E+01 -0.32462434038E+01  0.77643342762E+01  0.51100000000E-03 0.  1.
        -12    1    3    3    0    0 -0.47875376088E+01 -0.23237931554E+02  0.36260942096E+02  0.43333334755E+02  0.00000000000E+00 0.  1.
</event>
<event>
 7    1  0.2148778E-015  0.9000773E+02  0.7816164E-02  0.1186339E+00
        -11   -1    0    0    0    0  0.00000000000E+00  0.00000000000E+00  0.45593999997E+02  0.45594000000E+02  0.51100000000E-03 0. -1.
         11   -1    0    0    0    0 -0.00000000000E+00 -0.00000000000E+00 -0.45593999997E+02  0.45594000000E+02  0.51100000000E-03 0.  1.
    9900012    2    1    2    0    0  0.33579609711E+00  0.59481276159E+00 -0.96253382435E+00  0.90007731978E+02  0.89999993240E+02 0.  0.
         12    1    1    2    0    0 -0.33579609711E+00 -0.59481276159E+00  0.96253382435E+00  0.11802680218E+01  0.00000000000E+00 0. -1.
         11    1    3    3    0    0 -0.81631929833E+01 -0.57015036641E+01 -0.15577502902E+01  0.10078266217E+02  0.51100000000E-03 0. -1.
        -11    1    3    3    0    0 -0.13321007200E+02 -0.26694074795E+02 -0.19422991566E+02  0.35598812671E+02  0.51100000000E-03 0.  1.
         12    1    3    3    0    0  0.21819996281E+02  0.32990391220E+02  0.20018208032E+02  0.44330653090E+02  0.00000000000E+00 0. -1.
</event>
<event>
 7    1  0.2148778E-015  0.9000767E+02  0.7816164E-02  0.1186339E+00
        -11   -1    0    0    0    0  0.00000000000E+00  0.00000000000E+00  0.45593999997E+02  0.45594000000E+02  0.51100000000E-03 0.  1.
         11   -1    0    0    0    0 -0.00000000000E+00 -0.00000000000E+00 -0.45593999997E+02  0.45594000000E+02  0.51100000000E-03 0. -1.
    9900012    2    1    2    0    0  0.62114347419E+00  0.87883397628E+00  0.48478764936E+00  0.90007666387E+02  0.89999926783E+02 0.  0.
         12    1    1    2    0    0 -0.62114347419E+00 -0.87883397628E+00 -0.48478764936E+00  0.11803336132E+01  0.00000000000E+00 0. -1.
         11    1    3    3    0    0 -0.32220252596E+02  0.78776525492E+01 -0.22152188587E+02  0.39886357900E+02  0.51100000000E-03 0. -1.
        -11    1    3    3    0    0 -0.48908744933E+01 -0.39819566703E+01  0.62324757633E+01  0.88668137814E+01  0.51100000000E-03 0.  1.
        -12    1    3    3    0    0  0.37732270564E+02 -0.30168619026E+01  0.16404500473E+02  0.41254494706E+02  0.00000000000E+00 0.  1.
</event>
<event>
 7    1  0.2148778E-015  0.9000777E+02  0.7816164E-02  0.1186339E+00
        -11   -1    0    0    0    0  0.00000000000E+00  0.00000000000E+00  0.45593999997E+02  0.45594000000E+02  0.51100000000E-03 0. -1.
         11   -1    0    0    0    0 -0.00000000000E+00 -0.00000000000E+00 -0.45593999997E+02  0.45594000000E+02  0.51100000000E-03 0.  1.
    9900012    2    1    2    0    0  0.25346779272E+00 -0.57325209091E+00 -0.10000388017E+01  0.90007770579E+02  0.90000032351E+02 0.  0.
         12    1    1    2    0    0 -0.25346779272E+00  0.57325209091E+00  0.10000388017E+01  0.11802294211E+01  0.00000000000E+00 0. -1.
         11    1    3    3    0    0 -0.26113933338E+02 -0.12937617557E+02  0.25029062051E+02  0.38415796358E+02  0.51100000000E-03 0. -1.
        -11    1    3    3    0    0  0.18210174912E+02  0.26977357553E+01  0.41487518499E+01  0.18870622425E+02  0.51100000000E-03 0.  1.
        -12    1    3    3    0    0  0.81572262181E+01  0.96666297104E+01 -0.30177852703E+02  0.32721351795E+02  0.00000000000E+00 0.  1.
</event>
<event>
 7    1  0.2148778E-015  0.9000768E+02  0.7816164E-02  0.1186339E+00
        -11   -1    0    0    0    0  0.00000000000E+00  0.00000000000E+00  0.45593999997E+02  0.45594000000E+02  0.51100000000E-03 0. -1.
         11   -1    0    0    0    0 -0.00000000000E+00 -0.00000000000E+00 -0.45593999997E+02  0.45594000000E+02  0.51100000000E-03 0.  1.
    9900012    2    1    2    0    0  0.10196794223E+01 -0.44601364085E-01 -0.59280624887E+00  0.90007680274E+02  0.89999940854E+02 0.  0.
         12    1    1    2    0    0 -0.10196794223E+01  0.44601364085E-01  0.59280624887E+00  0.11803197256E+01  0.00000000000E+00 0. -1.
         11    1    3    3    0    0  0.21096782028E+02 -0.17565750959E+02  0.28189527450E+02  0.39348180095E+02  0.51100000000E-03 0. -1.
        -11    1    3    3    0    0  0.59297227839E+01  0.55742169570E+01  0.22509955909E+01  0.84439616525E+01  0.51100000000E-03 0.  1.
        -12    1    3    3    0    0 -0.26006825390E+02  0.11946932638E+02 -0.31033329289E+02  0.42215538527E+02  0.00000000000E+00 0.  1.
</event>
<event>
 7    1  0.4164712E-015  0.9000799E+02  0.7816164E-02  0.1186339E+00
        -11   -1    0    0    0    0  0.00000000000E+00  0.00000000000E+00  0.45593999997E+02  0.45594000000E+02  0.51100000000E-03 0.  1.
         11   -1    0    0    0    0 -0.00000000000E+00 -0.00000000000E+00 -0.45593999997E+02  0.45594000000E+02  0.51100000000E-03 0. -1.
    9900012    2    1    2    0    0 -0.65254490084E+00 -0.55824117162E+00  0.80930686352E+00  0.90007989130E+02  0.90000253786E+02 0.  0.
         12    1    1    2    0    0  0.65254490084E+00  0.55824117162E+00 -0.80930686352E+00  0.11800108697E+01  0.00000000000E+00 0. -1.
         11    1    3    3    0    0  0.71748479690E+01  0.16798722399E+01 -0.57625251600E+01  0.93545235369E+01  0.51100000000E-03 0. -1.
        -11    1    3    3    0    0 -0.26795876506E+01  0.11288379663E+02  0.41369719496E+02  0.42965816608E+02  0.51100000000E-03 0.  1.
         12    1    3    3    0    0 -0.51478052193E+01 -0.13526493075E+02 -0.34797887472E+02  0.37687648985E+02  0.00000000000E+00 0. -1.
</event>
<event>
 7    1  0.2148778E-015  0.9000782E+02  0.7816164E-02  0.1186339E+00
        -11   -1    0    0    0    0  0.00000000000E+00  0.00000000000E+00  0.45593999997E+02  0.45594000000E+02  0.51100000000E-03 0.  1.
         11   -1    0    0    0    0 -0.00000000000E+00 -0.00000000000E+00 -0.45593999997E+02  0.45594000000E+02  0.51100000000E-03 0. -1.
    9900012    2    1    2    0    0 -0.90406000484E+00 -0.70450631315E+00 -0.28137296846E+00  0.90007820190E+02  0.90000082616E+02 0.  0.
         12    1    1    2    0    0  0.90406000484E+00  0.70450631315E+00  0.28137296846E+00  0.11801798105E+01  0.00000000000E+00 0. -1.
         11    1    3    3    0    0  0.34326795363E+00 -0.10107727235E+02  0.40519873769E+01  0.10895071579E+02  0.51100000000E-03 0. -1.
        -11    1    3    3    0    0  0.46119872787E+01  0.17971558578E+02  0.34360990210E+02  0.39050288000E+02  0.51100000000E-03 0.  1.
         12    1    3    3    0    0 -0.58593152372E+01 -0.85683376567E+01 -0.38694350556E+02  0.40062460611E+02  0.00000000000E+00 0. -1.
</event>
<event>
 7    1  0.2148778E-015  0.9000776E+02  0.7816164E-02  0.1186339E+00
        -11   -1    0    0    0    0  0.00000000000E+00  0.00000000000E+00  0.45593999997E+02  0.45594000000E+02  0.51100000000E-03 0.  1.
         11   -1    0    0    0    0 -0.00000000000E+00 -0.00000000000E+00 -0.45593999997E+02  0.45594000000E+02  0.51100000000E-03 0. -1.
    9900012    2    1    2    0    0 -0.25262585443E+00 -0.52666128918E+00  0.10255613416E+01  0.90007759346E+02  0.90000020969E+02 0.  0.
         12    1    1    2    0    0  0.25262585443E+00  0.52666128918E+00 -0.10255613416E+01  0.11802406539E+01  0.00000000000E+00 0. -1.
         11    1    3    3    0    0  0.31613646247E+02  0.17495270298E+02 -0.18799167281E+02  0.40729790112E+02  0.51100000000E-03 0. -1.
        -11    1    3    3    0    0 -0.87314846768E+01  0.62339456592E+01  0.85427953566E+00  0.10762467047E+02  0.51100000000E-03 0.  1.
        -12    1    3    3    0    0 -0.23134787425E+02 -0.24255877247E+02  0.18970449087E+02  0.38515502188E+02  0.00000000000E+00 0.  1.
</event>
<event>
 7    1  0.2148778E-015  0.9000771E+02  0.7816164E-02  0.1186339E+00
        -11   -1    0    0    0    0  0.00000000000E+00  0.00000000000E+00  0.45593999997E+02  0.45594000000E+02  0.51100000000E-03 0. -1.
         11   -1    0    0    0    0 -0.00000000000E+00 -0.00000000000E+00 -0.45593999997E+02  0.45594000000E+02  0.51100000000E-03 0.  1.
    9900012    2    1    2    0    0 -0.11490469640E+01 -0.73057078940E-01  0.25969646151E+00  0.90007708293E+02  0.89999969242E+02 0.  0.
         12    1    1    2    0    0  0.11490469640E+01  0.73057078940E-01 -0.25969646151E+00  0.11802917073E+01  0.00000000000E+00 0. -1.
         11    1    3    3    0    0  0.15084507499E+02  0.14920047200E+02 -0.30306872382E+02  0.36995360368E+02  0.51100000000E-03 0. -1.
        -11    1    3    3    0    0  0.62403333385E+01 -0.84630142129E+01 -0.40153838886E+01  0.11255562082E+02  0.51100000000E-03 0.  1.
        -12    1    3    3    0    0 -0.22473887801E+02 -0.65300900661E+01  0.34581952732E+02  0.41756785843E+02  0.00000000000E+00 0.  1.
</event>
<event>
 7    1  0.2148778E-015  0.9000769E+02  0.7816164E-02  0.1186339E+00
        -11   -1    0    0    0    0  0.00000000000E+00  0.00000000000E+00  0.45593999997E+02  0.45594000000E+02  0.51100000000E-03 0. -1.
         11   -1    0    0    0    0 -0.00000000000E+00 -0.00000000000E+00 -0.45593999997E+02  0.45594000000E+02  0.51100000000E-03 0.  1.
    9900012    2    1    2    0    0  0.77465698781E+00 -0.70032174832E+00  0.55008542302E+00  0.90007687341E+02  0.89999948014E+02 0.  0.
         12    1    1    2    0    0 -0.77465698781E+00  0.70032174832E+00 -0.55008542302E+00  0.11803126588E+01  0.00000000000E+00 0. -1.
         11    1    3    3    0    0  0.20616778345E+02 -0.36920912162E+01  0.23128012071E+02  0.31202372177E+02  0.51100000000E-03 0. -1.
        -11    1    3    3    0    0  0.11475227913E+02 -0.25785440981E+01  0.83619912963E+01  0.14430961299E+02  0.51100000000E-03 0.  1.
        -12    1    3    3    0    0 -0.31317349270E+02  0.55703135660E+01 -0.30939917944E+02  0.44374353865E+02  0.00000000000E+00 0.  1.
</event>
<event>
 7    1  0.2148778E-015  0.9000790E+02  0.7816164E-02  0.1186339E+00
        -11   -1    0    0    0    0  0.00000000000E+00  0.00000000000E+00  0.45593999997E+02  0.45594000000E+02  0.51100000000E-03 0.  1.
         11   -1    0    0    0    0 -0.00000000000E+00 -0.00000000000E+00 -0.45593999997E+02  0.45594000000E+02  0.51100000000E-03 0. -1.
    9900012    2    1    2    0    0 -0.69057573697E+00  0.55040497930E+00  0.78281352989E+00  0.90007899363E+02  0.90000162835E+02 0.  0.
         12    1    1    2    0    0  0.69057573697E+00 -0.55040497930E+00 -0.78281352989E+00  0.11801006365E+01  0.00000000000E+00 0. -1.
         11    1    3    3    0    0  0.20686656711E+02  0.61127779985E+01 -0.33881915633E+02  0.40165756907E+02  0.51100000000E-03 0. -1.
        -11    1    3    3    0    0  0.10730775996E+01 -0.48193512986E+01 -0.31516498196E+01  0.58575198951E+01  0.51100000000E-03 0.  1.
        -12    1    3    3    0    0 -0.22450310047E+02 -0.74302172059E+00  0.37816378982E+02  0.43984622561E+02  0.00000000000E+00 0.  1.
</event>
<event>
 7    1  0.2148778E-015  0.9000781E+02  0.7816164E-02  0.1186339E+00
        -11   -1    0    0    0    0  0.00000000000E+00  0.00000000000E+00  0.45593999997E+02  0.45594000000E+02  0.51100000000E-03 0. -1.
         11   -1    0    0    0    0 -0.00000000000E+00 -0.00000000000E+00 -0.45593999997E+02  0.45594000000E+02  0.51100000000E-03 0.  1.
    9900012    2    1    2    0    0  0.11868252127E+00  0.83624441023E+00 -0.82429767939E+00  0.90007806406E+02  0.90000068651E+02 0.  0.
         12    1    1    2    0    0 -0.11868252127E+00 -0.83624441023E+00  0.82429767939E+00  0.11801935938E+01  0.00000000000E+00 0. -1.
         11    1    3    3    0    0  0.29596685151E+02  0.88908087221E+01  0.20777183800E+02  0.37238442752E+02  0.51100000000E-03 0. -1.
        -11    1    3    3    0    0  0.57826003252E+01  0.75812803997E+01 -0.34488405437E+01  0.10139466474E+02  0.51100000000E-03 0.  1.
        -12    1    3    3    0    0 -0.35260602955E+02 -0.15635844712E+02 -0.18152640936E+02  0.42629897180E+02  0.00000000000E+00 0.  1.
</event>
<event>
 7    1  0.2148778E-015  0.9000782E+02  0.7816164E-02  0.1186339E+00
        -11   -1    0    0    0    0  0.00000000000E+00  0.00000000000E+00  0.45593999997E+02  0.45594000000E+02  0.51100000000E-03 0.  1.
         11   -1    0    0    0    0 -0.00000000000E+00 -0.00000000000E+00 -0.45593999997E+02  0.45594000000E+02  0.51100000000E-03 0. -1.
    9900012    2    1    2    0    0  0.19713552835E+00  0.52644513060E+00  0.10377017426E+01  0.90007817049E+02  0.90000079434E+02 0.  0.
         12    1    1    2    0    0 -0.19713552835E+00 -0.52644513060E+00 -0.10377017426E+01  0.11801829513E+01  0.00000000000E+00 0. -1.
         11    1    3    3    0    0 -0.60262618771E+01 -0.63572136879E+00  0.78101457009E+01  0.98852592278E+01  0.51100000000E-03 0. -1.
        -11    1    3    3    0    0 -0.19016499363E+02  0.73289361100E+00  0.29995423013E+02  0.35523088029E+02  0.51100000000E-03 0.  1.
         12    1    3    3    0    0  0.25239896769E+02  0.42927288839E+00 -0.36767866972E+02  0.44599469792E+02  0.00000000000E+00 0. -1.
</event>
<event>
 7    1  0.2148778E-015  0.9000770E+02  0.7816164E-02  0.1186339E+00
        -11   -1    0    0    0    0  0.00000000000E+00  0.00000000000E+00  0.45593999997E+02  0.45594000000E+02  0.51100000000E-03 0.  1.
         11   -1    0    0    0    0 -0.00000000000E+00 -0.00000000000E+00 -0.45593999997E+02  0.45594000000E+02  0.51100000000E-03 0. -1.
    9900012    2    1    2    0    0 -0.69903889071E+00 -0.75822994254E+00 -0.57405255623E+00  0.90007701583E+02  0.89999962444E+02 0.  0.
         12    1    1    2    0    0  0.69903889071E+00  0.75822994254E+00  0.57405255623E+00  0.11802984173E+01  0.00000000000E+00 0. -1.
         11    1    3    3    0    0  0.13820022555E+00 -0.54981771927E+00 -0.40954703839E+02  0.40958627487E+02  0.51100000000E-03 0. -1.
        -11    1    3    3    0    0 -0.80864426386E+01 -0.35356234590E+01  0.10153498332E+01  0.88838124325E+01  0.51100000000E-03 0.  1.
        -12    1    3    3    0    0  0.72492035223E+01  0.33272112358E+01  0.39365301449E+02  0.40165261664E+02  0.00000000000E+00 0.  1.
</event>
<event>
 7    1  0.2148778E-015  0.9000776E+02  0.7816164E-02  0.1186339E+00
        -11   -1    0    0    0    0  0.00000000000E+00  0.00000000000E+00  0.45593999997E+02  0.45594000000E+02  0.51100000000E-03 0.  1.
         11   -1    0    0    0    0 -0.00000000000E+00 -0.00000000000E+00 -0.45593999997E+02  0.45594000000E+02  0.51100000000E-03 0. -1.
    9900012    2    1    2    0    0  0.90211131778E+00 -0.24534973598E+00 -0.72039645808E+00  0.90007757491E+02  0.90000019090E+02 0.  0.
         12    1    1    2    0    0 -0.90211131778E+00  0.24534973598E+00  0.72039645808E+00  0.11802425087E+01  0.00000000000E+00 0. -1.
         11    1    3    3    0    0  0.26756771511E+02 -0.14928758283E+02 -0.25059887565E+02  0.39582705953E+02  0.51100000000E-03 0. -1.
        -11    1    3    3    0    0 -0.77021778261E+00 -0.92629204061E+01  0.33041170156E+01  0.98646905372E+01  0.51100000000E-03 0.  1.
        -12    1    3    3    0    0 -0.25084442410E+02  0.23946328953E+02  0.21035374092E+02  0.40560361001E+02  0.00000000000E+00 0.  1.
</event>
<event>
 7    1  0.2148778E-015  0.9000767E+02  0.7816164E-02  0.1186339E+00
        -11   -1    0    0    0    0  0.00000000000E+00  0.00000000000E+00  0.45593999997E+02  0.45594000000E+02  0.51100000000E-03 0.  1.
         11   -1    0    0    0    0 -0.00000000000E+00 -0.00000000000E+00 -0.45593999997E+02  0.45594000000E+02  0.51100000000E-03 0. -1.
    9900012    2    1    2    0    0 -0.11216560566E+01  0.21082831781E+00 -0.30104693311E+00  0.90007665240E+02  0.89999925622E+02 0.  0.
         12    1    1    2    0    0  0.11216560566E+01 -0.21082831781E+00  0.30104693311E+00  0.11803347596E+01  0.00000000000E+00 0. -1.
         11    1    3    3    0    0 -0.73321658838E+01  0.13363824569E+01  0.65478191178E+01  0.99207111680E+01  0.51100000000E-03 0. -1.
        -11    1    3    3    0    0 -0.18256477486E+02 -0.10300136111E+02  0.28964675402E+02  0.35753939580E+02  0.51100000000E-03 0.  1.
         12    1    3    3    0    0  0.24466987313E+02  0.91745819722E+01 -0.35813541453E+02  0.44333014492E+02  0.00000000000E+00 0. -1.
</event>
<event>
 7    1  0.2148778E-015  0.9000776E+02  0.7816164E-02  0.1186339E+00
        -11   -1    0    0    0    0  0.00000000000E+00  0.00000000000E+00  0.45593999997E+02  0.45594000000E+02  0.51100000000E-03 0. -1.
         11   -1    0    0    0    0 -0.00000000000E+00 -0.00000000000E+00 -0.45593999997E+02  0.45594000000E+02  0.51100000000E-03 0.  1.
    9900012    2    1    2    0    0  0.60154372072E+00 -0.68009528989E+00 -0.75404571535E+00  0.90007758757E+02  0.90000020372E+02 0.  0.
         12    1    1    2    0    0 -0.60154372072E+00  0.68009528989E+00  0.75404571535E+00  0.11802412432E+01  0.00000000000E+00 0. -1.
         11    1    3    3    0    0  0.60135865966E+01  0.20089212357E+01 -0.99505379194E+01  0.11798821697E+02  0.51100000000E-03 0. -1.
        -11    1    3    3    0    0 -0.21103809959E+02 -0.35138309309E+02  0.98625618902E+01  0.42158530610E+02  0.51100000000E-03 0.  1.
         12    1    3    3    0    0  0.15691767083E+02  0.32449292784E+02 -0.66606968612E+00  0.36050406450E+02  0.00000000000E+00 0. -1.
</event>
<event>
 7    1  0.2148778E-015  0.9000772E+02  0.7816164E-02  0.1186339E+00
        -11   -1    0    0    0    0  0.00000000000E+00  0.00000000000E+00  0.45593999997E+02  0.45594000000E+02  0.51100000000E-03 0.  1.
         11   -1    0    0    0    0 -0.00000000000E+00 -0.00000000000E+00 -0.45593999997E+02  0.45594000000E+02  0.51100000000E-03 0. -1.
    9900012    2    1    2    0    0 -0.43132084732E+00 -0.72399194200E+00 -0.82635864901E+00  0.90007715872E+02  0.89999976922E+02 0.  0.
         12    1    1    2    0    0  0.43132084732E+00  0.72399194200E+00  0.82635864901E+00  0.11802841277E+01  0.00000000000E+00 0. -1.
         11    1    3    3    0    0  0.11679331882E+02 -0.83329832261E+01 -0.37472734409E+02  0.40125443636E+02  0.51100000000E-03 0. -1.
        -11    1    3    3    0    0  0.24093408335E+01 -0.82880937329E+01  0.16410717782E+01  0.87858145792E+01  0.51100000000E-03 0.  1.
        -12    1    3    3    0    0 -0.14519993563E+02  0.15897085017E+02  0.35005303981E+02  0.41096457657E+02  0.00000000000E+00 0.  1.
</event>
<event>
 7    1  0.2148778E-015  0.9000778E+02  0.7816164E-02  0.1186339E+00
        -11   -1    0    0    0    0  0.00000000000E+00  0.00000000000E+00  0.45593999997E+02  0.45594000000E+02  0.51100000000E-03 0. -1.
         11   -1    0    0    0    0 -0.00000000000E+00 -0.00000000000E+00 -0.45593999997E+02  0.45594000000E+02  0.51100000000E-03 0.  1.
    9900012    2    1    2    0    0 -0.54241633396E+00  0.93244892218E+00  0.47879474037E+00  0.90007779311E+02  0.90000041198E+02 0.  0.
         12    1    1    2    0    0  0.54241633396E+00 -0.93244892218E+00 -0.47879474037E+00  0.11802206892E+01  0.00000000000E+00 0. -1.
         11    1    3    3    0    0  0.77184711438E+01 -0.80218009715E+00 -0.18215421435E+01  0.79709664249E+01  0.51100000000E-03 0. -1.
        -11    1    3    3    0    0  0.24915108011E+02 -0.10203139350E+02 -0.25541444079E+02  0.37111076860E+02  0.51100000000E-03 0.  1.
         12    1    3    3    0    0 -0.33175995489E+02  0.11937768370E+02  0.27841780963E+02  0.44925736026E+02  0.00000000000E+00 0. -1.
</event>
<event>
 7    1  0.2148778E-015  0.9000900E+02  0.7816164E-02  0.1186337E+00
        -11   -1    0    0    0    0  0.00000000000E+00  0.00000000000E+00  0.45593999997E+02  0.45594000000E+02  0.51100000000E-03 0.  1.
         11   -1    0    0    0    0 -0.00000000000E+00 -0.00000000000E+00 -0.45593999997E+02  0.45594000000E+02  0.51100000000E-03 0. -1.
    9900012    2    1    2    0    0 -0.67614011813E+00  0.66778293070E+00  0.69781290545E+00  0.90008999426E+02  0.90001277410E+02 0.  0.
         12    1    1    2    0    0  0.67614011813E+00 -0.66778293070E+00 -0.69781290545E+00  0.11790005737E+01  0.00000000000E+00 0. -1.
         11    1    3    3    0    0  0.44358753081E+01  0.90123159355E+01 -0.38851238602E+02  0.40128762371E+02  0.51100000000E-03 0. -1.
        -11    1    3    3    0    0  0.12271432094E+01 -0.70644322250E+01 -0.23033691311E+01  0.75311083337E+01  0.51100000000E-03 0.  1.
        -12    1    3    3    0    0 -0.63391586357E+01 -0.12801007798E+01  0.41852420638E+02  0.42349128722E+02  0.00000000000E+00 0.  1.
</event>
<event>
 7    1  0.2148778E-015  0.9000758E+02  0.7816164E-02  0.1186339E+00
        -11   -1    0    0    0    0  0.00000000000E+00  0.00000000000E+00  0.45593999997E+02  0.45594000000E+02  0.51100000000E-03 0.  1.
         11   -1    0    0    0    0 -0.00000000000E+00 -0.00000000000E+00 -0.45593999997E+02  0.45594000000E+02  0.51100000000E-03 0. -1.
    9900012    2    1    2    0    0 -0.10271423934E+01 -0.35036891529E+00 -0.46435207733E+00  0.90007575193E+02  0.89999834385E+02 0.  0.
         12    1    1    2    0    0  0.10271423934E+01  0.35036891529E+00  0.46435207733E+00  0.11804248069E+01  0.00000000000E+00 0. -1.
         11    1    3    3    0    0  0.91532618242E+01 -0.58978025940E+01  0.40300004863E+00  0.10896269396E+02  0.51100000000E-03 0. -1.
        -11    1    3    3    0    0  0.33685480634E+01 -0.35565116905E+02  0.15334736947E+01  0.35757183870E+02  0.51100000000E-03 0.  1.
         12    1    3    3    0    0 -0.13548952281E+02  0.41112550583E+02 -0.24008258206E+01  0.43354121926E+02  0.00000000000E+00 0. -1.
</event>
<event>
 7    1  0.2148778E-015  0.9000767E+02  0.7816164E-02  0.1186339E+00
        -11   -1    0    0    0    0  0.00000000000E+00  0.00000000000E+00  0.45593999997E+02  0.45594000000E+02  0.51100000000E-03 0. -1.
         11   -1    0    0    0    0 -0.00000000000E+00 -0.00000000000E+00 -0.45593999997E+02  0.45594000000E+02  0.51100000000E-03 0.  1.
    9900012    2    1    2    0    0  0.71809990691E+00 -0.86236714735E+00 -0.36582602726E+00  0.90007672395E+02  0.89999932870E+02 0.  0.
         12    1    1    2    0    0 -0.71809990691E+00  0.86236714735E+00  0.36582602726E+00  0.11803276051E+01  0.00000000000E+00 0. -1.
         11    1    3    3    0    0  0.22695174059E+02  0.28280787588E+02 -0.12463997022E+02  0.38343514369E+02  0.51100000000E-03 0. -1.
        -11    1    3    3    0    0 -0.58712247604E+00  0.65670805002E+01  0.71804680267E+01  0.97483527040E+01  0.51100000000E-03 0.  1.
        -12    1    3    3    0    0 -0.21389951676E+02 -0.35710235235E+02  0.49177029680E+01  0.41915805322E+02  0.00000000000E+00 0.  1.
</event>
<event>
 7    1  0.2148778E-015  0.9000756E+02  0.7816164E-02  0.1186339E+00
        -11   -1    0    0    0    0  0.00000000000E+00  0.00000000000E+00  0.45593999997E+02  0.45594000000E+02  0.51100000000E-03 0. -1.
         11   -1    0    0    0    0 -0.00000000000E+00 -0.00000000000E+00 -0.45593999997E+02  0.45594000000E+02  0.51100000000E-03 0.  1.
    9900012    2    1    2    0    0 -0.20260218372E+00 -0.95138268353E+00 -0.66877094223E+00  0.90007563120E+02  0.89999822153E+02 0.  0.
         12    1    1    2    0    0  0.20260218372E+00  0.95138268353E+00  0.66877094223E+00  0.11804368804E+01  0.00000000000E+00 0. -1.
         11    1    3    3    0    0 -0.32495965042E+02  0.97997321638E+01 -0.11451633240E+02  0.35821256240E+02  0.51100000000E-03 0. -1.
        -11    1    3    3    0    0 -0.73906559635E+01  0.55690873961E+01  0.59601665270E+01  0.11007275561E+02  0.51100000000E-03 0.  1.
        -12    1    3    3    0    0  0.39684018821E+02 -0.16320202243E+02  0.48226957708E+01  0.43179031318E+02  0.00000000000E+00 0.  1.
</event>
<event>
 7    1  0.2148778E-015  0.9000759E+02  0.7816164E-02  0.1186339E+00
        -11   -1    0    0    0    0  0.00000000000E+00  0.00000000000E+00  0.45593999997E+02  0.45594000000E+02  0.51100000000E-03 0.  1.
         11   -1    0    0    0    0 -0.00000000000E+00 -0.00000000000E+00 -0.45593999997E+02  0.45594000000E+02  0.51100000000E-03 0. -1.
    9900012    2    1    2    0    0  0.68266034338E-01  0.86239957598E-02  0.11784027958E+01  0.90007589998E+02  0.89999849385E+02 0.  0.
         12    1    1    2    0    0 -0.68266034338E-01 -0.86239957598E-02 -0.11784027958E+01  0.11804100024E+01  0.00000000000E+00 0. -1.
         11    1    3    3    0    0 -0.51975120564E+00  0.32986835152E+00  0.11364306965E+02  0.11380967775E+02  0.51100000000E-03 0. -1.
        -11    1    3    3    0    0 -0.51495770709E+00 -0.10569782208E+02  0.32777800845E+02  0.34443717945E+02  0.51100000000E-03 0.  1.
         12    1    3    3    0    0  0.11029749471E+01  0.10248537853E+02 -0.42963705014E+02  0.44182904277E+02  0.00000000000E+00 0. -1.
</event>
<event>
 7    1  0.2148778E-015  0.9000774E+02  0.7816164E-02  0.1186339E+00
        -11   -1    0    0    0    0  0.00000000000E+00  0.00000000000E+00  0.45593999997E+02  0.45594000000E+02  0.51100000000E-03 0.  1.
         11   -1    0    0    0    0 -0.00000000000E+00 -0.00000000000E+00 -0.45593999997E+02  0.45594000000E+02  0.51100000000E-03 0. -1.
    9900012    2    1    2    0    0 -0.92363933446E+00 -0.65982065666E+00 -0.32331629751E+00  0.90007743101E+02  0.90000004510E+02 0.  0.
         12    1    1    2    0    0  0.92363933446E+00  0.65982065666E+00  0.32331629751E+00  0.11802568989E+01  0.00000000000E+00 0. -1.
         11    1    3    3    0    0  0.47949786209E+01  0.16028123982E+02 -0.28375669447E+01  0.16968923501E+02  0.51100000000E-03 0. -1.
        -11    1    3    3    0    0  0.25028616773E+02  0.12210913348E+02  0.11097667592E+02  0.29978263602E+02  0.51100000000E-03 0.  1.
         12    1    3    3    0    0 -0.30747234728E+02 -0.28898857986E+02 -0.85834169452E+01  0.43060555998E+02  0.00000000000E+00 0. -1.
</event>
<event>
 7    1  0.2148778E-015  0.9000771E+02  0.7816164E-02  0.1186339E+00
        -11   -1    0    0    0    0  0.00000000000E+00  0.00000000000E+00  0.45593999997E+02  0.45594000000E+02  0.51100000000E-03 0.  1.
         11   -1    0    0    0    0 -0.00000000000E+00 -0.00000000000E+00 -0.45593999997E+02  0.45594000000E+02  0.51100000000E-03 0. -1.
    9900012    2    1    2    0    0 -0.96538034605E+00 -0.28616651192E+00  0.61581837546E+00  0.90007710732E+02  0.89999971713E+02 0.  0.
         12    1    1    2    0    0  0.96538034605E+00  0.28616651192E+00 -0.61581837546E+00  0.11802892682E+01  0.00000000000E+00 0. -1.
         11    1    3    3    0    0 -0.12362344202E+00 -0.33093831638E+01 -0.78669890361E+01  0.85356204482E+01  0.51100000000E-03 0. -1.
        -11    1    3    3    0    0  0.17709608466E+02  0.34738691785E+02  0.18828958838E+02  0.43300538451E+02  0.51100000000E-03 0.  1.
         12    1    3    3    0    0 -0.18551365371E+02 -0.31715475133E+02 -0.10346151426E+02  0.38171551833E+02  0.00000000000E+00 0. -1.
</event>
<event>
 7    1  0.2148778E-015  0.9000772E+02  0.7816164E-02  0.1186339E+00
        -11   -1    0    0    0    0  0.00000000000E+00  0.00000000000E+00  0.45593999997E+02  0.45594000000E+02  0.51100000000E-03 0.  1.
         11   -1    0    0    0    0 -0.00000000000E+00 -0.00000000000E+00 -0.45593999997E+02  0.45594000000E+02  0.51100000000E-03 0. -1.
    9900012    2    1    2    0    0 -0.55911542287E+00  0.34155328455E+00  0.98172441193E+00  0.90007723963E+02  0.89999985119E+02 0.  0.
         12    1    1    2    0    0  0.55911542287E+00 -0.34155328455E+00 -0.98172441193E+00  0.11802760369E+01  0.00000000000E+00 0. -1.
         11    1    3    3    0    0  0.40549085460E+01 -0.11600375629E+02  0.90526240914E+01  0.15263060022E+02  0.51100000000E-03 0. -1.
        -11    1    3    3    0    0 -0.86902261440E+00  0.23337386378E+02  0.28157652416E+02  0.36581992744E+02  0.51100000000E-03 0.  1.
         12    1    3    3    0    0 -0.37450013545E+01 -0.11395457465E+02 -0.36228552095E+02  0.38162671197E+02  0.00000000000E+00 0. -1.
</event>
<event>
 7    1  0.2148778E-015  0.9000867E+02  0.7816164E-02  0.1186337E+00
        -11   -1    0    0    0    0  0.00000000000E+00  0.00000000000E+00  0.45593999997E+02  0.45594000000E+02  0.51100000000E-03 0.  1.
         11   -1    0    0    0    0 -0.00000000000E+00 -0.00000000000E+00 -0.45593999997E+02  0.45594000000E+02  0.51100000000E-03 0. -1.
    9900012    2    1    2    0    0  0.85518880764E+00  0.80634440570E+00  0.96294309481E-01  0.90008673162E+02  0.90000946843E+02 0.  0.
         12    1    1    2    0    0 -0.85518880764E+00 -0.80634440570E+00 -0.96294309481E-01  0.11793268382E+01  0.00000000000E+00 0. -1.
         11    1    3    3    0    0 -0.94095548447E+01  0.19659560102E+01 -0.32472669534E+01  0.10146400758E+02  0.51100000000E-03 0. -1.
        -11    1    3    3    0    0 -0.21175871879E+02 -0.70811059361E+01  0.30567243738E+02  0.37853876962E+02  0.51100000000E-03 0.  1.
         12    1    3    3    0    0  0.31440615531E+02  0.59214943316E+01 -0.27223682475E+02  0.42008395442E+02  0.00000000000E+00 0. -1.
</event>
<event>
 7    1  0.2307381E-015  0.9000778E+02  0.7816164E-02  0.1186339E+00
        -11   -1    0    0    0    0  0.00000000000E+00  0.00000000000E+00  0.45593999997E+02  0.45594000000E+02  0.51100000000E-03 0. -1.
         11   -1    0    0    0    0 -0.00000000000E+00 -0.00000000000E+00 -0.45593999997E+02  0.45594000000E+02  0.51100000000E-03 0.  1.
    9900012    2    1    2    0    0 -0.73972769513E+00 -0.17760933202E+00 -0.90231472847E+00  0.90007782221E+02  0.90000044146E+02 0.  0.
         12    1    1    2    0    0  0.73972769513E+00  0.17760933202E+00  0.90231472847E+00  0.11802177795E+01  0.00000000000E+00 0. -1.
         11    1    3    3    0    0  0.46923852213E+00  0.48495956499E+01  0.82223535611E+01  0.95575028696E+01  0.51100000000E-03 0. -1.
        -11    1    3    3    0    0  0.21171769221E+02 -0.73619344799E+01 -0.37832570325E+02  0.43974370591E+02  0.51100000000E-03 0.  1.
         12    1    3    3    0    0 -0.22380735438E+02  0.23347294980E+01  0.28707902035E+02  0.36475908760E+02  0.00000000000E+00 0. -1.
</event>
<event>
 7    1  0.2148778E-015  0.9000777E+02  0.7816164E-02  0.1186339E+00
        -11   -1    0    0    0    0  0.00000000000E+00  0.00000000000E+00  0.45593999997E+02  0.45594000000E+02  0.51100000000E-03 0. -1.
         11   -1    0    0    0    0 -0.00000000000E+00 -0.00000000000E+00 -0.45593999997E+02  0.45594000000E+02  0.51100000000E-03 0.  1.
    9900012    2    1    2    0    0 -0.10631161236E+01 -0.12530779028E+00 -0.49701998693E+00  0.90007768327E+02  0.90000030069E+02 0.  0.
         12    1    1    2    0    0  0.10631161236E+01  0.12530779028E+00  0.49701998693E+00  0.11802316730E+01  0.00000000000E+00 0. -1.
         11    1    3    3    0    0 -0.56615747127E+01  0.68840606433E+01  0.45149779790E+00  0.89245487107E+01  0.51100000000E-03 0. -1.
        -11    1    3    3    0    0 -0.36484026745E+02 -0.14292333231E+02 -0.30900162074E+01  0.39305256610E+02  0.51100000000E-03 0.  1.
         12    1    3    3    0    0  0.41082485334E+02  0.72829647972E+01  0.21414984226E+01  0.41777963007E+02  0.00000000000E+00 0. -1.
</event>
<event>
 7    1  0.2148778E-015  0.9000737E+02  0.7816164E-02  0.1186340E+00
        -11   -1    0    0    0    0  0.00000000000E+00  0.00000000000E+00  0.45593999997E+02  0.45594000000E+02  0.51100000000E-03 0.  1.
         11   -1    0    0    0    0 -0.00000000000E+00 -0.00000000000E+00 -0.45593999997E+02  0.45594000000E+02  0.51100000000E-03 0. -1.
    9900012    2    1    2    0    0 -0.11683514045E+00  0.11737581778E+01 -0.50241097538E-01  0.90007371829E+02  0.89999628337E+02 0.  0.
         12    1    1    2    0    0  0.11683514045E+00 -0.11737581778E+01  0.50241097538E-01  0.11806281709E+01  0.00000000000E+00 0. -1.
         11    1    3    3    0    0 -0.60293018324E+01  0.29391315514E+01  0.61089529979E+01  0.90725014111E+01  0.51100000000E-03 0. -1.
        -11    1    3    3    0    0 -0.13954712325E+02 -0.35189853742E+02  0.94794982225E+01  0.39024616453E+02  0.51100000000E-03 0.  1.
         12    1    3    3    0    0  0.19867179017E+02  0.33424480369E+02 -0.15638692318E+02  0.41910253965E+02  0.00000000000E+00 0. -1.
</event>
<event>
 7    1  0.2148778E-015  0.9000763E+02  0.7816164E-02  0.1186339E+00
        -11   -1    0    0    0    0  0.00000000000E+00  0.00000000000E+00  0.45593999997E+02  0.45594000000E+02  0.51100000000E-03 0.  1.
         11   -1    0    0    0    0 -0.00000000000E+00 -0.00000000000E+00 -0.45593999997E+02  0.45594000000E+02  0.51100000000E-03 0. -1.
    9900012    2    1    2    0    0 -0.71046860077E+00  0.55051753927E+00  0.76513297566E+00  0.90007634097E+02  0.89999894067E+02 0.  0.
         12    1    1    2    0    0  0.71046860077E+00 -0.55051753927E+00 -0.76513297566E+00  0.11803659027E+01  0.00000000000E+00 0. -1.
         11    1    3    3    0    0  0.21582232401E+02  0.30149709863E+02 -0.10858795011E+02  0.38635620735E+02  0.51100000000E-03 0. -1.
        -11    1    3    3    0    0 -0.23191930561E+01 -0.48874483921E+00 -0.97957525875E+01  0.10078407462E+02  0.51100000000E-03 0.  1.
        -12    1    3    3    0    0 -0.19973507945E+02 -0.29110447485E+02  0.21419680574E+02  0.41293605901E+02  0.00000000000E+00 0.  1.
</event>
<event>
 7    1  0.2148778E-015  0.9000773E+02  0.7816164E-02  0.1186339E+00
        -11   -1    0    0    0    0  0.00000000000E+00  0.00000000000E+00  0.45593999997E+02  0.45594000000E+02  0.51100000000E-03 0.  1.
         11   -1    0    0    0    0 -0.00000000000E+00 -0.00000000000E+00 -0.45593999997E+02  0.45594000000E+02  0.51100000000E-03 0. -1.
    9900012    2    1    2    0    0 -0.67225410445E+00  0.48542587215E+00  0.83992461337E+00  0.90007730025E+02  0.89999991261E+02 0.  0.
         12    1    1    2    0    0  0.67225410445E+00 -0.48542587215E+00 -0.83992461337E+00  0.11802699752E+01  0.00000000000E+00 0. -1.
         11    1    3    3    0    0 -0.31543438079E+02 -0.48011618612E+01  0.26284343039E+02  0.41338920285E+02  0.51100000000E-03 0. -1.
        -11    1    3    3    0    0  0.41395889144E+01  0.12240520307E+02 -0.13146217362E+02  0.18433381811E+02  0.51100000000E-03 0.  1.
        -12    1    3    3    0    0  0.26731595060E+02 -0.69539325739E+01 -0.12298201063E+02  0.30235427930E+02  0.00000000000E+00 0.  1.
</event>
<event>
 7    1  0.2148778E-015  0.9000770E+02  0.7816164E-02  0.1186339E+00
        -11   -1    0    0    0    0  0.00000000000E+00  0.00000000000E+00  0.45593999997E+02  0.45594000000E+02  0.51100000000E-03 0. -1.
         11   -1    0    0    0    0 -0.00000000000E+00 -0.00000000000E+00 -0.45593999997E+02  0.45594000000E+02  0.51100000000E-03 0.  1.
    9900012    2    1    2    0    0 -0.10277118407E+01  0.48600047986E+00  0.31734890028E+00  0.90007704097E+02  0.89999964991E+02 0.  0.
         12    1    1    2    0    0  0.10277118407E+01 -0.48600047986E+00 -0.31734890028E+00  0.11802959029E+01  0.00000000000E+00 0. -1.
         11    1    3    3    0    0  0.23507089610E+01 -0.36870677028E+02  0.12415968828E+02  0.38976004661E+02  0.51100000000E-03 0. -1.
        -11    1    3    3    0    0 -0.13656433406E+01 -0.59529599572E+01 -0.37931753278E+00  0.61193623881E+01  0.51100000000E-03 0.  1.
        -12    1    3    3    0    0 -0.20127774610E+01  0.43309637465E+02 -0.11719302395E+02  0.44912337048E+02  0.00000000000E+00 0.  1.
</event>
<event>
 7    1  0.2148778E-015  0.9000780E+02  0.7816164E-02  0.1186339E+00
        -11   -1    0    0    0    0  0.00000000000E+00  0.00000000000E+00  0.45593999997E+02  0.45594000000E+02  0.51100000000E-03 0. -1.
         11   -1    0    0    0    0 -0.00000000000E+00 -0.00000000000E+00 -0.45593999997E+02  0.45594000000E+02  0.51100000000E-03 0.  1.
    9900012    2    1    2    0    0 -0.95929652162E+00 -0.62546800611E+00 -0.28531140185E+00  0.90007803983E+02  0.90000066195E+02 0.  0.
         12    1    1    2    0    0  0.95929652162E+00  0.62546800611E+00  0.28531140185E+00  0.11801960172E+01  0.00000000000E+00 0. -1.
         11    1    3    3    0    0 -0.63176451778E+01  0.27015393954E+02  0.20848582681E+02  0.34704575363E+02  0.51100000000E-03 0. -1.
        -11    1    3    3    0    0  0.81423714858E+01 -0.79159011035E+01  0.12076132334E+02  0.16576871723E+02  0.51100000000E-03 0.  1.
        -12    1    3    3    0    0 -0.27840228296E+01 -0.19724960856E+02 -0.33210026417E+02  0.38726356897E+02  0.00000000000E+00 0.  1.
</event>
<event>
 7    1  0.2148778E-015  0.9000832E+02  0.7816164E-02  0.1186338E+00
        -11   -1    0    0    0    0  0.00000000000E+00  0.00000000000E+00  0.45593999997E+02  0.45594000000E+02  0.51100000000E-03 0. -1.
         11   -1    0    0    0    0 -0.00000000000E+00 -0.00000000000E+00 -0.45593999997E+02  0.45594000000E+02  0.51100000000E-03 0.  1.
    9900012    2    1    2    0    0 -0.11018142713E+01 -0.32031094885E+00 -0.27395644804E+00  0.90008319565E+02  0.90000588582E+02 0.  0.
         12    1    1    2    0    0  0.11018142713E+01  0.32031094885E+00  0.27395644804E+00  0.11796804346E+01  0.00000000000E+00 0. -1.
         11    1    3    3    0    0 -0.99031833740E+01  0.23918390764E+00  0.63399311173E+01  0.11761163918E+02  0.51100000000E-03 0. -1.
        -11    1    3    3    0    0  0.21967871120E+02  0.14769122958E+02 -0.34701986695E+02  0.43645643944E+02  0.51100000000E-03 0.  1.
         12    1    3    3    0    0 -0.13166502017E+02 -0.15328617814E+02  0.28088099129E+02  0.34601511703E+02  0.00000000000E+00 0. -1.
</event>
<event>
 7    1  0.2148778E-015  0.9000738E+02  0.7816164E-02  0.1186340E+00
        -11   -1    0    0    0    0  0.00000000000E+00  0.00000000000E+00  0.45593999997E+02  0.45594000000E+02  0.51100000000E-03 0.  1.
         11   -1    0    0    0    0 -0.00000000000E+00 -0.00000000000E+00 -0.45593999997E+02  0.45594000000E+02  0.51100000000E-03 0. -1.
    9900012    2    1    2    0    0  0.42691247657E+00 -0.10449417619E+01  0.34600162706E+00  0.90007375303E+02  0.89999631857E+02 0.  0.
         12    1    1    2    0    0 -0.42691247657E+00  0.10449417619E+01 -0.34600162706E+00  0.11806246967E+01  0.00000000000E+00 0. -1.
         11    1    3    3    0    0 -0.33469612866E+02  0.12864159936E+02 -0.19003247204E+02  0.40581091666E+02  0.51100000000E-03 0. -1.
        -11    1    3    3    0    0 -0.32554674912E+01 -0.43041780677E+01  0.75485994644E+01  0.92792980100E+01  0.51100000000E-03 0.  1.
        -12    1    3    3    0    0  0.37151992834E+02 -0.96049236298E+01  0.11800649367E+02  0.40146985627E+02  0.00000000000E+00 0.  1.
</event>
<event>
 7    1  0.2148778E-015  0.9000772E+02  0.7816164E-02  0.1186339E+00
        -11   -1    0    0    0    0  0.00000000000E+00  0.00000000000E+00  0.45593999997E+02  0.45594000000E+02  0.51100000000E-03 0.  1.
         11   -1    0    0    0    0 -0.00000000000E+00 -0.00000000000E+00 -0.45593999997E+02  0.45594000000E+02  0.51100000000E-03 0. -1.
    9900012    2    1    2    0    0  0.91557642599E-01  0.11468723877E+01 -0.26334408761E+00  0.90007724954E+02  0.89999986123E+02 0.  0.
         12    1    1    2    0    0 -0.91557642599E-01 -0.11468723877E+01  0.26334408761E+00  0.11802750459E+01  0.00000000000E+00 0. -1.
         11    1    3    3    0    0 -0.29260214902E+02 -0.70685545662E+01 -0.19537486271E+02  0.35886459979E+02  0.51100000000E-03 0. -1.
        -11    1    3    3    0    0 -0.55452726971E+01  0.24241147809E+01 -0.75864459272E+01  0.97046660851E+01  0.51100000000E-03 0.  1.
        -12    1    3    3    0    0  0.34897045242E+02  0.57913121729E+01  0.26860588111E+02  0.44416598890E+02  0.00000000000E+00 0.  1.
</event>
<event>
 7    1  0.2148778E-015  0.9000776E+02  0.7816164E-02  0.1186339E+00
        -11   -1    0    0    0    0  0.00000000000E+00  0.00000000000E+00  0.45593999997E+02  0.45594000000E+02  0.51100000000E-03 0. -1.
         11   -1    0    0    0    0 -0.00000000000E+00 -0.00000000000E+00 -0.45593999997E+02  0.45594000000E+02  0.51100000000E-03 0.  1.
    9900012    2    1    2    0    0  0.86298566565E+00 -0.21228425731E+00 -0.77663237098E+00  0.90007759895E+02  0.90000021526E+02 0.  0.
         12    1    1    2    0    0 -0.86298566565E+00  0.21228425731E+00  0.77663237098E+00  0.11802401047E+01  0.00000000000E+00 0. -1.
         11    1    3    3    0    0 -0.65085811301E+01 -0.52855604359E+01 -0.73381798900E+00  0.84164877800E+01  0.51100000000E-03 0. -1.
        -11    1    3    3    0    0 -0.24844454799E+02 -0.24452024270E+02  0.10935876858E+02  0.36534118685E+02  0.51100000000E-03 0.  1.
         12    1    3    3    0    0  0.32216021595E+02  0.29525300448E+02 -0.10978691240E+02  0.45057153431E+02  0.00000000000E+00 0. -1.
</event>
<event>
 7    1  0.2468174E-015  0.9000774E+02  0.7816164E-02  0.1186339E+00
        -11   -1    0    0    0    0  0.00000000000E+00  0.00000000000E+00  0.45593999997E+02  0.45594000000E+02  0.51100000000E-03 0.  1.
         11   -1    0    0    0    0 -0.00000000000E+00 -0.00000000000E+00 -0.45593999997E+02  0.45594000000E+02  0.51100000000E-03 0. -1.
    9900012    2    1    2    0    0 -0.91713326713E+00 -0.14460417876E+00  0.72868073847E+00  0.90007737564E+02  0.89999998900E+02 0.  0.
         12    1    1    2    0    0  0.91713326713E+00  0.14460417876E+00 -0.72868073847E+00  0.11802624356E+01  0.00000000000E+00 0. -1.
         11    1    3    3    0    0  0.77247874469E+01 -0.60247660304E+00  0.51924819308E+01  0.93272283139E+01  0.51100000000E-03 0. -1.
        -11    1    3    3    0    0 -0.15195798759E+02  0.50269477775E+01  0.36019935179E+02  0.39415964208E+02  0.51100000000E-03 0.  1.
         12    1    3    3    0    0  0.65538780446E+01 -0.45690753532E+01 -0.40483736371E+02  0.41264545043E+02  0.00000000000E+00 0. -1.
</event>
<event>
 7    1  0.2148778E-015  0.9000808E+02  0.7816164E-02  0.1186338E+00
        -11   -1    0    0    0    0  0.00000000000E+00  0.00000000000E+00  0.45593999997E+02  0.45594000000E+02  0.51100000000E-03 0.  1.
         11   -1    0    0    0    0 -0.00000000000E+00 -0.00000000000E+00 -0.45593999997E+02  0.45594000000E+02  0.51100000000E-03 0. -1.
    9900012    2    1    2    0    0  0.63621957379E+00  0.56005860482E-01  0.99211837908E+00  0.90008080138E+02  0.90000345995E+02 0.  0.
         12    1    1    2    0    0 -0.63621957379E+00 -0.56005860482E-01 -0.99211837908E+00  0.11799198619E+01  0.00000000000E+00 0. -1.
         11    1    3    3    0    0 -0.67400627436E+01  0.73621947772E+01 -0.65736319681E+00  0.10003123730E+02  0.51100000000E-03 0. -1.
        -11    1    3    3    0    0 -0.30673647889E+02  0.16763877071E+02  0.12894657895E+01  0.34979464998E+02  0.51100000000E-03 0.  1.
         12    1    3    3    0    0  0.38049930206E+02 -0.24070065987E+02  0.36001578639E+00  0.45025491410E+02  0.00000000000E+00 0. -1.
</event>
<event>
 7    1  0.2148778E-015  0.9000771E+02  0.7816164E-02  0.1186339E+00
        -11   -1    0    0    0    0  0.00000000000E+00  0.00000000000E+00  0.45593999997E+02  0.45594000000E+02  0.51100000000E-03 0.  1.
         11   -1    0    0    0    0 -0.00000000000E+00 -0.00000000000E+00 -0.45593999997E+02  0.45594000000E+02  0.51100000000E-03 0. -1.
    9900012    2    1    2    0    0  0.98625447845E+00 -0.18370730450E+00  0.62180792507E+00  0.90007707085E+02  0.89999968018E+02 0.  0.
         12    1    1    2    0    0 -0.98625447845E+00  0.18370730450E+00 -0.62180792507E+00  0.11802929152E+01  0.00000000000E+00 0. -1.
         11    1    3    3    0    0  0.50430874329E+01  0.25231323841E+01 -0.36429883257E+02  0.36863739938E+02  0.51100000000E-03 0. -1.
        -11    1    3    3    0    0  0.27179188807E+01 -0.62493888679E+01 -0.62052310630E+01  0.92166608417E+01  0.51100000000E-03 0.  1.
        -12    1    3    3    0    0 -0.67747518351E+01  0.35425491792E+01  0.43256922245E+02  0.43927306305E+02  0.00000000000E+00 0.  1.
</event>
<event>
 7    1  0.2148778E-015  0.9000774E+02  0.7816164E-02  0.1186339E+00
        -11   -1    0    0    0    0  0.00000000000E+00  0.00000000000E+00  0.45593999997E+02  0.45594000000E+02  0.51100000000E-03 0. -1.
         11   -1    0    0    0    0 -0.00000000000E+00 -0.00000000000E+00 -0.45593999997E+02  0.45594000000E+02  0.51100000000E-03 0.  1.
    9900012    2    1    2    0    0  0.35255678888E+00 -0.99764943531E-01 -0.11219502729E+01  0.90007736577E+02  0.89999997900E+02 0.  0.
         12    1    1    2    0    0 -0.35255678888E+00  0.99764943531E-01  0.11219502729E+01  0.11802634232E+01  0.00000000000E+00 0. -1.
         11    1    3    3    0    0  0.27296018982E+01 -0.41875826623E+02  0.93344486169E+01  0.42990318830E+02  0.51100000000E-03 0. -1.
        -11    1    3    3    0    0  0.33478344791E+01  0.39655816427E+01 -0.68675409232E+01  0.86079586463E+01  0.51100000000E-03 0.  1.
        -12    1    3    3    0    0 -0.57248795884E+01  0.37810480037E+02 -0.35888579666E+01  0.38409459101E+02  0.00000000000E+00 0.  1.
</event>
<event>
 7    1  0.2148778E-015  0.9000750E+02  0.7816164E-02  0.1186340E+00
        -11   -1    0    0    0    0  0.00000000000E+00  0.00000000000E+00  0.45593999997E+02  0.45594000000E+02  0.51100000000E-03 0.  1.
         11   -1    0    0    0    0 -0.00000000000E+00 -0.00000000000E+00 -0.45593999997E+02  0.45594000000E+02  0.51100000000E-03 0. -1.
    9900012    2    1    2    0    0  0.40876562616E+00  0.11018700123E+01  0.11124728672E+00  0.90007498911E+02  0.89999757097E+02 0.  0.
         12    1    1    2    0    0 -0.40876562616E+00 -0.11018700123E+01 -0.11124728672E+00  0.11805010885E+01  0.00000000000E+00 0. -1.
         11    1    3    3    0    0 -0.12122561425E+01  0.77029300878E+01  0.40677577774E+01  0.87949616537E+01  0.51100000000E-03 0. -1.
        -11    1    3    3    0    0  0.79767164120E+00  0.27450675921E+02  0.24519622621E+02  0.36815591565E+02  0.51100000000E-03 0.  1.
         12    1    3    3    0    0  0.82335012748E+00 -0.34051735997E+02 -0.28476133111E+02  0.44396945692E+02  0.00000000000E+00 0. -1.
</event>
<event>
 7    1  0.2148778E-015  0.9000764E+02  0.7816164E-02  0.1186339E+00
        -11   -1    0    0    0    0  0.00000000000E+00  0.00000000000E+00  0.45593999997E+02  0.45594000000E+02  0.51100000000E-03 0.  1.
         11   -1    0    0    0    0 -0.00000000000E+00 -0.00000000000E+00 -0.45593999997E+02  0.45594000000E+02  0.51100000000E-03 0. -1.
    9900012    2    1    2    0    0  0.58116701645E+00 -0.55332637477E+00  0.86563488895E+00  0.90007640335E+02  0.89999900387E+02 0.  0.
         12    1    1    2    0    0 -0.58116701645E+00  0.55332637477E+00 -0.86563488895E+00  0.11803596651E+01  0.00000000000E+00 0. -1.
         11    1    3    3    0    0  0.92728478575E+01 -0.25814155066E+01  0.41842769857E+01  0.10495598485E+02  0.51100000000E-03 0. -1.
        -11    1    3    3    0    0 -0.20398064346E+02 -0.27641263317E+02  0.20228685529E+02  0.39866278800E+02  0.51100000000E-03 0.  1.
         12    1    3    3    0    0  0.11706383505E+02  0.29669352449E+02 -0.23547327626E+02  0.39645763050E+02  0.00000000000E+00 0. -1.
</event>
<event>
 7    1  0.2148778E-015  0.9000774E+02  0.7816164E-02  0.1186339E+00
        -11   -1    0    0    0    0  0.00000000000E+00  0.00000000000E+00  0.45593999997E+02  0.45594000000E+02  0.51100000000E-03 0.  1.
         11   -1    0    0    0    0 -0.00000000000E+00 -0.00000000000E+00 -0.45593999997E+02  0.45594000000E+02  0.51100000000E-03 0. -1.
    9900012    2    1    2    0    0 -0.53074349933E+00 -0.24874278550E+00  0.10244235323E+01  0.90007743583E+02  0.90000004999E+02 0.  0.
         12    1    1    2    0    0  0.53074349933E+00  0.24874278550E+00 -0.10244235323E+01  0.11802564166E+01  0.00000000000E+00 0. -1.
         11    1    3    3    0    0  0.35739006603E+01 -0.87086587501E+01  0.38758953590E+01  0.10180180168E+02  0.51100000000E-03 0. -1.
        -11    1    3    3    0    0  0.26563089186E+02 -0.13926729135E+02 -0.22102419181E+02  0.37256790326E+02  0.51100000000E-03 0.  1.
         12    1    3    3    0    0 -0.30667733346E+02  0.22386645099E+02  0.19250947354E+02  0.42570773089E+02  0.00000000000E+00 0. -1.
</event>
<event>
 7    1  0.2148778E-015  0.9000830E+02  0.7816164E-02  0.1186338E+00
        -11   -1    0    0    0    0  0.00000000000E+00  0.00000000000E+00  0.45593999997E+02  0.45594000000E+02  0.51100000000E-03 0.  1.
         11   -1    0    0    0    0 -0.00000000000E+00 -0.00000000000E+00 -0.45593999997E+02  0.45594000000E+02  0.51100000000E-03 0. -1.
    9900012    2    1    2    0    0 -0.10099816580E+01 -0.49212283440E+00  0.35978469411E+00  0.90008299674E+02  0.90000568428E+02 0.  0.
         12    1    1    2    0    0  0.10099816580E+01  0.49212283440E+00 -0.35978469411E+00  0.11797003263E+01  0.00000000000E+00 0. -1.
         11    1    3    3    0    0 -0.24145220385E+01 -0.25722493727E+01  0.10189666641E+02  0.10783120607E+02  0.51100000000E-03 0. -1.
        -11    1    3    3    0    0  0.18957112699E+02  0.86300992646E+01  0.29237299486E+02  0.35898055890E+02  0.51100000000E-03 0.  1.
         12    1    3    3    0    0 -0.17552572319E+02 -0.65499727263E+01 -0.39067181432E+02  0.43327123177E+02  0.00000000000E+00 0. -1.
</event>
<event>
 7    1  0.2148778E-015  0.9000748E+02  0.7816164E-02  0.1186340E+00
        -11   -1    0    0    0    0  0.00000000000E+00  0.00000000000E+00  0.45593999997E+02  0.45594000000E+02  0.51100000000E-03 0. -1.
         11   -1    0    0    0    0 -0.00000000000E+00 -0.00000000000E+00 -0.45593999997E+02  0.45594000000E+02  0.51100000000E-03 0.  1.
    9900012    2    1    2    0    0  0.91943435127E+00  0.43182146157E+00  0.60150524144E+00  0.90007475601E+02  0.89999733479E+02 0.  0.
         12    1    1    2    0    0 -0.91943435127E+00 -0.43182146157E+00 -0.60150524144E+00  0.11805243989E+01  0.00000000000E+00 0. -1.
         11    1    3    3    0    0 -0.51558170871E+01 -0.16121140231E+02  0.31587177031E+02  0.35836062356E+02  0.51100000000E-03 0. -1.
        -11    1    3    3    0    0  0.25940491041E+01 -0.91558376121E+01  0.42442089750E+01  0.10419777503E+02  0.51100000000E-03 0.  1.
        -12    1    3    3    0    0  0.34812023343E+01  0.25708799304E+02 -0.35229880764E+02  0.43751635741E+02  0.00000000000E+00 0.  1.
</event>
<event>
 7    1  0.2148778E-015  0.9000833E+02  0.7816164E-02  0.1186338E+00
        -11   -1    0    0    0    0  0.00000000000E+00  0.00000000000E+00  0.45593999997E+02  0.45594000000E+02  0.51100000000E-03 0. -1.
         11   -1    0    0    0    0 -0.00000000000E+00 -0.00000000000E+00 -0.45593999997E+02  0.45594000000E+02  0.51100000000E-03 0.  1.
    9900012    2    1    2    0    0 -0.10639382322E+01  0.26810979486E-01 -0.50886172131E+00  0.90008329011E+02  0.90000598152E+02 0.  0.
         12    1    1    2    0    0  0.10639382322E+01 -0.26810979486E-01  0.50886172131E+00  0.11796709888E+01  0.00000000000E+00 0. -1.
         11    1    3    3    0    0  0.18516307015E+02  0.26945018783E+02  0.14399239046E+02  0.35724301925E+02  0.51100000000E-03 0. -1.
        -11    1    3    3    0    0  0.11211800653E+01  0.63499425090E+01  0.68974110131E+01  0.94420915878E+01  0.51100000000E-03 0.  1.
        -12    1    3    3    0    0 -0.20701425312E+02 -0.33268150313E+02 -0.21805511781E+02  0.44841935498E+02  0.00000000000E+00 0.  1.
</event>
<event>
 7    1  0.2148778E-015  0.9000772E+02  0.7816164E-02  0.1186339E+00
        -11   -1    0    0    0    0  0.00000000000E+00  0.00000000000E+00  0.45593999997E+02  0.45594000000E+02  0.51100000000E-03 0.  1.
         11   -1    0    0    0    0 -0.00000000000E+00 -0.00000000000E+00 -0.45593999997E+02  0.45594000000E+02  0.51100000000E-03 0. -1.
    9900012    2    1    2    0    0  0.65173345891E+00  0.20632295437E+00  0.96215417228E+00  0.90007717697E+02  0.89999978771E+02 0.  0.
         12    1    1    2    0    0 -0.65173345891E+00 -0.20632295437E+00 -0.96215417228E+00  0.11802823028E+01  0.00000000000E+00 0. -1.
         11    1    3    3    0    0  0.79017198087E+01 -0.46946623568E+01 -0.76559496048E+01  0.11962048119E+02  0.51100000000E-03 0. -1.
        -11    1    3    3    0    0 -0.12081966340E+01  0.40672458380E+02 -0.28362894737E+00  0.40691387977E+02  0.51100000000E-03 0.  1.
         12    1    3    3    0    0 -0.60417897158E+01 -0.35771473069E+02  0.89017327244E+01  0.37354281602E+02  0.00000000000E+00 0. -1.
</event>
<event>
 7    1  0.2148778E-015  0.9000775E+02  0.7816164E-02  0.1186339E+00
        -11   -1    0    0    0    0  0.00000000000E+00  0.00000000000E+00  0.45593999997E+02  0.45594000000E+02  0.51100000000E-03 0.  1.
         11   -1    0    0    0    0 -0.00000000000E+00 -0.00000000000E+00 -0.45593999997E+02  0.45594000000E+02  0.51100000000E-03 0. -1.
    9900012    2    1    2    0    0 -0.60632933522E+00 -0.99991033176E+00 -0.15977831098E+00  0.90007752126E+02  0.90000013655E+02 0.  0.
         12    1    1    2    0    0  0.60632933522E+00  0.99991033176E+00  0.15977831098E+00  0.11802478735E+01  0.00000000000E+00 0. -1.
         11    1    3    3    0    0  0.17430406823E+02 -0.23349215630E+02 -0.21631869868E+02  0.36289705797E+02  0.51100000000E-03 0. -1.
        -11    1    3    3    0    0  0.13311949129E+01 -0.76079610656E+01 -0.50832756790E+01  0.92462340097E+01  0.51100000000E-03 0.  1.
        -12    1    3    3    0    0 -0.19367931072E+02  0.29957266364E+02  0.26555367236E+02  0.44471812320E+02  0.00000000000E+00 0.  1.
</event>
<event>
 7    1  0.2148778E-015  0.9000771E+02  0.7816164E-02  0.1186339E+00
        -11   -1    0    0    0    0  0.00000000000E+00  0.00000000000E+00  0.45593999997E+02  0.45594000000E+02  0.51100000000E-03 0.  1.
         11   -1    0    0    0    0 -0.00000000000E+00 -0.00000000000E+00 -0.45593999997E+02  0.45594000000E+02  0.51100000000E-03 0. -1.
    9900012    2    1    2    0    0 -0.37138273039E-02 -0.10672770777E+01 -0.50396442366E+00  0.90007714317E+02  0.89999975346E+02 0.  0.
         12    1    1    2    0    0  0.37138273039E-02  0.10672770777E+01  0.50396442366E+00  0.11802856830E+01  0.00000000000E+00 0. -1.
         11    1    3    3    0    0  0.60375262102E+01 -0.35211325445E+02  0.31814087395E+01  0.35866565548E+02  0.51100000000E-03 0. -1.
        -11    1    3    3    0    0  0.71861176296E+00 -0.96380137228E+01  0.23105254694E+00  0.96675279636E+01  0.51100000000E-03 0.  1.
        -12    1    3    3    0    0 -0.67598518004E+01  0.43782062090E+02 -0.39164257101E+01  0.44473620806E+02  0.00000000000E+00 0.  1.
</event>
<event>
 7    1  0.2148778E-015  0.9000789E+02  0.7816164E-02  0.1186339E+00
        -11   -1    0    0    0    0  0.00000000000E+00  0.00000000000E+00  0.45593999997E+02  0.45594000000E+02  0.51100000000E-03 0. -1.
         11   -1    0    0    0    0 -0.00000000000E+00 -0.00000000000E+00 -0.45593999997E+02  0.45594000000E+02  0.51100000000E-03 0.  1.
    9900012    2    1    2    0    0  0.11300403017E+01  0.23123630241E+00  0.24939191425E+00  0.90007890836E+02  0.90000154195E+02 0.  0.
         12    1    1    2    0    0 -0.11300403017E+01 -0.23123630241E+00 -0.24939191425E+00  0.11801091635E+01  0.00000000000E+00 0. -1.
         11    1    3    3    0    0 -0.56095203237E+01 -0.36450789388E+02 -0.16041574277E+02  0.40217643775E+02  0.51100000000E-03 0. -1.
        -11    1    3    3    0    0 -0.13842133018E+01  0.76712467780E+01 -0.79409116449E+01  0.11127540232E+02  0.51100000000E-03 0.  1.
        -12    1    3    3    0    0  0.81237739272E+01  0.29010778912E+02  0.24231877837E+02  0.38662706830E+02  0.00000000000E+00 0.  1.
</event>
<event>
 7    1  0.2148778E-015  0.9000776E+02  0.7816164E-02  0.1186339E+00
        -11   -1    0    0    0    0  0.00000000000E+00  0.00000000000E+00  0.45593999997E+02  0.45594000000E+02  0.51100000000E-03 0. -1.
         11   -1    0    0    0    0 -0.00000000000E+00 -0.00000000000E+00 -0.45593999997E+02  0.45594000000E+02  0.51100000000E-03 0.  1.
    9900012    2    1    2    0    0  0.44830782809E+00 -0.84178976595E+00 -0.69525654343E+00  0.90007757830E+02  0.90000019433E+02 0.  0.
         12    1    1    2    0    0 -0.44830782809E+00  0.84178976595E+00  0.69525654343E+00  0.11802421701E+01  0.00000000000E+00 0. -1.
         11    1    3    3    0    0 -0.81070165250E+00 -0.61979014974E+01 -0.72245014086E+01  0.95532529017E+01  0.51100000000E-03 0. -1.
        -11    1    3    3    0    0  0.12827968846E+02 -0.27361973294E+02 -0.20457597203E+02  0.36493117856E+02  0.51100000000E-03 0.  1.
         12    1    3    3    0    0 -0.11568959365E+02  0.32718085025E+02  0.26986842068E+02  0.43961387072E+02  0.00000000000E+00 0. -1.
</event>
<event>
 7    1  0.2148778E-015  0.9000773E+02  0.7816164E-02  0.1186339E+00
        -11   -1    0    0    0    0  0.00000000000E+00  0.00000000000E+00  0.45593999997E+02  0.45594000000E+02  0.51100000000E-03 0.  1.
         11   -1    0    0    0    0 -0.00000000000E+00 -0.00000000000E+00 -0.45593999997E+02  0.45594000000E+02  0.51100000000E-03 0. -1.
    9900012    2    1    2    0    0 -0.88375749600E+00  0.58458742296E-01  0.78012327622E+00  0.90007730089E+02  0.89999991326E+02 0.  0.
         12    1    1    2    0    0  0.88375749600E+00 -0.58458742296E-01 -0.78012327622E+00  0.11802699108E+01  0.00000000000E+00 0. -1.
         11    1    3    3    0    0 -0.32904755669E+02 -0.17495205841E+02  0.52856081738E+01  0.37639644353E+02  0.51100000000E-03 0. -1.
        -11    1    3    3    0    0 -0.72992184678E+01 -0.55542025370E+00 -0.53548622059E+01  0.90698198110E+01  0.51100000000E-03 0.  1.
        -12    1    3    3    0    0  0.39320216640E+02  0.18109084837E+02  0.84937730835E+00  0.43298265925E+02  0.00000000000E+00 0.  1.
</event>
<event>
 7    1  0.2148778E-015  0.9000775E+02  0.7816164E-02  0.1186339E+00
        -11   -1    0    0    0    0  0.00000000000E+00  0.00000000000E+00  0.45593999997E+02  0.45594000000E+02  0.51100000000E-03 0. -1.
         11   -1    0    0    0    0 -0.00000000000E+00 -0.00000000000E+00 -0.45593999997E+02  0.45594000000E+02  0.51100000000E-03 0.  1.
    9900012    2    1    2    0    0  0.44040469611E+00  0.10220754053E+01  0.39293808948E+00  0.90007748005E+02  0.90000009478E+02 0.  0.
         12    1    1    2    0    0 -0.44040469611E+00 -0.10220754053E+01 -0.39293808948E+00  0.11802519954E+01  0.00000000000E+00 0. -1.
         11    1    3    3    0    0 -0.12960983691E+02 -0.79660470536E+01  0.33389119930E+02  0.36691665727E+02  0.51100000000E-03 0. -1.
        -11    1    3    3    0    0 -0.46364207830E+01 -0.40798362215E+01  0.58695190802E+01  0.85201359006E+01  0.51100000000E-03 0.  1.
        -12    1    3    3    0    0  0.18037809170E+02  0.13067958680E+02 -0.38865700921E+02  0.44795946377E+02  0.00000000000E+00 0.  1.
</event>
<event>
 7    1  0.2148778E-015  0.9000779E+02  0.7816164E-02  0.1186339E+00
        -11   -1    0    0    0    0  0.00000000000E+00  0.00000000000E+00  0.45593999997E+02  0.45594000000E+02  0.51100000000E-03 0. -1.
         11   -1    0    0    0    0 -0.00000000000E+00 -0.00000000000E+00 -0.45593999997E+02  0.45594000000E+02  0.51100000000E-03 0.  1.
    9900012    2    1    2    0    0  0.14087786697E+00  0.80221333152E+00 -0.85410800478E+00  0.90007790999E+02  0.90000053040E+02 0.  0.
         12    1    1    2    0    0 -0.14087786697E+00 -0.80221333152E+00  0.85410800478E+00  0.11802090012E+01  0.00000000000E+00 0. -1.
         11    1    3    3    0    0  0.35890580497E+02  0.21782092717E+01  0.11759670937E+02  0.37830784090E+02  0.51100000000E-03 0. -1.
        -11    1    3    3    0    0 -0.11017345216E+01 -0.84941169058E+01  0.75880049694E+01  0.11442974292E+02  0.51100000000E-03 0.  1.
        -12    1    3    3    0    0 -0.34647968108E+02  0.71181209656E+01 -0.20201783911E+02  0.40734032618E+02  0.00000000000E+00 0.  1.
</event>
<event>
 7    1  0.2148778E-015  0.9000770E+02  0.7816164E-02  0.1186339E+00
        -11   -1    0    0    0    0  0.00000000000E+00  0.00000000000E+00  0.45593999997E+02  0.45594000000E+02  0.51100000000E-03 0.  1.
         11   -1    0    0    0    0 -0.00000000000E+00 -0.00000000000E+00 -0.45593999997E+02  0.45594000000E+02  0.51100000000E-03 0. -1.
    9900012    2    1    2    0    0 -0.53253524606E+00 -0.21089627837E+00  0.10320041241E+01  0.90007701927E+02  0.89999962793E+02 0.  0.
         12    1    1    2    0    0  0.53253524606E+00  0.21089627837E+00 -0.10320041241E+01  0.11802980728E+01  0.00000000000E+00 0. -1.
         11    1    3    3    0    0 -0.55039908046E+01  0.31397411951E+02 -0.69470165294E+01  0.32624414645E+02  0.51100000000E-03 0. -1.
        -11    1    3    3    0    0 -0.13851156278E+02  0.56255429338E+01  0.39818301906E+01  0.15471142022E+02  0.51100000000E-03 0.  1.
        -12    1    3    3    0    0  0.18822611836E+02 -0.37233851163E+02  0.39971904629E+01  0.41912145261E+02  0.00000000000E+00 0.  1.
</event>
<event>
 7    1  0.2148778E-015  0.9000773E+02  0.7816164E-02  0.1186339E+00
        -11   -1    0    0    0    0  0.00000000000E+00  0.00000000000E+00  0.45593999997E+02  0.45594000000E+02  0.51100000000E-03 0.  1.
         11   -1    0    0    0    0 -0.00000000000E+00 -0.00000000000E+00 -0.45593999997E+02  0.45594000000E+02  0.51100000000E-03 0. -1.
    9900012    2    1    2    0    0 -0.65556483474E+00 -0.92075276200E-01  0.97713032275E+00  0.90007734447E+02  0.89999995741E+02 0.  0.
         12    1    1    2    0    0  0.65556483474E+00  0.92075276200E-01 -0.97713032275E+00  0.11802655535E+01  0.00000000000E+00 0. -1.
         11    1    3    3    0    0  0.94908276206E+01 -0.37715724692E+00 -0.90017607854E+00  0.95408790867E+01  0.51100000000E-03 0. -1.
        -11    1    3    3    0    0  0.29619128590E+02 -0.15695227997E+01  0.20961548040E+02  0.36320003810E+02  0.51100000000E-03 0.  1.
         12    1    3    3    0    0 -0.39765521045E+02  0.18546047704E+01 -0.19084241638E+02  0.44146851550E+02  0.00000000000E+00 0. -1.
</event>
<event>
 7    1  0.2148778E-015  0.9000773E+02  0.7816164E-02  0.1186339E+00
        -11   -1    0    0    0    0  0.00000000000E+00  0.00000000000E+00  0.45593999997E+02  0.45594000000E+02  0.51100000000E-03 0. -1.
         11   -1    0    0    0    0 -0.00000000000E+00 -0.00000000000E+00 -0.45593999997E+02  0.45594000000E+02  0.51100000000E-03 0.  1.
    9900012    2    1    2    0    0  0.83540495312E+00 -0.80249750173E+00  0.22612447834E+00  0.90007730558E+02  0.89999991801E+02 0.  0.
         12    1    1    2    0    0 -0.83540495312E+00  0.80249750173E+00 -0.22612447834E+00  0.11802694420E+01  0.00000000000E+00 0. -1.
         11    1    3    3    0    0 -0.17943660785E+02  0.10206170278E+02  0.20290633064E+02  0.28945650182E+02  0.51100000000E-03 0. -1.
        -11    1    3    3    0    0 -0.17535225550E+02 -0.81017358249E+01 -0.14623735396E+02  0.24227585428E+02  0.51100000000E-03 0.  1.
         12    1    3    3    0    0  0.36314291288E+02 -0.29069319546E+01 -0.54407731892E+01  0.36834494948E+02  0.00000000000E+00 0. -1.
</event>
<event>
 7    1  0.2148778E-015  0.9000767E+02  0.7816164E-02  0.1186339E+00
        -11   -1    0    0    0    0  0.00000000000E+00  0.00000000000E+00  0.45593999997E+02  0.45594000000E+02  0.51100000000E-03 0. -1.
         11   -1    0    0    0    0 -0.00000000000E+00 -0.00000000000E+00 -0.45593999997E+02  0.45594000000E+02  0.51100000000E-03 0.  1.
    9900012    2    1    2    0    0  0.59826152672E+00  0.62364575862E+00 -0.80394837586E+00  0.90007667895E+02  0.89999928311E+02 0.  0.
         12    1    1    2    0    0 -0.59826152672E+00 -0.62364575862E+00  0.80394837586E+00  0.11803321048E+01  0.00000000000E+00 0. -1.
         11    1    3    3    0    0  0.10808039293E+02  0.32924980959E+01  0.35641942448E+02  0.37389869200E+02  0.51100000000E-03 0. -1.
        -11    1    3    3    0    0  0.10515671586E+01 -0.88430239479E+01  0.43048313007E+01  0.98912303998E+01  0.51100000000E-03 0.  1.
        -12    1    3    3    0    0 -0.11261344925E+02  0.61741716107E+01 -0.40750722125E+02  0.42726568295E+02  0.00000000000E+00 0.  1.
</event>
<event>
 7    1  0.2148778E-015  0.9000787E+02  0.7816164E-02  0.1186339E+00
        -11   -1    0    0    0    0  0.00000000000E+00  0.00000000000E+00  0.45593999997E+02  0.45594000000E+02  0.51100000000E-03 0. -1.
         11   -1    0    0    0    0 -0.00000000000E+00 -0.00000000000E+00 -0.45593999997E+02  0.45594000000E+02  0.51100000000E-03 0.  1.
    9900012    2    1    2    0    0  0.10291284203E+01  0.42677172413E-01 -0.57601128946E+00  0.90007866257E+02  0.90000129291E+02 0.  0.
         12    1    1    2    0    0 -0.10291284203E+01 -0.42677172413E-01  0.57601128946E+00  0.11801337433E+01  0.00000000000E+00 0. -1.
         11    1    3    3    0    0  0.19240758357E+01 -0.80475099246E+01  0.41229701410E+01  0.92446398985E+01  0.51100000000E-03 0. -1.
        -11    1    3    3    0    0  0.34348499366E+02 -0.15808399912E+02 -0.52701124258E+01  0.38177205263E+02  0.51100000000E-03 0.  1.
         12    1    3    3    0    0 -0.35243446782E+02  0.23898587009E+02  0.57113099533E+00  0.42586021095E+02  0.00000000000E+00 0. -1.
</event>
<event>
 7    1  0.2148778E-015  0.9000748E+02  0.7816164E-02  0.1186340E+00
        -11   -1    0    0    0    0  0.00000000000E+00  0.00000000000E+00  0.45593999997E+02  0.45594000000E+02  0.51100000000E-03 0.  1.
         11   -1    0    0    0    0 -0.00000000000E+00 -0.00000000000E+00 -0.45593999997E+02  0.45594000000E+02  0.51100000000E-03 0. -1.
    9900012    2    1    2    0    0 -0.18465701676E+00  0.50808557199E+00  0.10494642774E+01  0.90007481287E+02  0.89999739240E+02 0.  0.
         12    1    1    2    0    0  0.18465701676E+00 -0.50808557199E+00 -0.10494642774E+01  0.11805187131E+01  0.00000000000E+00 0. -1.
         11    1    3    3    0    0  0.37783083218E+01  0.84087912721E+01  0.37558073159E+01  0.99543695575E+01  0.51100000000E-03 0. -1.
        -11    1    3    3    0    0  0.26648548444E+02 -0.24630235592E+02 -0.19655353384E+02  0.41268953905E+02  0.51100000000E-03 0.  1.
         12    1    3    3    0    0 -0.30611513783E+02  0.16729529892E+02  0.16949010346E+02  0.38784157825E+02  0.00000000000E+00 0. -1.
</event>
<event>
 7    1  0.2148778E-015  0.9000771E+02  0.7816164E-02  0.1186339E+00
        -11   -1    0    0    0    0  0.00000000000E+00  0.00000000000E+00  0.45593999997E+02  0.45594000000E+02  0.51100000000E-03 0. -1.
         11   -1    0    0    0    0 -0.00000000000E+00 -0.00000000000E+00 -0.45593999997E+02  0.45594000000E+02  0.51100000000E-03 0.  1.
    9900012    2    1    2    0    0  0.51816371873E+00 -0.25144322183E+00 -0.10302273391E+01  0.90007709483E+02  0.89999970449E+02 0.  0.
         12    1    1    2    0    0 -0.51816371873E+00  0.25144322183E+00  0.10302273391E+01  0.11802905165E+01  0.00000000000E+00 0. -1.
         11    1    3    3    0    0 -0.56860455687E+01 -0.58895536189E+01  0.12804365179E+01  0.82859805682E+01  0.51100000000E-03 0. -1.
        -11    1    3    3    0    0  0.11342774667E+02 -0.10041398017E+02 -0.38812341902E+02  0.41663966392E+02  0.51100000000E-03 0.  1.
         12    1    3    3    0    0 -0.51385653799E+01  0.15679508414E+02  0.36501678045E+02  0.40057762524E+02  0.00000000000E+00 0. -1.
</event>
<event>
 7    1  0.2148778E-015  0.9000772E+02  0.7816164E-02  0.1186339E+00
        -11   -1    0    0    0    0  0.00000000000E+00  0.00000000000E+00  0.45593999997E+02  0.45594000000E+02  0.51100000000E-03 0.  1.
         11   -1    0    0    0    0 -0.00000000000E+00 -0.00000000000E+00 -0.45593999997E+02  0.45594000000E+02  0.51100000000E-03 0. -1.
    9900012    2    1    2    0    0  0.49662509469E+00 -0.86408783803E+00  0.63227103461E+00  0.90007724211E+02  0.89999985371E+02 0.  0.
         12    1    1    2    0    0 -0.49662509469E+00  0.86408783803E+00 -0.63227103461E+00  0.11802757888E+01  0.00000000000E+00 0. -1.
         11    1    3    3    0    0 -0.67870585173E+01  0.50767407143E+01 -0.51516902689E+01  0.99185368117E+01  0.51100000000E-03 0. -1.
        -11    1    3    3    0    0  0.14405208208E+02  0.33345075787E+02 -0.91552908871E+01  0.37459624320E+02  0.51100000000E-03 0.  1.
         12    1    3    3    0    0 -0.71215245962E+01 -0.39285904339E+02  0.14939252191E+02  0.42629563079E+02  0.00000000000E+00 0. -1.
</event>
<event>
 7    1  0.2148778E-015  0.9000774E+02  0.7816164E-02  0.1186339E+00
        -11   -1    0    0    0    0  0.00000000000E+00  0.00000000000E+00  0.45593999997E+02  0.45594000000E+02  0.51100000000E-03 0.  1.
         11   -1    0    0    0    0 -0.00000000000E+00 -0.00000000000E+00 -0.45593999997E+02  0.45594000000E+02  0.51100000000E-03 0. -1.
    9900012    2    1    2    0    0 -0.11582723754E+01 -0.28099411587E-01  0.22502393405E+00  0.90007737214E+02  0.89999998545E+02 0.  0.
         12    1    1    2    0    0  0.11582723754E+01  0.28099411587E-01 -0.22502393405E+00  0.11802627858E+01  0.00000000000E+00 0. -1.
         11    1    3    3    0    0 -0.16769744893E+01 -0.88860852355E+01 -0.31485003614E+01  0.95753751382E+01  0.51100000000E-03 0. -1.
        -11    1    3    3    0    0 -0.20104853073E+02  0.19336598082E+02 -0.29263526777E+02  0.40428494186E+02  0.51100000000E-03 0.  1.
         12    1    3    3    0    0  0.20623555187E+02 -0.10478612259E+02  0.32637051072E+02  0.40003867890E+02  0.00000000000E+00 0. -1.
</event>
<event>
 7    1  0.2148778E-015  0.9000742E+02  0.7816164E-02  0.1186340E+00
        -11   -1    0    0    0    0  0.00000000000E+00  0.00000000000E+00  0.45593999997E+02  0.45594000000E+02  0.51100000000E-03 0.  1.
         11   -1    0    0    0    0 -0.00000000000E+00 -0.00000000000E+00 -0.45593999997E+02  0.45594000000E+02  0.51100000000E-03 0. -1.
    9900012    2    1    2    0    0 -0.11677174754E+01  0.10536499187E+00  0.13825693139E+00  0.90007415034E+02  0.89999672111E+02 0.  0.
         12    1    1    2    0    0  0.11677174754E+01 -0.10536499187E+00 -0.13825693139E+00  0.11805849664E+01  0.00000000000E+00 0. -1.
         11    1    3    3    0    0  0.11191112405E+02  0.89943407480E+01 -0.12106918937E+01  0.14408502263E+02  0.51100000000E-03 0. -1.
        -11    1    3    3    0    0 -0.53752510068E+01  0.34980589655E+01  0.36824872362E+02  0.37379151470E+02  0.51100000000E-03 0.  1.
         12    1    3    3    0    0 -0.69835788731E+01 -0.12387034722E+02 -0.35475923537E+02  0.38219761300E+02  0.00000000000E+00 0. -1.
</event>
<event>
 7    1  0.2148778E-015  0.9000777E+02  0.7816164E-02  0.1186339E+00
        -11   -1    0    0    0    0  0.00000000000E+00  0.00000000000E+00  0.45593999997E+02  0.45594000000E+02  0.51100000000E-03 0.  1.
         11   -1    0    0    0    0 -0.00000000000E+00 -0.00000000000E+00 -0.45593999997E+02  0.45594000000E+02  0.51100000000E-03 0. -1.
    9900012    2    1    2    0    0 -0.85800310403E+00  0.68550569793E+00  0.43227811350E+00  0.90007766228E+02  0.90000027943E+02 0.  0.
         12    1    1    2    0    0  0.85800310403E+00 -0.68550569793E+00 -0.43227811350E+00  0.11802337717E+01  0.00000000000E+00 0. -1.
         11    1    3    3    0    0  0.25741778759E+02  0.13476645571E+02 -0.69465862632E+01  0.29874976327E+02  0.51100000000E-03 0. -1.
        -11    1    3    3    0    0  0.94130181921E+01  0.11616986954E+02 -0.33540656708E+01  0.15323480484E+02  0.51100000000E-03 0.  1.
        -12    1    3    3    0    0 -0.36012800055E+02 -0.24408126827E+02  0.10732930048E+02  0.44809309417E+02  0.00000000000E+00 0.  1.
</event>
<event>
 7    1  0.2148778E-015  0.9000773E+02  0.7816164E-02  0.1186339E+00
        -11   -1    0    0    0    0  0.00000000000E+00  0.00000000000E+00  0.45593999997E+02  0.45594000000E+02  0.51100000000E-03 0.  1.
         11   -1    0    0    0    0 -0.00000000000E+00 -0.00000000000E+00 -0.45593999997E+02  0.45594000000E+02  0.51100000000E-03 0. -1.
    9900012    2    1    2    0    0  0.59041449059E+00 -0.18331407562E+00  0.10054032221E+01  0.90007733522E+02  0.89999994804E+02 0.  0.
         12    1    1    2    0    0 -0.59041449059E+00  0.18331407562E+00 -0.10054032221E+01  0.11802664784E+01  0.00000000000E+00 0. -1.
         11    1    3    3    0    0 -0.51682617836E+01  0.85821933141E+01 -0.45442150755E+01  0.11000675564E+02  0.51100000000E-03 0. -1.
        -11    1    3    3    0    0 -0.23316141318E+02  0.24339584549E+02 -0.39450631594E+01  0.33935546931E+02  0.51100000000E-03 0.  1.
         12    1    3    3    0    0  0.29074817592E+02 -0.33105091938E+02  0.94946814571E+01  0.45071511026E+02  0.00000000000E+00 0. -1.
</event>
<event>
 7    1  0.2148778E-015  0.9000776E+02  0.7816164E-02  0.1186339E+00
        -11   -1    0    0    0    0  0.00000000000E+00  0.00000000000E+00  0.45593999997E+02  0.45594000000E+02  0.51100000000E-03 0. -1.
         11   -1    0    0    0    0 -0.00000000000E+00 -0.00000000000E+00 -0.45593999997E+02  0.45594000000E+02  0.51100000000E-03 0.  1.
    9900012    2    1    2    0    0  0.46966066562E+00 -0.56104989595E+00 -0.92606913022E+00  0.90007761820E+02  0.90000023476E+02 0.  0.
         12    1    1    2    0    0 -0.46966066562E+00  0.56104989595E+00  0.92606913022E+00  0.11802381796E+01  0.00000000000E+00 0. -1.
         11    1    3    3    0    0  0.90474056856E+01  0.44147511847E+01  0.15859164329E+01  0.10191207429E+02  0.51100000000E-03 0. -1.
        -11    1    3    3    0    0  0.22838720283E+01  0.35942071289E+02 -0.86504943165E+01  0.37038893237E+02  0.51100000000E-03 0.  1.
         12    1    3    3    0    0 -0.10861617048E+02 -0.40917872370E+02  0.61385087534E+01  0.42777661155E+02  0.00000000000E+00 0. -1.
</event>
<event>
 7    1  0.2148778E-015  0.9000761E+02  0.7816164E-02  0.1186339E+00
        -11   -1    0    0    0    0  0.00000000000E+00  0.00000000000E+00  0.45593999997E+02  0.45594000000E+02  0.51100000000E-03 0.  1.
         11   -1    0    0    0    0 -0.00000000000E+00 -0.00000000000E+00 -0.45593999997E+02  0.45594000000E+02  0.51100000000E-03 0. -1.
    9900012    2    1    2    0    0  0.75776909594E-02 -0.10386552826E+00  0.11757878450E+01  0.90007609164E+02  0.89999868805E+02 0.  0.
         12    1    1    2    0    0 -0.75776909594E-02  0.10386552826E+00 -0.11757878450E+01  0.11803908360E+01  0.00000000000E+00 0. -1.
         11    1    3    3    0    0 -0.98511769297E+01 -0.24003880890E+02 -0.20343866709E+02  0.32971273825E+02  0.51100000000E-03 0. -1.
        -11    1    3    3    0    0 -0.36951959332E+00 -0.63511497044E+01 -0.10203281587E+02  0.12024167444E+02  0.51100000000E-03 0.  1.
        -12    1    3    3    0    0  0.10228274214E+02  0.30251165066E+02  0.31722936141E+02  0.45012167896E+02  0.00000000000E+00 0.  1.
</event>
<event>
 7    1  0.2148778E-015  0.9000777E+02  0.7816164E-02  0.1186339E+00
        -11   -1    0    0    0    0  0.00000000000E+00  0.00000000000E+00  0.45593999997E+02  0.45594000000E+02  0.51100000000E-03 0.  1.
         11   -1    0    0    0    0 -0.00000000000E+00 -0.00000000000E+00 -0.45593999997E+02  0.45594000000E+02  0.51100000000E-03 0. -1.
    9900012    2    1    2    0    0 -0.54250349482E+00  0.37886614200E+00  0.97728873744E+00  0.90007769992E+02  0.90000031756E+02 0.  0.
         12    1    1    2    0    0  0.54250349482E+00 -0.37886614200E+00 -0.97728873744E+00  0.11802300080E+01  0.00000000000E+00 0. -1.
         11    1    3    3    0    0  0.22854188947E+01 -0.13608407736E+02  0.14564608813E+02  0.20063392804E+02  0.51100000000E-03 0. -1.
        -11    1    3    3    0    0 -0.41936350234E+01  0.26317316181E+02  0.20530894279E+02  0.33640828258E+02  0.51100000000E-03 0.  1.
         12    1    3    3    0    0  0.13657126339E+01 -0.12330042303E+02 -0.34118214355E+02  0.36303548931E+02  0.00000000000E+00 0. -1.
</event>
<event>
 7    1  0.2148778E-015  0.9000787E+02  0.7816164E-02  0.1186339E+00
        -11   -1    0    0    0    0  0.00000000000E+00  0.00000000000E+00  0.45593999997E+02  0.45594000000E+02  0.51100000000E-03 0.  1.
         11   -1    0    0    0    0 -0.00000000000E+00 -0.00000000000E+00 -0.45593999997E+02  0.45594000000E+02  0.51100000000E-03 0. -1.
    9900012    2    1    2    0    0 -0.10742798105E+01 -0.45743242773E+00 -0.17145094486E+00  0.90007865701E+02  0.90000128728E+02 0.  0.
         12    1    1    2    0    0  0.10742798105E+01  0.45743242773E+00  0.17145094486E+00  0.11801342990E+01  0.00000000000E+00 0. -1.
         11    1    3    3    0    0  0.31985784563E+02 -0.84578667589E+01  0.14968204449E+02  0.36313538369E+02  0.51100000000E-03 0. -1.
        -11    1    3    3    0    0  0.52727598371E+01 -0.82437933516E+01 -0.16030073269E+01  0.99162370824E+01  0.51100000000E-03 0.  1.
        -12    1    3    3    0    0 -0.38332824211E+02  0.16244227683E+02 -0.13536648067E+02  0.43778090249E+02  0.00000000000E+00 0.  1.
</event>
<event>
 7    1  0.2148778E-015  0.9000801E+02  0.7816164E-02  0.1186339E+00
        -11   -1    0    0    0    0  0.00000000000E+00  0.00000000000E+00  0.45593999997E+02  0.45594000000E+02  0.51100000000E-03 0. -1.
         11   -1    0    0    0    0 -0.00000000000E+00 -0.00000000000E+00 -0.45593999997E+02  0.45594000000E+02  0.51100000000E-03 0.  1.
    9900012    2    1    2    0    0 -0.41876451252E+00  0.81924221358E-01 -0.11001375336E+01  0.90008009370E+02  0.90000274293E+02 0.  0.
         12    1    1    2    0    0  0.41876451252E+00 -0.81924221358E-01  0.11001375336E+01  0.11799906304E+01  0.00000000000E+00 0. -1.
         11    1    3    3    0    0 -0.35187822034E+02 -0.17607854055E+01  0.14918762453E+02  0.38260327471E+02  0.51100000000E-03 0. -1.
        -11    1    3    3    0    0 -0.36141722993E+01 -0.39897638466E+01 -0.11454494427E+02  0.12656456842E+02  0.51100000000E-03 0.  1.
        -12    1    3    3    0    0  0.38383229821E+02  0.58324734734E+01 -0.45644055598E+01  0.39091225057E+02  0.00000000000E+00 0.  1.
</event>
<event>
 7    1  0.2148778E-015  0.9000772E+02  0.7816164E-02  0.1186339E+00
        -11   -1    0    0    0    0  0.00000000000E+00  0.00000000000E+00  0.45593999997E+02  0.45594000000E+02  0.51100000000E-03 0.  1.
         11   -1    0    0    0    0 -0.00000000000E+00 -0.00000000000E+00 -0.45593999997E+02  0.45594000000E+02  0.51100000000E-03 0. -1.
    9900012    2    1    2    0    0 -0.11478030468E+01 -0.56990916178E-01 -0.26901262532E+00  0.90007717156E+02  0.89999978223E+02 0.  0.
         12    1    1    2    0    0  0.11478030468E+01  0.56990916178E-01  0.26901262532E+00  0.11802828437E+01  0.00000000000E+00 0. -1.
         11    1    3    3    0    0  0.15012224297E+02 -0.23984558749E+02  0.25614904632E+02  0.38167384981E+02  0.51100000000E-03 0. -1.
        -11    1    3    3    0    0 -0.40015330288E+01  0.78321164028E+01  0.83358155123E+01  0.12117761115E+02  0.51100000000E-03 0.  1.
        -12    1    3    3    0    0 -0.12158494315E+02  0.16095451430E+02 -0.34219732770E+02  0.39722571060E+02  0.00000000000E+00 0.  1.
</event>
<event>
 7    1  0.2148778E-015  0.9000776E+02  0.7816164E-02  0.1186339E+00
        -11   -1    0    0    0    0  0.00000000000E+00  0.00000000000E+00  0.45593999997E+02  0.45594000000E+02  0.51100000000E-03 0.  1.
         11   -1    0    0    0    0 -0.00000000000E+00 -0.00000000000E+00 -0.45593999997E+02  0.45594000000E+02  0.51100000000E-03 0. -1.
    9900012    2    1    2    0    0  0.11347388563E+01 -0.30186001757E+00 -0.11921493606E+00  0.90007761065E+02  0.90000022711E+02 0.  0.
         12    1    1    2    0    0 -0.11347388563E+01  0.30186001757E+00  0.11921493606E+00  0.11802389348E+01  0.00000000000E+00 0. -1.
         11    1    3    3    0    0  0.11296901356E+02  0.14477484827E+01  0.67945405330E+01  0.13262041216E+02  0.51100000000E-03 0. -1.
        -11    1    3    3    0    0 -0.10076214139E+02 -0.15594522617E+02  0.31138132515E+02  0.36253310522E+02  0.51100000000E-03 0.  1.
         12    1    3    3    0    0 -0.85948360727E-01  0.13844914117E+02 -0.38051887984E+02  0.40492409327E+02  0.00000000000E+00 0. -1.
</event>
<event>
 7    1  0.2148778E-015  0.9000787E+02  0.7816164E-02  0.1186339E+00
        -11   -1    0    0    0    0  0.00000000000E+00  0.00000000000E+00  0.45593999997E+02  0.45594000000E+02  0.51100000000E-03 0.  1.
         11   -1    0    0    0    0 -0.00000000000E+00 -0.00000000000E+00 -0.45593999997E+02  0.45594000000E+02  0.51100000000E-03 0. -1.
    9900012    2    1    2    0    0  0.48510135491E+00  0.47301951870E+00  0.96625289455E+00  0.90007866344E+02  0.90000129380E+02 0.  0.
         12    1    1    2    0    0 -0.48510135491E+00 -0.47301951870E+00 -0.96625289455E+00  0.11801336559E+01  0.00000000000E+00 0. -1.
         11    1    3    3    0    0  0.54137419641E+01 -0.37113524846E+01  0.36957925110E+01  0.75327034898E+01  0.51100000000E-03 0. -1.
        -11    1    3    3    0    0 -0.79519902304E+01 -0.12410609418E+02  0.36721489624E+02  0.39569245320E+02  0.51100000000E-03 0.  1.
         12    1    3    3    0    0  0.30233496212E+01  0.16594981421E+02 -0.39451029240E+02  0.42905917534E+02  0.00000000000E+00 0. -1.
</event>
<event>
 7    1  0.2148778E-015  0.9000776E+02  0.7816164E-02  0.1186339E+00
        -11   -1    0    0    0    0  0.00000000000E+00  0.00000000000E+00  0.45593999997E+02  0.45594000000E+02  0.51100000000E-03 0. -1.
         11   -1    0    0    0    0 -0.00000000000E+00 -0.00000000000E+00 -0.45593999997E+02  0.45594000000E+02  0.51100000000E-03 0.  1.
    9900012    2    1    2    0    0 -0.54583304839E+00 -0.86850941992E-01 -0.10428248802E+01  0.90007762510E+02  0.90000024175E+02 0.  0.
         12    1    1    2    0    0  0.54583304839E+00  0.86850941992E-01  0.10428248802E+01  0.11802374904E+01  0.00000000000E+00 0. -1.
         11    1    3    3    0    0 -0.29367908829E+02  0.21529176879E+02  0.19082963178E+02  0.41111300271E+02  0.51100000000E-03 0. -1.
        -11    1    3    3    0    0 -0.14969600362E+01  0.16654978428E+01 -0.87223254486E+01  0.90052059336E+01  0.51100000000E-03 0.  1.
        -12    1    3    3    0    0  0.30319035817E+02 -0.23281525664E+02 -0.11403462610E+02  0.39891256305E+02  0.00000000000E+00 0.  1.
</event>
<event>
 7    1  0.2148778E-015  0.9000736E+02  0.7816164E-02  0.1186340E+00
        -11   -1    0    0    0    0  0.00000000000E+00  0.00000000000E+00  0.45593999997E+02  0.45594000000E+02  0.51100000000E-03 0. -1.
         11   -1    0    0    0    0 -0.00000000000E+00 -0.00000000000E+00 -0.45593999997E+02  0.45594000000E+02  0.51100000000E-03 0.  1.
    9900012    2    1    2    0    0  0.84736109395E+00 -0.55831697441E+00  0.60346445468E+00  0.90007361183E+02  0.89999617550E+02 0.  0.
         12    1    1    2    0    0 -0.84736109395E+00  0.55831697441E+00 -0.60346445468E+00  0.11806388167E+01  0.00000000000E+00 0. -1.
         11    1    3    3    0    0 -0.74904204510E+01 -0.28307641269E+02 -0.30828460561E+02  0.42518501074E+02  0.51100000000E-03 0. -1.
        -11    1    3    3    0    0  0.25098847099E+01 -0.30359312806E+01  0.57841813552E+01  0.69980821808E+01  0.51100000000E-03 0.  1.
        -12    1    3    3    0    0  0.58278968351E+01  0.30785255576E+02  0.25647743661E+02  0.40490777928E+02  0.00000000000E+00 0.  1.
</event>
<event>
 7    1  0.2148778E-015  0.9000771E+02  0.7816164E-02  0.1186339E+00
        -11   -1    0    0    0    0  0.00000000000E+00  0.00000000000E+00  0.45593999997E+02  0.45594000000E+02  0.51100000000E-03 0. -1.
         11   -1    0    0    0    0 -0.00000000000E+00 -0.00000000000E+00 -0.45593999997E+02  0.45594000000E+02  0.51100000000E-03 0.  1.
    9900012    2    1    2    0    0  0.11242303477E+01 -0.68103447374E-01  0.35292689608E+00  0.90007707939E+02  0.89999968884E+02 0.  0.
         12    1    1    2    0    0 -0.11242303477E+01  0.68103447374E-01 -0.35292689608E+00  0.11802920606E+01  0.00000000000E+00 0. -1.
         11    1    3    3    0    0 -0.16990254707E+02 -0.34511020529E+01 -0.18425324385E+02  0.25299633186E+02  0.51100000000E-03 0. -1.
        -11    1    3    3    0    0 -0.10566319170E+02  0.41192253333E+01 -0.16007224042E+02  0.19617500859E+02  0.51100000000E-03 0.  1.
         12    1    3    3    0    0  0.28680804224E+02 -0.73622672779E+00  0.34785475323E+02  0.45090573895E+02  0.00000000000E+00 0. -1.
</event>
<event>
 7    1  0.2148778E-015  0.9000778E+02  0.7816164E-02  0.1186339E+00
        -11   -1    0    0    0    0  0.00000000000E+00  0.00000000000E+00  0.45593999997E+02  0.45594000000E+02  0.51100000000E-03 0.  1.
         11   -1    0    0    0    0 -0.00000000000E+00 -0.00000000000E+00 -0.45593999997E+02  0.45594000000E+02  0.51100000000E-03 0. -1.
    9900012    2    1    2    0    0 -0.78905441279E+00  0.27265852844E+00  0.83425489499E+00  0.90007775119E+02  0.90000036951E+02 0.  0.
         12    1    1    2    0    0  0.78905441279E+00 -0.27265852844E+00 -0.83425489499E+00  0.11802248808E+01  0.00000000000E+00 0. -1.
         11    1    3    3    0    0  0.19086052877E+02  0.31478988539E+02 -0.21351770018E+02  0.42557046620E+02  0.51100000000E-03 0. -1.
        -11    1    3    3    0    0  0.32500011226E+01 -0.79363437015E+01  0.16106761442E+01  0.87259576293E+01  0.51100000000E-03 0.  1.
        -12    1    3    3    0    0 -0.23125108413E+02 -0.23269986309E+02  0.20575348769E+02  0.38724770869E+02  0.00000000000E+00 0.  1.
</event>
<event>
 7    1  0.2148778E-015  0.9000783E+02  0.7816164E-02  0.1186339E+00
        -11   -1    0    0    0    0  0.00000000000E+00  0.00000000000E+00  0.45593999997E+02  0.45594000000E+02  0.51100000000E-03 0. -1.
         11   -1    0    0    0    0 -0.00000000000E+00 -0.00000000000E+00 -0.45593999997E+02  0.45594000000E+02  0.51100000000E-03 0.  1.
    9900012    2    1    2    0    0  0.11239445335E+01  0.70426835285E-01  0.35297856018E+00  0.90007828353E+02  0.90000090887E+02 0.  0.
         12    1    1    2    0    0 -0.11239445335E+01 -0.70426835285E-01 -0.35297856018E+00  0.11801716474E+01  0.00000000000E+00 0. -1.
         11    1    3    3    0    0  0.37808182302E+02 -0.71999499027E+01  0.68286237470E+01  0.39088719986E+02  0.51100000000E-03 0. -1.
        -11    1    3    3    0    0  0.32374383973E+01  0.26163432726E+01 -0.97425586587E+01  0.10594513154E+02  0.51100000000E-03 0.  1.
        -12    1    3    3    0    0 -0.39921676166E+02  0.46540334653E+01  0.32669134719E+01  0.40324595212E+02  0.00000000000E+00 0.  1.
</event>
<event>
 7    1  0.2148778E-015  0.9000776E+02  0.7816164E-02  0.1186339E+00
        -11   -1    0    0    0    0  0.00000000000E+00  0.00000000000E+00  0.45593999997E+02  0.45594000000E+02  0.51100000000E-03 0. -1.
         11   -1    0    0    0    0 -0.00000000000E+00 -0.00000000000E+00 -0.45593999997E+02  0.45594000000E+02  0.51100000000E-03 0.  1.
    9900012    2    1    2    0    0 -0.69738617549E+00 -0.45830114104E+00 -0.83461225059E+00  0.90007760608E+02  0.90000022248E+02 0.  0.
         12    1    1    2    0    0  0.69738617549E+00  0.45830114104E+00  0.83461225059E+00  0.11802393920E+01  0.00000000000E+00 0. -1.
         11    1    3    3    0    0  0.26573648051E+02 -0.16394332059E+02 -0.17291975065E+02  0.35692370282E+02  0.51100000000E-03 0. -1.
        -11    1    3    3    0    0  0.27001592818E+01 -0.10071011217E+02 -0.18912812388E+01  0.10596842552E+02  0.51100000000E-03 0.  1.
        -12    1    3    3    0    0 -0.29971193509E+02  0.26007042135E+02  0.18348644053E+02  0.43718547775E+02  0.00000000000E+00 0.  1.
</event>
<event>
 7    1  0.2148778E-015  0.9000743E+02  0.7816164E-02  0.1186340E+00
        -11   -1    0    0    0    0  0.00000000000E+00  0.00000000000E+00  0.45593999997E+02  0.45594000000E+02  0.51100000000E-03 0.  1.
         11   -1    0    0    0    0 -0.00000000000E+00 -0.00000000000E+00 -0.45593999997E+02  0.45594000000E+02  0.51100000000E-03 0. -1.
    9900012    2    1    2    0    0 -0.65152088383E-01 -0.45207004131E+00  0.10886413651E+01  0.90007427199E+02  0.89999684437E+02 0.  0.
         12    1    1    2    0    0  0.65152088383E-01  0.45207004131E+00 -0.10886413651E+01  0.11805728011E+01  0.00000000000E+00 0. -1.
         11    1    3    3    0    0 -0.84596263988E+01  0.13478193155E+01  0.48705174869E+01  0.98541278947E+01  0.51100000000E-03 0. -1.
        -11    1    3    3    0    0  0.19630246551E+02 -0.35067248002E+02  0.11585247161E+02  0.41824351927E+02  0.51100000000E-03 0.  1.
         12    1    3    3    0    0 -0.11235772241E+02  0.33267358645E+02 -0.15367123283E+02  0.38328947377E+02  0.00000000000E+00 0. -1.
</event>
<event>
 7    1  0.2148778E-015  0.9000776E+02  0.7816164E-02  0.1186339E+00
        -11   -1    0    0    0    0  0.00000000000E+00  0.00000000000E+00  0.45593999997E+02  0.45594000000E+02  0.51100000000E-03 0. -1.
         11   -1    0    0    0    0 -0.00000000000E+00 -0.00000000000E+00 -0.45593999997E+02  0.45594000000E+02  0.51100000000E-03 0.  1.
    9900012    2    1    2    0    0  0.10910680669E+01 -0.42224313905E+00 -0.15569021552E+00  0.90007763482E+02  0.90000025160E+02 0.  0.
         12    1    1    2    0    0 -0.10910680669E+01  0.42224313905E+00  0.15569021552E+00  0.11802365179E+01  0.00000000000E+00 0. -1.
         11    1    3    3    0    0 -0.31010661265E+01 -0.87685677846E+01  0.25863898091E+01  0.96536938330E+01  0.51100000000E-03 0. -1.
        -11    1    3    3    0    0  0.85919196544E+01 -0.24474505934E+02 -0.28399906699E+02  0.38462673137E+02  0.51100000000E-03 0.  1.
         12    1    3    3    0    0 -0.43997854610E+01  0.32820830580E+02  0.25657826675E+02  0.41891396512E+02  0.00000000000E+00 0. -1.
</event>
<event>
 7    1  0.2148778E-015  0.9000772E+02  0.7816164E-02  0.1186339E+00
        -11   -1    0    0    0    0  0.00000000000E+00  0.00000000000E+00  0.45593999997E+02  0.45594000000E+02  0.51100000000E-03 0. -1.
         11   -1    0    0    0    0 -0.00000000000E+00 -0.00000000000E+00 -0.45593999997E+02  0.45594000000E+02  0.51100000000E-03 0.  1.
    9900012    2    1    2    0    0  0.10810326859E+01 -0.25682785059E+00 -0.39807735408E+00  0.90007721307E+02  0.89999982428E+02 0.  0.
         12    1    1    2    0    0 -0.10810326859E+01  0.25682785059E+00  0.39807735408E+00  0.11802786928E+01  0.00000000000E+00 0. -1.
         11    1    3    3    0    0 -0.12970834227E+02 -0.33547936976E+02  0.60631789554E+01  0.36475591224E+02  0.51100000000E-03 0. -1.
        -11    1    3    3    0    0 -0.86324703757E+01 -0.33330117187E+01  0.23784413475E+01  0.95543443213E+01  0.51100000000E-03 0.  1.
        -12    1    3    3    0    0  0.22684337289E+02  0.36624120844E+02 -0.88396976570E+01  0.43977785761E+02  0.00000000000E+00 0.  1.
</event>
<event>
 7    1  0.2148778E-015  0.9000777E+02  0.7816164E-02  0.1186339E+00
        -11   -1    0    0    0    0  0.00000000000E+00  0.00000000000E+00  0.45593999997E+02  0.45594000000E+02  0.51100000000E-03 0.  1.
         11   -1    0    0    0    0 -0.00000000000E+00 -0.00000000000E+00 -0.45593999997E+02  0.45594000000E+02  0.51100000000E-03 0. -1.
    9900012    2    1    2    0    0  0.61919959348E+00  0.55692068620E+00  0.83628774171E+00  0.90007768678E+02  0.90000030424E+02 0.  0.
         12    1    1    2    0    0 -0.61919959348E+00 -0.55692068620E+00 -0.83628774171E+00  0.11802313223E+01  0.00000000000E+00 0. -1.
         11    1    3    3    0    0 -0.34368710396E+02  0.29274655455E+01 -0.25605237371E+02  0.42958194677E+02  0.51100000000E-03 0. -1.
        -11    1    3    3    0    0  0.48598911012E+01 -0.29022932203E+01 -0.16055308754E+01  0.58838403365E+01  0.51100000000E-03 0.  1.
        -12    1    3    3    0    0  0.30128018889E+02  0.53174836105E+00  0.28047055988E+02  0.41165733664E+02  0.00000000000E+00 0.  1.
</event>
<event>
 7    1  0.2148778E-015  0.9000752E+02  0.7816164E-02  0.1186339E+00
        -11   -1    0    0    0    0  0.00000000000E+00  0.00000000000E+00  0.45593999997E+02  0.45594000000E+02  0.51100000000E-03 0.  1.
         11   -1    0    0    0    0 -0.00000000000E+00 -0.00000000000E+00 -0.45593999997E+02  0.45594000000E+02  0.51100000000E-03 0. -1.
    9900012    2    1    2    0    0  0.10982114898E+01 -0.22059249920E+00  0.37256343948E+00  0.90007519995E+02  0.89999778458E+02 0.  0.
         12    1    1    2    0    0 -0.10982114898E+01  0.22059249920E+00 -0.37256343948E+00  0.11804800055E+01  0.00000000000E+00 0. -1.
         11    1    3    3    0    0  0.90213843142E+00  0.64500268173E+01  0.76753388650E+01  0.10066157492E+02  0.51100000000E-03 0. -1.
        -11    1    3    3    0    0 -0.26765569803E+02 -0.39222365348E+00  0.25533187189E+02  0.36993150914E+02  0.51100000000E-03 0.  1.
         12    1    3    3    0    0  0.26961642861E+02 -0.62783956630E+01 -0.32835962614E+02  0.42948211589E+02  0.00000000000E+00 0. -1.
</event>
<event>
 7    1  0.2148778E-015  0.9000795E+02  0.7816164E-02  0.1186339E+00
        -11   -1    0    0    0    0  0.00000000000E+00  0.00000000000E+00  0.45593999997E+02  0.45594000000E+02  0.51100000000E-03 0. -1.
         11   -1    0    0    0    0 -0.00000000000E+00 -0.00000000000E+00 -0.45593999997E+02  0.45594000000E+02  0.51100000000E-03 0.  1.
    9900012    2    1    2    0    0 -0.12723870190E+00 -0.82318813868E+00  0.83587718686E+00  0.90007949547E+02  0.90000213681E+02 0.  0.
         12    1    1    2    0    0  0.12723870190E+00  0.82318813868E+00 -0.83587718686E+00  0.11800504525E+01  0.00000000000E+00 0. -1.
         11    1    3    3    0    0  0.68503873392E+00  0.91261886215E+01 -0.43833569960E+01  0.10147433944E+02  0.51100000000E-03 0. -1.
        -11    1    3    3    0    0 -0.71975874778E+01  0.21935310852E+02 -0.26008432796E+02  0.34776453305E+02  0.51100000000E-03 0.  1.
         12    1    3    3    0    0  0.63853100420E+01 -0.31884687613E+02  0.31227666979E+02  0.45084062299E+02  0.00000000000E+00 0. -1.
</event>
<event>
 7    1  0.2148778E-015  0.9000773E+02  0.7816164E-02  0.1186339E+00
        -11   -1    0    0    0    0  0.00000000000E+00  0.00000000000E+00  0.45593999997E+02  0.45594000000E+02  0.51100000000E-03 0.  1.
         11   -1    0    0    0    0 -0.00000000000E+00 -0.00000000000E+00 -0.45593999997E+02  0.45594000000E+02  0.51100000000E-03 0. -1.
    9900012    2    1    2    0    0  0.41488766249E+00  0.11037398502E+01  0.51560529526E-01  0.90007732269E+02  0.89999993535E+02 0.  0.
         12    1    1    2    0    0 -0.41488766249E+00 -0.11037398502E+01 -0.51560529526E-01  0.11802677314E+01  0.00000000000E+00 0. -1.
         11    1    3    3    0    0  0.89386611231E+01  0.18059149698E+01  0.64239582174E+01  0.11154740292E+02  0.51100000000E-03 0. -1.
        -11    1    3    3    0    0  0.17286839144E+02 -0.70304783931E+01  0.29075757780E+02  0.34549415694E+02  0.51100000000E-03 0.  1.
         12    1    3    3    0    0 -0.25810612605E+02  0.63283032735E+01 -0.35448155468E+02  0.44303576283E+02  0.00000000000E+00 0. -1.
</event>
<event>
 7    1  0.2148778E-015  0.9000779E+02  0.7816164E-02  0.1186339E+00
        -11   -1    0    0    0    0  0.00000000000E+00  0.00000000000E+00  0.45593999997E+02  0.45594000000E+02  0.51100000000E-03 0. -1.
         11   -1    0    0    0    0 -0.00000000000E+00 -0.00000000000E+00 -0.45593999997E+02  0.45594000000E+02  0.51100000000E-03 0.  1.
    9900012    2    1    2    0    0  0.74663440990E+00  0.32529086862E+00 -0.85417981193E+00  0.90007788052E+02  0.90000050054E+02 0.  0.
         12    1    1    2    0    0 -0.74663440990E+00 -0.32529086862E+00  0.85417981193E+00  0.11802119481E+01  0.00000000000E+00 0. -1.
         11    1    3    3    0    0 -0.11180789855E+02 -0.30285280403E+02 -0.86385447960E+01  0.33419047373E+02  0.51100000000E-03 0. -1.
        -11    1    3    3    0    0  0.28905114620E+01 -0.12073668427E+02  0.13943159686E+01  0.12492903709E+02  0.51100000000E-03 0.  1.
        -12    1    3    3    0    0  0.90369128027E+01  0.42684239699E+02  0.63900490154E+01  0.44095836970E+02  0.00000000000E+00 0.  1.
</event>
<event>
 7    1  0.2148778E-015  0.9000782E+02  0.7816164E-02  0.1186339E+00
        -11   -1    0    0    0    0  0.00000000000E+00  0.00000000000E+00  0.45593999997E+02  0.45594000000E+02  0.51100000000E-03 0.  1.
         11   -1    0    0    0    0 -0.00000000000E+00 -0.00000000000E+00 -0.45593999997E+02  0.45594000000E+02  0.51100000000E-03 0. -1.
    9900012    2    1    2    0    0 -0.44416285465E+00 -0.32241326915E+00  0.10447924496E+01  0.90007821107E+02  0.90000083545E+02 0.  0.
         12    1    1    2    0    0  0.44416285465E+00  0.32241326915E+00 -0.10447924496E+01  0.11801788934E+01  0.00000000000E+00 0. -1.
         11    1    3    3    0    0  0.67271393292E+01  0.40803395243E+02  0.42155758049E+01  0.41568528318E+02  0.51100000000E-03 0. -1.
        -11    1    3    3    0    0  0.86934254589E+00  0.27937917444E+01  0.19212388977E+01  0.35003125484E+01  0.51100000000E-03 0.  1.
        -12    1    3    3    0    0 -0.80406447297E+01 -0.43919600257E+02 -0.50920222530E+01  0.44938980240E+02  0.00000000000E+00 0.  1.
</event>
<event>
 7    1  0.2148778E-015  0.9000773E+02  0.7816164E-02  0.1186339E+00
        -11   -1    0    0    0    0  0.00000000000E+00  0.00000000000E+00  0.45593999997E+02  0.45594000000E+02  0.51100000000E-03 0.  1.
         11   -1    0    0    0    0 -0.00000000000E+00 -0.00000000000E+00 -0.45593999997E+02  0.45594000000E+02  0.51100000000E-03 0. -1.
    9900012    2    1    2    0    0 -0.50344634675E+00  0.49302124650E+00  0.94684012501E+00  0.90007731219E+02  0.89999992471E+02 0.  0.
         12    1    1    2    0    0  0.50344634675E+00 -0.49302124650E+00 -0.94684012501E+00  0.11802687812E+01  0.00000000000E+00 0. -1.
         11    1    3    3    0    0 -0.13598722643E+02 -0.36632029313E+02  0.83284535786E+01  0.39952396278E+02  0.51100000000E-03 0. -1.
        -11    1    3    3    0    0  0.74654915005E+00  0.27549129543E+01  0.94285536941E+01  0.98511169947E+01  0.51100000000E-03 0.  1.
        -12    1    3    3    0    0  0.12348727146E+02  0.34370137605E+02 -0.16810167148E+02  0.40204217946E+02  0.00000000000E+00 0.  1.
</event>
<event>
 7    1  0.2148778E-015  0.9000770E+02  0.7816164E-02  0.1186339E+00
        -11   -1    0    0    0    0  0.00000000000E+00  0.00000000000E+00  0.45593999997E+02  0.45594000000E+02  0.51100000000E-03 0. -1.
         11   -1    0    0    0    0 -0.00000000000E+00 -0.00000000000E+00 -0.45593999997E+02  0.45594000000E+02  0.51100000000E-03 0.  1.
    9900012    2    1    2    0    0  0.11614239057E+00  0.11732292859E+01  0.56203131136E-01  0.90007697156E+02  0.89999957958E+02 0.  0.
         12    1    1    2    0    0 -0.11614239057E+00 -0.11732292859E+01 -0.56203131136E-01  0.11803028443E+01  0.00000000000E+00 0. -1.
         11    1    3    3    0    0 -0.20246736568E+02  0.23671043723E+02 -0.22908010064E+02  0.38665560618E+02  0.51100000000E-03 0. -1.
        -11    1    3    3    0    0 -0.56070952793E+01 -0.59189451347E+01 -0.51408058714E+01  0.96385327850E+01  0.51100000000E-03 0.  1.
        -12    1    3    3    0    0  0.25969974238E+02 -0.16578869302E+02  0.28105019066E+02  0.41703603753E+02  0.00000000000E+00 0.  1.
</event>
<event>
 7    1  0.2148778E-015  0.9000785E+02  0.7816164E-02  0.1186339E+00
        -11   -1    0    0    0    0  0.00000000000E+00  0.00000000000E+00  0.45593999997E+02  0.45594000000E+02  0.51100000000E-03 0.  1.
         11   -1    0    0    0    0 -0.00000000000E+00 -0.00000000000E+00 -0.45593999997E+02  0.45594000000E+02  0.51100000000E-03 0. -1.
    9900012    2    1    2    0    0  0.76158820642E+00  0.89899877111E+00  0.67413408429E-01  0.90007847487E+02  0.90000110274E+02 0.  0.
         12    1    1    2    0    0 -0.76158820642E+00 -0.89899877111E+00 -0.67413408429E-01  0.11801525131E+01  0.00000000000E+00 0. -1.
         11    1    3    3    0    0 -0.40368303790E+01  0.68715865549E+01  0.27667047321E+01  0.84361932544E+01  0.51100000000E-03 0. -1.
        -11    1    3    3    0    0 -0.29467707022E+02 -0.21607550817E+02  0.15558420136E+02  0.39715191638E+02  0.51100000000E-03 0.  1.
         12    1    3    3    0    0  0.34266125607E+02  0.15634963034E+02 -0.18257711460E+02  0.41856462595E+02  0.00000000000E+00 0. -1.
</event>
<event>
 7    1  0.2148778E-015  0.9000775E+02  0.7816164E-02  0.1186339E+00
        -11   -1    0    0    0    0  0.00000000000E+00  0.00000000000E+00  0.45593999997E+02  0.45594000000E+02  0.51100000000E-03 0. -1.
         11   -1    0    0    0    0 -0.00000000000E+00 -0.00000000000E+00 -0.45593999997E+02  0.45594000000E+02  0.51100000000E-03 0.  1.
    9900012    2    1    2    0    0 -0.28396856799E+00 -0.37328171857E+00 -0.10830569473E+01  0.90007750137E+02  0.90000011638E+02 0.  0.
         12    1    1    2    0    0  0.28396856799E+00  0.37328171857E+00  0.10830569473E+01  0.11802498634E+01  0.00000000000E+00 0. -1.
         11    1    3    3    0    0  0.30112955579E+02 -0.22674579236E+02  0.12507781050E+02  0.39716133048E+02  0.51100000000E-03 0. -1.
        -11    1    3    3    0    0  0.29882469876E+01  0.50488202118E+01  0.55869629572E+01  0.81015036219E+01  0.51100000000E-03 0.  1.
        -12    1    3    3    0    0 -0.33385171135E+02  0.17252477306E+02 -0.19177800954E+02  0.42190113467E+02  0.00000000000E+00 0.  1.
</event>
<event>
 7    1  0.2148778E-015  0.9000789E+02  0.7816164E-02  0.1186339E+00
        -11   -1    0    0    0    0  0.00000000000E+00  0.00000000000E+00  0.45593999997E+02  0.45594000000E+02  0.51100000000E-03 0.  1.
         11   -1    0    0    0    0 -0.00000000000E+00 -0.00000000000E+00 -0.45593999997E+02  0.45594000000E+02  0.51100000000E-03 0. -1.
    9900012    2    1    2    0    0  0.46791283289E+00  0.24552588518E+00  0.10551955717E+01  0.90007888533E+02  0.90000151862E+02 0.  0.
         12    1    1    2    0    0 -0.46791283289E+00 -0.24552588518E+00 -0.10551955717E+01  0.11801114668E+01  0.00000000000E+00 0. -1.
         11    1    3    3    0    0 -0.95086864288E+01  0.43806584551E+01  0.49685372332E+01  0.11588427357E+02  0.51100000000E-03 0. -1.
        -11    1    3    3    0    0 -0.33396793841E+02 -0.84125430743E+01  0.16641719999E+01  0.34480228952E+02  0.51100000000E-03 0.  1.
         12    1    3    3    0    0  0.43373393103E+02  0.42774105044E+01 -0.55775136614E+01  0.43939232225E+02  0.00000000000E+00 0. -1.
</event>
<event>
 7    1  0.2148778E-015  0.9000778E+02  0.7816164E-02  0.1186339E+00
        -11   -1    0    0    0    0  0.00000000000E+00  0.00000000000E+00  0.45593999997E+02  0.45594000000E+02  0.51100000000E-03 0. -1.
         11   -1    0    0    0    0 -0.00000000000E+00 -0.00000000000E+00 -0.45593999997E+02  0.45594000000E+02  0.51100000000E-03 0.  1.
    9900012    2    1    2    0    0  0.86145358648E+00  0.62283065879E+00 -0.51274210819E+00  0.90007777656E+02  0.90000039521E+02 0.  0.
         12    1    1    2    0    0 -0.86145358648E+00 -0.62283065879E+00  0.51274210819E+00  0.11802223438E+01  0.00000000000E+00 0. -1.
         11    1    3    3    0    0 -0.33383272515E+02 -0.21331276290E+02 -0.43900322146E+01  0.39858984121E+02  0.51100000000E-03 0. -1.
        -11    1    3    3    0    0 -0.66291622228E-01  0.38989453254E+01 -0.85804370086E+01  0.94249704906E+01  0.51100000000E-03 0.  1.
        -12    1    3    3    0    0  0.34311017724E+02  0.18055161624E+02  0.12457727115E+02  0.40723823045E+02  0.00000000000E+00 0.  1.
</event>
<event>
 7    1  0.2148778E-015  0.9000773E+02  0.7816164E-02  0.1186339E+00
        -11   -1    0    0    0    0  0.00000000000E+00  0.00000000000E+00  0.45593999997E+02  0.45594000000E+02  0.51100000000E-03 0. -1.
         11   -1    0    0    0    0 -0.00000000000E+00 -0.00000000000E+00 -0.45593999997E+02  0.45594000000E+02  0.51100000000E-03 0.  1.
    9900012    2    1    2    0    0  0.53632438511E+00  0.86321955633E+00  0.60019935183E+00  0.90007732611E+02  0.89999993881E+02 0.  0.
         12    1    1    2    0    0 -0.53632438511E+00 -0.86321955633E+00 -0.60019935183E+00  0.11802673894E+01  0.00000000000E+00 0. -1.
         11    1    3    3    0    0  0.98283554693E+00  0.40472724185E+02 -0.36689614065E+01  0.40650567606E+02  0.51100000000E-03 0. -1.
        -11    1    3    3    0    0 -0.20149943836E+01  0.45477465214E+01  0.77441736821E+00  0.50340762122E+01  0.51100000000E-03 0.  1.
        -12    1    3    3    0    0  0.15684832217E+01 -0.44157251150E+02  0.34947433901E+01  0.44323088792E+02  0.00000000000E+00 0.  1.
</event>
<event>
 7    1  0.2148778E-015  0.9000766E+02  0.7816164E-02  0.1186339E+00
        -11   -1    0    0    0    0  0.00000000000E+00  0.00000000000E+00  0.45593999997E+02  0.45594000000E+02  0.51100000000E-03 0.  1.
         11   -1    0    0    0    0 -0.00000000000E+00 -0.00000000000E+00 -0.45593999997E+02  0.45594000000E+02  0.51100000000E-03 0. -1.
    9900012    2    1    2    0    0  0.44384796619E+00  0.84988512636E+00  0.68839461714E+00  0.90007664076E+02  0.89999924442E+02 0.  0.
         12    1    1    2    0    0 -0.44384796619E+00 -0.84988512636E+00 -0.68839461714E+00  0.11803359242E+01  0.00000000000E+00 0. -1.
         11    1    3    3    0    0  0.33613576281E+02  0.24272353498E+02  0.76746755296E+01  0.42165392201E+02  0.51100000000E-03 0. -1.
        -11    1    3    3    0    0 -0.94126209937E+00 -0.71570807582E+01  0.60921900819E+01  0.94458752677E+01  0.51100000000E-03 0.  1.
        -12    1    3    3    0    0 -0.32228466216E+02 -0.16265387614E+02 -0.13078470994E+02  0.38396396607E+02  0.00000000000E+00 0.  1.
</event>
<event>
 7    1  0.2148778E-015  0.9000774E+02  0.7816164E-02  0.1186339E+00
        -11   -1    0    0    0    0  0.00000000000E+00  0.00000000000E+00  0.45593999997E+02  0.45594000000E+02  0.51100000000E-03 0. -1.
         11   -1    0    0    0    0 -0.00000000000E+00 -0.00000000000E+00 -0.45593999997E+02  0.45594000000E+02  0.51100000000E-03 0.  1.
    9900012    2    1    2    0    0  0.54310325224E+00  0.62010066796E-01 -0.10460451087E+01  0.90007738690E+02  0.90000000040E+02 0.  0.
         12    1    1    2    0    0 -0.54310325224E+00 -0.62010066796E-01  0.10460451087E+01  0.11802613102E+01  0.00000000000E+00 0. -1.
         11    1    3    3    0    0  0.49546540484E+00 -0.83576894241E+01  0.12601900402E+01  0.84666721725E+01  0.51100000000E-03 0. -1.
        -11    1    3    3    0    0  0.79494640256E+01 -0.28383472314E+02 -0.24074741353E+02  0.38057964349E+02  0.51100000000E-03 0.  1.
         12    1    3    3    0    0 -0.79018261782E+01  0.36803171805E+02  0.21768506204E+02  0.43483102169E+02  0.00000000000E+00 0. -1.
</event>
<event>
 7    1  0.2148778E-015  0.9000773E+02  0.7816164E-02  0.1186339E+00
        -11   -1    0    0    0    0  0.00000000000E+00  0.00000000000E+00  0.45593999997E+02  0.45594000000E+02  0.51100000000E-03 0. -1.
         11   -1    0    0    0    0 -0.00000000000E+00 -0.00000000000E+00 -0.45593999997E+02  0.45594000000E+02  0.51100000000E-03 0.  1.
    9900012    2    1    2    0    0 -0.71713580005E+00 -0.88903178133E+00 -0.29728565708E+00  0.90007728834E+02  0.89999990054E+02 0.  0.
         12    1    1    2    0    0  0.71713580005E+00  0.88903178133E+00  0.29728565708E+00  0.11802711662E+01  0.00000000000E+00 0. -1.
         11    1    3    3    0    0  0.74085315139E+01  0.84592543431E+01  0.10097448178E+01  0.11290035788E+02  0.51100000000E-03 0. -1.
        -11    1    3    3    0    0  0.30935837197E+02  0.13166320442E+02 -0.47591744626E+00  0.33624463040E+02  0.51100000000E-03 0.  1.
         12    1    3    3    0    0 -0.39061504511E+02 -0.22514606567E+02 -0.83111302865E+00  0.45093230006E+02  0.00000000000E+00 0. -1.
</event>
<event>
 7    1  0.2148778E-015  0.9000767E+02  0.7816164E-02  0.1186339E+00
        -11   -1    0    0    0    0  0.00000000000E+00  0.00000000000E+00  0.45593999997E+02  0.45594000000E+02  0.51100000000E-03 0. -1.
         11   -1    0    0    0    0 -0.00000000000E+00 -0.00000000000E+00 -0.45593999997E+02  0.45594000000E+02  0.51100000000E-03 0.  1.
    9900012    2    1    2    0    0 -0.85580005406E+00  0.21025191735E+00  0.78522296490E+00  0.90007671780E+02  0.89999932248E+02 0.  0.
         12    1    1    2    0    0  0.85580005406E+00 -0.21025191735E+00 -0.78522296490E+00  0.11803282196E+01  0.00000000000E+00 0. -1.
         11    1    3    3    0    0 -0.10393611482E+02  0.32028499797E+02  0.45734577963E+01  0.33981884518E+02  0.51100000000E-03 0. -1.
        -11    1    3    3    0    0  0.11609041049E+02  0.40909828895E+01 -0.13994005715E+02  0.18637010793E+02  0.51100000000E-03 0.  1.
        -12    1    3    3    0    0 -0.20712296212E+01 -0.35909230769E+02  0.10205770884E+02  0.37388776470E+02  0.00000000000E+00 0.  1.
</event>
<event>
 7    1  0.2148778E-015  0.9000777E+02  0.7816164E-02  0.1186339E+00
        -11   -1    0    0    0    0  0.00000000000E+00  0.00000000000E+00  0.45593999997E+02  0.45594000000E+02  0.51100000000E-03 0.  1.
         11   -1    0    0    0    0 -0.00000000000E+00 -0.00000000000E+00 -0.45593999997E+02  0.45594000000E+02  0.51100000000E-03 0. -1.
    9900012    2    1    2    0    0 -0.11525355302E-01 -0.95175109504E+00 -0.69783114345E+00  0.90007774900E+02  0.90000036729E+02 0.  0.
         12    1    1    2    0    0  0.11525355302E-01  0.95175109504E+00  0.69783114345E+00  0.11802250995E+01  0.00000000000E+00 0. -1.
         11    1    3    3    0    0 -0.49329883563E+01  0.65369548361E+01 -0.55182466363E+01  0.98750796884E+01  0.51100000000E-03 0. -1.
        -11    1    3    3    0    0  0.31481825083E+02 -0.28726702107E+02  0.14085511001E+02  0.44885747681E+02  0.51100000000E-03 0.  1.
         12    1    3    3    0    0 -0.26560362082E+02  0.21237996175E+02 -0.92650955083E+01  0.35246947531E+02  0.00000000000E+00 0. -1.
</event>
<event>
 7    1  0.2148778E-015  0.9000771E+02  0.7816164E-02  0.1186339E+00
        -11   -1    0    0    0    0  0.00000000000E+00  0.00000000000E+00  0.45593999997E+02  0.45594000000E+02  0.51100000000E-03 0.  1.
         11   -1    0    0    0    0 -0.00000000000E+00 -0.00000000000E+00 -0.45593999997E+02  0.45594000000E+02  0.51100000000E-03 0. -1.
    9900012    2    1    2    0    0  0.77252746215E+00  0.18813929924E+00  0.87229433903E+00  0.90007706609E+02  0.89999967536E+02 0.  0.
         12    1    1    2    0    0 -0.77252746215E+00 -0.18813929924E+00 -0.87229433903E+00  0.11802933913E+01  0.00000000000E+00 0. -1.
         11    1    3    3    0    0  0.11243702431E+02 -0.79185699544E+00  0.25119637190E+01  0.11548066671E+02  0.51100000000E-03 0. -1.
        -11    1    3    3    0    0  0.32352676852E+02 -0.10466625644E+02 -0.27858676883E+01  0.34117546965E+02  0.51100000000E-03 0.  1.
         12    1    3    3    0    0 -0.42823851821E+02  0.11446621938E+02  0.11461983083E+01  0.44342092972E+02  0.00000000000E+00 0. -1.
</event>
<event>
 7    1  0.2148778E-015  0.9000776E+02  0.7816164E-02  0.1186339E+00
        -11   -1    0    0    0    0  0.00000000000E+00  0.00000000000E+00  0.45593999997E+02  0.45594000000E+02  0.51100000000E-03 0. -1.
         11   -1    0    0    0    0 -0.00000000000E+00 -0.00000000000E+00 -0.45593999997E+02  0.45594000000E+02  0.51100000000E-03 0.  1.
    9900012    2    1    2    0    0  0.56898885638E+00  0.84957029500E+00 -0.58945290912E+00  0.90007757340E+02  0.90000018937E+02 0.  0.
         12    1    1    2    0    0 -0.56898885638E+00 -0.84957029500E+00  0.58945290912E+00  0.11802426602E+01  0.00000000000E+00 0. -1.
         11    1    3    3    0    0 -0.10524546014E+02  0.33791387016E+02  0.33789676905E+01  0.35553358887E+02  0.51100000000E-03 0. -1.
        -11    1    3    3    0    0 -0.43634464753E+01  0.87865994775E+01 -0.71723527196E+00  0.98365859025E+01  0.51100000000E-03 0.  1.
        -12    1    3    3    0    0  0.15456981345E+02 -0.41728416198E+02 -0.32511853276E+01  0.44617812550E+02  0.00000000000E+00 0.  1.
</event>
<event>
 7    1  0.2148778E-015  0.9000773E+02  0.7816164E-02  0.1186339E+00
        -11   -1    0    0    0    0  0.00000000000E+00  0.00000000000E+00  0.45593999997E+02  0.45594000000E+02  0.51100000000E-03 0. -1.
         11   -1    0    0    0    0 -0.00000000000E+00 -0.00000000000E+00 -0.45593999997E+02  0.45594000000E+02  0.51100000000E-03 0.  1.
    9900012    2    1    2    0    0 -0.11091081289E+01  0.32183312733E+00  0.24361578943E+00  0.90007726279E+02  0.89999987466E+02 0.  0.
         12    1    1    2    0    0  0.11091081289E+01 -0.32183312733E+00 -0.24361578943E+00  0.11802737209E+01  0.00000000000E+00 0. -1.
         11    1    3    3    0    0  0.16575821013E+02 -0.30617040404E+02  0.80108194924E+01  0.35725820278E+02  0.51100000000E-03 0. -1.
        -11    1    3    3    0    0  0.51127427728E+01 -0.64278463279E+01  0.37366067153E+01  0.90232797298E+01  0.51100000000E-03 0.  1.
        -12    1    3    3    0    0 -0.22797671915E+02  0.37366719859E+02 -0.11503810418E+02  0.45258626271E+02  0.00000000000E+00 0.  1.
</event>
<event>
 7    1  0.2148778E-015  0.9000804E+02  0.7816164E-02  0.1186338E+00
        -11   -1    0    0    0    0  0.00000000000E+00  0.00000000000E+00  0.45593999997E+02  0.45594000000E+02  0.51100000000E-03 0.  1.
         11   -1    0    0    0    0 -0.00000000000E+00 -0.00000000000E+00 -0.45593999997E+02  0.45594000000E+02  0.51100000000E-03 0. -1.
    9900012    2    1    2    0    0 -0.15560746944E-01 -0.66139340818E+00  0.97704874303E+00  0.90008039143E+02  0.90000304459E+02 0.  0.
         12    1    1    2    0    0  0.15560746944E-01  0.66139340818E+00 -0.97704874303E+00  0.11799608568E+01  0.00000000000E+00 0. -1.
         11    1    3    3    0    0  0.16081127666E+02  0.35463859613E+02  0.77495982977E+00  0.38947253673E+02  0.51100000000E-03 0. -1.
        -11    1    3    3    0    0 -0.28890087873E+00 -0.14649973168E+01  0.11287455766E+02  0.11385795484E+02  0.51100000000E-03 0.  1.
        -12    1    3    3    0    0 -0.15807787534E+02 -0.34660255704E+02 -0.11085366853E+02  0.39674989987E+02  0.00000000000E+00 0.  1.
</event>
<event>
 7    1  0.2148778E-015  0.9000778E+02  0.7816164E-02  0.1186339E+00
        -11   -1    0    0    0    0  0.00000000000E+00  0.00000000000E+00  0.45593999997E+02  0.45594000000E+02  0.51100000000E-03 0.  1.
         11   -1    0    0    0    0 -0.00000000000E+00 -0.00000000000E+00 -0.45593999997E+02  0.45594000000E+02  0.51100000000E-03 0. -1.
    9900012    2    1    2    0    0 -0.11478074134E+01  0.22628174572E+00  0.15570426004E+00  0.90007784298E+02  0.90000046251E+02 0.  0.
         12    1    1    2    0    0  0.11478074134E+01 -0.22628174572E+00 -0.15570426004E+00  0.11802157020E+01  0.00000000000E+00 0. -1.
         11    1    3    3    0    0 -0.33257091548E+02  0.85422830112E+01 -0.10572263013E+02  0.35927391816E+02  0.51100000000E-03 0. -1.
        -11    1    3    3    0    0 -0.82479545619E+01  0.55565366795E+01 -0.48505153555E+00  0.99568634408E+01  0.51100000000E-03 0.  1.
        -12    1    3    3    0    0  0.40357238696E+02 -0.13872537945E+02  0.11213018809E+02  0.44123529041E+02  0.00000000000E+00 0.  1.
</event>
<event>
 7    1  0.2148778E-015  0.9000770E+02  0.7816164E-02  0.1186339E+00
        -11   -1    0    0    0    0  0.00000000000E+00  0.00000000000E+00  0.45593999997E+02  0.45594000000E+02  0.51100000000E-03 0.  1.
         11   -1    0    0    0    0 -0.00000000000E+00 -0.00000000000E+00 -0.45593999997E+02  0.45594000000E+02  0.51100000000E-03 0. -1.
    9900012    2    1    2    0    0  0.90006166802E-01 -0.10997844607E+01 -0.41890187604E+00  0.90007700991E+02  0.89999961844E+02 0.  0.
         12    1    1    2    0    0 -0.90006166802E-01  0.10997844607E+01  0.41890187604E+00  0.11802990095E+01  0.00000000000E+00 0. -1.
         11    1    3    3    0    0  0.10743346923E+02  0.26807108940E+02 -0.23983768675E+02  0.37540135228E+02  0.51100000000E-03 0. -1.
        -11    1    3    3    0    0 -0.68874402681E+01  0.44039243587E+01 -0.46513690415E+01  0.94056694299E+01  0.51100000000E-03 0.  1.
        -12    1    3    3    0    0 -0.37659004879E+01 -0.32310817760E+02  0.28216235840E+02  0.43061896333E+02  0.00000000000E+00 0.  1.
</event>
<event>
 7    1  0.2148778E-015  0.9000775E+02  0.7816164E-02  0.1186339E+00
        -11   -1    0    0    0    0  0.00000000000E+00  0.00000000000E+00  0.45593999997E+02  0.45594000000E+02  0.51100000000E-03 0.  1.
         11   -1    0    0    0    0 -0.00000000000E+00 -0.00000000000E+00 -0.45593999997E+02  0.45594000000E+02  0.51100000000E-03 0. -1.
    9900012    2    1    2    0    0  0.99917397365E+00  0.11264632971E+00 -0.61802964427E+00  0.90007746440E+02  0.90000007893E+02 0.  0.
         12    1    1    2    0    0 -0.99917397365E+00 -0.11264632971E+00  0.61802964427E+00  0.11802535602E+01  0.00000000000E+00 0. -1.
         11    1    3    3    0    0  0.13766164297E+01 -0.78957391398E+01  0.78561344888E+00  0.80532576086E+01  0.51100000000E-03 0. -1.
        -11    1    3    3    0    0  0.12441854937E+02 -0.29890506782E+02  0.18478158564E+02  0.37278472261E+02  0.51100000000E-03 0.  1.
         12    1    3    3    0    0 -0.12819297393E+02  0.37898892251E+02 -0.19881801657E+02  0.44676016571E+02  0.00000000000E+00 0. -1.
</event>
<event>
 7    1  0.2148778E-015  0.9000774E+02  0.7816164E-02  0.1186339E+00
        -11   -1    0    0    0    0  0.00000000000E+00  0.00000000000E+00  0.45593999997E+02  0.45594000000E+02  0.51100000000E-03 0.  1.
         11   -1    0    0    0    0 -0.00000000000E+00 -0.00000000000E+00 -0.45593999997E+02  0.45594000000E+02  0.51100000000E-03 0. -1.
    9900012    2    1    2    0    0  0.17853403394E+00  0.24483370240E+00  0.11407014776E+01  0.90007738248E+02  0.89999999593E+02 0.  0.
         12    1    1    2    0    0 -0.17853403394E+00 -0.24483370240E+00 -0.11407014776E+01  0.11802617523E+01  0.00000000000E+00 0. -1.
         11    1    3    3    0    0  0.11643457115E+01  0.35214434043E+02  0.12058660933E+01  0.35254307243E+02  0.51100000000E-03 0. -1.
        -11    1    3    3    0    0  0.20502065047E+01  0.96781125263E+01  0.13237916708E+01  0.99810637426E+01  0.51100000000E-03 0.  1.
        -12    1    3    3    0    0 -0.30360181823E+01 -0.44647712867E+02 -0.13889562866E+01  0.44772367262E+02  0.00000000000E+00 0.  1.
</event>
<event>
 7    1  0.2148778E-015  0.9000770E+02  0.7816164E-02  0.1186339E+00
        -11   -1    0    0    0    0  0.00000000000E+00  0.00000000000E+00  0.45593999997E+02  0.45594000000E+02  0.51100000000E-03 0. -1.
         11   -1    0    0    0    0 -0.00000000000E+00 -0.00000000000E+00 -0.45593999997E+02  0.45594000000E+02  0.51100000000E-03 0.  1.
    9900012    2    1    2    0    0 -0.72215204806E+00 -0.48648195481E+00 -0.79682874010E+00  0.90007701600E+02  0.89999962461E+02 0.  0.
         12    1    1    2    0    0  0.72215204806E+00  0.48648195481E+00  0.79682874010E+00  0.11802984004E+01  0.00000000000E+00 0. -1.
         11    1    3    3    0    0  0.11361676930E+02  0.33566353285E+02 -0.20914679405E+02  0.41148652352E+02  0.51100000000E-03 0. -1.
        -11    1    3    3    0    0  0.73942203531E+01 -0.33579021228E+01  0.45885668844E+01  0.93276442691E+01  0.51100000000E-03 0.  1.
        -12    1    3    3    0    0 -0.19478049331E+02 -0.30694933117E+02  0.15529283781E+02  0.39531404978E+02  0.00000000000E+00 0.  1.
</event>
<event>
 7    1  0.2148778E-015  0.9000774E+02  0.7816164E-02  0.1186339E+00
        -11   -1    0    0    0    0  0.00000000000E+00  0.00000000000E+00  0.45593999997E+02  0.45594000000E+02  0.51100000000E-03 0. -1.
         11   -1    0    0    0    0 -0.00000000000E+00 -0.00000000000E+00 -0.45593999997E+02  0.45594000000E+02  0.51100000000E-03 0.  1.
    9900012    2    1    2    0    0 -0.27991466599E+00  0.61241514590E+00 -0.96933308578E+00  0.90007741061E+02  0.90000002443E+02 0.  0.
         12    1    1    2    0    0  0.27991466599E+00 -0.61241514590E+00  0.96933308578E+00  0.11802589387E+01  0.00000000000E+00 0. -1.
         11    1    3    3    0    0 -0.14768677213E+02  0.35428304608E+02  0.52485389143E+01  0.38740492447E+02  0.51100000000E-03 0. -1.
        -11    1    3    3    0    0  0.64580429379E+01  0.61610524969E+01  0.65256799378E+00  0.89493425292E+01  0.51100000000E-03 0.  1.
        -12    1    3    3    0    0  0.80307196093E+01 -0.40976941959E+02 -0.68704399939E+01  0.42317906085E+02  0.00000000000E+00 0.  1.
</event>
<event>
 7    1  0.2148778E-015  0.9000777E+02  0.7816164E-02  0.1186339E+00
        -11   -1    0    0    0    0  0.00000000000E+00  0.00000000000E+00  0.45593999997E+02  0.45594000000E+02  0.51100000000E-03 0.  1.
         11   -1    0    0    0    0 -0.00000000000E+00 -0.00000000000E+00 -0.45593999997E+02  0.45594000000E+02  0.51100000000E-03 0. -1.
    9900012    2    1    2    0    0 -0.48812761100E+00 -0.42276590938E+00  0.98789540028E+00  0.90007772522E+02  0.90000034319E+02 0.  0.
         12    1    1    2    0    0  0.48812761100E+00  0.42276590938E+00 -0.98789540028E+00  0.11802274783E+01  0.00000000000E+00 0. -1.
         11    1    3    3    0    0  0.21468682159E+02  0.14184102858E+02 -0.30850411266E+02  0.40172639483E+02  0.51100000000E-03 0. -1.
        -11    1    3    3    0    0  0.64443953456E+01 -0.14550605684E+00  0.47397193398E+01  0.80010213763E+01  0.51100000000E-03 0.  1.
        -12    1    3    3    0    0 -0.28401205116E+02 -0.14461362710E+02  0.27098587326E+02  0.41834111662E+02  0.00000000000E+00 0.  1.
</event>
<event>
 7    1  0.2148778E-015  0.9000772E+02  0.7816164E-02  0.1186339E+00
        -11   -1    0    0    0    0  0.00000000000E+00  0.00000000000E+00  0.45593999997E+02  0.45594000000E+02  0.51100000000E-03 0.  1.
         11   -1    0    0    0    0 -0.00000000000E+00 -0.00000000000E+00 -0.45593999997E+02  0.45594000000E+02  0.51100000000E-03 0. -1.
    9900012    2    1    2    0    0 -0.55634366033E+00 -0.98359033474E+00 -0.34071458903E+00  0.90007722640E+02  0.89999983779E+02 0.  0.
         12    1    1    2    0    0  0.55634366033E+00  0.98359033474E+00  0.34071458903E+00  0.11802773598E+01  0.00000000000E+00 0. -1.
         11    1    3    3    0    0 -0.20865746448E+02 -0.32875664392E+02  0.54518533635E+01  0.39318079676E+02  0.51100000000E-03 0. -1.
        -11    1    3    3    0    0  0.36023154302E+00 -0.53217315563E+01 -0.65652692604E+01  0.84589215769E+01  0.51100000000E-03 0.  1.
        -12    1    3    3    0    0  0.19949171245E+02  0.37213805613E+02  0.77270130793E+00  0.42230721387E+02  0.00000000000E+00 0.  1.
</event>
<event>
 7    1  0.2148778E-015  0.9000827E+02  0.7816164E-02  0.1186338E+00
        -11   -1    0    0    0    0  0.00000000000E+00  0.00000000000E+00  0.45593999997E+02  0.45594000000E+02  0.51100000000E-03 0. -1.
         11   -1    0    0    0    0 -0.00000000000E+00 -0.00000000000E+00 -0.45593999997E+02  0.45594000000E+02  0.51100000000E-03 0.  1.
    9900012    2    1    2    0    0  0.62561558845E+00  0.99616543101E+00  0.89554302930E-01  0.90008271047E+02  0.90000539423E+02 0.  0.
         12    1    1    2    0    0 -0.62561558845E+00 -0.99616543101E+00 -0.89554302930E-01  0.11797289535E+01  0.00000000000E+00 0. -1.
         11    1    3    3    0    0  0.17356120855E+01 -0.24813366956E+01  0.80868840296E+01  0.86352229083E+01  0.51100000000E-03 0. -1.
        -11    1    3    3    0    0 -0.22229433695E+02  0.32442270058E+02 -0.19271183128E+02  0.43795286371E+02  0.51100000000E-03 0.  1.
         12    1    3    3    0    0  0.21119437198E+02 -0.28964767932E+02  0.11273853401E+02  0.37577761767E+02  0.00000000000E+00 0. -1.
</event>
<event>
 7    1  0.2148778E-015  0.9000779E+02  0.7816164E-02  0.1186339E+00
        -11   -1    0    0    0    0  0.00000000000E+00  0.00000000000E+00  0.45593999997E+02  0.45594000000E+02  0.51100000000E-03 0.  1.
         11   -1    0    0    0    0 -0.00000000000E+00 -0.00000000000E+00 -0.45593999997E+02  0.45594000000E+02  0.51100000000E-03 0. -1.
    9900012    2    1    2    0    0  0.43198328550E+00  0.53554756046E-01  0.10970088040E+01  0.90007785618E+02  0.90000047588E+02 0.  0.
         12    1    1    2    0    0 -0.43198328550E+00 -0.53554756046E-01 -0.10970088040E+01  0.11802143818E+01  0.00000000000E+00 0. -1.
         11    1    3    3    0    0  0.29170168582E+01  0.87348718223E+01 -0.30195159180E+01  0.96914627247E+01  0.51100000000E-03 0. -1.
        -11    1    3    3    0    0  0.19143232370E+02 -0.31006859662E+02  0.23800407514E+02  0.43524109293E+02  0.51100000000E-03 0.  1.
         12    1    3    3    0    0 -0.21628265943E+02  0.22325542596E+02 -0.19683882792E+02  0.36792213601E+02  0.00000000000E+00 0. -1.
</event>
<event>
 7    1  0.2148778E-015  0.9000771E+02  0.7816164E-02  0.1186339E+00
        -11   -1    0    0    0    0  0.00000000000E+00  0.00000000000E+00  0.45593999997E+02  0.45594000000E+02  0.51100000000E-03 0.  1.
         11   -1    0    0    0    0 -0.00000000000E+00 -0.00000000000E+00 -0.45593999997E+02  0.45594000000E+02  0.51100000000E-03 0. -1.
    9900012    2    1    2    0    0 -0.61521948082E+00  0.35566114666E+00  0.94239027445E+00  0.90007707964E+02  0.89999968909E+02 0.  0.
         12    1    1    2    0    0  0.61521948082E+00 -0.35566114666E+00 -0.94239027445E+00  0.11802920360E+01  0.00000000000E+00 0. -1.
         11    1    3    3    0    0 -0.90982103326E+01 -0.18427382714E+02 -0.31714315895E+02  0.37790788533E+02  0.51100000000E-03 0. -1.
        -11    1    3    3    0    0  0.58247787860E+00 -0.88456148300E+01  0.19977063699E+00  0.88670226553E+01  0.51100000000E-03 0.  1.
        -12    1    3    3    0    0  0.79005129732E+01  0.27628658691E+02  0.32456935533E+02  0.43349896776E+02  0.00000000000E+00 0.  1.
</event>
<event>
 7    1  0.2148778E-015  0.9000780E+02  0.7816164E-02  0.1186339E+00
        -11   -1    0    0    0    0  0.00000000000E+00  0.00000000000E+00  0.45593999997E+02  0.45594000000E+02  0.51100000000E-03 0. -1.
         11   -1    0    0    0    0 -0.00000000000E+00 -0.00000000000E+00 -0.45593999997E+02  0.45594000000E+02  0.51100000000E-03 0.  1.
    9900012    2    1    2    0    0 -0.40765197524E+00 -0.10257623827E+01 -0.41772638000E+00  0.90007803437E+02  0.90000065642E+02 0.  0.
         12    1    1    2    0    0  0.40765197524E+00  0.10257623827E+01  0.41772638000E+00  0.11801965629E+01  0.00000000000E+00 0. -1.
         11    1    3    3    0    0  0.36923153504E+02 -0.10816876982E+01  0.13359193646E+02  0.39280496027E+02  0.51100000000E-03 0. -1.
        -11    1    3    3    0    0  0.10363826324E+01 -0.91134022947E+01 -0.83119637124E+00  0.92097273584E+01  0.51100000000E-03 0.  1.
        -12    1    3    3    0    0 -0.38367188112E+02  0.91693276102E+01 -0.12945723654E+02  0.41517580052E+02  0.00000000000E+00 0.  1.
</event>
<event>
 7    1  0.2334575E-015  0.9000816E+02  0.7816164E-02  0.1186338E+00
        -11   -1    0    0    0    0  0.00000000000E+00  0.00000000000E+00  0.45593999997E+02  0.45594000000E+02  0.51100000000E-03 0.  1.
         11   -1    0    0    0    0 -0.00000000000E+00 -0.00000000000E+00 -0.45593999997E+02  0.45594000000E+02  0.51100000000E-03 0. -1.
    9900012    2    1    2    0    0 -0.64593801390E+00 -0.93526727609E+00  0.31633634481E+00  0.90008157011E+02  0.90000423883E+02 0.  0.
         12    1    1    2    0    0  0.64593801390E+00  0.93526727609E+00 -0.31633634481E+00  0.11798429889E+01  0.00000000000E+00 0. -1.
         11    1    3    3    0    0  0.30698789355E+01 -0.82724952042E+01  0.21651716734E+01  0.90854995580E+01  0.51100000000E-03 0. -1.
        -11    1    3    3    0    0  0.14203185235E+02 -0.26061553102E+02  0.21280072747E+02  0.36520905209E+02  0.51100000000E-03 0.  1.
         12    1    3    3    0    0 -0.17919002184E+02  0.33398781030E+02 -0.23128908076E+02  0.44401752244E+02  0.00000000000E+00 0. -1.
</event>
<event>
 7    1  0.2148778E-015  0.9000739E+02  0.7816164E-02  0.1186340E+00
        -11   -1    0    0    0    0  0.00000000000E+00  0.00000000000E+00  0.45593999997E+02  0.45594000000E+02  0.51100000000E-03 0.  1.
         11   -1    0    0    0    0 -0.00000000000E+00 -0.00000000000E+00 -0.45593999997E+02  0.45594000000E+02  0.51100000000E-03 0. -1.
    9900012    2    1    2    0    0 -0.94658525597E+00 -0.70427254998E+00  0.42647948638E-01  0.90007389006E+02  0.89999645740E+02 0.  0.
         12    1    1    2    0    0  0.94658525597E+00  0.70427254998E+00 -0.42647948638E-01  0.11806109939E+01  0.00000000000E+00 0. -1.
         11    1    3    3    0    0  0.10206066822E+02 -0.49900974811E+01 -0.21897786500E+02  0.24669372240E+02  0.51100000000E-03 0. -1.
        -11    1    3    3    0    0  0.61685253960E+01  0.93912278010E+01 -0.18162464278E+02  0.21356988882E+02  0.51100000000E-03 0.  1.
        -12    1    3    3    0    0 -0.17321177474E+02 -0.51054028699E+01  0.40102898726E+02  0.43981027885E+02  0.00000000000E+00 0.  1.
</event>
<event>
 7    1  0.2148778E-015  0.9000768E+02  0.7816164E-02  0.1186339E+00
        -11   -1    0    0    0    0  0.00000000000E+00  0.00000000000E+00  0.45593999997E+02  0.45594000000E+02  0.51100000000E-03 0. -1.
         11   -1    0    0    0    0 -0.00000000000E+00 -0.00000000000E+00 -0.45593999997E+02  0.45594000000E+02  0.51100000000E-03 0.  1.
    9900012    2    1    2    0    0 -0.10796228988E+01  0.39956138075E+00 -0.26061382548E+00  0.90007680354E+02  0.89999940935E+02 0.  0.
         12    1    1    2    0    0  0.10796228988E+01 -0.39956138075E+00  0.26061382548E+00  0.11803196460E+01  0.00000000000E+00 0. -1.
         11    1    3    3    0    0 -0.79878770646E+00  0.86358637615E+01 -0.61320436467E+01  0.10621589535E+02  0.51100000000E-03 0. -1.
        -11    1    3    3    0    0 -0.34275683318E+02  0.12211667285E+02 -0.81910066859E+01  0.37296646975E+02  0.51100000000E-03 0.  1.
         12    1    3    3    0    0  0.33994848126E+02 -0.20447969666E+02  0.14062436507E+02  0.42089443844E+02  0.00000000000E+00 0. -1.
</event>
<event>
 7    1  0.2148778E-015  0.9000773E+02  0.7816164E-02  0.1186339E+00
        -11   -1    0    0    0    0  0.00000000000E+00  0.00000000000E+00  0.45593999997E+02  0.45594000000E+02  0.51100000000E-03 0.  1.
         11   -1    0    0    0    0 -0.00000000000E+00 -0.00000000000E+00 -0.45593999997E+02  0.45594000000E+02  0.51100000000E-03 0. -1.
    9900012    2    1    2    0    0  0.15750825594E-01 -0.87866387388E+00  0.78787650072E+00  0.90007725595E+02  0.89999986772E+02 0.  0.
         12    1    1    2    0    0 -0.15750825594E-01  0.87866387388E+00 -0.78787650072E+00  0.11802744054E+01  0.00000000000E+00 0. -1.
         11    1    3    3    0    0  0.88651080467E+01  0.22256623343E+02 -0.23124321282E+02  0.33296871600E+02  0.51100000000E-03 0. -1.
        -11    1    3    3    0    0  0.11908641193E+01  0.10723693713E+02 -0.41934795407E+01  0.11575881613E+02  0.51100000000E-03 0.  1.
        -12    1    3    3    0    0 -0.10040221340E+02 -0.33858980930E+02  0.28105677323E+02  0.45134972382E+02  0.00000000000E+00 0.  1.
</event>
<event>
 7    1  0.2148778E-015  0.9000777E+02  0.7816164E-02  0.1186339E+00
        -11   -1    0    0    0    0  0.00000000000E+00  0.00000000000E+00  0.45593999997E+02  0.45594000000E+02  0.51100000000E-03 0.  1.
         11   -1    0    0    0    0 -0.00000000000E+00 -0.00000000000E+00 -0.45593999997E+02  0.45594000000E+02  0.51100000000E-03 0. -1.
    9900012    2    1    2    0    0  0.34909830203E+00 -0.71569681817E+00  0.87111774784E+00  0.90007772187E+02  0.90000033980E+02 0.  0.
         12    1    1    2    0    0 -0.34909830203E+00  0.71569681817E+00 -0.87111774784E+00  0.11802278130E+01  0.00000000000E+00 0. -1.
         11    1    3    3    0    0 -0.13739852960E+01  0.29322739388E+02 -0.18180287040E+02  0.34528737566E+02  0.51100000000E-03 0. -1.
        -11    1    3    3    0    0 -0.22974656828E+00  0.93226853861E+01 -0.36317718048E+01  0.10007747649E+02  0.51100000000E-03 0.  1.
        -12    1    3    3    0    0  0.19528301663E+01 -0.39361121592E+02  0.22683176592E+02  0.45471286973E+02  0.00000000000E+00 0.  1.
</event>
<event>
 7    1  0.2148778E-015  0.9000821E+02  0.7816164E-02  0.1186338E+00
        -11   -1    0    0    0    0  0.00000000000E+00  0.00000000000E+00  0.45593999997E+02  0.45594000000E+02  0.51100000000E-03 0.  1.
         11   -1    0    0    0    0 -0.00000000000E+00 -0.00000000000E+00 -0.45593999997E+02  0.45594000000E+02  0.51100000000E-03 0. -1.
    9900012    2    1    2    0    0  0.11305900782E+01  0.15030238389E+00  0.30179762417E+00  0.90008209113E+02  0.90000476672E+02 0.  0.
         12    1    1    2    0    0 -0.11305900782E+01 -0.15030238389E+00 -0.30179762417E+00  0.11797908872E+01  0.00000000000E+00 0. -1.
         11    1    3    3    0    0  0.46682999965E+01 -0.99245195575E+01 -0.28592012596E+02  0.30623394616E+02  0.51100000000E-03 0. -1.
        -11    1    3    3    0    0 -0.49251129818E+01 -0.40706133030E+01 -0.13357400062E+02  0.14806983731E+02  0.51100000000E-03 0.  1.
        -12    1    3    3    0    0  0.13874030635E+01  0.14145435244E+02  0.42251210281E+02  0.44577830765E+02  0.00000000000E+00 0.  1.
</event>
<event>
 7    1  0.2148778E-015  0.9000774E+02  0.7816164E-02  0.1186339E+00
        -11   -1    0    0    0    0  0.00000000000E+00  0.00000000000E+00  0.45593999997E+02  0.45594000000E+02  0.51100000000E-03 0.  1.
         11   -1    0    0    0    0 -0.00000000000E+00 -0.00000000000E+00 -0.45593999997E+02  0.45594000000E+02  0.51100000000E-03 0. -1.
    9900012    2    1    2    0    0  0.58992976981E-01 -0.15607406043E+00  0.11684093839E+01  0.90007737414E+02  0.89999998748E+02 0.  0.
         12    1    1    2    0    0 -0.58992976981E-01  0.15607406043E+00 -0.11684093839E+01  0.11802625861E+01  0.00000000000E+00 0. -1.
         11    1    3    3    0    0 -0.61252309877E+01  0.26098026483E+02 -0.32896731930E+02  0.42436074428E+02  0.51100000000E-03 0. -1.
        -11    1    3    3    0    0  0.51860834015E+01 -0.72209263937E+01  0.41641580685E+00  0.89000360345E+01  0.51100000000E-03 0.  1.
        -12    1    3    3    0    0  0.99814056319E+00 -0.19033174149E+02  0.33648725507E+02  0.38671626951E+02  0.00000000000E+00 0.  1.
</event>
<event>
 7    1  0.2148778E-015  0.9000775E+02  0.7816164E-02  0.1186339E+00
        -11   -1    0    0    0    0  0.00000000000E+00  0.00000000000E+00  0.45593999997E+02  0.45594000000E+02  0.51100000000E-03 0.  1.
         11   -1    0    0    0    0 -0.00000000000E+00 -0.00000000000E+00 -0.45593999997E+02  0.45594000000E+02  0.51100000000E-03 0. -1.
    9900012    2    1    2    0    0  0.11697955760E+01  0.14307176345E+00  0.63940828460E-01  0.90007754412E+02  0.90000015970E+02 0.  0.
         12    1    1    2    0    0 -0.11697955760E+01 -0.14307176345E+00 -0.63940828460E-01  0.11802455883E+01  0.00000000000E+00 0. -1.
         11    1    3    3    0    0 -0.97844587849E+01  0.12921883634E+02  0.31316540161E+01  0.16508118230E+02  0.51100000000E-03 0. -1.
        -11    1    3    3    0    0 -0.25852046369E+02 -0.20291783654E+02 -0.11824713370E+02  0.34927190438E+02  0.51100000000E-03 0.  1.
        -12    1    3    3    0    0  0.36806300730E+02  0.75129717840E+01  0.87570001827E+01  0.38572445744E+02  0.00000000000E+00 0.  1.
</event>
<event>
 7    1  0.2148778E-015  0.9000785E+02  0.7816164E-02  0.1186339E+00
        -11   -1    0    0    0    0  0.00000000000E+00  0.00000000000E+00  0.45593999997E+02  0.45594000000E+02  0.51100000000E-03 0. -1.
         11   -1    0    0    0    0 -0.00000000000E+00 -0.00000000000E+00 -0.45593999997E+02  0.45594000000E+02  0.51100000000E-03 0.  1.
    9900012    2    1    2    0    0 -0.76029929103E+00 -0.74422011704E+00 -0.51072353356E+00  0.90007848687E+02  0.90000111489E+02 0.  0.
         12    1    1    2    0    0  0.76029929103E+00  0.74422011704E+00  0.51072353356E+00  0.11801513133E+01  0.00000000000E+00 0. -1.
         11    1    3    3    0    0 -0.33161411524E+00 -0.28356990591E+01 -0.10899968688E+02  0.11267673883E+02  0.51100000000E-03 0. -1.
        -11    1    3    3    0    0  0.14538278159E+02 -0.29131309389E+02 -0.14957890645E+02  0.35829222869E+02  0.51100000000E-03 0.  1.
         12    1    3    3    0    0 -0.14966963335E+02  0.31222788331E+02  0.25347135800E+02  0.42910951934E+02  0.00000000000E+00 0. -1.
</event>
<event>
 7    1  0.2148778E-015  0.9000773E+02  0.7816164E-02  0.1186339E+00
        -11   -1    0    0    0    0  0.00000000000E+00  0.00000000000E+00  0.45593999997E+02  0.45594000000E+02  0.51100000000E-03 0. -1.
         11   -1    0    0    0    0 -0.00000000000E+00 -0.00000000000E+00 -0.45593999997E+02  0.45594000000E+02  0.51100000000E-03 0.  1.
    9900012    2    1    2    0    0  0.11131001669E+01 -0.14999455156E+00 -0.36269606926E+00  0.90007729359E+02  0.89999990587E+02 0.  0.
         12    1    1    2    0    0 -0.11131001669E+01  0.14999455156E+00  0.36269606926E+00  0.11802706408E+01  0.00000000000E+00 0. -1.
         11    1    3    3    0    0 -0.43180232892E+00  0.62286541855E+01 -0.62050203881E+01  0.88025487497E+01  0.51100000000E-03 0. -1.
        -11    1    3    3    0    0  0.33496336585E+02  0.19942088547E+02  0.78264508277E+01  0.39761096477E+02  0.51100000000E-03 0.  1.
         12    1    3    3    0    0 -0.31951434089E+02 -0.26320737284E+02 -0.19841265088E+01  0.41444084132E+02  0.00000000000E+00 0. -1.
</event>
<event>
 7    1  0.2148778E-015  0.9000767E+02  0.7816164E-02  0.1186339E+00
        -11   -1    0    0    0    0  0.00000000000E+00  0.00000000000E+00  0.45593999997E+02  0.45594000000E+02  0.51100000000E-03 0.  1.
         11   -1    0    0    0    0 -0.00000000000E+00 -0.00000000000E+00 -0.45593999997E+02  0.45594000000E+02  0.51100000000E-03 0. -1.
    9900012    2    1    2    0    0  0.72723677055E+00  0.67818563005E+00  0.63589512270E+00  0.90007673064E+02  0.89999933548E+02 0.  0.
         12    1    1    2    0    0 -0.72723677055E+00 -0.67818563005E+00 -0.63589512270E+00  0.11803269362E+01  0.00000000000E+00 0. -1.
         11    1    3    3    0    0 -0.46163342419E+01  0.32644417609E+02 -0.15110089301E+02  0.36266835288E+02  0.51100000000E-03 0. -1.
        -11    1    3    3    0    0 -0.31715702305E+01  0.87640528304E+01  0.20498535856E+00  0.93225264280E+01  0.51100000000E-03 0.  1.
        -12    1    3    3    0    0  0.85151412430E+01 -0.40730284810E+02  0.15540999065E+02  0.44418311348E+02  0.00000000000E+00 0.  1.
</event>
<event>
 7    1  0.2148778E-015  0.9000770E+02  0.7816164E-02  0.1186339E+00
        -11   -1    0    0    0    0  0.00000000000E+00  0.00000000000E+00  0.45593999997E+02  0.45594000000E+02  0.51100000000E-03 0.  1.
         11   -1    0    0    0    0 -0.00000000000E+00 -0.00000000000E+00 -0.45593999997E+02  0.45594000000E+02  0.51100000000E-03 0. -1.
    9900012    2    1    2    0    0  0.13741155836E-01 -0.11652790995E+01  0.18717175706E+00  0.90007704501E+02  0.89999965400E+02 0.  0.
         12    1    1    2    0    0 -0.13741155836E-01  0.11652790995E+01 -0.18717175706E+00  0.11802954994E+01  0.00000000000E+00 0. -1.
         11    1    3    3    0    0 -0.24520135700E+01 -0.11537088128E+01  0.10219972193E+02  0.10573137966E+02  0.51100000000E-03 0. -1.
        -11    1    3    3    0    0  0.33361885583E+02  0.22782675675E+02 -0.55894218825E+01  0.40783665330E+02  0.51100000000E-03 0.  1.
         12    1    3    3    0    0 -0.30896130857E+02 -0.22794245962E+02 -0.44433785533E+01  0.38650901204E+02  0.00000000000E+00 0. -1.
</event>
<event>
 7    1  0.2148778E-015  0.9000735E+02  0.7816164E-02  0.1186340E+00
        -11   -1    0    0    0    0  0.00000000000E+00  0.00000000000E+00  0.45593999997E+02  0.45594000000E+02  0.51100000000E-03 0.  1.
         11   -1    0    0    0    0 -0.00000000000E+00 -0.00000000000E+00 -0.45593999997E+02  0.45594000000E+02  0.51100000000E-03 0. -1.
    9900012    2    1    2    0    0  0.36717511169E+00  0.99805002906E+00  0.51283873784E+00  0.90007353993E+02  0.89999610265E+02 0.  0.
         12    1    1    2    0    0 -0.36717511169E+00 -0.99805002906E+00 -0.51283873784E+00  0.11806460071E+01  0.00000000000E+00 0. -1.
         11    1    3    3    0    0 -0.54299620809E+01  0.34888320382E+02 -0.84165674088E+01  0.36297630701E+02  0.51100000000E-03 0. -1.
        -11    1    3    3    0    0 -0.12110758002E+01  0.55502696810E+01 -0.83371066613E+01  0.10088584929E+02  0.51100000000E-03 0.  1.
        -12    1    3    3    0    0  0.70082129928E+01 -0.39440540034E+02  0.17266512808E+02  0.43621138363E+02  0.00000000000E+00 0.  1.
</event>
<event>
 7    1  0.2148778E-015  0.9000778E+02  0.7816164E-02  0.1186339E+00
        -11   -1    0    0    0    0  0.00000000000E+00  0.00000000000E+00  0.45593999997E+02  0.45594000000E+02  0.51100000000E-03 0. -1.
         11   -1    0    0    0    0 -0.00000000000E+00 -0.00000000000E+00 -0.45593999997E+02  0.45594000000E+02  0.51100000000E-03 0.  1.
    9900012    2    1    2    0    0  0.19800273164E+00 -0.89698918092E+00 -0.74102832256E+00  0.90007780678E+02  0.90000042583E+02 0.  0.
         12    1    1    2    0    0 -0.19800273164E+00  0.89698918092E+00  0.74102832256E+00  0.11802193217E+01  0.00000000000E+00 0. -1.
         11    1    3    3    0    0  0.12388903166E+02 -0.36474607416E+01 -0.15923133022E+01  0.13012469152E+02  0.51100000000E-03 0. -1.
        -11    1    3    3    0    0  0.21583831128E+02 -0.11848600061E+02  0.23295038062E+02  0.33895573282E+02  0.51100000000E-03 0.  1.
         12    1    3    3    0    0 -0.33774731562E+02  0.14599071621E+02 -0.22443753082E+02  0.43099738244E+02  0.00000000000E+00 0. -1.
</event>
<event>
 7    1  0.2148778E-015  0.9000773E+02  0.7816164E-02  0.1186339E+00
        -11   -1    0    0    0    0  0.00000000000E+00  0.00000000000E+00  0.45593999997E+02  0.45594000000E+02  0.51100000000E-03 0.  1.
         11   -1    0    0    0    0 -0.00000000000E+00 -0.00000000000E+00 -0.45593999997E+02  0.45594000000E+02  0.51100000000E-03 0. -1.
    9900012    2    1    2    0    0  0.17918400671E+00  0.50318003367E+00  0.10524922664E+01  0.90007730105E+02  0.89999991342E+02 0.  0.
         12    1    1    2    0    0 -0.17918400671E+00 -0.50318003367E+00 -0.10524922664E+01  0.11802698952E+01  0.00000000000E+00 0. -1.
         11    1    3    3    0    0 -0.12232854663E+02 -0.28088816928E+02 -0.20324780799E+02  0.36765759674E+02  0.51100000000E-03 0. -1.
        -11    1    3    3    0    0  0.15867090002E+02 -0.33953242977E+00  0.17861079218E+02  0.23893471461E+02  0.51100000000E-03 0.  1.
        -12    1    3    3    0    0 -0.34550513321E+01  0.28931529391E+02  0.35161938473E+01  0.29348498970E+02  0.00000000000E+00 0.  1.
</event>
<event>
 7    1  0.2148778E-015  0.9000769E+02  0.7816164E-02  0.1186339E+00
        -11   -1    0    0    0    0  0.00000000000E+00  0.00000000000E+00  0.45593999997E+02  0.45594000000E+02  0.51100000000E-03 0.  1.
         11   -1    0    0    0    0 -0.00000000000E+00 -0.00000000000E+00 -0.45593999997E+02  0.45594000000E+02  0.51100000000E-03 0. -1.
    9900012    2    1    2    0    0 -0.11260621936E+01 -0.31280264248E+00  0.16516997647E+00  0.90007685348E+02  0.89999945994E+02 0.  0.
         12    1    1    2    0    0  0.11260621936E+01  0.31280264248E+00 -0.16516997647E+00  0.11803146522E+01  0.00000000000E+00 0. -1.
         11    1    3    3    0    0 -0.10554473966E+02  0.35314973622E+02 -0.10865731780E+01  0.36874448120E+02  0.51100000000E-03 0. -1.
        -11    1    3    3    0    0  0.50471850110E+01  0.76899722513E+01  0.26486072704E+01  0.95720880948E+01  0.51100000000E-03 0.  1.
        -12    1    3    3    0    0  0.43812267609E+01 -0.43317748516E+02 -0.13968641159E+01  0.43561149133E+02  0.00000000000E+00 0.  1.
</event>
<event>
 7    1  0.2148778E-015  0.9000774E+02  0.7816164E-02  0.1186339E+00
        -11   -1    0    0    0    0  0.00000000000E+00  0.00000000000E+00  0.45593999997E+02  0.45594000000E+02  0.51100000000E-03 0.  1.
         11   -1    0    0    0    0 -0.00000000000E+00 -0.00000000000E+00 -0.45593999997E+02  0.45594000000E+02  0.51100000000E-03 0. -1.
    9900012    2    1    2    0    0  0.85286507170E+00 -0.43950909165E+00  0.68736251166E+00  0.90007739734E+02  0.90000001099E+02 0.  0.
         12    1    1    2    0    0 -0.85286507170E+00  0.43950909165E+00 -0.68736251166E+00  0.11802602656E+01  0.00000000000E+00 0. -1.
         11    1    3    3    0    0  0.90314621175E+01  0.46308393072E+01 -0.74589794525E+01  0.12595568880E+02  0.51100000000E-03 0. -1.
        -11    1    3    3    0    0 -0.21800741218E+02  0.31123207527E+02  0.75140749992E+01  0.38734838166E+02  0.51100000000E-03 0.  1.
         12    1    3    3    0    0  0.13622144172E+02 -0.36193555926E+02  0.63226696493E+00  0.38677332689E+02  0.00000000000E+00 0. -1.
</event>
<event>
 7    1  0.2148778E-015  0.9000648E+02  0.7816164E-02  0.1186342E+00
        -11   -1    0    0    0    0  0.00000000000E+00  0.00000000000E+00  0.45593999997E+02  0.45594000000E+02  0.51100000000E-03 0. -1.
         11   -1    0    0    0    0 -0.00000000000E+00 -0.00000000000E+00 -0.45593999997E+02  0.45594000000E+02  0.51100000000E-03 0.  1.
    9900012    2    1    2    0    0 -0.43278164111E+00  0.10958651761E+01  0.88135429287E-01  0.90006480518E+02  0.89998725252E+02 0.  0.
         12    1    1    2    0    0  0.43278164111E+00 -0.10958651761E+01 -0.88135429287E-01  0.11815194822E+01  0.00000000000E+00 0. -1.
         11    1    3    3    0    0  0.75378209686E+01  0.19794991939E+01 -0.66991414117E+01  0.10276947890E+02  0.51100000000E-03 0. -1.
        -11    1    3    3    0    0 -0.11069735318E+02  0.36187228049E+02 -0.96594523531E+01  0.39055851468E+02  0.51100000000E-03 0.  1.
         12    1    3    3    0    0  0.30991327085E+01 -0.37070862067E+02  0.16446729194E+02  0.40673681160E+02  0.00000000000E+00 0. -1.
</event>
<event>
 7    1  0.2148778E-015  0.9000770E+02  0.7816164E-02  0.1186339E+00
        -11   -1    0    0    0    0  0.00000000000E+00  0.00000000000E+00  0.45593999997E+02  0.45594000000E+02  0.51100000000E-03 0.  1.
         11   -1    0    0    0    0 -0.00000000000E+00 -0.00000000000E+00 -0.45593999997E+02  0.45594000000E+02  0.51100000000E-03 0. -1.
    9900012    2    1    2    0    0  0.30670170344E+00  0.41681914345E+00  0.10608024586E+01  0.90007700890E+02  0.89999961742E+02 0.  0.
         12    1    1    2    0    0 -0.30670170344E+00 -0.41681914345E+00 -0.10608024586E+01  0.11802991102E+01  0.00000000000E+00 0. -1.
         11    1    3    3    0    0  0.29511389610E+00 -0.56083510374E+01  0.93774636260E+01  0.10930577198E+02  0.51100000000E-03 0. -1.
        -11    1    3    3    0    0  0.31606994040E+02 -0.68458790975E+01  0.17054180737E+02  0.36561088793E+02  0.51100000000E-03 0.  1.
         12    1    3    3    0    0 -0.31595406232E+02  0.12871049278E+02 -0.25370841905E+02  0.42516034898E+02  0.00000000000E+00 0. -1.
</event>
<event>
 7    1  0.2148778E-015  0.9000773E+02  0.7816164E-02  0.1186339E+00
        -11   -1    0    0    0    0  0.00000000000E+00  0.00000000000E+00  0.45593999997E+02  0.45594000000E+02  0.51100000000E-03 0.  1.
         11   -1    0    0    0    0 -0.00000000000E+00 -0.00000000000E+00 -0.45593999997E+02  0.45594000000E+02  0.51100000000E-03 0. -1.
    9900012    2    1    2    0    0  0.85026493361E+00  0.81152139864E+00  0.10730460882E+00  0.90007732354E+02  0.89999993621E+02 0.  0.
         12    1    1    2    0    0 -0.85026493361E+00 -0.81152139864E+00 -0.10730460882E+00  0.11802676463E+01  0.00000000000E+00 0. -1.
         11    1    3    3    0    0 -0.12140128532E+01 -0.44057684085E+01 -0.34843665870E+02  0.35142078396E+02  0.51100000000E-03 0. -1.
        -11    1    3    3    0    0 -0.15677986196E+01  0.12093090491E+01 -0.96940426058E+01  0.98941843116E+01  0.51100000000E-03 0.  1.
        -12    1    3    3    0    0  0.36320764064E+01  0.40079807580E+01  0.44645013085E+02  0.44971469646E+02  0.00000000000E+00 0.  1.
</event>
<event>
 7    1  0.2148778E-015  0.9000775E+02  0.7816164E-02  0.1186339E+00
        -11   -1    0    0    0    0  0.00000000000E+00  0.00000000000E+00  0.45593999997E+02  0.45594000000E+02  0.51100000000E-03 0. -1.
         11   -1    0    0    0    0 -0.00000000000E+00 -0.00000000000E+00 -0.45593999997E+02  0.45594000000E+02  0.51100000000E-03 0.  1.
    9900012    2    1    2    0    0 -0.60355183688E+00 -0.48029229687E+00 -0.89332801631E+00  0.90007749834E+02  0.90000011332E+02 0.  0.
         12    1    1    2    0    0  0.60355183688E+00  0.48029229687E+00  0.89332801631E+00  0.11802501663E+01  0.00000000000E+00 0. -1.
         11    1    3    3    0    0  0.21428576856E+02  0.93272092281E+01  0.29918716624E+02  0.37964593278E+02  0.51100000000E-03 0. -1.
        -11    1    3    3    0    0  0.88416399426E+01 -0.20085859698E+01 -0.24299138771E+01  0.93868789373E+01  0.51100000000E-03 0.  1.
        -12    1    3    3    0    0 -0.30873768635E+02 -0.77989155551E+01 -0.28382130764E+02  0.42656277618E+02  0.00000000000E+00 0.  1.
</event>
<event>
 7    1  0.2148778E-015  0.9000773E+02  0.7816164E-02  0.1186339E+00
        -11   -1    0    0    0    0  0.00000000000E+00  0.00000000000E+00  0.45593999997E+02  0.45594000000E+02  0.51100000000E-03 0. -1.
         11   -1    0    0    0    0 -0.00000000000E+00 -0.00000000000E+00 -0.45593999997E+02  0.45594000000E+02  0.51100000000E-03 0.  1.
    9900012    2    1    2    0    0 -0.23631024368E-01 -0.53419280400E+00 -0.10521944807E+01  0.90007731555E+02  0.89999992812E+02 0.  0.
         12    1    1    2    0    0  0.23631024368E-01  0.53419280400E+00  0.10521944807E+01  0.11802684450E+01  0.00000000000E+00 0. -1.
         11    1    3    3    0    0  0.30111239810E+02 -0.10034450907E+02  0.14020939880E+02  0.34698180403E+02  0.51100000000E-03 0. -1.
        -11    1    3    3    0    0  0.89316183279E+01  0.55118133585E+00  0.52477911694E+01  0.10373857491E+02  0.51100000000E-03 0.  1.
        -12    1    3    3    0    0 -0.39066489162E+02  0.89490767675E+01 -0.20320925530E+02  0.44935693661E+02  0.00000000000E+00 0.  1.
</event>
<event>
 7    1  0.2148778E-015  0.9000773E+02  0.7816164E-02  0.1186339E+00
        -11   -1    0    0    0    0  0.00000000000E+00  0.00000000000E+00  0.45593999997E+02  0.45594000000E+02  0.51100000000E-03 0.  1.
         11   -1    0    0    0    0 -0.00000000000E+00 -0.00000000000E+00 -0.45593999997E+02  0.45594000000E+02  0.51100000000E-03 0. -1.
    9900012    2    1    2    0    0 -0.32036622824E+00  0.19114307190E-01  0.11358029962E+01  0.90007725319E+02  0.89999986493E+02 0.  0.
         12    1    1    2    0    0  0.32036622824E+00 -0.19114307190E-01 -0.11358029962E+01  0.11802746812E+01  0.00000000000E+00 0. -1.
         11    1    3    3    0    0  0.94519007138E+01 -0.25377899162E+02  0.34642338533E+02  0.43971215724E+02  0.51100000000E-03 0. -1.
        -11    1    3    3    0    0  0.11474632849E+01 -0.23541213656E+00 -0.85568798603E+01  0.86366824690E+01  0.51100000000E-03 0.  1.
        -12    1    3    3    0    0 -0.10919730227E+02  0.25632425606E+02 -0.24949655676E+02  0.37399827126E+02  0.00000000000E+00 0.  1.
</event>
<event>
 7    1  0.2148778E-015  0.9000783E+02  0.7816164E-02  0.1186339E+00
        -11   -1    0    0    0    0  0.00000000000E+00  0.00000000000E+00  0.45593999997E+02  0.45594000000E+02  0.51100000000E-03 0.  1.
         11   -1    0    0    0    0 -0.00000000000E+00 -0.00000000000E+00 -0.45593999997E+02  0.45594000000E+02  0.51100000000E-03 0. -1.
    9900012    2    1    2    0    0 -0.43370554235E+00  0.95009294973E+00 -0.54956605925E+00  0.90007830536E+02  0.90000093099E+02 0.  0.
         12    1    1    2    0    0  0.43370554235E+00 -0.95009294973E+00  0.54956605925E+00  0.11801694641E+01  0.00000000000E+00 0. -1.
         11    1    3    3    0    0  0.39710589373E+01  0.73987315127E+01 -0.51730433124E+00  0.84129745698E+01  0.51100000000E-03 0. -1.
        -11    1    3    3    0    0  0.25379801470E+02  0.28311287848E+01 -0.29266152003E+02  0.38841437489E+02  0.51100000000E-03 0.  1.
         12    1    3    3    0    0 -0.29784565950E+02 -0.92797673478E+01  0.29233890275E+02  0.42753418477E+02  0.00000000000E+00 0. -1.
</event>
<event>
 7    1  0.2148778E-015  0.9000789E+02  0.7816164E-02  0.1186339E+00
        -11   -1    0    0    0    0  0.00000000000E+00  0.00000000000E+00  0.45593999997E+02  0.45594000000E+02  0.51100000000E-03 0. -1.
         11   -1    0    0    0    0 -0.00000000000E+00 -0.00000000000E+00 -0.45593999997E+02  0.45594000000E+02  0.51100000000E-03 0.  1.
    9900012    2    1    2    0    0 -0.32986184578E+00 -0.79306282079E+00 -0.80926589022E+00  0.90007886126E+02  0.90000149423E+02 0.  0.
         12    1    1    2    0    0  0.32986184578E+00  0.79306282079E+00  0.80926589022E+00  0.11801138742E+01  0.00000000000E+00 0. -1.
         11    1    3    3    0    0 -0.12636530101E+02  0.13432723707E+01 -0.55968161868E+01  0.13885626574E+02  0.51100000000E-03 0. -1.
        -11    1    3    3    0    0  0.92308009444E+01  0.33442138869E+02 -0.11936822249E+02  0.36688854764E+02  0.51100000000E-03 0.  1.
         12    1    3    3    0    0  0.30758673107E+01 -0.35578474060E+02  0.16724372546E+02  0.39433404789E+02  0.00000000000E+00 0. -1.
</event>
<event>
 7    1  0.2148778E-015  0.9000771E+02  0.7816164E-02  0.1186339E+00
        -11   -1    0    0    0    0  0.00000000000E+00  0.00000000000E+00  0.45593999997E+02  0.45594000000E+02  0.51100000000E-03 0. -1.
         11   -1    0    0    0    0 -0.00000000000E+00 -0.00000000000E+00 -0.45593999997E+02  0.45594000000E+02  0.51100000000E-03 0.  1.
    9900012    2    1    2    0    0  0.29891388816E+00  0.10553621568E+00 -0.11369280508E+01  0.90007706478E+02  0.89999967404E+02 0.  0.
         12    1    1    2    0    0 -0.29891388816E+00 -0.10553621568E+00  0.11369280508E+01  0.11802935220E+01  0.00000000000E+00 0. -1.
         11    1    3    3    0    0  0.37746216495E+02 -0.11783426689E+02  0.54584751008E+01  0.39917677223E+02  0.51100000000E-03 0. -1.
        -11    1    3    3    0    0  0.24017765169E+01  0.66799323008E+01 -0.69018194957E+01  0.99007645458E+01  0.51100000000E-03 0.  1.
        -12    1    3    3    0    0 -0.39849079124E+02  0.52090306035E+01  0.30641634411E+00  0.40189264709E+02  0.00000000000E+00 0.  1.
</event>
<event>
 7    1  0.2148778E-015  0.9000775E+02  0.7816164E-02  0.1186339E+00
        -11   -1    0    0    0    0  0.00000000000E+00  0.00000000000E+00  0.45593999997E+02  0.45594000000E+02  0.51100000000E-03 0.  1.
         11   -1    0    0    0    0 -0.00000000000E+00 -0.00000000000E+00 -0.45593999997E+02  0.45594000000E+02  0.51100000000E-03 0. -1.
    9900012    2    1    2    0    0  0.70566791139E+00  0.12523418250E+00  0.93773220022E+00  0.90007748975E+02  0.90000010462E+02 0.  0.
         12    1    1    2    0    0 -0.70566791139E+00 -0.12523418250E+00 -0.93773220022E+00  0.11802510246E+01  0.00000000000E+00 0. -1.
         11    1    3    3    0    0 -0.14863157530E+01 -0.84426978104E+01 -0.36822268962E+02  0.37806980474E+02  0.51100000000E-03 0. -1.
        -11    1    3    3    0    0  0.38519228752E+01 -0.90541186967E+01 -0.69895052882E+00  0.98642236042E+01  0.51100000000E-03 0.  1.
        -12    1    3    3    0    0 -0.16599392108E+01  0.17622050690E+02  0.38458951691E+02  0.42336544897E+02  0.00000000000E+00 0.  1.
</event>
<event>
 7    1  0.2148778E-015  0.9000775E+02  0.7816164E-02  0.1186339E+00
        -11   -1    0    0    0    0  0.00000000000E+00  0.00000000000E+00  0.45593999997E+02  0.45594000000E+02  0.51100000000E-03 0.  1.
         11   -1    0    0    0    0 -0.00000000000E+00 -0.00000000000E+00 -0.45593999997E+02  0.45594000000E+02  0.51100000000E-03 0. -1.
    9900012    2    1    2    0    0  0.10853867355E+01  0.17962739227E+00 -0.42739544289E+00  0.90007746963E+02  0.90000008423E+02 0.  0.
         12    1    1    2    0    0 -0.10853867355E+01 -0.17962739227E+00  0.42739544289E+00  0.11802530365E+01  0.00000000000E+00 0. -1.
         11    1    3    3    0    0 -0.14200350543E+02 -0.31706798379E+02  0.11261776469E+02  0.36521207928E+02  0.51100000000E-03 0. -1.
        -11    1    3    3    0    0 -0.33504857346E+01 -0.75923827915E+01 -0.37813037720E+01  0.91196649931E+01  0.51100000000E-03 0.  1.
        -12    1    3    3    0    0  0.18636223013E+02  0.39478808563E+02 -0.79078681402E+01  0.44366874042E+02  0.00000000000E+00 0.  1.
</event>
<event>
 7    1  0.2148778E-015  0.9000774E+02  0.7816164E-02  0.1186339E+00
        -11   -1    0    0    0    0  0.00000000000E+00  0.00000000000E+00  0.45593999997E+02  0.45594000000E+02  0.51100000000E-03 0.  1.
         11   -1    0    0    0    0 -0.00000000000E+00 -0.00000000000E+00 -0.45593999997E+02  0.45594000000E+02  0.51100000000E-03 0. -1.
    9900012    2    1    2    0    0  0.17353568216E+00  0.62607731344E+00  0.98535785712E+00  0.90007738359E+02  0.89999999705E+02 0.  0.
         12    1    1    2    0    0 -0.17353568216E+00 -0.62607731344E+00 -0.98535785712E+00  0.11802616413E+01  0.00000000000E+00 0. -1.
         11    1    3    3    0    0  0.93898826679E+01  0.28857687442E+01  0.12517073888E+01  0.99027435295E+01  0.51100000000E-03 0. -1.
        -11    1    3    3    0    0  0.34988969346E+01  0.33049763440E+02  0.18616263692E+02  0.38093233222E+02  0.51100000000E-03 0.  1.
         12    1    3    3    0    0 -0.12715243920E+02 -0.35309454870E+02 -0.18882613224E+02  0.42011761607E+02  0.00000000000E+00 0. -1.
</event>
<event>
 7    1  0.2148778E-015  0.9000767E+02  0.7816164E-02  0.1186339E+00
        -11   -1    0    0    0    0  0.00000000000E+00  0.00000000000E+00  0.45593999997E+02  0.45594000000E+02  0.51100000000E-03 0.  1.
         11   -1    0    0    0    0 -0.00000000000E+00 -0.00000000000E+00 -0.45593999997E+02  0.45594000000E+02  0.51100000000E-03 0. -1.
    9900012    2    1    2    0    0 -0.33463075604E+00 -0.46825900434E+00  0.10305040053E+01  0.90007668376E+02  0.89999928798E+02 0.  0.
         12    1    1    2    0    0  0.33463075604E+00  0.46825900434E+00 -0.10305040053E+01  0.11803316242E+01  0.00000000000E+00 0. -1.
         11    1    3    3    0    0  0.54713398541E+01  0.27953994973E+01  0.43956461956E+01  0.75545697353E+01  0.51100000000E-03 0. -1.
        -11    1    3    3    0    0  0.18040418779E+02 -0.29187883706E+02  0.20439836407E+02  0.39939656703E+02  0.51100000000E-03 0.  1.
         12    1    3    3    0    0 -0.23846389389E+02  0.25924225204E+02 -0.23804978597E+02  0.42513441937E+02  0.00000000000E+00 0. -1.
</event>
<event>
 7    1  0.2148778E-015  0.9000769E+02  0.7816164E-02  0.1186339E+00
        -11   -1    0    0    0    0  0.00000000000E+00  0.00000000000E+00  0.45593999997E+02  0.45594000000E+02  0.51100000000E-03 0.  1.
         11   -1    0    0    0    0 -0.00000000000E+00 -0.00000000000E+00 -0.45593999997E+02  0.45594000000E+02  0.51100000000E-03 0. -1.
    9900012    2    1    2    0    0  0.18043783664E+00 -0.75330442307E+00  0.89056304553E+00  0.90007691606E+02  0.89999952335E+02 0.  0.
         12    1    1    2    0    0 -0.18043783664E+00  0.75330442307E+00 -0.89056304553E+00  0.11803083939E+01  0.00000000000E+00 0. -1.
         11    1    3    3    0    0  0.29878800053E+01  0.10032860945E+02  0.28207364765E+00  0.10472119722E+02  0.51100000000E-03 0. -1.
        -11    1    3    3    0    0 -0.25188228301E+02  0.17566522329E+02  0.21796870290E+02  0.37658108109E+02  0.51100000000E-03 0.  1.
         12    1    3    3    0    0  0.22380786132E+02 -0.28352687696E+02 -0.21188380892E+02  0.41877463776E+02  0.00000000000E+00 0. -1.
</event>
<event>
 7    1  0.2148778E-015  0.9000754E+02  0.7816164E-02  0.1186339E+00
        -11   -1    0    0    0    0  0.00000000000E+00  0.00000000000E+00  0.45593999997E+02  0.45594000000E+02  0.51100000000E-03 0. -1.
         11   -1    0    0    0    0 -0.00000000000E+00 -0.00000000000E+00 -0.45593999997E+02  0.45594000000E+02  0.51100000000E-03 0.  1.
    9900012    2    1    2    0    0  0.46459721779E+00  0.90910252571E+00  0.59258613144E+00  0.90007544029E+02  0.89999802810E+02 0.  0.
         12    1    1    2    0    0 -0.46459721779E+00 -0.90910252571E+00 -0.59258613144E+00  0.11804559713E+01  0.00000000000E+00 0. -1.
         11    1    3    3    0    0  0.18591269996E+02 -0.48142012213E+01  0.31213574318E+02  0.36648316134E+02  0.51100000000E-03 0. -1.
        -11    1    3    3    0    0  0.80456930323E+01 -0.89354597276E+01 -0.25829691276E+01  0.12298266003E+02  0.51100000000E-03 0.  1.
        -12    1    3    3    0    0 -0.26172365811E+02  0.14658763475E+02 -0.28038019059E+02  0.41060961892E+02  0.00000000000E+00 0.  1.
</event>
<event>
 7    1  0.2148778E-015  0.9000778E+02  0.7816164E-02  0.1186339E+00
        -11   -1    0    0    0    0  0.00000000000E+00  0.00000000000E+00  0.45593999997E+02  0.45594000000E+02  0.51100000000E-03 0.  1.
         11   -1    0    0    0    0 -0.00000000000E+00 -0.00000000000E+00 -0.45593999997E+02  0.45594000000E+02  0.51100000000E-03 0. -1.
    9900012    2    1    2    0    0 -0.11078273137E+01  0.38322231218E+00 -0.13703348977E+00  0.90007780158E+02  0.90000042056E+02 0.  0.
         12    1    1    2    0    0  0.11078273137E+01 -0.38322231218E+00  0.13703348977E+00  0.11802198417E+01  0.00000000000E+00 0. -1.
         11    1    3    3    0    0 -0.69602604179E+01 -0.20783974846E+01 -0.36459842700E+01  0.81276172860E+01  0.51100000000E-03 0. -1.
        -11    1    3    3    0    0  0.26017082111E+02 -0.63141137842E+01  0.34630661054E+02  0.43772585938E+02  0.51100000000E-03 0.  1.
         12    1    3    3    0    0 -0.20164649007E+02  0.87757335811E+01 -0.31121710273E+02  0.38107576934E+02  0.00000000000E+00 0. -1.
</event>
<event>
 7    1  0.2183857E-015  0.9000773E+02  0.7816164E-02  0.1186339E+00
        -11   -1    0    0    0    0  0.00000000000E+00  0.00000000000E+00  0.45593999997E+02  0.45594000000E+02  0.51100000000E-03 0. -1.
         11   -1    0    0    0    0 -0.00000000000E+00 -0.00000000000E+00 -0.45593999997E+02  0.45594000000E+02  0.51100000000E-03 0.  1.
    9900012    2    1    2    0    0  0.64502206192E+00 -0.69017754722E-01 -0.98601614620E+00  0.90007726832E+02  0.89999988026E+02 0.  0.
         12    1    1    2    0    0 -0.64502206192E+00  0.69017754722E-01  0.98601614620E+00  0.11802731681E+01  0.00000000000E+00 0. -1.
         11    1    3    3    0    0  0.71217450966E+01 -0.42366408297E+01 -0.39165568072E+01  0.91655766990E+01  0.51100000000E-03 0. -1.
        -11    1    3    3    0    0 -0.13918009996E+02 -0.30564716363E+02 -0.19497210859E+02  0.38833672504E+02  0.51100000000E-03 0.  1.
         12    1    3    3    0    0  0.74412869613E+01  0.34732339438E+02  0.22427751520E+02  0.42008477629E+02  0.00000000000E+00 0. -1.
</event>
<event>
 7    1  0.2148778E-015  0.9000793E+02  0.7816164E-02  0.1186339E+00
        -11   -1    0    0    0    0  0.00000000000E+00  0.00000000000E+00  0.45593999997E+02  0.45594000000E+02  0.51100000000E-03 0. -1.
         11   -1    0    0    0    0 -0.00000000000E+00 -0.00000000000E+00 -0.45593999997E+02  0.45594000000E+02  0.51100000000E-03 0.  1.
    9900012    2    1    2    0    0  0.97418209262E+00 -0.63027226745E+00  0.21512736434E+00  0.90007934890E+02  0.90000198830E+02 0.  0.
         12    1    1    2    0    0 -0.97418209262E+00  0.63027226745E+00 -0.21512736434E+00  0.11800651099E+01  0.00000000000E+00 0. -1.
         11    1    3    3    0    0  0.21619602889E+02  0.78233424448E+01  0.31193466821E+02  0.38751055323E+02  0.51100000000E-03 0. -1.
        -11    1    3    3    0    0  0.45823189871E+01  0.72900692396E+01 -0.42498901724E+00  0.86211004369E+01  0.51100000000E-03 0.  1.
        -12    1    3    3    0    0 -0.25227739784E+02 -0.15743683952E+02 -0.30553350439E+02  0.42635779130E+02  0.00000000000E+00 0.  1.
</event>
<event>
 7    1  0.2148778E-015  0.9000774E+02  0.7816164E-02  0.1186339E+00
        -11   -1    0    0    0    0  0.00000000000E+00  0.00000000000E+00  0.45593999997E+02  0.45594000000E+02  0.51100000000E-03 0.  1.
         11   -1    0    0    0    0 -0.00000000000E+00 -0.00000000000E+00 -0.45593999997E+02  0.45594000000E+02  0.51100000000E-03 0. -1.
    9900012    2    1    2    0    0  0.10875872788E+01 -0.49854447225E-01 -0.45571364719E+00  0.90007743044E+02  0.90000004452E+02 0.  0.
         12    1    1    2    0    0 -0.10875872788E+01  0.49854447225E-01  0.45571364719E+00  0.11802569564E+01  0.00000000000E+00 0. -1.
         11    1    3    3    0    0  0.14698841314E+02 -0.16671372218E+02 -0.28881590947E+02  0.36443612383E+02  0.51100000000E-03 0. -1.
        -11    1    3    3    0    0 -0.37380194366E+01 -0.50690747611E+01 -0.79092780511E+01  0.10110637358E+02  0.51100000000E-03 0.  1.
        -12    1    3    3    0    0 -0.98732345981E+01  0.21690592532E+02  0.36335155351E+02  0.43453493303E+02  0.00000000000E+00 0.  1.
</event>
<event>
 7    1  0.2148778E-015  0.9000784E+02  0.7816164E-02  0.1186339E+00
        -11   -1    0    0    0    0  0.00000000000E+00  0.00000000000E+00  0.45593999997E+02  0.45594000000E+02  0.51100000000E-03 0. -1.
         11   -1    0    0    0    0 -0.00000000000E+00 -0.00000000000E+00 -0.45593999997E+02  0.45594000000E+02  0.51100000000E-03 0.  1.
    9900012    2    1    2    0    0 -0.38255648202E+00  0.82427542134E+00  0.75299241657E+00  0.90007840260E+02  0.90000102952E+02 0.  0.
         12    1    1    2    0    0  0.38255648202E+00 -0.82427542134E+00 -0.75299241657E+00  0.11801597399E+01  0.00000000000E+00 0. -1.
         11    1    3    3    0    0 -0.13042655889E+02 -0.42420373864E+01  0.32849412199E+02  0.35597607165E+02  0.51100000000E-03 0. -1.
        -11    1    3    3    0    0  0.36595158961E+01  0.34211834620E+01  0.10078142330E+02  0.11254577111E+02  0.51100000000E-03 0.  1.
        -12    1    3    3    0    0  0.90005835106E+01  0.16451293458E+01 -0.42174562112E+02  0.43155655984E+02  0.00000000000E+00 0.  1.
</event>
<event>
 7    1  0.2148778E-015  0.9000777E+02  0.7816164E-02  0.1186339E+00
        -11   -1    0    0    0    0  0.00000000000E+00  0.00000000000E+00  0.45593999997E+02  0.45594000000E+02  0.51100000000E-03 0. -1.
         11   -1    0    0    0    0 -0.00000000000E+00 -0.00000000000E+00 -0.45593999997E+02  0.45594000000E+02  0.51100000000E-03 0.  1.
    9900012    2    1    2    0    0  0.99112360478E+00 -0.40441335168E+00  0.49706030763E+00  0.90007769044E+02  0.90000030796E+02 0.  0.
         12    1    1    2    0    0 -0.99112360478E+00  0.40441335168E+00 -0.49706030763E+00  0.11802309555E+01  0.00000000000E+00 0. -1.
         11    1    3    3    0    0  0.49429708597E+01  0.37060892033E+01 -0.14841815673E+02  0.16076304017E+02  0.51100000000E-03 0. -1.
        -11    1    3    3    0    0 -0.17945822151E+02  0.30252825724E+02  0.87564287712E+01  0.36248600553E+02  0.51100000000E-03 0.  1.
         12    1    3    3    0    0  0.13993974896E+02 -0.34363328279E+02  0.65824472094E+01  0.37682864475E+02  0.00000000000E+00 0. -1.
</event>
<event>
 7    1  0.2148778E-015  0.9000775E+02  0.7816164E-02  0.1186339E+00
        -11   -1    0    0    0    0  0.00000000000E+00  0.00000000000E+00  0.45593999997E+02  0.45594000000E+02  0.51100000000E-03 0. -1.
         11   -1    0    0    0    0 -0.00000000000E+00 -0.00000000000E+00 -0.45593999997E+02  0.45594000000E+02  0.51100000000E-03 0.  1.
    9900012    2    1    2    0    0 -0.77290294373E+00  0.73215558606E+00 -0.50947695257E+00  0.90007746837E+02  0.90000008296E+02 0.  0.
         12    1    1    2    0    0  0.77290294373E+00 -0.73215558606E+00  0.50947695257E+00  0.11802531626E+01  0.00000000000E+00 0. -1.
         11    1    3    3    0    0 -0.74513362283E+01 -0.63695227498E+00  0.79552589009E+00  0.75207035237E+01  0.51100000000E-03 0. -1.
        -11    1    3    3    0    0 -0.12396543323E+02 -0.16041525255E+02 -0.34749891459E+02  0.40231328284E+02  0.51100000000E-03 0.  1.
         12    1    3    3    0    0  0.19074976607E+02  0.17410633116E+02  0.33444888616E+02  0.42255715029E+02  0.00000000000E+00 0. -1.
</event>
<event>
 7    1  0.2148778E-015  0.9000777E+02  0.7816164E-02  0.1186339E+00
        -11   -1    0    0    0    0  0.00000000000E+00  0.00000000000E+00  0.45593999997E+02  0.45594000000E+02  0.51100000000E-03 0. -1.
         11   -1    0    0    0    0 -0.00000000000E+00 -0.00000000000E+00 -0.45593999997E+02  0.45594000000E+02  0.51100000000E-03 0.  1.
    9900012    2    1    2    0    0 -0.11295969779E+01  0.34193197878E+00 -0.66006077316E-02  0.90007766812E+02  0.90000028534E+02 0.  0.
         12    1    1    2    0    0  0.11295969779E+01 -0.34193197878E+00  0.66006077316E-02  0.11802331882E+01  0.00000000000E+00 0. -1.
         11    1    3    3    0    0  0.80871948706E+00 -0.93830602886E+01 -0.45042651459E+01  0.10439552306E+02  0.51100000000E-03 0. -1.
        -11    1    3    3    0    0  0.30321889623E+02 -0.96195250521E+01 -0.17179410452E+02  0.36153622174E+02  0.51100000000E-03 0.  1.
         12    1    3    3    0    0 -0.32260206088E+02  0.19344517320E+02  0.21677074990E+02  0.43414592332E+02  0.00000000000E+00 0. -1.
</event>
<event>
 7    1  0.2148778E-015  0.9000786E+02  0.7816164E-02  0.1186339E+00
        -11   -1    0    0    0    0  0.00000000000E+00  0.00000000000E+00  0.45593999997E+02  0.45594000000E+02  0.51100000000E-03 0. -1.
         11   -1    0    0    0    0 -0.00000000000E+00 -0.00000000000E+00 -0.45593999997E+02  0.45594000000E+02  0.51100000000E-03 0.  1.
    9900012    2    1    2    0    0 -0.98640200536E+00 -0.15100289166E+00 -0.63002243292E+00  0.90007864815E+02  0.90000127830E+02 0.  0.
         12    1    1    2    0    0  0.98640200536E+00  0.15100289166E+00  0.63002243292E+00  0.11801351852E+01  0.00000000000E+00 0. -1.
         11    1    3    3    0    0  0.12564247223E+02  0.31862215235E+02  0.71311644575E+01  0.34984490489E+02  0.51100000000E-03 0. -1.
        -11    1    3    3    0    0  0.19689505965E+00  0.94589848945E+01  0.31830211779E+01  0.99821233702E+01  0.51100000000E-03 0.  1.
        -12    1    3    3    0    0 -0.13747544288E+02 -0.41472203021E+02 -0.10944208068E+02  0.45041250956E+02  0.00000000000E+00 0.  1.
</event>
<event>
 7    1  0.2148778E-015  0.9000776E+02  0.7816164E-02  0.1186339E+00
        -11   -1    0    0    0    0  0.00000000000E+00  0.00000000000E+00  0.45593999997E+02  0.45594000000E+02  0.51100000000E-03 0.  1.
         11   -1    0    0    0    0 -0.00000000000E+00 -0.00000000000E+00 -0.45593999997E+02  0.45594000000E+02  0.51100000000E-03 0. -1.
    9900012    2    1    2    0    0 -0.65279120879E+00  0.66091273131E+00  0.72803114568E+00  0.90007757927E+02  0.90000019532E+02 0.  0.
         12    1    1    2    0    0  0.65279120879E+00 -0.66091273131E+00 -0.72803114568E+00  0.11802420725E+01  0.00000000000E+00 0. -1.
         11    1    3    3    0    0  0.89186971319E+01 -0.12842812866E+02 -0.23980485302E+02  0.28627690728E+02  0.51100000000E-03 0. -1.
        -11    1    3    3    0    0 -0.11369037886E+02 -0.17773753537E+02 -0.59729173069E+00  0.21107299565E+02  0.51100000000E-03 0.  1.
        -12    1    3    3    0    0  0.17975495456E+01  0.31277479135E+02  0.25305808178E+02  0.40272767634E+02  0.00000000000E+00 0.  1.
</event>
<event>
 7    1  0.2148778E-015  0.9000770E+02  0.7816164E-02  0.1186339E+00
        -11   -1    0    0    0    0  0.00000000000E+00  0.00000000000E+00  0.45593999997E+02  0.45594000000E+02  0.51100000000E-03 0.  1.
         11   -1    0    0    0    0 -0.00000000000E+00 -0.00000000000E+00 -0.45593999997E+02  0.45594000000E+02  0.51100000000E-03 0. -1.
    9900012    2    1    2    0    0  0.99712701621E+00 -0.20169924182E+00 -0.59846233421E+00  0.90007702565E+02  0.89999963438E+02 0.  0.
         12    1    1    2    0    0 -0.99712701621E+00  0.20169924182E+00  0.59846233421E+00  0.11802974354E+01  0.00000000000E+00 0. -1.
         11    1    3    3    0    0  0.25940648969E+02 -0.18901564580E+02 -0.26784391094E+02  0.41804186621E+02  0.51100000000E-03 0. -1.
        -11    1    3    3    0    0 -0.28555981213E+01 -0.50945412752E+01  0.10795903560E+02  0.12274376782E+02  0.51100000000E-03 0.  1.
        -12    1    3    3    0    0 -0.22087923831E+02  0.23794406614E+02  0.15390025199E+02  0.35929139162E+02  0.00000000000E+00 0.  1.
</event>
<event>
 7    1  0.2148778E-015  0.9000767E+02  0.7816164E-02  0.1186339E+00
        -11   -1    0    0    0    0  0.00000000000E+00  0.00000000000E+00  0.45593999997E+02  0.45594000000E+02  0.51100000000E-03 0.  1.
         11   -1    0    0    0    0 -0.00000000000E+00 -0.00000000000E+00 -0.45593999997E+02  0.45594000000E+02  0.51100000000E-03 0. -1.
    9900012    2    1    2    0    0  0.75812027803E+00 -0.49314108568E+00  0.75845175006E+00  0.90007668037E+02  0.89999928455E+02 0.  0.
         12    1    1    2    0    0 -0.75812027803E+00  0.49314108568E+00 -0.75845175006E+00  0.11803319633E+01  0.00000000000E+00 0. -1.
         11    1    3    3    0    0  0.27683771741E+01  0.10698351210E+02 -0.37792114230E+01  0.11679086866E+02  0.51100000000E-03 0. -1.
        -11    1    3    3    0    0  0.85247862216E+01  0.23122600343E+02  0.26547630748E+02  0.36222966821E+02  0.51100000000E-03 0.  1.
         12    1    3    3    0    0 -0.10535043118E+02 -0.34314092639E+02 -0.22009967575E+02  0.42105614349E+02  0.00000000000E+00 0. -1.
</event>
<event>
 7    1  0.2148778E-015  0.9000773E+02  0.7816164E-02  0.1186339E+00
        -11   -1    0    0    0    0  0.00000000000E+00  0.00000000000E+00  0.45593999997E+02  0.45594000000E+02  0.51100000000E-03 0.  1.
         11   -1    0    0    0    0 -0.00000000000E+00 -0.00000000000E+00 -0.45593999997E+02  0.45594000000E+02  0.51100000000E-03 0. -1.
    9900012    2    1    2    0    0 -0.11762770547E+01  0.34574437703E-01  0.90654442301E-01  0.90007728282E+02  0.89999989495E+02 0.  0.
         12    1    1    2    0    0  0.11762770547E+01 -0.34574437703E-01 -0.90654442301E-01  0.11802717184E+01  0.00000000000E+00 0. -1.
         11    1    3    3    0    0  0.17868442601E+01 -0.61424607280E+01  0.42252003994E+01  0.76664825625E+01  0.51100000000E-03 0. -1.
        -11    1    3    3    0    0  0.11314987309E+02 -0.24815688119E+02  0.25356577448E+02  0.37239808468E+02  0.51100000000E-03 0.  1.
         12    1    3    3    0    0 -0.14278108624E+02  0.30992723284E+02 -0.29491123405E+02  0.45101437251E+02  0.00000000000E+00 0. -1.
</event>
<event>
 7    1  0.2148778E-015  0.9000786E+02  0.7816164E-02  0.1186339E+00
        -11   -1    0    0    0    0  0.00000000000E+00  0.00000000000E+00  0.45593999997E+02  0.45594000000E+02  0.51100000000E-03 0.  1.
         11   -1    0    0    0    0 -0.00000000000E+00 -0.00000000000E+00 -0.45593999997E+02  0.45594000000E+02  0.51100000000E-03 0. -1.
    9900012    2    1    2    0    0  0.21496158151E+00 -0.22392819397E+00  0.11385879752E+01  0.90007858104E+02  0.90000121031E+02 0.  0.
         12    1    1    2    0    0 -0.21496158151E+00  0.22392819397E+00 -0.11385879752E+01  0.11801418961E+01  0.00000000000E+00 0. -1.
         11    1    3    3    0    0  0.69057636151E+01 -0.15580100177E+01  0.10159836469E+02  0.12383022396E+02  0.51100000000E-03 0. -1.
        -11    1    3    3    0    0 -0.52607463731E+01 -0.15227732111E+02  0.30641804825E+02  0.34619062391E+02  0.51100000000E-03 0.  1.
         12    1    3    3    0    0 -0.14300556604E+01  0.16561813935E+02 -0.39663053319E+02  0.43005773317E+02  0.00000000000E+00 0. -1.
</event>
<event>
 7    1  0.2148778E-015  0.9000773E+02  0.7816164E-02  0.1186339E+00
        -11   -1    0    0    0    0  0.00000000000E+00  0.00000000000E+00  0.45593999997E+02  0.45594000000E+02  0.51100000000E-03 0.  1.
         11   -1    0    0    0    0 -0.00000000000E+00 -0.00000000000E+00 -0.45593999997E+02  0.45594000000E+02  0.51100000000E-03 0. -1.
    9900012    2    1    2    0    0  0.11235236256E+01  0.11144973858E+00 -0.34395406520E+00  0.90007732750E+02  0.89999994023E+02 0.  0.
         12    1    1    2    0    0 -0.11235236256E+01 -0.11144973858E+00  0.34395406520E+00  0.11802672496E+01  0.00000000000E+00 0. -1.
         11    1    3    3    0    0  0.16798414409E+02  0.29429911771E+01 -0.17089124114E+02  0.24143033922E+02  0.51100000000E-03 0. -1.
        -11    1    3    3    0    0  0.20676730348E+02  0.12594344476E+02  0.65333720205E+01  0.25076475846E+02  0.51100000000E-03 0.  1.
        -12    1    3    3    0    0 -0.36351621131E+02 -0.15425885914E+02  0.10211798028E+02  0.40788222982E+02  0.00000000000E+00 0.  1.
</event>
<event>
 7    1  0.2148778E-015  0.9000795E+02  0.7816164E-02  0.1186339E+00
        -11   -1    0    0    0    0  0.00000000000E+00  0.00000000000E+00  0.45593999997E+02  0.45594000000E+02  0.51100000000E-03 0.  1.
         11   -1    0    0    0    0 -0.00000000000E+00 -0.00000000000E+00 -0.45593999997E+02  0.45594000000E+02  0.51100000000E-03 0. -1.
    9900012    2    1    2    0    0  0.71009211289E+00  0.19103543958E+00  0.92292077119E+00  0.90007954197E+02  0.90000218392E+02 0.  0.
         12    1    1    2    0    0 -0.71009211289E+00 -0.19103543958E+00 -0.92292077119E+00  0.11800458033E+01  0.00000000000E+00 0. -1.
         11    1    3    3    0    0 -0.92174878530E+01  0.10708809504E+01 -0.21887797497E+00  0.92820674507E+01  0.51100000000E-03 0. -1.
        -11    1    3    3    0    0 -0.34274410841E+02 -0.21754491711E+01  0.96944496761E+01  0.35685433617E+02  0.51100000000E-03 0.  1.
         12    1    3    3    0    0  0.44201990807E+02  0.12956036603E+01 -0.85526509300E+01  0.45040453129E+02  0.00000000000E+00 0. -1.
</event>
<event>
 7    1  0.2148778E-015  0.9000780E+02  0.7816164E-02  0.1186339E+00
        -11   -1    0    0    0    0  0.00000000000E+00  0.00000000000E+00  0.45593999997E+02  0.45594000000E+02  0.51100000000E-03 0. -1.
         11   -1    0    0    0    0 -0.00000000000E+00 -0.00000000000E+00 -0.45593999997E+02  0.45594000000E+02  0.51100000000E-03 0.  1.
    9900012    2    1    2    0    0 -0.11163188670E+01 -0.33607375611E+00 -0.18375303737E+00  0.90007797237E+02  0.90000059361E+02 0.  0.
         12    1    1    2    0    0  0.11163188670E+01  0.33607375611E+00  0.18375303737E+00  0.11802027627E+01  0.00000000000E+00 0. -1.
         11    1    3    3    0    0  0.22328017293E+02 -0.32430484489E+02  0.14935170007E+02  0.42110995996E+02  0.51100000000E-03 0. -1.
        -11    1    3    3    0    0  0.29775360336E+01  0.94745214751E+01  0.98229168275E-01  0.99318642381E+01  0.51100000000E-03 0.  1.
        -12    1    3    3    0    0 -0.26421872193E+02  0.22619889257E+02 -0.15217152212E+02  0.37964937003E+02  0.00000000000E+00 0.  1.
</event>
<event>
 7    1  0.2148778E-015  0.9000773E+02  0.7816164E-02  0.1186339E+00
        -11   -1    0    0    0    0  0.00000000000E+00  0.00000000000E+00  0.45593999997E+02  0.45594000000E+02  0.51100000000E-03 0.  1.
         11   -1    0    0    0    0 -0.00000000000E+00 -0.00000000000E+00 -0.45593999997E+02  0.45594000000E+02  0.51100000000E-03 0. -1.
    9900012    2    1    2    0    0  0.99803218446E+00 -0.12977712975E+00 -0.61655074571E+00  0.90007726656E+02  0.89999987848E+02 0.  0.
         12    1    1    2    0    0 -0.99803218446E+00  0.12977712975E+00  0.61655074571E+00  0.11802733440E+01  0.00000000000E+00 0. -1.
         11    1    3    3    0    0  0.49417230264E+01  0.50389781925E+01  0.58245811430E+01  0.91508291125E+01  0.51100000000E-03 0. -1.
        -11    1    3    3    0    0  0.25095111031E+02  0.82897450955E+01  0.24719363408E+02  0.36187448086E+02  0.51100000000E-03 0.  1.
         12    1    3    3    0    0 -0.29038801873E+02 -0.13458500418E+02 -0.31160495297E+02  0.44669449458E+02  0.00000000000E+00 0. -1.
</event>
<event>
 7    1  0.2148778E-015  0.9000774E+02  0.7816164E-02  0.1186339E+00
        -11   -1    0    0    0    0  0.00000000000E+00  0.00000000000E+00  0.45593999997E+02  0.45594000000E+02  0.51100000000E-03 0.  1.
         11   -1    0    0    0    0 -0.00000000000E+00 -0.00000000000E+00 -0.45593999997E+02  0.45594000000E+02  0.51100000000E-03 0. -1.
    9900012    2    1    2    0    0 -0.10458175999E+01  0.27639792020E+00  0.47210339352E+00  0.90007740759E+02  0.90000002137E+02 0.  0.
         12    1    1    2    0    0  0.10458175999E+01 -0.27639792020E+00 -0.47210339352E+00  0.11802592413E+01  0.00000000000E+00 0. -1.
         11    1    3    3    0    0  0.10401774267E+01  0.27142682876E+02 -0.19797861918E+02  0.33611940432E+02  0.51100000000E-03 0. -1.
        -11    1    3    3    0    0 -0.86885014930E+01 -0.35948246898E+01 -0.12514323349E+02  0.15653150223E+02  0.51100000000E-03 0.  1.
        -12    1    3    3    0    0  0.66025064664E+01 -0.23271460266E+02  0.32784288661E+02  0.40742650104E+02  0.00000000000E+00 0.  1.
</event>
<event>
 7    1  0.2148778E-015  0.9000778E+02  0.7816164E-02  0.1186339E+00
        -11   -1    0    0    0    0  0.00000000000E+00  0.00000000000E+00  0.45593999997E+02  0.45594000000E+02  0.51100000000E-03 0.  1.
         11   -1    0    0    0    0 -0.00000000000E+00 -0.00000000000E+00 -0.45593999997E+02  0.45594000000E+02  0.51100000000E-03 0. -1.
    9900012    2    1    2    0    0  0.70996372703E+00  0.52081355633E+00  0.78589739741E+00  0.90007775456E+02  0.90000037292E+02 0.  0.
         12    1    1    2    0    0 -0.70996372703E+00 -0.52081355633E+00 -0.78589739741E+00  0.11802245436E+01  0.00000000000E+00 0. -1.
         11    1    3    3    0    0  0.10118005915E+02  0.29681932806E+02  0.25894350885E+02  0.40668274943E+02  0.51100000000E-03 0. -1.
        -11    1    3    3    0    0  0.71214404837E+01 -0.61811542443E+01  0.25443312015E+01  0.97670468351E+01  0.51100000000E-03 0.  1.
        -12    1    3    3    0    0 -0.16529482672E+02 -0.22979965006E+02 -0.27652784689E+02  0.39572453678E+02  0.00000000000E+00 0.  1.
</event>
<event>
 7    1  0.2148778E-015  0.9000776E+02  0.7816164E-02  0.1186339E+00
        -11   -1    0    0    0    0  0.00000000000E+00  0.00000000000E+00  0.45593999997E+02  0.45594000000E+02  0.51100000000E-03 0.  1.
         11   -1    0    0    0    0 -0.00000000000E+00 -0.00000000000E+00 -0.45593999997E+02  0.45594000000E+02  0.51100000000E-03 0. -1.
    9900012    2    1    2    0    0  0.26057196689E+00  0.10745378550E+01  0.41285267837E+00  0.90007755667E+02  0.90000017242E+02 0.  0.
         12    1    1    2    0    0 -0.26057196689E+00 -0.10745378550E+01 -0.41285267837E+00  0.11802443331E+01  0.00000000000E+00 0. -1.
         11    1    3    3    0    0 -0.43141308090E+00  0.32159728772E+01  0.12764780393E+02  0.13170733371E+02  0.51100000000E-03 0. -1.
        -11    1    3    3    0    0 -0.20150187938E+02  0.24817160877E+02  0.12850771261E+02  0.34453793263E+02  0.51100000000E-03 0.  1.
         12    1    3    3    0    0  0.20842172986E+02 -0.26958595899E+02 -0.25202698975E+02  0.42383229033E+02  0.00000000000E+00 0. -1.
</event>
<event>
 7    1  0.2148778E-015  0.9000804E+02  0.7816164E-02  0.1186338E+00
        -11   -1    0    0    0    0  0.00000000000E+00  0.00000000000E+00  0.45593999997E+02  0.45594000000E+02  0.51100000000E-03 0.  1.
         11   -1    0    0    0    0 -0.00000000000E+00 -0.00000000000E+00 -0.45593999997E+02  0.45594000000E+02  0.51100000000E-03 0. -1.
    9900012    2    1    2    0    0  0.62442105309E+00  0.42437464942E+00  0.90681606434E+00  0.90008037768E+02  0.90000303066E+02 0.  0.
         12    1    1    2    0    0 -0.62442105309E+00 -0.42437464942E+00 -0.90681606434E+00  0.11799622321E+01  0.00000000000E+00 0. -1.
         11    1    3    3    0    0  0.16683262505E+02 -0.17034570240E+02 -0.31281683456E+02  0.39332576208E+02  0.51100000000E-03 0. -1.
        -11    1    3    3    0    0  0.51241048637E+01 -0.42364303092E+00 -0.29424876667E+01  0.59240322417E+01  0.51100000000E-03 0.  1.
        -12    1    3    3    0    0 -0.21182946315E+02  0.17882587920E+02  0.35130987187E+02  0.44751429318E+02  0.00000000000E+00 0.  1.
</event>
<event>
 7    1  0.2148778E-015  0.9000785E+02  0.7816164E-02  0.1186339E+00
        -11   -1    0    0    0    0  0.00000000000E+00  0.00000000000E+00  0.45593999997E+02  0.45594000000E+02  0.51100000000E-03 0. -1.
         11   -1    0    0    0    0 -0.00000000000E+00 -0.00000000000E+00 -0.45593999997E+02  0.45594000000E+02  0.51100000000E-03 0.  1.
    9900012    2    1    2    0    0  0.45419659523E+00  0.10312413827E+01 -0.35070054478E+00  0.90007854158E+02  0.90000117033E+02 0.  0.
         12    1    1    2    0    0 -0.45419659523E+00 -0.10312413827E+01  0.35070054478E+00  0.11801458421E+01  0.00000000000E+00 0. -1.
         11    1    3    3    0    0  0.22389332734E+02  0.30162230980E+02  0.15919616089E+02  0.40797997189E+02  0.51100000000E-03 0. -1.
        -11    1    3    3    0    0 -0.80394497446E+01  0.32346610278E+01  0.28624990118E+01  0.91263182617E+01  0.51100000000E-03 0.  1.
        -12    1    3    3    0    0 -0.13895686394E+02 -0.32365650625E+02 -0.19132815645E+02  0.40083538707E+02  0.00000000000E+00 0.  1.
</event>
<event>
 7    1  0.2148778E-015  0.9000774E+02  0.7816164E-02  0.1186339E+00
        -11   -1    0    0    0    0  0.00000000000E+00  0.00000000000E+00  0.45593999997E+02  0.45594000000E+02  0.51100000000E-03 0. -1.
         11   -1    0    0    0    0 -0.00000000000E+00 -0.00000000000E+00 -0.45593999997E+02  0.45594000000E+02  0.51100000000E-03 0.  1.
    9900012    2    1    2    0    0  0.18698263108E+00 -0.56948980118E+00 -0.10167258120E+01  0.90007740488E+02  0.90000001863E+02 0.  0.
         12    1    1    2    0    0 -0.18698263108E+00  0.56948980118E+00  0.10167258120E+01  0.11802595116E+01  0.00000000000E+00 0. -1.
         11    1    3    3    0    0  0.84907613903E+01  0.20276336627E+01  0.65750200569E+00  0.87542353410E+01  0.51100000000E-03 0. -1.
        -11    1    3    3    0    0  0.34509364192E+01  0.37992827438E+02 -0.65779467813E+01  0.38712185201E+02  0.51100000000E-03 0.  1.
         12    1    3    3    0    0 -0.11754715178E+02 -0.40589950902E+02  0.49037189636E+01  0.42541319947E+02  0.00000000000E+00 0. -1.
</event>
<event>
 7    1  0.2148778E-015  0.9000772E+02  0.7816164E-02  0.1186339E+00
        -11   -1    0    0    0    0  0.00000000000E+00  0.00000000000E+00  0.45593999997E+02  0.45594000000E+02  0.51100000000E-03 0.  1.
         11   -1    0    0    0    0 -0.00000000000E+00 -0.00000000000E+00 -0.45593999997E+02  0.45594000000E+02  0.51100000000E-03 0. -1.
    9900012    2    1    2    0    0  0.19794626782E+00  0.10497474109E+01 -0.50190124993E+00  0.90007721551E+02  0.89999982676E+02 0.  0.
         12    1    1    2    0    0 -0.19794626782E+00 -0.10497474109E+01  0.50190124993E+00  0.11802784486E+01  0.00000000000E+00 0. -1.
         11    1    3    3    0    0 -0.57813021052E+01 -0.31056609423E+00  0.73030001922E+01  0.93195341836E+01  0.51100000000E-03 0. -1.
        -11    1    3    3    0    0 -0.33268054030E+02  0.13732177085E+02  0.75347119865E+01  0.36771021082E+02  0.51100000000E-03 0.  1.
         12    1    3    3    0    0  0.39247302403E+02 -0.12371863580E+02 -0.15339613429E+02  0.43917166285E+02  0.00000000000E+00 0. -1.
</event>
<event>
 7    1  0.2148778E-015  0.9000784E+02  0.7816164E-02  0.1186339E+00
        -11   -1    0    0    0    0  0.00000000000E+00  0.00000000000E+00  0.45593999997E+02  0.45594000000E+02  0.51100000000E-03 0.  1.
         11   -1    0    0    0    0 -0.00000000000E+00 -0.00000000000E+00 -0.45593999997E+02  0.45594000000E+02  0.51100000000E-03 0. -1.
    9900012    2    1    2    0    0  0.78138169810E+00 -0.19929585749E+00  0.86168444695E+00  0.90007840569E+02  0.90000103264E+02 0.  0.
         12    1    1    2    0    0 -0.78138169810E+00  0.19929585749E+00 -0.86168444695E+00  0.11801594312E+01  0.00000000000E+00 0. -1.
         11    1    3    3    0    0  0.13144344143E+02 -0.20596921547E+02  0.90457257891E+01  0.26054406834E+02  0.51100000000E-03 0. -1.
        -11    1    3    3    0    0  0.35037054762E+01 -0.19624557111E+02 -0.61128361441E+01  0.20851042177E+02  0.51100000000E-03 0.  1.
        -12    1    3    3    0    0 -0.15866667921E+02  0.40022182801E+02 -0.20712051980E+01  0.43102391558E+02  0.00000000000E+00 0.  1.
</event>
<event>
 7    1  0.2148778E-015  0.9000776E+02  0.7816164E-02  0.1186339E+00
        -11   -1    0    0    0    0  0.00000000000E+00  0.00000000000E+00  0.45593999997E+02  0.45594000000E+02  0.51100000000E-03 0. -1.
         11   -1    0    0    0    0 -0.00000000000E+00 -0.00000000000E+00 -0.45593999997E+02  0.45594000000E+02  0.51100000000E-03 0.  1.
    9900012    2    1    2    0    0 -0.46680242887E+00  0.30268848827E+00 -0.10408855114E+01  0.90007759568E+02  0.90000021195E+02 0.  0.
         12    1    1    2    0    0  0.46680242887E+00 -0.30268848827E+00  0.10408855114E+01  0.11802404316E+01  0.00000000000E+00 0. -1.
         11    1    3    3    0    0  0.57729277827E+01  0.29394801785E+02  0.25570192130E+02  0.39385476930E+02  0.51100000000E-03 0. -1.
        -11    1    3    3    0    0 -0.68485920986E+01 -0.31255938726E+01  0.54987595012E+01  0.93224946824E+01  0.51100000000E-03 0.  1.
        -12    1    3    3    0    0  0.60886188706E+00 -0.25966519425E+02 -0.32109837143E+02  0.41299787956E+02  0.00000000000E+00 0.  1.
</event>
<event>
 7    1  0.2148778E-015  0.9000757E+02  0.7816164E-02  0.1186339E+00
        -11   -1    0    0    0    0  0.00000000000E+00  0.00000000000E+00  0.45593999997E+02  0.45594000000E+02  0.51100000000E-03 0. -1.
         11   -1    0    0    0    0 -0.00000000000E+00 -0.00000000000E+00 -0.45593999997E+02  0.45594000000E+02  0.51100000000E-03 0.  1.
    9900012    2    1    2    0    0  0.78540242120E+00 -0.88107079060E+00 -0.16554230835E-01  0.90007569255E+02  0.89999828369E+02 0.  0.
         12    1    1    2    0    0 -0.78540242120E+00  0.88107079060E+00  0.16554230835E-01  0.11804307450E+01  0.00000000000E+00 0. -1.
         11    1    3    3    0    0 -0.78262862345E+01 -0.34387659672E+02  0.25677800895E+02  0.43624664503E+02  0.51100000000E-03 0. -1.
        -11    1    3    3    0    0  0.56899842512E+01  0.16917042900E+01 -0.76755983813E+01  0.97032260077E+01  0.51100000000E-03 0.  1.
        -12    1    3    3    0    0  0.29217044045E+01  0.31814884591E+02 -0.18018756744E+02  0.36679678744E+02  0.00000000000E+00 0.  1.
</event>
<event>
 7    1  0.2148778E-015  0.9000774E+02  0.7816164E-02  0.1186339E+00
        -11   -1    0    0    0    0  0.00000000000E+00  0.00000000000E+00  0.45593999997E+02  0.45594000000E+02  0.51100000000E-03 0. -1.
         11   -1    0    0    0    0 -0.00000000000E+00 -0.00000000000E+00 -0.45593999997E+02  0.45594000000E+02  0.51100000000E-03 0.  1.
    9900012    2    1    2    0    0 -0.93409682850E+00 -0.37509975077E+00 -0.61625869161E+00  0.90007740925E+02  0.90000002306E+02 0.  0.
         12    1    1    2    0    0  0.93409682850E+00  0.37509975077E+00  0.61625869161E+00  0.11802590745E+01  0.00000000000E+00 0. -1.
         11    1    3    3    0    0 -0.71370868430E+01 -0.32385510464E+02  0.21253748803E+02  0.39388845312E+02  0.51100000000E-03 0. -1.
        -11    1    3    3    0    0  0.33552597054E+01 -0.37957357056E+01 -0.12514898744E+02  0.13501409855E+02  0.51100000000E-03 0.  1.
        -12    1    3    3    0    0  0.28477303091E+01  0.35806146418E+02 -0.93551087504E+01  0.37117485758E+02  0.00000000000E+00 0.  1.
</event>
<event>
 7    1  0.2148778E-015  0.9000772E+02  0.7816164E-02  0.1186339E+00
        -11   -1    0    0    0    0  0.00000000000E+00  0.00000000000E+00  0.45593999997E+02  0.45594000000E+02  0.51100000000E-03 0. -1.
         11   -1    0    0    0    0 -0.00000000000E+00 -0.00000000000E+00 -0.45593999997E+02  0.45594000000E+02  0.51100000000E-03 0.  1.
    9900012    2    1    2    0    0  0.11224461434E+01  0.36265499395E+00  0.40685439604E-01  0.90007720671E+02  0.89999981784E+02 0.  0.
         12    1    1    2    0    0 -0.11224461434E+01 -0.36265499395E+00 -0.40685439604E-01  0.11802793290E+01  0.00000000000E+00 0. -1.
         11    1    3    3    0    0  0.90930633201E+01  0.35695213538E+00 -0.84426649040E+00  0.91391466527E+01  0.51100000000E-03 0. -1.
        -11    1    3    3    0    0  0.23493315911E+02 -0.95163089072E+01 -0.27526340706E+02  0.37419185729E+02  0.51100000000E-03 0.  1.
         12    1    3    3    0    0 -0.31463933088E+02  0.95220117657E+01  0.28411292636E+02  0.43449388289E+02  0.00000000000E+00 0. -1.
</event>
<event>
 7    1  0.2148778E-015  0.9000772E+02  0.7816164E-02  0.1186339E+00
        -11   -1    0    0    0    0  0.00000000000E+00  0.00000000000E+00  0.45593999997E+02  0.45594000000E+02  0.51100000000E-03 0.  1.
         11   -1    0    0    0    0 -0.00000000000E+00 -0.00000000000E+00 -0.45593999997E+02  0.45594000000E+02  0.51100000000E-03 0. -1.
    9900012    2    1    2    0    0  0.52237097836E+00 -0.74876695093E+00  0.74802646944E+00  0.90007717413E+02  0.89999978483E+02 0.  0.
         12    1    1    2    0    0 -0.52237097836E+00  0.74876695093E+00 -0.74802646944E+00  0.11802825868E+01  0.00000000000E+00 0. -1.
         11    1    3    3    0    0  0.69092967257E+00 -0.70174792899E+01  0.78923687157E+01  0.10583566677E+02  0.51100000000E-03 0. -1.
        -11    1    3    3    0    0 -0.34052250368E+01 -0.18168345331E+02  0.29766425719E+02  0.35038898812E+02  0.51100000000E-03 0.  1.
         12    1    3    3    0    0  0.32366663426E+01  0.24437057670E+02 -0.36910767966E+02  0.44385251924E+02  0.00000000000E+00 0. -1.
</event>
<event>
 7    1  0.2148778E-015  0.9000776E+02  0.7816164E-02  0.1186339E+00
        -11   -1    0    0    0    0  0.00000000000E+00  0.00000000000E+00  0.45593999997E+02  0.45594000000E+02  0.51100000000E-03 0.  1.
         11   -1    0    0    0    0 -0.00000000000E+00 -0.00000000000E+00 -0.45593999997E+02  0.45594000000E+02  0.51100000000E-03 0. -1.
    9900012    2    1    2    0    0  0.44034080887E+00  0.98905677805E+00  0.46993309431E+00  0.90007758308E+02  0.90000019918E+02 0.  0.
         12    1    1    2    0    0 -0.44034080887E+00 -0.98905677805E+00 -0.46993309431E+00  0.11802416919E+01  0.00000000000E+00 0. -1.
         11    1    3    3    0    0 -0.39794660322E+02  0.70722830982E+01 -0.30507274634E+01  0.40533185375E+02  0.51100000000E-03 0. -1.
        -11    1    3    3    0    0  0.21726505948E+01  0.67906200493E+01  0.58557598552E+01  0.92262047995E+01  0.51100000000E-03 0.  1.
        -12    1    3    3    0    0  0.38062350536E+02 -0.12873846369E+02 -0.23350992974E+01  0.40248368133E+02  0.00000000000E+00 0.  1.
</event>
<event>
 7    1  0.2148778E-015  0.9000780E+02  0.7816164E-02  0.1186339E+00
        -11   -1    0    0    0    0  0.00000000000E+00  0.00000000000E+00  0.45593999997E+02  0.45594000000E+02  0.51100000000E-03 0.  1.
         11   -1    0    0    0    0 -0.00000000000E+00 -0.00000000000E+00 -0.45593999997E+02  0.45594000000E+02  0.51100000000E-03 0. -1.
    9900012    2    1    2    0    0 -0.83759330013E+00  0.44954454557E-01  0.83022835456E+00  0.90007804016E+02  0.90000066229E+02 0.  0.
         12    1    1    2    0    0  0.83759330013E+00 -0.44954454557E-01 -0.83022835456E+00  0.11801959838E+01  0.00000000000E+00 0. -1.
         11    1    3    3    0    0  0.26134306569E+02 -0.19350957838E+01  0.26170330549E+02  0.37035560976E+02  0.51100000000E-03 0. -1.
        -11    1    3    3    0    0  0.77195520177E+01  0.64305929752E+01 -0.47438639382E+00  0.10058282760E+02  0.51100000000E-03 0.  1.
        -12    1    3    3    0    0 -0.34691451887E+02 -0.44505427369E+01 -0.24865715800E+02  0.42913960280E+02  0.00000000000E+00 0.  1.
</event>
<event>
 7    1  0.2148778E-015  0.9000780E+02  0.7816164E-02  0.1186339E+00
        -11   -1    0    0    0    0  0.00000000000E+00  0.00000000000E+00  0.45593999997E+02  0.45594000000E+02  0.51100000000E-03 0. -1.
         11   -1    0    0    0    0 -0.00000000000E+00 -0.00000000000E+00 -0.45593999997E+02  0.45594000000E+02  0.51100000000E-03 0.  1.
    9900012    2    1    2    0    0 -0.89046472403E+00  0.77201346137E+00 -0.62823899329E-01  0.90007797029E+02  0.90000059150E+02 0.  0.
         12    1    1    2    0    0  0.89046472403E+00 -0.77201346137E+00  0.62823899329E-01  0.11802029705E+01  0.00000000000E+00 0. -1.
         11    1    3    3    0    0  0.48856829824E+01 -0.52710521185E+01 -0.64023424597E+01  0.96251689790E+01  0.51100000000E-03 0. -1.
        -11    1    3    3    0    0 -0.24439891983E+02 -0.30454096165E+02  0.50141193228E+01  0.39368790764E+02  0.51100000000E-03 0.  1.
         12    1    3    3    0    0  0.18663744276E+02  0.36497161745E+02  0.13253992376E+01  0.41013837287E+02  0.00000000000E+00 0. -1.
</event>
<event>
 7    1  0.2148778E-015  0.9000779E+02  0.7816164E-02  0.1186339E+00
        -11   -1    0    0    0    0  0.00000000000E+00  0.00000000000E+00  0.45593999997E+02  0.45594000000E+02  0.51100000000E-03 0.  1.
         11   -1    0    0    0    0 -0.00000000000E+00 -0.00000000000E+00 -0.45593999997E+02  0.45594000000E+02  0.51100000000E-03 0. -1.
    9900012    2    1    2    0    0  0.57673935243E+00 -0.10014443654E+01 -0.23952557144E+00  0.90007791715E+02  0.90000053765E+02 0.  0.
         12    1    1    2    0    0 -0.57673935243E+00  0.10014443654E+01  0.23952557144E+00  0.11802082855E+01  0.00000000000E+00 0. -1.
         11    1    3    3    0    0  0.30428837969E+02 -0.17948189534E+02  0.23539243857E+02  0.42451710087E+02  0.51100000000E-03 0. -1.
        -11    1    3    3    0    0  0.17423208083E+01  0.36340188153E+01 -0.96805498141E+01  0.10485934365E+02  0.51100000000E-03 0.  1.
        -12    1    3    3    0    0 -0.31594419425E+02  0.13312726354E+02 -0.14098219614E+02  0.37070147262E+02  0.00000000000E+00 0.  1.
</event>
<event>
 7    1  0.2148778E-015  0.9000776E+02  0.7816164E-02  0.1186339E+00
        -11   -1    0    0    0    0  0.00000000000E+00  0.00000000000E+00  0.45593999997E+02  0.45594000000E+02  0.51100000000E-03 0.  1.
         11   -1    0    0    0    0 -0.00000000000E+00 -0.00000000000E+00 -0.45593999997E+02  0.45594000000E+02  0.51100000000E-03 0. -1.
    9900012    2    1    2    0    0  0.65095087825E+00  0.92515872567E+00  0.33662485374E+00  0.90007757650E+02  0.90000019251E+02 0.  0.
         12    1    1    2    0    0 -0.65095087825E+00 -0.92515872567E+00 -0.33662485374E+00  0.11802423504E+01  0.00000000000E+00 0. -1.
         11    1    3    3    0    0  0.42289262090E+01 -0.21010419071E+02 -0.33421399181E+02  0.39702788944E+02  0.51100000000E-03 0. -1.
        -11    1    3    3    0    0  0.92384328605E+01  0.42018267673E+01  0.87289670642E-01  0.10149463515E+02  0.51100000000E-03 0.  1.
        -12    1    3    3    0    0 -0.12816408191E+02  0.17733751029E+02  0.33670734364E+02  0.40155505191E+02  0.00000000000E+00 0.  1.
</event>
<event>
 7    1  0.2148778E-015  0.9000772E+02  0.7816164E-02  0.1186339E+00
        -11   -1    0    0    0    0  0.00000000000E+00  0.00000000000E+00  0.45593999997E+02  0.45594000000E+02  0.51100000000E-03 0. -1.
         11   -1    0    0    0    0 -0.00000000000E+00 -0.00000000000E+00 -0.45593999997E+02  0.45594000000E+02  0.51100000000E-03 0.  1.
    9900012    2    1    2    0    0 -0.10766979058E+01  0.50727384633E-01 -0.48084799812E+00  0.90007717642E+02  0.89999978715E+02 0.  0.
         12    1    1    2    0    0  0.10766979058E+01 -0.50727384633E-01  0.48084799812E+00  0.11802823582E+01  0.00000000000E+00 0. -1.
         11    1    3    3    0    0  0.81151367757E+01  0.23132589783E+02  0.33163593263E+02  0.41240708933E+02  0.51100000000E-03 0. -1.
        -11    1    3    3    0    0  0.16547669449E+01 -0.76027550850E+01  0.23362327169E+01  0.81239228267E+01  0.51100000000E-03 0.  1.
        -12    1    3    3    0    0 -0.10846601626E+02 -0.15479107313E+02 -0.35980673978E+02  0.40643085882E+02  0.00000000000E+00 0.  1.
</event>
<event>
 7    1  0.2148778E-015  0.9000774E+02  0.7816164E-02  0.1186339E+00
        -11   -1    0    0    0    0  0.00000000000E+00  0.00000000000E+00  0.45593999997E+02  0.45594000000E+02  0.51100000000E-03 0.  1.
         11   -1    0    0    0    0 -0.00000000000E+00 -0.00000000000E+00 -0.45593999997E+02  0.45594000000E+02  0.51100000000E-03 0. -1.
    9900012    2    1    2    0    0  0.21002889767E+00  0.38752769939E+00  0.10948621211E+01  0.90007740317E+02  0.90000001689E+02 0.  0.
         12    1    1    2    0    0 -0.21002889767E+00 -0.38752769939E+00 -0.10948621211E+01  0.11802596832E+01  0.00000000000E+00 0. -1.
         11    1    3    3    0    0 -0.27780677552E+02  0.41163630872E+01 -0.23891110380E+02  0.36871339083E+02  0.51100000000E-03 0. -1.
        -11    1    3    3    0    0 -0.20439158355E+01 -0.13932632415E+02  0.13187506520E+02  0.19292645398E+02  0.51100000000E-03 0.  1.
        -12    1    3    3    0    0  0.30034622285E+02  0.10203797028E+02  0.11798465981E+02  0.33843755836E+02  0.00000000000E+00 0.  1.
</event>
<event>
 7    1  0.2148778E-015  0.9000802E+02  0.7816164E-02  0.1186338E+00
        -11   -1    0    0    0    0  0.00000000000E+00  0.00000000000E+00  0.45593999997E+02  0.45594000000E+02  0.51100000000E-03 0.  1.
         11   -1    0    0    0    0 -0.00000000000E+00 -0.00000000000E+00 -0.45593999997E+02  0.45594000000E+02  0.51100000000E-03 0. -1.
    9900012    2    1    2    0    0  0.29965557588E-01 -0.68371285668E+00  0.96124365975E+00  0.90008020942E+02  0.90000286017E+02 0.  0.
         12    1    1    2    0    0 -0.29965557588E-01  0.68371285668E+00 -0.96124365975E+00  0.11799790585E+01  0.00000000000E+00 0. -1.
         11    1    3    3    0    0  0.75499738694E+01  0.22706454823E+02 -0.30436227485E+02  0.38716264539E+02  0.51100000000E-03 0. -1.
        -11    1    3    3    0    0 -0.32437190240E+01 -0.12032645390E+02 -0.46151169947E+01  0.13289302966E+02  0.51100000000E-03 0.  1.
        -12    1    3    3    0    0 -0.42762892877E+01 -0.11357522290E+02  0.36012588140E+02  0.38002453436E+02  0.00000000000E+00 0.  1.
</event>
<event>
 7    1  0.2148778E-015  0.9000884E+02  0.7816164E-02  0.1186337E+00
        -11   -1    0    0    0    0  0.00000000000E+00  0.00000000000E+00  0.45593999997E+02  0.45594000000E+02  0.51100000000E-03 0. -1.
         11   -1    0    0    0    0 -0.00000000000E+00 -0.00000000000E+00 -0.45593999997E+02  0.45594000000E+02  0.51100000000E-03 0.  1.
    9900012    2    1    2    0    0 -0.81622408083E+00 -0.83282438890E+00  0.17492570044E+00  0.90008840463E+02  0.90001116350E+02 0.  0.
         12    1    1    2    0    0  0.81622408083E+00  0.83282438890E+00 -0.17492570044E+00  0.11791595369E+01  0.00000000000E+00 0. -1.
         11    1    3    3    0    0 -0.61173989401E+01 -0.24623782660E+01  0.65619796576E+01  0.93029809096E+01  0.51100000000E-03 0. -1.
        -11    1    3    3    0    0 -0.25507970581E+01 -0.32108227040E+02 -0.25555882710E+02  0.41116273550E+02  0.51100000000E-03 0.  1.
         12    1    3    3    0    0  0.78519719173E+01  0.33737780917E+02  0.19168828753E+02  0.39589586004E+02  0.00000000000E+00 0. -1.
</event>
<event>
 7    1  0.2148778E-015  0.9000774E+02  0.7816164E-02  0.1186339E+00
        -11   -1    0    0    0    0  0.00000000000E+00  0.00000000000E+00  0.45593999997E+02  0.45594000000E+02  0.51100000000E-03 0. -1.
         11   -1    0    0    0    0 -0.00000000000E+00 -0.00000000000E+00 -0.45593999997E+02  0.45594000000E+02  0.51100000000E-03 0.  1.
    9900012    2    1    2    0    0 -0.54629802649E+00  0.10372859813E+01 -0.13641503818E+00  0.90007740366E+02  0.90000001739E+02 0.  0.
         12    1    1    2    0    0  0.54629802649E+00 -0.10372859813E+01  0.13641503818E+00  0.11802596339E+01  0.00000000000E+00 0. -1.
         11    1    3    3    0    0  0.26625321315E+01  0.22606209305E+02  0.27737093424E+02  0.35881417591E+02  0.51100000000E-03 0. -1.
        -11    1    3    3    0    0  0.14092330166E+01  0.75424552566E+01  0.56192795833E+01  0.95105663495E+01  0.51100000000E-03 0.  1.
        -12    1    3    3    0    0 -0.46180631745E+01 -0.29111378580E+02 -0.33492788046E+02  0.44615756425E+02  0.00000000000E+00 0.  1.
</event>
<event>
 7    1  0.2148778E-015  0.9000768E+02  0.7816164E-02  0.1186339E+00
        -11   -1    0    0    0    0  0.00000000000E+00  0.00000000000E+00  0.45593999997E+02  0.45594000000E+02  0.51100000000E-03 0.  1.
         11   -1    0    0    0    0 -0.00000000000E+00 -0.00000000000E+00 -0.45593999997E+02  0.45594000000E+02  0.51100000000E-03 0. -1.
    9900012    2    1    2    0    0 -0.91495010131E+00  0.74406467768E+00  0.48863663470E-01  0.90007680725E+02  0.89999941311E+02 0.  0.
         12    1    1    2    0    0  0.91495010131E+00 -0.74406467768E+00 -0.48863663470E-01  0.11803192746E+01  0.00000000000E+00 0. -1.
         11    1    3    3    0    0  0.16578725234E+02 -0.20383742773E+02 -0.19027861877E+02  0.32440878959E+02  0.51100000000E-03 0. -1.
        -11    1    3    3    0    0  0.16537120765E-01 -0.13216216156E+02  0.13004172236E+02  0.18541228082E+02  0.51100000000E-03 0.  1.
         12    1    3    3    0    0 -0.17510212456E+02  0.34344023607E+02  0.60725533036E+01  0.39025573684E+02  0.00000000000E+00 0. -1.
</event>
<event>
 7    1  0.2148778E-015  0.9000772E+02  0.7816164E-02  0.1186339E+00
        -11   -1    0    0    0    0  0.00000000000E+00  0.00000000000E+00  0.45593999997E+02  0.45594000000E+02  0.51100000000E-03 0.  1.
         11   -1    0    0    0    0 -0.00000000000E+00 -0.00000000000E+00 -0.45593999997E+02  0.45594000000E+02  0.51100000000E-03 0. -1.
    9900012    2    1    2    0    0  0.85394713844E+00 -0.81299402918E+00 -0.53723922404E-01  0.90007715599E+02  0.89999976645E+02 0.  0.
         12    1    1    2    0    0 -0.85394713844E+00  0.81299402918E+00  0.53723922404E-01  0.11802844007E+01  0.00000000000E+00 0. -1.
         11    1    3    3    0    0  0.59442862790E+00 -0.46362905432E+01 -0.76472381586E+01  0.89626328224E+01  0.51100000000E-03 0. -1.
        -11    1    3    3    0    0  0.23972592396E+02  0.28564108183E+02  0.22631714850E+02  0.43620958033E+02  0.51100000000E-03 0.  1.
         12    1    3    3    0    0 -0.23713073885E+02 -0.24740811669E+02 -0.15038200614E+02  0.37424124743E+02  0.00000000000E+00 0. -1.
</event>
<event>
 7    1  0.2148778E-015  0.9000767E+02  0.7816164E-02  0.1186339E+00
        -11   -1    0    0    0    0  0.00000000000E+00  0.00000000000E+00  0.45593999997E+02  0.45594000000E+02  0.51100000000E-03 0. -1.
         11   -1    0    0    0    0 -0.00000000000E+00 -0.00000000000E+00 -0.45593999997E+02  0.45594000000E+02  0.51100000000E-03 0.  1.
    9900012    2    1    2    0    0 -0.25824656060E+00  0.80309396653E+00 -0.82554338836E+00  0.90007672464E+02  0.89999932941E+02 0.  0.
         12    1    1    2    0    0  0.25824656060E+00 -0.80309396653E+00  0.82554338836E+00  0.11803275356E+01  0.00000000000E+00 0. -1.
         11    1    3    3    0    0 -0.13922842801E+02  0.57676770839E+01 -0.43263944648E+01  0.15678945753E+02  0.51100000000E-03 0. -1.
        -11    1    3    3    0    0 -0.27483346758E+01 -0.97801841306E+01 -0.32726127415E+02  0.34266671285E+02  0.51100000000E-03 0.  1.
         12    1    3    3    0    0  0.16412930916E+02  0.48156010132E+01  0.36226978491E+02  0.40062055426E+02  0.00000000000E+00 0. -1.
</event>
<event>
 7    1  0.2148778E-015  0.9000773E+02  0.7816164E-02  0.1186339E+00
        -11   -1    0    0    0    0  0.00000000000E+00  0.00000000000E+00  0.45593999997E+02  0.45594000000E+02  0.51100000000E-03 0. -1.
         11   -1    0    0    0    0 -0.00000000000E+00 -0.00000000000E+00 -0.45593999997E+02  0.45594000000E+02  0.51100000000E-03 0.  1.
    9900012    2    1    2    0    0  0.80429585595E-01 -0.11365361803E+01 -0.30796810541E+00  0.90007734029E+02  0.89999995319E+02 0.  0.
         12    1    1    2    0    0 -0.80429585595E-01  0.11365361803E+01  0.30796810541E+00  0.11802659706E+01  0.00000000000E+00 0. -1.
         11    1    3    3    0    0 -0.26828233821E+01 -0.10822096640E+01  0.22734698021E+02  0.22918010677E+02  0.51100000000E-03 0. -1.
        -11    1    3    3    0    0 -0.27123891301E+02  0.19633262641E+01  0.30481311926E+01  0.27365146325E+02  0.51100000000E-03 0.  1.
        -12    1    3    3    0    0  0.29887144269E+02 -0.20176527805E+01 -0.26090797319E+02  0.39724577027E+02  0.00000000000E+00 0.  1.
</event>
<event>
 7    1  0.2148778E-015  0.9000763E+02  0.7816164E-02  0.1186339E+00
        -11   -1    0    0    0    0  0.00000000000E+00  0.00000000000E+00  0.45593999997E+02  0.45594000000E+02  0.51100000000E-03 0.  1.
         11   -1    0    0    0    0 -0.00000000000E+00 -0.00000000000E+00 -0.45593999997E+02  0.45594000000E+02  0.51100000000E-03 0. -1.
    9900012    2    1    2    0    0 -0.94656823477E+00  0.69735208019E+00 -0.10482116847E+00  0.90007627676E+02  0.89999887561E+02 0.  0.
         12    1    1    2    0    0  0.94656823477E+00 -0.69735208019E+00  0.10482116847E+00  0.11803723244E+01  0.00000000000E+00 0. -1.
         11    1    3    3    0    0 -0.33606798451E+02  0.25600810843E+01 -0.16754072865E+02  0.37638675258E+02  0.51100000000E-03 0. -1.
        -11    1    3    3    0    0  0.52129551775E+01 -0.21648851100E+01 -0.11649391277E+02  0.12944881097E+02  0.51100000000E-03 0.  1.
        -12    1    3    3    0    0  0.27447275039E+02  0.30215610590E+00  0.28298642974E+02  0.39424071321E+02  0.00000000000E+00 0.  1.
</event>
<event>
 7    1  0.2148778E-015  0.9000793E+02  0.7816164E-02  0.1186339E+00
        -11   -1    0    0    0    0  0.00000000000E+00  0.00000000000E+00  0.45593999997E+02  0.45594000000E+02  0.51100000000E-03 0.  1.
         11   -1    0    0    0    0 -0.00000000000E+00 -0.00000000000E+00 -0.45593999997E+02  0.45594000000E+02  0.51100000000E-03 0. -1.
    9900012    2    1    2    0    0 -0.36213434509E+00 -0.90273198099E+00  0.66820273339E+00  0.90007931694E+02  0.90000195592E+02 0.  0.
         12    1    1    2    0    0  0.36213434509E+00  0.90273198099E+00 -0.66820273339E+00  0.11800683058E+01  0.00000000000E+00 0. -1.
         11    1    3    3    0    0  0.12962327956E+02  0.78579166690E+01 -0.32618030997E+02  0.35968107356E+02  0.51100000000E-03 0. -1.
        -11    1    3    3    0    0  0.12503699060E+02 -0.14538086942E+01  0.18825906530E+01  0.12727929828E+02  0.51100000000E-03 0.  1.
        -12    1    3    3    0    0 -0.25828161361E+02 -0.73068399558E+01  0.31403643078E+02  0.41311894509E+02  0.00000000000E+00 0.  1.
</event>
<event>
 7    1  0.2148778E-015  0.9000775E+02  0.7816164E-02  0.1186339E+00
        -11   -1    0    0    0    0  0.00000000000E+00  0.00000000000E+00  0.45593999997E+02  0.45594000000E+02  0.51100000000E-03 0. -1.
         11   -1    0    0    0    0 -0.00000000000E+00 -0.00000000000E+00 -0.45593999997E+02  0.45594000000E+02  0.51100000000E-03 0.  1.
    9900012    2    1    2    0    0  0.56457492384E+00  0.49007740372E+00 -0.91327352035E+00  0.90007750353E+02  0.90000011858E+02 0.  0.
         12    1    1    2    0    0 -0.56457492384E+00 -0.49007740372E+00  0.91327352035E+00  0.11802496470E+01  0.00000000000E+00 0. -1.
         11    1    3    3    0    0  0.68328499244E-01 -0.62107904329E+01  0.57347856855E+01  0.84537774814E+01  0.51100000000E-03 0. -1.
        -11    1    3    3    0    0  0.91925379868E+01 -0.36118224281E+02  0.53897890035E+00  0.37273574800E+02  0.51100000000E-03 0.  1.
         12    1    3    3    0    0 -0.86962915622E+01  0.42819092117E+02 -0.71870381062E+01  0.44280398072E+02  0.00000000000E+00 0. -1.
</event>
<event>
 7    1  0.2148778E-015  0.9000781E+02  0.7816164E-02  0.1186339E+00
        -11   -1    0    0    0    0  0.00000000000E+00  0.00000000000E+00  0.45593999997E+02  0.45594000000E+02  0.51100000000E-03 0.  1.
         11   -1    0    0    0    0 -0.00000000000E+00 -0.00000000000E+00 -0.45593999997E+02  0.45594000000E+02  0.51100000000E-03 0. -1.
    9900012    2    1    2    0    0 -0.11540678711E+01  0.81027492447E-01 -0.23326040256E+00  0.90007809964E+02  0.90000072256E+02 0.  0.
         12    1    1    2    0    0  0.11540678711E+01 -0.81027492447E-01  0.23326040256E+00  0.11801900359E+01  0.00000000000E+00 0. -1.
         11    1    3    3    0    0  0.28312725562E+02  0.24149928289E+02 -0.10299516406E+02  0.38612297310E+02  0.51100000000E-03 0. -1.
        -11    1    3    3    0    0  0.73943744440E+01 -0.46744272121E+01  0.17842736349E+01  0.89280835483E+01  0.51100000000E-03 0.  1.
        -12    1    3    3    0    0 -0.36861167877E+02 -0.19394473584E+02  0.82819823682E+01  0.42467429106E+02  0.00000000000E+00 0.  1.
</event>
<event>
 7    1  0.2148778E-015  0.9000776E+02  0.7816164E-02  0.1186339E+00
        -11   -1    0    0    0    0  0.00000000000E+00  0.00000000000E+00  0.45593999997E+02  0.45594000000E+02  0.51100000000E-03 0. -1.
         11   -1    0    0    0    0 -0.00000000000E+00 -0.00000000000E+00 -0.45593999997E+02  0.45594000000E+02  0.51100000000E-03 0.  1.
    9900012    2    1    2    0    0 -0.49029168478E+00  0.87549317133E+00 -0.62135521926E+00  0.90007764202E+02  0.90000025890E+02 0.  0.
         12    1    1    2    0    0  0.49029168478E+00 -0.87549317133E+00  0.62135521926E+00  0.11802357975E+01  0.00000000000E+00 0. -1.
         11    1    3    3    0    0 -0.61430029780E-01 -0.48776002021E+01 -0.60208868415E+01  0.77489248286E+01  0.51100000000E-03 0. -1.
        -11    1    3    3    0    0 -0.32106928328E+02 -0.15791840702E+02 -0.15068068682E+02  0.38823752697E+02  0.51100000000E-03 0.  1.
         12    1    3    3    0    0  0.31678066673E+02  0.21544934075E+02  0.20467600304E+02  0.43435086677E+02  0.00000000000E+00 0. -1.
</event>
<event>
 7    1  0.2148778E-015  0.9000775E+02  0.7816164E-02  0.1186339E+00
        -11   -1    0    0    0    0  0.00000000000E+00  0.00000000000E+00  0.45593999997E+02  0.45594000000E+02  0.51100000000E-03 0.  1.
         11   -1    0    0    0    0 -0.00000000000E+00 -0.00000000000E+00 -0.45593999997E+02  0.45594000000E+02  0.51100000000E-03 0. -1.
    9900012    2    1    2    0    0 -0.87666179562E+00  0.48276323279E+00 -0.62562197707E+00  0.90007746171E+02  0.90000007620E+02 0.  0.
         12    1    1    2    0    0  0.87666179562E+00 -0.48276323279E+00  0.62562197707E+00  0.11802538291E+01  0.00000000000E+00 0. -1.
         11    1    3    3    0    0 -0.25892382769E+00 -0.21332831437E+01 -0.97852736330E+00  0.23612400517E+01  0.51100000000E-03 0. -1.
        -11    1    3    3    0    0 -0.23387165362E+02 -0.33115208966E+02  0.14379466636E+02  0.43015644009E+02  0.51100000000E-03 0.  1.
         12    1    3    3    0    0  0.22769427394E+02  0.35731255342E+02 -0.14026561250E+02  0.44630862110E+02  0.00000000000E+00 0. -1.
</event>
<event>
 8    1  0.2148778E-015  0.9000770E+02  0.7816164E-02  0.1186339E+00
        -11   -1    0    0    0    0  0.00000000000E+00  0.00000000000E+00  0.45593999997E+02  0.45594000000E+02  0.51100000000E-03 0. -1.
         11   -1    0    0    0    0 -0.00000000000E+00 -0.00000000000E+00 -0.45593999997E+02  0.45594000000E+02  0.51100000000E-03 0.  1.
    9900012    2    1    2    0    0 -0.11035268040E+01  0.37250494430E+00  0.19123599607E+00  0.90007702348E+02  0.89999963219E+02 0.  0.
         23    2    3    3    0    0 -0.96707004009E+01 -0.23755371988E+02  0.93137987153E+00  0.64393278255E+02  0.59057486159E+02 0.  0.
         12    1    1    2    0    0  0.11035268040E+01 -0.37250494430E+00 -0.19123599607E+00  0.11802976519E+01  0.00000000000E+00 0. -1.
         11    1    4    4    0    0 -0.29595851197E+02 -0.30283125833E+02  0.61460973756E+01  0.42787341954E+02  0.51100000000E-03 0. -1.
        -11    1    4    4    0    0  0.19925150796E+02  0.65277538454E+01 -0.52147175041E+01  0.21605936300E+02  0.51100000000E-03 0.  1.
        -12    1    3    3    0    0  0.85671735969E+01  0.24127876932E+02 -0.74014387546E+00  0.25614424094E+02  0.00000000000E+00 0.  1.
</event>
<event>
 7    1  0.2148778E-015  0.9000779E+02  0.7816164E-02  0.1186339E+00
        -11   -1    0    0    0    0  0.00000000000E+00  0.00000000000E+00  0.45593999997E+02  0.45594000000E+02  0.51100000000E-03 0.  1.
         11   -1    0    0    0    0 -0.00000000000E+00 -0.00000000000E+00 -0.45593999997E+02  0.45594000000E+02  0.51100000000E-03 0. -1.
    9900012    2    1    2    0    0  0.65947413812E+00 -0.46923690189E+00 -0.85894969540E+00  0.90007794938E+02  0.90000057031E+02 0.  0.
         12    1    1    2    0    0 -0.65947413812E+00  0.46923690189E+00  0.85894969540E+00  0.11802050619E+01  0.00000000000E+00 0. -1.
         11    1    3    3    0    0 -0.23370948570E+02 -0.22722911840E+02  0.14047086084E+02  0.35494402196E+02  0.51100000000E-03 0. -1.
        -11    1    3    3    0    0  0.41242605866E+01 -0.57173870658E+01  0.99032356234E+01  0.12156155491E+02  0.51100000000E-03 0.  1.
        -12    1    3    3    0    0  0.19906162121E+02  0.27971062004E+02 -0.24809271403E+02  0.42357237251E+02  0.00000000000E+00 0.  1.
</event>
<event>
 7    1  0.2148778E-015  0.9000771E+02  0.7816164E-02  0.1186339E+00
        -11   -1    0    0    0    0  0.00000000000E+00  0.00000000000E+00  0.45593999997E+02  0.45594000000E+02  0.51100000000E-03 0. -1.
         11   -1    0    0    0    0 -0.00000000000E+00 -0.00000000000E+00 -0.45593999997E+02  0.45594000000E+02  0.51100000000E-03 0.  1.
    9900012    2    1    2    0    0  0.23713185362E+00 -0.96110702340E+00 -0.64274002137E+00  0.90007714881E+02  0.89999975918E+02 0.  0.
         12    1    1    2    0    0 -0.23713185362E+00  0.96110702340E+00  0.64274002137E+00  0.11802851187E+01  0.00000000000E+00 0. -1.
         11    1    3    3    0    0  0.25890734906E+02  0.13281771048E+02 -0.10771373100E+01  0.29118650745E+02  0.51100000000E-03 0. -1.
        -11    1    3    3    0    0  0.14875244710E+02  0.53442064731E+01  0.13715759241E+01  0.15865518233E+02  0.51100000000E-03 0.  1.
        -12    1    3    3    0    0 -0.40528847763E+02 -0.19587084544E+02 -0.93717863543E+00  0.45023545904E+02  0.00000000000E+00 0.  1.
</event>
<event>
 7    1  0.2761415E-015  0.9000773E+02  0.7816164E-02  0.1186339E+00
        -11   -1    0    0    0    0  0.00000000000E+00  0.00000000000E+00  0.45593999997E+02  0.45594000000E+02  0.51100000000E-03 0. -1.
         11   -1    0    0    0    0 -0.00000000000E+00 -0.00000000000E+00 -0.45593999997E+02  0.45594000000E+02  0.51100000000E-03 0.  1.
    9900012    2    1    2    0    0 -0.48454781117E+00  0.86218814230E+00 -0.64411499031E+00  0.90007729228E+02  0.89999990454E+02 0.  0.
         12    1    1    2    0    0  0.48454781117E+00 -0.86218814230E+00  0.64411499031E+00  0.11802707718E+01  0.00000000000E+00 0. -1.
         11    1    3    3    0    0  0.22500577439E+01  0.72430830049E+01  0.54990027604E+01  0.93682465214E+01  0.51100000000E-03 0. -1.
        -11    1    3    3    0    0  0.30594689590E+02  0.32230097297E+01 -0.26342358500E+02  0.40501144112E+02  0.51100000000E-03 0.  1.
         12    1    3    3    0    0 -0.33329295145E+02 -0.96039045923E+01  0.20199240750E+02  0.40138338594E+02  0.00000000000E+00 0. -1.
</event>
<event>
 7    1  0.2148778E-015  0.9000763E+02  0.7816164E-02  0.1186339E+00
        -11   -1    0    0    0    0  0.00000000000E+00  0.00000000000E+00  0.45593999997E+02  0.45594000000E+02  0.51100000000E-03 0.  1.
         11   -1    0    0    0    0 -0.00000000000E+00 -0.00000000000E+00 -0.45593999997E+02  0.45594000000E+02  0.51100000000E-03 0. -1.
    9900012    2    1    2    0    0 -0.94247556161E+00  0.59181096770E+00 -0.39339985929E+00  0.90007634016E+02  0.89999893985E+02 0.  0.
         12    1    1    2    0    0  0.94247556161E+00 -0.59181096770E+00  0.39339985929E+00  0.11803659835E+01  0.00000000000E+00 0. -1.
         11    1    3    3    0    0  0.36165604234E+01 -0.62351770986E+01  0.58073987342E+01  0.92565016646E+01  0.51100000000E-03 0. -1.
        -11    1    3    3    0    0  0.61618599311E+01 -0.35909603599E+02 -0.19695125065E+01  0.36487629798E+02  0.51100000000E-03 0.  1.
         12    1    3    3    0    0 -0.10720895916E+02  0.42736591666E+02 -0.42312860870E+01  0.44263502554E+02  0.00000000000E+00 0. -1.
</event>
<event>
 7    1  0.2148778E-015  0.9000777E+02  0.7816164E-02  0.1186339E+00
        -11   -1    0    0    0    0  0.00000000000E+00  0.00000000000E+00  0.45593999997E+02  0.45594000000E+02  0.51100000000E-03 0.  1.
         11   -1    0    0    0    0 -0.00000000000E+00 -0.00000000000E+00 -0.45593999997E+02  0.45594000000E+02  0.51100000000E-03 0. -1.
    9900012    2    1    2    0    0 -0.87181225034E+00  0.17844236687E+00  0.77527491137E+00  0.90007767198E+02  0.90000028925E+02 0.  0.
         12    1    1    2    0    0  0.87181225034E+00 -0.17844236687E+00 -0.77527491137E+00  0.11802328018E+01  0.00000000000E+00 0. -1.
         11    1    3    3    0    0  0.43522196133E+01 -0.79729448636E+01  0.15213087867E+01  0.92099970709E+01  0.51100000000E-03 0. -1.
        -11    1    3    3    0    0 -0.30049397260E+02 -0.25040154120E+02  0.26887606010E+01  0.39207206326E+02  0.51100000000E-03 0.  1.
         12    1    3    3    0    0  0.24825365396E+02  0.33191541350E+02 -0.34347944763E+01  0.41590563802E+02  0.00000000000E+00 0. -1.
</event>
<event>
 7    1  0.2148778E-015  0.9000783E+02  0.7816164E-02  0.1186339E+00
        -11   -1    0    0    0    0  0.00000000000E+00  0.00000000000E+00  0.45593999997E+02  0.45594000000E+02  0.51100000000E-03 0.  1.
         11   -1    0    0    0    0 -0.00000000000E+00 -0.00000000000E+00 -0.45593999997E+02  0.45594000000E+02  0.51100000000E-03 0. -1.
    9900012    2    1    2    0    0 -0.32272406726E+00  0.23000173814E+00  0.11116401305E+01  0.90007832468E+02  0.90000095057E+02 0.  0.
         12    1    1    2    0    0  0.32272406726E+00 -0.23000173814E+00 -0.11116401305E+01  0.11801675317E+01  0.00000000000E+00 0. -1.
         11    1    3    3    0    0 -0.59346349431E+01 -0.40887474576E+01  0.46038331496E+01  0.85517850540E+01  0.51100000000E-03 0. -1.
        -11    1    3    3    0    0 -0.26940067159E+02  0.35449900227E+00  0.25934293185E+02  0.37396262532E+02  0.51100000000E-03 0.  1.
         12    1    3    3    0    0  0.32551978035E+02  0.39642501934E+01 -0.29426486204E+02  0.44059784883E+02  0.00000000000E+00 0. -1.
</event>
<event>
 7    1  0.2148778E-015  0.9000748E+02  0.7816164E-02  0.1186340E+00
        -11   -1    0    0    0    0  0.00000000000E+00  0.00000000000E+00  0.45593999997E+02  0.45594000000E+02  0.51100000000E-03 0.  1.
         11   -1    0    0    0    0 -0.00000000000E+00 -0.00000000000E+00 -0.45593999997E+02  0.45594000000E+02  0.51100000000E-03 0. -1.
    9900012    2    1    2    0    0 -0.76614873779E+00  0.37669580594E+00  0.81532182826E+00  0.90007477530E+02  0.89999735433E+02 0.  0.
         12    1    1    2    0    0  0.76614873779E+00 -0.37669580594E+00 -0.81532182826E+00  0.11805224700E+01  0.00000000000E+00 0. -1.
         11    1    3    3    0    0 -0.62759266251E+01 -0.12437885474E+01 -0.78171961988E+01  0.10101624702E+02  0.51100000000E-03 0. -1.
        -11    1    3    3    0    0  0.16586778075E+02 -0.35444081127E+02 -0.36887964474E+01  0.39306631926E+02  0.51100000000E-03 0.  1.
         12    1    3    3    0    0 -0.11077000188E+02  0.37064565481E+02  0.12321314474E+02  0.40599220902E+02  0.00000000000E+00 0. -1.
</event>
<event>
 7    1  0.2148778E-015  0.9000778E+02  0.7816164E-02  0.1186339E+00
        -11   -1    0    0    0    0  0.00000000000E+00  0.00000000000E+00  0.45593999997E+02  0.45594000000E+02  0.51100000000E-03 0.  1.
         11   -1    0    0    0    0 -0.00000000000E+00 -0.00000000000E+00 -0.45593999997E+02  0.45594000000E+02  0.51100000000E-03 0. -1.
    9900012    2    1    2    0    0 -0.96601720289E+00 -0.31813732983E+00  0.59877168846E+00  0.90007776237E+02  0.90000038083E+02 0.  0.
         12    1    1    2    0    0  0.96601720289E+00  0.31813732983E+00 -0.59877168846E+00  0.11802237635E+01  0.00000000000E+00 0. -1.
         11    1    3    3    0    0  0.69601092371E+01  0.66388432376E+01 -0.62285671109E+01  0.11459162650E+02  0.51100000000E-03 0. -1.
        -11    1    3    3    0    0  0.11399556407E+02  0.30078234453E+02 -0.97411169638E+01  0.33608621425E+02  0.51100000000E-03 0.  1.
         12    1    3    3    0    0 -0.19325682847E+02 -0.37035215021E+02  0.16568455763E+02  0.44939992162E+02  0.00000000000E+00 0. -1.
</event>
<event>
 7    1  0.2148778E-015  0.9000773E+02  0.7816164E-02  0.1186339E+00
        -11   -1    0    0    0    0  0.00000000000E+00  0.00000000000E+00  0.45593999997E+02  0.45594000000E+02  0.51100000000E-03 0.  1.
         11   -1    0    0    0    0 -0.00000000000E+00 -0.00000000000E+00 -0.45593999997E+02  0.45594000000E+02  0.51100000000E-03 0. -1.
    9900012    2    1    2    0    0 -0.57014763849E+00  0.63823204426E+00  0.81279257026E+00  0.90007728745E+02  0.89999989965E+02 0.  0.
         12    1    1    2    0    0  0.57014763849E+00 -0.63823204426E+00 -0.81279257026E+00  0.11802712545E+01  0.00000000000E+00 0. -1.
         11    1    3    3    0    0  0.32026615313E+02 -0.11787343178E+02 -0.16006288581E+02  0.37694121850E+02  0.51100000000E-03 0. -1.
        -11    1    3    3    0    0  0.76488444002E+01  0.23375765994E+01  0.18860335870E+01  0.82174331740E+01  0.51100000000E-03 0.  1.
        -12    1    3    3    0    0 -0.40245607352E+02  0.10087998623E+02  0.14933047564E+02  0.44096173722E+02  0.00000000000E+00 0.  1.
</event>
<event>
 7    1  0.2148778E-015  0.9000786E+02  0.7816164E-02  0.1186339E+00
        -11   -1    0    0    0    0  0.00000000000E+00  0.00000000000E+00  0.45593999997E+02  0.45594000000E+02  0.51100000000E-03 0.  1.
         11   -1    0    0    0    0 -0.00000000000E+00 -0.00000000000E+00 -0.45593999997E+02  0.45594000000E+02  0.51100000000E-03 0. -1.
    9900012    2    1    2    0    0 -0.32738592926E+00  0.29013225170E+00  0.10960679200E+01  0.90007863078E+02  0.90000126070E+02 0.  0.
         12    1    1    2    0    0  0.32738592926E+00 -0.29013225170E+00 -0.10960679200E+01  0.11801369223E+01  0.00000000000E+00 0. -1.
         11    1    3    3    0    0 -0.24112270218E+00  0.99025681400E+01  0.67941780687E+00  0.99287765985E+01  0.51100000000E-03 0. -1.
        -11    1    3    3    0    0 -0.99588097222E+01 -0.28013555874E+02  0.31060591045E+02  0.42996482648E+02  0.51100000000E-03 0.  1.
         12    1    3    3    0    0  0.98725464951E+01  0.18401119986E+02 -0.30643940932E+02  0.37082603831E+02  0.00000000000E+00 0. -1.
</event>
<event>
 7    1  0.2148778E-015  0.9000771E+02  0.7816164E-02  0.1186339E+00
        -11   -1    0    0    0    0  0.00000000000E+00  0.00000000000E+00  0.45593999997E+02  0.45594000000E+02  0.51100000000E-03 0.  1.
         11   -1    0    0    0    0 -0.00000000000E+00 -0.00000000000E+00 -0.45593999997E+02  0.45594000000E+02  0.51100000000E-03 0. -1.
    9900012    2    1    2    0    0  0.37067303409E+00 -0.53266304901E+00  0.98587593776E+00  0.90007711990E+02  0.89999972988E+02 0.  0.
         12    1    1    2    0    0 -0.37067303409E+00  0.53266304901E+00 -0.98587593776E+00  0.11802880100E+01  0.00000000000E+00 0. -1.
         11    1    3    3    0    0 -0.60147198130E+01  0.72019972551E+01 -0.31089613825E+01  0.98849006080E+01  0.51100000000E-03 0. -1.
        -11    1    3    3    0    0 -0.27124304225E+02 -0.97121994303E+01 -0.23094804635E+02  0.36924581228E+02  0.51100000000E-03 0.  1.
         12    1    3    3    0    0  0.33509697072E+02  0.19775391263E+01  0.27189641955E+02  0.43198230154E+02  0.00000000000E+00 0. -1.
</event>
<event>
 7    1  0.2148778E-015  0.9000757E+02  0.7816164E-02  0.1186339E+00
        -11   -1    0    0    0    0  0.00000000000E+00  0.00000000000E+00  0.45593999997E+02  0.45594000000E+02  0.51100000000E-03 0. -1.
         11   -1    0    0    0    0 -0.00000000000E+00 -0.00000000000E+00 -0.45593999997E+02  0.45594000000E+02  0.51100000000E-03 0.  1.
    9900012    2    1    2    0    0 -0.34934124014E+00  0.11067712613E+01 -0.21549552338E+00  0.90007567771E+02  0.89999826865E+02 0.  0.
         12    1    1    2    0    0  0.34934124014E+00 -0.11067712613E+01  0.21549552338E+00  0.11804322291E+01  0.00000000000E+00 0. -1.
         11    1    3    3    0    0  0.18087950762E+02  0.11808665647E+02  0.36200142850E+02  0.42155294920E+02  0.51100000000E-03 0. -1.
        -11    1    3    3    0    0  0.22900443918E+01  0.43579399629E+01 -0.94531111936E+01  0.10658201327E+02  0.51100000000E-03 0.  1.
        -12    1    3    3    0    0 -0.20727336394E+02 -0.15059834348E+02 -0.26962527180E+02  0.37194071524E+02  0.00000000000E+00 0.  1.
</event>
<event>
 7    1  0.2148778E-015  0.9000777E+02  0.7816164E-02  0.1186339E+00
        -11   -1    0    0    0    0  0.00000000000E+00  0.00000000000E+00  0.45593999997E+02  0.45594000000E+02  0.51100000000E-03 0. -1.
         11   -1    0    0    0    0 -0.00000000000E+00 -0.00000000000E+00 -0.45593999997E+02  0.45594000000E+02  0.51100000000E-03 0.  1.
    9900012    2    1    2    0    0 -0.79137904700E+00 -0.79819473799E-01 -0.87194595576E+00  0.90007770491E+02  0.90000032261E+02 0.  0.
         12    1    1    2    0    0  0.79137904700E+00  0.79819473799E-01  0.87194595576E+00  0.11802295091E+01  0.00000000000E+00 0. -1.
         11    1    3    3    0    0 -0.11089489777E+02  0.40120177202E+02 -0.88255970727E+01  0.42549930273E+02  0.51100000000E-03 0. -1.
        -11    1    3    3    0    0  0.27065408953E+01 -0.52626868555E+01 -0.65928536901E+01  0.88592864609E+01  0.51100000000E-03 0.  1.
        -12    1    3    3    0    0  0.75915698346E+01 -0.34937309821E+02  0.14546504807E+02  0.38598553757E+02  0.00000000000E+00 0.  1.
</event>
<event>
 7    1  0.2148778E-015  0.9000773E+02  0.7816164E-02  0.1186339E+00
        -11   -1    0    0    0    0  0.00000000000E+00  0.00000000000E+00  0.45593999997E+02  0.45594000000E+02  0.51100000000E-03 0.  1.
         11   -1    0    0    0    0 -0.00000000000E+00 -0.00000000000E+00 -0.45593999997E+02  0.45594000000E+02  0.51100000000E-03 0. -1.
    9900012    2    1    2    0    0 -0.98294556448E+00  0.24317194876E+00  0.60639722066E+00  0.90007732162E+02  0.89999993427E+02 0.  0.
         12    1    1    2    0    0  0.98294556448E+00 -0.24317194876E+00 -0.60639722066E+00  0.11802678377E+01  0.00000000000E+00 0. -1.
         11    1    3    3    0    0  0.86754228867E+01 -0.28183172353E+02 -0.21958646287E+02  0.36765966779E+02  0.51100000000E-03 0. -1.
        -11    1    3    3    0    0  0.86560573272E+00 -0.89854323988E+01  0.18977356615E+01  0.92243519870E+01  0.51100000000E-03 0.  1.
        -12    1    3    3    0    0 -0.10523974184E+02  0.37411776701E+02  0.20667307846E+02  0.44017413397E+02  0.00000000000E+00 0.  1.
</event>
<event>
 7    1  0.2148778E-015  0.9000772E+02  0.7816164E-02  0.1186339E+00
        -11   -1    0    0    0    0  0.00000000000E+00  0.00000000000E+00  0.45593999997E+02  0.45594000000E+02  0.51100000000E-03 0.  1.
         11   -1    0    0    0    0 -0.00000000000E+00 -0.00000000000E+00 -0.45593999997E+02  0.45594000000E+02  0.51100000000E-03 0. -1.
    9900012    2    1    2    0    0  0.45954478446E+00 -0.10428960138E+01  0.30701386585E+00  0.90007715704E+02  0.89999976752E+02 0.  0.
         12    1    1    2    0    0 -0.45954478446E+00  0.10428960138E+01 -0.30701386585E+00  0.11802842955E+01  0.00000000000E+00 0. -1.
         11    1    3    3    0    0 -0.24175518089E+01 -0.55452333234E+01  0.20795444472E+01  0.63967706485E+01  0.51100000000E-03 0. -1.
        -11    1    3    3    0    0  0.55683011665E+01 -0.35637765308E+02  0.16209317376E+02  0.39544889229E+02  0.51100000000E-03 0.  1.
         12    1    3    3    0    0 -0.26912045731E+01  0.40140102618E+02 -0.17981847957E+02  0.44066055827E+02  0.00000000000E+00 0. -1.
</event>
<event>
 7    1  0.2148778E-015  0.9000768E+02  0.7816164E-02  0.1186339E+00
        -11   -1    0    0    0    0  0.00000000000E+00  0.00000000000E+00  0.45593999997E+02  0.45594000000E+02  0.51100000000E-03 0.  1.
         11   -1    0    0    0    0 -0.00000000000E+00 -0.00000000000E+00 -0.45593999997E+02  0.45594000000E+02  0.51100000000E-03 0. -1.
    9900012    2    1    2    0    0 -0.55573833499E+00  0.25954808780E-01  0.10409835550E+01  0.90007675676E+02  0.89999936194E+02 0.  0.
         12    1    1    2    0    0  0.55573833499E+00 -0.25954808780E-01 -0.10409835550E+01  0.11803243244E+01  0.00000000000E+00 0. -1.
         11    1    3    3    0    0 -0.41025559666E+01  0.61792699868E+01  0.53919964496E+01  0.91699492366E+01  0.51100000000E-03 0. -1.
        -11    1    3    3    0    0 -0.19153732427E+02  0.70697322983E+01  0.30801089063E+02  0.36953398604E+02  0.51100000000E-03 0.  1.
         12    1    3    3    0    0  0.22700550058E+02 -0.13223047476E+02 -0.35152101957E+02  0.43884327835E+02  0.00000000000E+00 0. -1.
</event>
<event>
 7    1  0.2148778E-015  0.9000776E+02  0.7816164E-02  0.1186339E+00
        -11   -1    0    0    0    0  0.00000000000E+00  0.00000000000E+00  0.45593999997E+02  0.45594000000E+02  0.51100000000E-03 0. -1.
         11   -1    0    0    0    0 -0.00000000000E+00 -0.00000000000E+00 -0.45593999997E+02  0.45594000000E+02  0.51100000000E-03 0.  1.
    9900012    2    1    2    0    0  0.38659480978E+00  0.10792247201E+01  0.28068557221E+00  0.90007760222E+02  0.90000021857E+02 0.  0.
         12    1    1    2    0    0 -0.38659480978E+00 -0.10792247201E+01 -0.28068557221E+00  0.11802397781E+01  0.00000000000E+00 0. -1.
         11    1    3    3    0    0 -0.44504474235E+01  0.71718105459E+01  0.17209752227E+00  0.84422133706E+01  0.51100000000E-03 0. -1.
        -11    1    3    3    0    0  0.14302019387E+02  0.34911875049E+02 -0.83510420029E+01  0.38640997409E+02  0.51100000000E-03 0.  1.
         12    1    3    3    0    0 -0.94649771535E+01 -0.41004460875E+02  0.84596300529E+01  0.42924549442E+02  0.00000000000E+00 0. -1.
</event>
<event>
 7    1  0.2148778E-015  0.9000779E+02  0.7816164E-02  0.1186339E+00
        -11   -1    0    0    0    0  0.00000000000E+00  0.00000000000E+00  0.45593999997E+02  0.45594000000E+02  0.51100000000E-03 0.  1.
         11   -1    0    0    0    0 -0.00000000000E+00 -0.00000000000E+00 -0.45593999997E+02  0.45594000000E+02  0.51100000000E-03 0. -1.
    9900012    2    1    2    0    0  0.30906588516E+00  0.23987114033E+00  0.11134756252E+01  0.90007793301E+02  0.90000055372E+02 0.  0.
         12    1    1    2    0    0 -0.30906588516E+00 -0.23987114033E+00 -0.11134756252E+01  0.11802066993E+01  0.00000000000E+00 0. -1.
         11    1    3    3    0    0 -0.15058585046E+02  0.44145910289E+01 -0.35956745683E+02  0.39231838574E+02  0.51100000000E-03 0. -1.
        -11    1    3    3    0    0 -0.85872640856E+01 -0.18582822839E+01  0.34713541265E+01  0.94469369245E+01  0.51100000000E-03 0.  1.
        -12    1    3    3    0    0  0.23954915017E+02 -0.23164376047E+01  0.33598867181E+02  0.41329017802E+02  0.00000000000E+00 0.  1.
</event>
<event>
 7    1  0.2148778E-015  0.9000771E+02  0.7816164E-02  0.1186339E+00
        -11   -1    0    0    0    0  0.00000000000E+00  0.00000000000E+00  0.45593999997E+02  0.45594000000E+02  0.51100000000E-03 0.  1.
         11   -1    0    0    0    0 -0.00000000000E+00 -0.00000000000E+00 -0.45593999997E+02  0.45594000000E+02  0.51100000000E-03 0. -1.
    9900012    2    1    2    0    0 -0.82352699991E+00  0.83619199646E+00  0.12513870594E+00  0.90007714666E+02  0.89999975699E+02 0.  0.
         12    1    1    2    0    0  0.82352699991E+00 -0.83619199646E+00 -0.12513870594E+00  0.11802853343E+01  0.00000000000E+00 0. -1.
         11    1    3    3    0    0  0.76690924178E+01 -0.10439538651E+02 -0.54737264119E+01  0.14062738953E+02  0.51100000000E-03 0. -1.
        -11    1    3    3    0    0  0.30180207927E+02  0.19799444294E+02  0.39343970735E+01  0.36308985464E+02  0.51100000000E-03 0.  1.
         12    1    3    3    0    0 -0.38672827344E+02 -0.85237136465E+01  0.16644680443E+01  0.39635990249E+02  0.00000000000E+00 0. -1.
</event>
<event>
 7    1  0.2148778E-015  0.9000770E+02  0.7816164E-02  0.1186339E+00
        -11   -1    0    0    0    0  0.00000000000E+00  0.00000000000E+00  0.45593999997E+02  0.45594000000E+02  0.51100000000E-03 0.  1.
         11   -1    0    0    0    0 -0.00000000000E+00 -0.00000000000E+00 -0.45593999997E+02  0.45594000000E+02  0.51100000000E-03 0. -1.
    9900012    2    1    2    0    0  0.29715585007E+00  0.95527569847E+00  0.62630872655E+00  0.90007696700E+02  0.89999957496E+02 0.  0.
         12    1    1    2    0    0 -0.29715585007E+00 -0.95527569847E+00 -0.62630872655E+00  0.11803033001E+01  0.00000000000E+00 0. -1.
         11    1    3    3    0    0  0.91228969656E+01 -0.52152006154E+01  0.37414437368E+01  0.11154549206E+02  0.51100000000E-03 0. -1.
        -11    1    3    3    0    0 -0.39523778291E+02  0.11317692648E+02  0.13876268687E+02  0.43390898241E+02  0.51100000000E-03 0.  1.
         12    1    3    3    0    0  0.30698037175E+02 -0.51472163337E+01 -0.16991403697E+02  0.35462249252E+02  0.00000000000E+00 0. -1.
</event>
<event>
 7    1  0.2148778E-015  0.9000776E+02  0.7816164E-02  0.1186339E+00
        -11   -1    0    0    0    0  0.00000000000E+00  0.00000000000E+00  0.45593999997E+02  0.45594000000E+02  0.51100000000E-03 0.  1.
         11   -1    0    0    0    0 -0.00000000000E+00 -0.00000000000E+00 -0.45593999997E+02  0.45594000000E+02  0.51100000000E-03 0. -1.
    9900012    2    1    2    0    0  0.15137414982E+00 -0.11621655373E+01 -0.13938687748E+00  0.90007757834E+02  0.90000019437E+02 0.  0.
         12    1    1    2    0    0 -0.15137414982E+00  0.11621655373E+01  0.13938687748E+00  0.11802421662E+01  0.00000000000E+00 0. -1.
         11    1    3    3    0    0 -0.32121969570E+01 -0.30101036978E+01 -0.11708640536E+02  0.12508844752E+02  0.51100000000E-03 0. -1.
        -11    1    3    3    0    0  0.39032596556E+02  0.89114906010E+01  0.90697042839E+01  0.41051404296E+02  0.51100000000E-03 0.  1.
         12    1    3    3    0    0 -0.35669025449E+02 -0.70635524404E+01  0.24995493748E+01  0.36447508785E+02  0.00000000000E+00 0. -1.
</event>
<event>
 7    1  0.2148778E-015  0.9000758E+02  0.7816164E-02  0.1186339E+00
        -11   -1    0    0    0    0  0.00000000000E+00  0.00000000000E+00  0.45593999997E+02  0.45594000000E+02  0.51100000000E-03 0.  1.
         11   -1    0    0    0    0 -0.00000000000E+00 -0.00000000000E+00 -0.45593999997E+02  0.45594000000E+02  0.51100000000E-03 0. -1.
    9900012    2    1    2    0    0 -0.43872573790E+00  0.10734672231E+01 -0.22042903341E+00  0.90007575877E+02  0.89999835078E+02 0.  0.
         12    1    1    2    0    0  0.43872573790E+00 -0.10734672231E+01  0.22042903341E+00  0.11804241234E+01  0.00000000000E+00 0. -1.
         11    1    3    3    0    0 -0.22906711483E+02  0.25359289032E+02 -0.18450637897E+02  0.38836027220E+02  0.51100000000E-03 0. -1.
        -11    1    3    3    0    0 -0.42048006355E+01  0.58669787084E+01  0.50594755432E+01  0.88147649193E+01  0.51100000000E-03 0.  1.
        -12    1    3    3    0    0  0.26672786380E+02 -0.30152800518E+02  0.13170733320E+02  0.42356783737E+02  0.00000000000E+00 0.  1.
</event>
<event>
 7    1  0.2148778E-015  0.9000775E+02  0.7816164E-02  0.1186339E+00
        -11   -1    0    0    0    0  0.00000000000E+00  0.00000000000E+00  0.45593999997E+02  0.45594000000E+02  0.51100000000E-03 0.  1.
         11   -1    0    0    0    0 -0.00000000000E+00 -0.00000000000E+00 -0.45593999997E+02  0.45594000000E+02  0.51100000000E-03 0. -1.
    9900012    2    1    2    0    0 -0.67057788284E+00  0.95428163754E+00 -0.18075071115E+00  0.90007746231E+02  0.90000007681E+02 0.  0.
         12    1    1    2    0    0  0.67057788284E+00 -0.95428163754E+00  0.18075071115E+00  0.11802537694E+01  0.00000000000E+00 0. -1.
         11    1    3    3    0    0  0.62718834639E+00  0.31240961419E+01  0.10943600227E+02  0.11398058085E+02  0.51100000000E-03 0. -1.
        -11    1    3    3    0    0 -0.27579145550E+02  0.21575945346E+01  0.22539399719E+02  0.35683175635E+02  0.51100000000E-03 0.  1.
         12    1    3    3    0    0  0.26281379321E+02 -0.43274090390E+01 -0.33663750657E+02  0.42926512510E+02  0.00000000000E+00 0. -1.
</event>
<event>
 7    1  0.2148778E-015  0.9000769E+02  0.7816164E-02  0.1186339E+00
        -11   -1    0    0    0    0  0.00000000000E+00  0.00000000000E+00  0.45593999997E+02  0.45594000000E+02  0.51100000000E-03 0. -1.
         11   -1    0    0    0    0 -0.00000000000E+00 -0.00000000000E+00 -0.45593999997E+02  0.45594000000E+02  0.51100000000E-03 0.  1.
    9900012    2    1    2    0    0 -0.69473498198E+00  0.79403455595E+00  0.52913542034E+00  0.90007689929E+02  0.89999950636E+02 0.  0.
         12    1    1    2    0    0  0.69473498198E+00 -0.79403455595E+00 -0.52913542034E+00  0.11803100712E+01  0.00000000000E+00 0. -1.
         11    1    3    3    0    0 -0.86091694369E+01  0.68346790239E+01  0.18774226023E+02  0.21755509619E+02  0.51100000000E-03 0. -1.
        -11    1    3    3    0    0 -0.19665612351E+02  0.19057574114E+02 -0.16461403908E+01  0.27434234429E+02  0.51100000000E-03 0.  1.
         12    1    3    3    0    0  0.27580046806E+02 -0.25098218582E+02 -0.16598950212E+02  0.40817945881E+02  0.00000000000E+00 0. -1.
</event>
<event>
 7    1  0.2148778E-015  0.9000783E+02  0.7816164E-02  0.1186339E+00
        -11   -1    0    0    0    0  0.00000000000E+00  0.00000000000E+00  0.45593999997E+02  0.45594000000E+02  0.51100000000E-03 0.  1.
         11   -1    0    0    0    0 -0.00000000000E+00 -0.00000000000E+00 -0.45593999997E+02  0.45594000000E+02  0.51100000000E-03 0. -1.
    9900012    2    1    2    0    0 -0.85707546499E+00 -0.71773933130E+00 -0.37824972697E+00  0.90007830115E+02  0.90000092673E+02 0.  0.
         12    1    1    2    0    0  0.85707546499E+00  0.71773933130E+00  0.37824972697E+00  0.11801698845E+01  0.00000000000E+00 0. -1.
         11    1    3    3    0    0 -0.36276764948E+02  0.11031314463E+02  0.61274174280E+01  0.38408837766E+02  0.51100000000E-03 0. -1.
        -11    1    3    3    0    0 -0.50440974891E+01 -0.16210153352E+01 -0.83017016178E+01  0.98482922484E+01  0.51100000000E-03 0.  1.
        -12    1    3    3    0    0  0.40463786972E+02 -0.10128038459E+02  0.17960344628E+01  0.41750700102E+02  0.00000000000E+00 0.  1.
</event>
<event>
 7    1  0.2886976E-015  0.9000774E+02  0.7816164E-02  0.1186339E+00
        -11   -1    0    0    0    0  0.00000000000E+00  0.00000000000E+00  0.45593999997E+02  0.45594000000E+02  0.51100000000E-03 0.  1.
         11   -1    0    0    0    0 -0.00000000000E+00 -0.00000000000E+00 -0.45593999997E+02  0.45594000000E+02  0.51100000000E-03 0. -1.
    9900012    2    1    2    0    0 -0.62416719422E+00 -0.95166744061E+00  0.31264492836E+00  0.90007744750E+02  0.90000006181E+02 0.  0.
         12    1    1    2    0    0  0.62416719422E+00  0.95166744061E+00 -0.31264492836E+00  0.11802552500E+01  0.00000000000E+00 0. -1.
         11    1    3    3    0    0  0.21612606182E+01 -0.77694840373E+01  0.54950633856E+01  0.97586705825E+01  0.51100000000E-03 0. -1.
        -11    1    3    3    0    0 -0.16412815247E+02  0.14176115137E+02  0.32748336418E+02  0.39278445528E+02  0.51100000000E-03 0.  1.
         12    1    3    3    0    0  0.13627387435E+02 -0.73582985407E+01 -0.37930754875E+02  0.40970628639E+02  0.00000000000E+00 0. -1.
</event>
<event>
 7    1  0.2148778E-015  0.9000773E+02  0.7816164E-02  0.1186339E+00
        -11   -1    0    0    0    0  0.00000000000E+00  0.00000000000E+00  0.45593999997E+02  0.45594000000E+02  0.51100000000E-03 0. -1.
         11   -1    0    0    0    0 -0.00000000000E+00 -0.00000000000E+00 -0.45593999997E+02  0.45594000000E+02  0.51100000000E-03 0.  1.
    9900012    2    1    2    0    0 -0.11647975309E+01 -0.14748485520E+00 -0.12050287672E+00  0.90007734770E+02  0.89999996069E+02 0.  0.
         12    1    1    2    0    0  0.11647975309E+01  0.14748485520E+00  0.12050287672E+00  0.11802652303E+01  0.00000000000E+00 0. -1.
         11    1    3    3    0    0  0.94630200265E+01  0.31120712758E+02  0.73664927431E+01  0.33351352689E+02  0.51100000000E-03 0. -1.
        -11    1    3    3    0    0 -0.26714669215E+01 -0.54160123620E+01  0.18308818559E+02  0.19279075774E+02  0.51100000000E-03 0.  1.
        -12    1    3    3    0    0 -0.79563506359E+01 -0.25852185251E+02 -0.25795814178E+02  0.37377306308E+02  0.00000000000E+00 0.  1.
</event>
<event>
 7    1  0.2148778E-015  0.9000779E+02  0.7816164E-02  0.1186339E+00
        -11   -1    0    0    0    0  0.00000000000E+00  0.00000000000E+00  0.45593999997E+02  0.45594000000E+02  0.51100000000E-03 0.  1.
         11   -1    0    0    0    0 -0.00000000000E+00 -0.00000000000E+00 -0.45593999997E+02  0.45594000000E+02  0.51100000000E-03 0. -1.
    9900012    2    1    2    0    0  0.41784344830E+00 -0.77376989330E+00 -0.78713305391E+00  0.90007791781E+02  0.90000053833E+02 0.  0.
         12    1    1    2    0    0 -0.41784344830E+00  0.77376989330E+00  0.78713305391E+00  0.11802082188E+01  0.00000000000E+00 0. -1.
         11    1    3    3    0    0 -0.27696152389E+02  0.52388609568E+01 -0.24954666105E+02  0.37646485652E+02  0.51100000000E-03 0. -1.
        -11    1    3    3    0    0  0.18528252928E+01 -0.44735484887E+01 -0.88846216209E+01  0.10118403987E+02  0.51100000000E-03 0.  1.
        -12    1    3    3    0    0  0.26261170544E+02 -0.15390823614E+01  0.33052154672E+02  0.42242902142E+02  0.00000000000E+00 0.  1.
</event>
<event>
 7    1  0.2148778E-015  0.9000809E+02  0.7816164E-02  0.1186338E+00
        -11   -1    0    0    0    0  0.00000000000E+00  0.00000000000E+00  0.45593999997E+02  0.45594000000E+02  0.51100000000E-03 0. -1.
         11   -1    0    0    0    0 -0.00000000000E+00 -0.00000000000E+00 -0.45593999997E+02  0.45594000000E+02  0.51100000000E-03 0.  1.
    9900012    2    1    2    0    0  0.39967342975E+00  0.93224307926E+00  0.60279766166E+00  0.90008092787E+02  0.90000358812E+02 0.  0.
         12    1    1    2    0    0 -0.39967342975E+00 -0.93224307926E+00 -0.60279766166E+00  0.11799072125E+01  0.00000000000E+00 0. -1.
         11    1    3    3    0    0  0.31022774328E+02  0.20389306601E+02  0.21768291079E+02  0.43034809718E+02  0.51100000000E-03 0. -1.
        -11    1    3    3    0    0 -0.31804623007E+01  0.23817416731E+01 -0.90227236774E+01  0.98588831347E+01  0.51100000000E-03 0.  1.
        -12    1    3    3    0    0 -0.27442638598E+02 -0.21838805195E+02 -0.12142769740E+02  0.37114399935E+02  0.00000000000E+00 0.  1.
</event>
<event>
 7    1  0.2148778E-015  0.9000776E+02  0.7816164E-02  0.1186339E+00
        -11   -1    0    0    0    0  0.00000000000E+00  0.00000000000E+00  0.45593999997E+02  0.45594000000E+02  0.51100000000E-03 0.  1.
         11   -1    0    0    0    0 -0.00000000000E+00 -0.00000000000E+00 -0.45593999997E+02  0.45594000000E+02  0.51100000000E-03 0. -1.
    9900012    2    1    2    0    0  0.95461063752E+00  0.45840909564E+00  0.52110204965E+00  0.90007759468E+02  0.90000021093E+02 0.  0.
         12    1    1    2    0    0 -0.95461063752E+00 -0.45840909564E+00 -0.52110204965E+00  0.11802405324E+01  0.00000000000E+00 0. -1.
         11    1    3    3    0    0 -0.36210117710E+02  0.21352966095E+02  0.40306224233E+01  0.42229938468E+02  0.51100000000E-03 0. -1.
        -11    1    3    3    0    0  0.41444231897E+01 -0.53667267747E+01  0.70599082287E+01  0.97887846186E+01  0.51100000000E-03 0.  1.
        -12    1    3    3    0    0  0.33020305158E+02 -0.15527830225E+02 -0.10569428602E+02  0.37989036381E+02  0.00000000000E+00 0.  1.
</event>
<event>
 7    1  0.2148778E-015  0.9000784E+02  0.7816164E-02  0.1186339E+00
        -11   -1    0    0    0    0  0.00000000000E+00  0.00000000000E+00  0.45593999997E+02  0.45594000000E+02  0.51100000000E-03 0.  1.
         11   -1    0    0    0    0 -0.00000000000E+00 -0.00000000000E+00 -0.45593999997E+02  0.45594000000E+02  0.51100000000E-03 0. -1.
    9900012    2    1    2    0    0 -0.31020358258E+00 -0.11366914273E+01  0.67043655902E-01  0.90007835386E+02  0.90000098013E+02 0.  0.
         12    1    1    2    0    0  0.31020358258E+00  0.11366914273E+01 -0.67043655902E-01  0.11801646137E+01  0.00000000000E+00 0. -1.
         11    1    3    3    0    0 -0.12218874704E+02  0.11365730101E+02 -0.15914698195E+02  0.23059885921E+02  0.51100000000E-03 0. -1.
        -11    1    3    3    0    0  0.21008065862E+02  0.16852114902E+02 -0.78557477708E+01  0.28054329100E+02  0.51100000000E-03 0.  1.
         12    1    3    3    0    0 -0.90993947414E+01 -0.29354536430E+02  0.23837489622E+02  0.38893620366E+02  0.00000000000E+00 0. -1.
</event>
<event>
 7    1  0.2148778E-015  0.9000776E+02  0.7816164E-02  0.1186339E+00
        -11   -1    0    0    0    0  0.00000000000E+00  0.00000000000E+00  0.45593999997E+02  0.45594000000E+02  0.51100000000E-03 0. -1.
         11   -1    0    0    0    0 -0.00000000000E+00 -0.00000000000E+00 -0.45593999997E+02  0.45594000000E+02  0.51100000000E-03 0.  1.
    9900012    2    1    2    0    0 -0.62648215833E+00  0.78260944436E-01 -0.99717798051E+00  0.90007759095E+02  0.90000020715E+02 0.  0.
         12    1    1    2    0    0  0.62648215833E+00 -0.78260944436E-01  0.99717798051E+00  0.11802409055E+01  0.00000000000E+00 0. -1.
         11    1    3    3    0    0  0.25803475610E+01  0.46733776102E+01 -0.12370533220E+02  0.13473260342E+02  0.51100000000E-03 0. -1.
        -11    1    3    3    0    0  0.27534293546E+02 -0.25467494749E+02  0.11976610948E+02  0.39372196026E+02  0.51100000000E-03 0.  1.
         12    1    3    3    0    0 -0.30741123266E+02  0.20872378083E+02 -0.60325570825E+00  0.37162302726E+02  0.00000000000E+00 0. -1.
</event>
<event>
 7    1  0.2148778E-015  0.9000870E+02  0.7816164E-02  0.1186337E+00
        -11   -1    0    0    0    0  0.00000000000E+00  0.00000000000E+00  0.45593999997E+02  0.45594000000E+02  0.51100000000E-03 0.  1.
         11   -1    0    0    0    0 -0.00000000000E+00 -0.00000000000E+00 -0.45593999997E+02  0.45594000000E+02  0.51100000000E-03 0. -1.
    9900012    2    1    2    0    0 -0.86968620438E+00  0.79649330241E+00 -0.34671756648E-03  0.90008696903E+02  0.90000970897E+02 0.  0.
         12    1    1    2    0    0  0.86968620438E+00 -0.79649330241E+00  0.34671756648E-03  0.11793030972E+01  0.00000000000E+00 0. -1.
         11    1    3    3    0    0 -0.37163540067E+02 -0.12659153227E+02 -0.16469848554E+02  0.42575095800E+02  0.51100000000E-03 0. -1.
        -11    1    3    3    0    0  0.19931412475E+01  0.85778340732E+01 -0.56909042549E+00  0.88247217290E+01  0.51100000000E-03 0.  1.
        -12    1    3    3    0    0  0.34300712615E+02  0.48778124564E+01  0.17038592262E+02  0.38608879374E+02  0.00000000000E+00 0.  1.
</event>
<event>
 7    1  0.2148778E-015  0.9000773E+02  0.7816164E-02  0.1186339E+00
        -11   -1    0    0    0    0  0.00000000000E+00  0.00000000000E+00  0.45593999997E+02  0.45594000000E+02  0.51100000000E-03 0.  1.
         11   -1    0    0    0    0 -0.00000000000E+00 -0.00000000000E+00 -0.45593999997E+02  0.45594000000E+02  0.51100000000E-03 0. -1.
    9900012    2    1    2    0    0  0.92720656667E+00 -0.72963172561E+00 -0.31018010984E-01  0.90007730290E+02  0.89999991529E+02 0.  0.
         12    1    1    2    0    0 -0.92720656667E+00  0.72963172561E+00  0.31018010984E-01  0.11802697104E+01  0.00000000000E+00 0. -1.
         11    1    3    3    0    0 -0.36125663736E+02  0.75530497149E+01 -0.54793503925E+01  0.37311331005E+02  0.51100000000E-03 0. -1.
        -11    1    3    3    0    0  0.25599191004E+01  0.11698509236E+02  0.45897466409E+01  0.12824744779E+02  0.51100000000E-03 0.  1.
        -12    1    3    3    0    0  0.34492951203E+02 -0.19981190677E+02  0.85858574056E+00  0.39871654506E+02  0.00000000000E+00 0.  1.
</event>
<event>
 7    1  0.2148778E-015  0.9000774E+02  0.7816164E-02  0.1186339E+00
        -11   -1    0    0    0    0  0.00000000000E+00  0.00000000000E+00  0.45593999997E+02  0.45594000000E+02  0.51100000000E-03 0. -1.
         11   -1    0    0    0    0 -0.00000000000E+00 -0.00000000000E+00 -0.45593999997E+02  0.45594000000E+02  0.51100000000E-03 0.  1.
    9900012    2    1    2    0    0  0.11355908985E+01 -0.32147722510E+00 -0.10052367075E-01  0.90007739289E+02  0.90000000648E+02 0.  0.
         12    1    1    2    0    0 -0.11355908985E+01  0.32147722510E+00  0.10052367075E-01  0.11802607107E+01  0.00000000000E+00 0. -1.
         11    1    3    3    0    0 -0.13617660299E+02 -0.15815529754E+01 -0.44161168595E+01  0.14402918809E+02  0.51100000000E-03 0. -1.
        -11    1    3    3    0    0 -0.28260637780E+02  0.37416923039E+01 -0.99450511659E+01  0.30192183624E+02  0.51100000000E-03 0.  1.
         12    1    3    3    0    0  0.43013888977E+02 -0.24816165536E+01  0.14351115658E+02  0.45412636857E+02  0.00000000000E+00 0. -1.
</event>
<event>
 7    1  0.2148778E-015  0.9000780E+02  0.7816164E-02  0.1186339E+00
        -11   -1    0    0    0    0  0.00000000000E+00  0.00000000000E+00  0.45593999997E+02  0.45594000000E+02  0.51100000000E-03 0. -1.
         11   -1    0    0    0    0 -0.00000000000E+00 -0.00000000000E+00 -0.45593999997E+02  0.45594000000E+02  0.51100000000E-03 0.  1.
    9900012    2    1    2    0    0 -0.58600766017E+00 -0.93432598663E+00 -0.42011477773E+00  0.90007802367E+02  0.90000064558E+02 0.  0.
         12    1    1    2    0    0  0.58600766017E+00  0.93432598663E+00  0.42011477773E+00  0.11801976333E+01  0.00000000000E+00 0. -1.
         11    1    3    3    0    0  0.47518259765E+01 -0.18682595596E+01  0.82850800040E+01  0.97320498779E+01  0.51100000000E-03 0. -1.
        -11    1    3    3    0    0  0.34040912449E+02 -0.15075163946E+02 -0.56709409000E+01  0.37659047510E+02  0.51100000000E-03 0.  1.
         12    1    3    3    0    0 -0.39378746086E+02  0.16009097519E+02 -0.30342538817E+01  0.42616704979E+02  0.00000000000E+00 0. -1.
</event>
<event>
 7    1  0.2148778E-015  0.9000774E+02  0.7816164E-02  0.1186339E+00
        -11   -1    0    0    0    0  0.00000000000E+00  0.00000000000E+00  0.45593999997E+02  0.45594000000E+02  0.51100000000E-03 0.  1.
         11   -1    0    0    0    0 -0.00000000000E+00 -0.00000000000E+00 -0.45593999997E+02  0.45594000000E+02  0.51100000000E-03 0. -1.
    9900012    2    1    2    0    0 -0.60646506292E+00  0.75975974615E+00 -0.66931708264E+00  0.90007737274E+02  0.89999998606E+02 0.  0.
         12    1    1    2    0    0  0.60646506292E+00 -0.75975974615E+00  0.66931708264E+00  0.11802627256E+01  0.00000000000E+00 0. -1.
         11    1    3    3    0    0  0.29702622666E+00  0.11653350339E+02 -0.34893523670E+02  0.36789221154E+02  0.51100000000E-03 0. -1.
        -11    1    3    3    0    0 -0.69055903680E+01  0.14220530894E+01 -0.69043489723E+01  0.98681025690E+01  0.51100000000E-03 0.  1.
        -12    1    3    3    0    0  0.60020990784E+01 -0.12315643682E+02  0.41128555560E+02  0.43350413552E+02  0.00000000000E+00 0.  1.
</event>
<event>
 7    1  0.2148778E-015  0.9000783E+02  0.7816164E-02  0.1186339E+00
        -11   -1    0    0    0    0  0.00000000000E+00  0.00000000000E+00  0.45593999997E+02  0.45594000000E+02  0.51100000000E-03 0. -1.
         11   -1    0    0    0    0 -0.00000000000E+00 -0.00000000000E+00 -0.45593999997E+02  0.45594000000E+02  0.51100000000E-03 0.  1.
    9900012    2    1    2    0    0 -0.13604902457E+00 -0.10603985074E+01  0.49985402902E+00  0.90007826970E+02  0.90000089485E+02 0.  0.
         12    1    1    2    0    0  0.13604902457E+00  0.10603985074E+01 -0.49985402902E+00  0.11801730305E+01  0.00000000000E+00 0. -1.
         11    1    3    3    0    0 -0.44432347362E+01  0.77053597658E+01 -0.20648131110E+01  0.91311750331E+01  0.51100000000E-03 0. -1.
        -11    1    3    3    0    0  0.26831705562E+02  0.26600705914E+02 -0.54908461361E+01  0.38179672210E+02  0.51100000000E-03 0.  1.
         12    1    3    3    0    0 -0.22524519850E+02 -0.35366464188E+02  0.80555132761E+01  0.42696979726E+02  0.00000000000E+00 0. -1.
</event>
<event>
 7    1  0.2148778E-015  0.9000768E+02  0.7816164E-02  0.1186339E+00
        -11   -1    0    0    0    0  0.00000000000E+00  0.00000000000E+00  0.45593999997E+02  0.45594000000E+02  0.51100000000E-03 0.  1.
         11   -1    0    0    0    0 -0.00000000000E+00 -0.00000000000E+00 -0.45593999997E+02  0.45594000000E+02  0.51100000000E-03 0. -1.
    9900012    2    1    2    0    0 -0.30093350097E+00  0.62395546161E+00  0.95565280950E+00  0.90007680686E+02  0.89999941271E+02 0.  0.
         12    1    1    2    0    0  0.30093350097E+00 -0.62395546161E+00 -0.95565280950E+00  0.11803193137E+01  0.00000000000E+00 0. -1.
         11    1    3    3    0    0 -0.55918177360E+00 -0.54169675424E+01 -0.66168659108E+01  0.85696637247E+01  0.51100000000E-03 0. -1.
        -11    1    3    3    0    0 -0.29687381471E+02  0.27673667177E+02 -0.79682543081E+01  0.41360192826E+02  0.51100000000E-03 0.  1.
         12    1    3    3    0    0  0.29945629743E+02 -0.21632744173E+02  0.15540773028E+02  0.40077824136E+02  0.00000000000E+00 0. -1.
</event>
<event>
 7    1  0.2148778E-015  0.9000779E+02  0.7816164E-02  0.1186339E+00
        -11   -1    0    0    0    0  0.00000000000E+00  0.00000000000E+00  0.45593999997E+02  0.45594000000E+02  0.51100000000E-03 0.  1.
         11   -1    0    0    0    0 -0.00000000000E+00 -0.00000000000E+00 -0.45593999997E+02  0.45594000000E+02  0.51100000000E-03 0. -1.
    9900012    2    1    2    0    0 -0.10250914936E+01  0.24508477516E+00  0.53104513422E+00  0.90007793217E+02  0.90000055287E+02 0.  0.
         12    1    1    2    0    0  0.10250914936E+01 -0.24508477516E+00 -0.53104513422E+00  0.11802067835E+01  0.00000000000E+00 0. -1.
         11    1    3    3    0    0 -0.13371321477E+02  0.78693885048E+01  0.34801121930E+01  0.15900650761E+02  0.51100000000E-03 0. -1.
        -11    1    3    3    0    0 -0.26320216101E+02 -0.18275241392E+02  0.69703132433E+01  0.32792125434E+02  0.51100000000E-03 0.  1.
         12    1    3    3    0    0  0.38666446084E+02  0.10650937662E+02 -0.99193803021E+01  0.41315017021E+02  0.00000000000E+00 0. -1.
</event>
<event>
 7    1  0.2148778E-015  0.9000767E+02  0.7816164E-02  0.1186339E+00
        -11   -1    0    0    0    0  0.00000000000E+00  0.00000000000E+00  0.45593999997E+02  0.45594000000E+02  0.51100000000E-03 0. -1.
         11   -1    0    0    0    0 -0.00000000000E+00 -0.00000000000E+00 -0.45593999997E+02  0.45594000000E+02  0.51100000000E-03 0.  1.
    9900012    2    1    2    0    0 -0.10740837717E+01 -0.14519588590E+00 -0.46737463524E+00  0.90007670875E+02  0.89999931330E+02 0.  0.
         12    1    1    2    0    0  0.10740837717E+01  0.14519588590E+00  0.46737463524E+00  0.11803291251E+01  0.00000000000E+00 0. -1.
         11    1    3    3    0    0 -0.31206347365E+02  0.22132401576E+02 -0.23917587007E+01  0.38332751340E+02  0.51100000000E-03 0. -1.
        -11    1    3    3    0    0 -0.23443830670E+01  0.16911019782E+01 -0.93332765727E+01  0.97706708935E+01  0.51100000000E-03 0.  1.
        -12    1    3    3    0    0  0.32476646660E+02 -0.23968699440E+02  0.11257660638E+02  0.41904248641E+02  0.00000000000E+00 0.  1.
</event>
<event>
 7    1  0.2148778E-015  0.9000774E+02  0.7816164E-02  0.1186339E+00
        -11   -1    0    0    0    0  0.00000000000E+00  0.00000000000E+00  0.45593999997E+02  0.45594000000E+02  0.51100000000E-03 0.  1.
         11   -1    0    0    0    0 -0.00000000000E+00 -0.00000000000E+00 -0.45593999997E+02  0.45594000000E+02  0.51100000000E-03 0. -1.
    9900012    2    1    2    0    0 -0.36792949618E+00 -0.74665993693E+00  0.83674345888E+00  0.90007740371E+02  0.90000001744E+02 0.  0.
         12    1    1    2    0    0  0.36792949618E+00  0.74665993693E+00 -0.83674345888E+00  0.11802596289E+01  0.00000000000E+00 0. -1.
         11    1    3    3    0    0  0.42962948892E+01  0.18274008300E+02 -0.13178965360E+02  0.22936491827E+02  0.51100000000E-03 0. -1.
        -11    1    3    3    0    0  0.14580331538E+01  0.48654988767E+01 -0.22468639319E+02  0.23035596218E+02  0.51100000000E-03 0.  1.
        -12    1    3    3    0    0 -0.61222575392E+01 -0.23886167113E+02  0.36484348138E+02  0.44035652326E+02  0.00000000000E+00 0.  1.
</event>
<event>
 7    1  0.2148778E-015  0.9000787E+02  0.7816164E-02  0.1186339E+00
        -11   -1    0    0    0    0  0.00000000000E+00  0.00000000000E+00  0.45593999997E+02  0.45594000000E+02  0.51100000000E-03 0.  1.
         11   -1    0    0    0    0 -0.00000000000E+00 -0.00000000000E+00 -0.45593999997E+02  0.45594000000E+02  0.51100000000E-03 0. -1.
    9900012    2    1    2    0    0  0.18230195367E+00 -0.99358833619E+00 -0.61013252692E+00  0.90007867175E+02  0.90000130222E+02 0.  0.
         12    1    1    2    0    0 -0.18230195367E+00  0.99358833619E+00  0.61013252692E+00  0.11801328249E+01  0.00000000000E+00 0. -1.
         11    1    3    3    0    0  0.94196060489E+00 -0.24361772185E+01  0.47510602589E+01  0.54216992785E+01  0.51100000000E-03 0. -1.
        -11    1    3    3    0    0  0.15791896033E+02  0.39516166823E+02  0.11094257707E+01  0.42569264106E+02  0.51100000000E-03 0.  1.
         12    1    3    3    0    0 -0.16551554685E+02 -0.38073577940E+02 -0.64706185565E+01  0.42016903791E+02  0.00000000000E+00 0. -1.
</event>
<event>
 7    1  0.2148778E-015  0.9000754E+02  0.7816164E-02  0.1186339E+00
        -11   -1    0    0    0    0  0.00000000000E+00  0.00000000000E+00  0.45593999997E+02  0.45594000000E+02  0.51100000000E-03 0.  1.
         11   -1    0    0    0    0 -0.00000000000E+00 -0.00000000000E+00 -0.45593999997E+02  0.45594000000E+02  0.51100000000E-03 0. -1.
    9900012    2    1    2    0    0 -0.13772996416E+00 -0.99351184909E+00 -0.62246156372E+00  0.90007536644E+02  0.89999795327E+02 0.  0.
         12    1    1    2    0    0  0.13772996416E+00  0.99351184909E+00  0.62246156372E+00  0.11804633563E+01  0.00000000000E+00 0. -1.
         11    1    3    3    0    0  0.12382610853E+02  0.19032530731E+02 -0.29464751709E+02  0.37198627274E+02  0.51100000000E-03 0. -1.
        -11    1    3    3    0    0 -0.91757118387E+00 -0.63841074865E+01 -0.89244681540E+01  0.11011126072E+02  0.51100000000E-03 0.  1.
        -12    1    3    3    0    0 -0.11602769633E+02 -0.13641935093E+02  0.37766758299E+02  0.41797783298E+02  0.00000000000E+00 0.  1.
</event>
<event>
 7    1  0.2148778E-015  0.9000773E+02  0.7816164E-02  0.1186339E+00
        -11   -1    0    0    0    0  0.00000000000E+00  0.00000000000E+00  0.45593999997E+02  0.45594000000E+02  0.51100000000E-03 0. -1.
         11   -1    0    0    0    0 -0.00000000000E+00 -0.00000000000E+00 -0.45593999997E+02  0.45594000000E+02  0.51100000000E-03 0.  1.
    9900012    2    1    2    0    0 -0.24663544445E+00 -0.86039445572E+00 -0.76936549274E+00  0.90007732690E+02  0.89999993961E+02 0.  0.
         12    1    1    2    0    0  0.24663544445E+00  0.86039445572E+00  0.76936549274E+00  0.11802673101E+01  0.00000000000E+00 0. -1.
         11    1    3    3    0    0 -0.62155971461E+01 -0.38792900288E+01 -0.55899323651E+01  0.92157410510E+01  0.51100000000E-03 0. -1.
        -11    1    3    3    0    0  0.30508233488E+02 -0.20318907842E+02 -0.17104076514E+02  0.40449471692E+02  0.51100000000E-03 0.  1.
         12    1    3    3    0    0 -0.24539271787E+02  0.23337803416E+02  0.21924643386E+02  0.40342519947E+02  0.00000000000E+00 0. -1.
</event>
<event>
 7    1  0.2148778E-015  0.9000775E+02  0.7816164E-02  0.1186339E+00
        -11   -1    0    0    0    0  0.00000000000E+00  0.00000000000E+00  0.45593999997E+02  0.45594000000E+02  0.51100000000E-03 0.  1.
         11   -1    0    0    0    0 -0.00000000000E+00 -0.00000000000E+00 -0.45593999997E+02  0.45594000000E+02  0.51100000000E-03 0. -1.
    9900012    2    1    2    0    0  0.14293212429E+00  0.11689004560E+01  0.78911890571E-01  0.90007752164E+02  0.90000013692E+02 0.  0.
         12    1    1    2    0    0 -0.14293212429E+00 -0.11689004560E+01 -0.78911890571E-01  0.11802478361E+01  0.00000000000E+00 0. -1.
         11    1    3    3    0    0 -0.30222735825E+01  0.14792267784E+02 -0.67111562438E+00  0.15112766796E+02  0.51100000000E-03 0. -1.
        -11    1    3    3    0    0  0.20608584004E+02  0.15461469815E+02 -0.22147207703E+02  0.33974543305E+02  0.51100000000E-03 0.  1.
         12    1    3    3    0    0 -0.17443378297E+02 -0.29084837143E+02  0.22897235217E+02  0.40920442063E+02  0.00000000000E+00 0. -1.
</event>
<event>
 7    1  0.2148778E-015  0.9000767E+02  0.7816164E-02  0.1186339E+00
        -11   -1    0    0    0    0  0.00000000000E+00  0.00000000000E+00  0.45593999997E+02  0.45594000000E+02  0.51100000000E-03 0. -1.
         11   -1    0    0    0    0 -0.00000000000E+00 -0.00000000000E+00 -0.45593999997E+02  0.45594000000E+02  0.51100000000E-03 0.  1.
    9900012    2    1    2    0    0 -0.40427184673E-01  0.71034203624E+00 -0.94179072643E+00  0.90007665328E+02  0.89999925710E+02 0.  0.
         12    1    1    2    0    0  0.40427184673E-01 -0.71034203624E+00  0.94179072643E+00  0.11803346721E+01  0.00000000000E+00 0. -1.
         11    1    3    3    0    0  0.12716659144E+02 -0.29078289035E+02 -0.31018162720E+01  0.31888580674E+02  0.51100000000E-03 0. -1.
        -11    1    3    3    0    0  0.79193365651E+01 -0.10250574574E+02 -0.64206683203E+00  0.12969287599E+02  0.51100000000E-03 0.  1.
        -12    1    3    3    0    0 -0.20676422894E+02  0.40039205645E+02  0.28020923776E+01  0.45149797055E+02  0.00000000000E+00 0.  1.
</event>
<event>
 7    1  0.2148778E-015  0.9000782E+02  0.7816164E-02  0.1186339E+00
        -11   -1    0    0    0    0  0.00000000000E+00  0.00000000000E+00  0.45593999997E+02  0.45594000000E+02  0.51100000000E-03 0. -1.
         11   -1    0    0    0    0 -0.00000000000E+00 -0.00000000000E+00 -0.45593999997E+02  0.45594000000E+02  0.51100000000E-03 0.  1.
    9900012    2    1    2    0    0  0.39300224164E+00  0.34595977114E+00 -0.10576848215E+01  0.90007815223E+02  0.90000077584E+02 0.  0.
         12    1    1    2    0    0 -0.39300224164E+00 -0.34595977114E+00  0.10576848215E+01  0.11801847766E+01  0.00000000000E+00 0. -1.
         11    1    3    3    0    0 -0.20539248993E+02  0.83141900535E+01 -0.50143970812E+01  0.22718509717E+02  0.51100000000E-03 0. -1.
        -11    1    3    3    0    0 -0.11507358054E+02  0.17255148131E+02 -0.11102342925E+02  0.23524911160E+02  0.51100000000E-03 0.  1.
         12    1    3    3    0    0  0.32439609288E+02 -0.25223378414E+02  0.15059055185E+02  0.43764394346E+02  0.00000000000E+00 0. -1.
</event>
<event>
 7    1  0.2148778E-015  0.9000775E+02  0.7816164E-02  0.1186339E+00
        -11   -1    0    0    0    0  0.00000000000E+00  0.00000000000E+00  0.45593999997E+02  0.45594000000E+02  0.51100000000E-03 0. -1.
         11   -1    0    0    0    0 -0.00000000000E+00 -0.00000000000E+00 -0.45593999997E+02  0.45594000000E+02  0.51100000000E-03 0.  1.
    9900012    2    1    2    0    0  0.76554573009E+00  0.85024714603E+00 -0.28984272225E+00  0.90007750332E+02  0.90000011837E+02 0.  0.
         12    1    1    2    0    0 -0.76554573009E+00 -0.85024714603E+00  0.28984272225E+00  0.11802496676E+01  0.00000000000E+00 0. -1.
         11    1    3    3    0    0  0.16262929562E+02  0.32552240312E+02  0.42755823444E+01  0.36638938739E+02  0.51100000000E-03 0. -1.
        -11    1    3    3    0    0  0.86606450909E+01  0.28882876116E+01  0.45554409917E+01  0.10202990817E+02  0.51100000000E-03 0.  1.
        -12    1    3    3    0    0 -0.24158028923E+02 -0.34590280777E+02 -0.91208660584E+01  0.43165820777E+02  0.00000000000E+00 0.  1.
</event>
<event>
 7    1  0.2148778E-015  0.9000776E+02  0.7816164E-02  0.1186339E+00
        -11   -1    0    0    0    0  0.00000000000E+00  0.00000000000E+00  0.45593999997E+02  0.45594000000E+02  0.51100000000E-03 0. -1.
         11   -1    0    0    0    0 -0.00000000000E+00 -0.00000000000E+00 -0.45593999997E+02  0.45594000000E+02  0.51100000000E-03 0.  1.
    9900012    2    1    2    0    0  0.48417620066E+00  0.84817987953E+00 -0.66266188553E+00  0.90007764229E+02  0.90000025917E+02 0.  0.
         12    1    1    2    0    0 -0.48417620066E+00 -0.84817987953E+00  0.66266188553E+00  0.11802357713E+01  0.00000000000E+00 0. -1.
         11    1    3    3    0    0 -0.48814808245E+01  0.39596682753E+02  0.69100275724E+01  0.40490426293E+02  0.51100000000E-03 0. -1.
        -11    1    3    3    0    0 -0.46126717030E+01  0.15959224779E+01 -0.62581142366E+01  0.79364792481E+01  0.51100000000E-03 0.  1.
        -12    1    3    3    0    0  0.99783287282E+01 -0.40344425352E+02 -0.13145752213E+01  0.41580858687E+02  0.00000000000E+00 0.  1.
</event>
<event>
 7    1  0.2148778E-015  0.9000771E+02  0.7816164E-02  0.1186339E+00
        -11   -1    0    0    0    0  0.00000000000E+00  0.00000000000E+00  0.45593999997E+02  0.45594000000E+02  0.51100000000E-03 0.  1.
         11   -1    0    0    0    0 -0.00000000000E+00 -0.00000000000E+00 -0.45593999997E+02  0.45594000000E+02  0.51100000000E-03 0. -1.
    9900012    2    1    2    0    0  0.69617022788E+00 -0.78834163923E+00  0.53567118715E+00  0.90007712261E+02  0.89999973263E+02 0.  0.
         12    1    1    2    0    0 -0.69617022788E+00  0.78834163923E+00 -0.53567118715E+00  0.11802877391E+01  0.00000000000E+00 0. -1.
         11    1    3    3    0    0 -0.25375972110E+02  0.21959068720E+02 -0.24182232906E+02  0.41363281400E+02  0.51100000000E-03 0. -1.
        -11    1    3    3    0    0 -0.32657438017E+01 -0.77327158657E+01  0.20383262353E+01  0.86379830597E+01  0.51100000000E-03 0.  1.
        -12    1    3    3    0    0  0.29337886140E+02 -0.15014694493E+02  0.22679577858E+02  0.40006447801E+02  0.00000000000E+00 0.  1.
</event>
<event>
 7    1  0.2364151E-015  0.9000780E+02  0.7816164E-02  0.1186339E+00
        -11   -1    0    0    0    0  0.00000000000E+00  0.00000000000E+00  0.45593999997E+02  0.45594000000E+02  0.51100000000E-03 0. -1.
         11   -1    0    0    0    0 -0.00000000000E+00 -0.00000000000E+00 -0.45593999997E+02  0.45594000000E+02  0.51100000000E-03 0.  1.
    9900012    2    1    2    0    0  0.84526411511E+00  0.13683804761E+00 -0.81220608120E+00  0.90007798833E+02  0.90000060978E+02 0.  0.
         12    1    1    2    0    0 -0.84526411511E+00 -0.13683804761E+00  0.81220608120E+00  0.11802011667E+01  0.00000000000E+00 0. -1.
         11    1    3    3    0    0  0.43267718354E+01 -0.75386936682E+01 -0.35652062849E+01  0.93948684319E+01  0.51100000000E-03 0. -1.
        -11    1    3    3    0    0 -0.88998246177E+01 -0.26992918524E+02 -0.23427511725E+02  0.36833039985E+02  0.51100000000E-03 0.  1.
         12    1    3    3    0    0  0.54183168973E+01  0.34668450239E+02  0.26180511929E+02  0.43779890416E+02  0.00000000000E+00 0. -1.
</event>
<event>
 7    1  0.2148778E-015  0.9000782E+02  0.7816164E-02  0.1186339E+00
        -11   -1    0    0    0    0  0.00000000000E+00  0.00000000000E+00  0.45593999997E+02  0.45594000000E+02  0.51100000000E-03 0.  1.
         11   -1    0    0    0    0 -0.00000000000E+00 -0.00000000000E+00 -0.45593999997E+02  0.45594000000E+02  0.51100000000E-03 0. -1.
    9900012    2    1    2    0    0  0.11350157445E+01  0.32064211930E+00 -0.41889779966E-01  0.90007819140E+02  0.90000081552E+02 0.  0.
         12    1    1    2    0    0 -0.11350157445E+01 -0.32064211930E+00  0.41889779966E-01  0.11801808601E+01  0.00000000000E+00 0. -1.
         11    1    3    3    0    0 -0.58068755350E+01 -0.57054163804E+01  0.18483362723E+01  0.83479294912E+01  0.51100000000E-03 0. -1.
        -11    1    3    3    0    0 -0.65663558497E+01 -0.20166996050E+02  0.30959586250E+02  0.37527599708E+02  0.51100000000E-03 0.  1.
         12    1    3    3    0    0  0.13508247129E+02  0.26193054550E+02 -0.32849812302E+02  0.44132289941E+02  0.00000000000E+00 0. -1.
</event>
<event>
 7    1  0.2148778E-015  0.9000768E+02  0.7816164E-02  0.1186339E+00
        -11   -1    0    0    0    0  0.00000000000E+00  0.00000000000E+00  0.45593999997E+02  0.45594000000E+02  0.51100000000E-03 0.  1.
         11   -1    0    0    0    0 -0.00000000000E+00 -0.00000000000E+00 -0.45593999997E+02  0.45594000000E+02  0.51100000000E-03 0. -1.
    9900012    2    1    2    0    0 -0.71890397671E+00 -0.63517131617E-01 -0.93397377531E+00  0.90007676160E+02  0.89999936686E+02 0.  0.
         12    1    1    2    0    0  0.71890397671E+00  0.63517131617E-01  0.93397377531E+00  0.11803238398E+01  0.00000000000E+00 0. -1.
         11    1    3    3    0    0  0.15848519521E+02 -0.20525702494E+02 -0.29545292669E+02  0.39311631270E+02  0.51100000000E-03 0. -1.
        -11    1    3    3    0    0 -0.73780648151E+01 -0.40118647010E+01 -0.36629342306E+01  0.91623133669E+01  0.51100000000E-03 0.  1.
        -12    1    3    3    0    0 -0.91893586831E+01  0.24474050064E+02  0.32274253125E+02  0.41533731524E+02  0.00000000000E+00 0.  1.
</event>
<event>
 7    1  0.2148778E-015  0.9000732E+02  0.7816164E-02  0.1186340E+00
        -11   -1    0    0    0    0  0.00000000000E+00  0.00000000000E+00  0.45593999997E+02  0.45594000000E+02  0.51100000000E-03 0.  1.
         11   -1    0    0    0    0 -0.00000000000E+00 -0.00000000000E+00 -0.45593999997E+02  0.45594000000E+02  0.51100000000E-03 0. -1.
    9900012    2    1    2    0    0  0.61067041253E+00  0.98815773028E+00 -0.21127534627E+00  0.90007317433E+02  0.89999573222E+02 0.  0.
         12    1    1    2    0    0 -0.61067041253E+00 -0.98815773028E+00  0.21127534627E+00  0.11806825672E+01  0.00000000000E+00 0. -1.
         11    1    3    3    0    0 -0.22930844822E+02 -0.19979381403E+02 -0.21730306819E+02  0.37379212942E+02  0.51100000000E-03 0. -1.
        -11    1    3    3    0    0 -0.21622313163E+01 -0.24483452868E+01 -0.69566531480E+01  0.76853537453E+01  0.51100000000E-03 0.  1.
        -12    1    3    3    0    0  0.25703746550E+02  0.23415884420E+02  0.28475684621E+02  0.44942750745E+02  0.00000000000E+00 0.  1.
</event>
<event>
 7    1  0.2148778E-015  0.9000773E+02  0.7816164E-02  0.1186339E+00
        -11   -1    0    0    0    0  0.00000000000E+00  0.00000000000E+00  0.45593999997E+02  0.45594000000E+02  0.51100000000E-03 0.  1.
         11   -1    0    0    0    0 -0.00000000000E+00 -0.00000000000E+00 -0.45593999997E+02  0.45594000000E+02  0.51100000000E-03 0. -1.
    9900012    2    1    2    0    0  0.69349418367E+00 -0.13625822933E+00  0.94526475201E+00  0.90007734801E+02  0.89999996101E+02 0.  0.
         12    1    1    2    0    0 -0.69349418367E+00  0.13625822933E+00 -0.94526475201E+00  0.11802651987E+01  0.00000000000E+00 0. -1.
         11    1    3    3    0    0 -0.35596915012E+01  0.92010119230E+01  0.10331137588E+01  0.99195437541E+01  0.51100000000E-03 0. -1.
        -11    1    3    3    0    0 -0.86261458074E+01 -0.30994578260E+02  0.27788107428E+02  0.42511800570E+02  0.51100000000E-03 0.  1.
         12    1    3    3    0    0  0.12879331492E+02  0.21657308108E+02 -0.27875956435E+02  0.37576390477E+02  0.00000000000E+00 0. -1.
</event>
<event>
 7    1  0.2148778E-015  0.9000772E+02  0.7816164E-02  0.1186339E+00
        -11   -1    0    0    0    0  0.00000000000E+00  0.00000000000E+00  0.45593999997E+02  0.45594000000E+02  0.51100000000E-03 0.  1.
         11   -1    0    0    0    0 -0.00000000000E+00 -0.00000000000E+00 -0.45593999997E+02  0.45594000000E+02  0.51100000000E-03 0. -1.
    9900012    2    1    2    0    0  0.89076195973E+00 -0.17410377787E+00  0.75451112626E+00  0.90007722052E+02  0.89999983183E+02 0.  0.
         12    1    1    2    0    0 -0.89076195973E+00  0.17410377787E+00 -0.75451112626E+00  0.11802779478E+01  0.00000000000E+00 0. -1.
         11    1    3    3    0    0 -0.50223647990E+01 -0.60046450761E+01 -0.96278644304E+01  0.12408693905E+02  0.51100000000E-03 0. -1.
        -11    1    3    3    0    0  0.27558651615E+02 -0.24599780514E+02 -0.48706844701E+01  0.37260596447E+02  0.51100000000E-03 0.  1.
        -12    1    3    3    0    0 -0.21645524856E+02  0.30430321812E+02  0.15253060027E+02  0.40338431700E+02  0.00000000000E+00 0.  1.
</event>
<event>
 7    1  0.2148778E-015  0.9000782E+02  0.7816164E-02  0.1186339E+00
        -11   -1    0    0    0    0  0.00000000000E+00  0.00000000000E+00  0.45593999997E+02  0.45594000000E+02  0.51100000000E-03 0.  1.
         11   -1    0    0    0    0 -0.00000000000E+00 -0.00000000000E+00 -0.45593999997E+02  0.45594000000E+02  0.51100000000E-03 0. -1.
    9900012    2    1    2    0    0 -0.10277204899E+01 -0.39695519300E+00 -0.42314503887E+00  0.90007815881E+02  0.90000078251E+02 0.  0.
         12    1    1    2    0    0  0.10277204899E+01  0.39695519300E+00  0.42314503887E+00  0.11801841189E+01  0.00000000000E+00 0. -1.
         11    1    3    3    0    0 -0.11394555210E+02 -0.34995148613E+02  0.48548223602E+00  0.36806684287E+02  0.51100000000E-03 0. -1.
        -11    1    3    3    0    0 -0.10652288789E+02 -0.21041430984E+01 -0.10209244111E+01  0.10906005756E+02  0.51100000000E-03 0.  1.
        -12    1    3    3    0    0  0.21019123510E+02  0.36702336519E+02  0.11229713618E+00  0.42295125839E+02  0.00000000000E+00 0.  1.
</event>
<event>
 7    1  0.2148778E-015  0.9000774E+02  0.7816164E-02  0.1186339E+00
        -11   -1    0    0    0    0  0.00000000000E+00  0.00000000000E+00  0.45593999997E+02  0.45594000000E+02  0.51100000000E-03 0.  1.
         11   -1    0    0    0    0 -0.00000000000E+00 -0.00000000000E+00 -0.45593999997E+02  0.45594000000E+02  0.51100000000E-03 0. -1.
    9900012    2    1    2    0    0 -0.62476029137E+00  0.24398105634E+00  0.97116764319E+00  0.90007737839E+02  0.89999999178E+02 0.  0.
         12    1    1    2    0    0  0.62476029137E+00 -0.24398105634E+00 -0.97116764319E+00  0.11802621610E+01  0.00000000000E+00 0. -1.
         11    1    3    3    0    0 -0.58603291921E+01  0.25907066728E+02 -0.27024451533E+02  0.37892486664E+02  0.51100000000E-03 0. -1.
        -11    1    3    3    0    0  0.78640744494E+01  0.73428398322E+01  0.54781894120E+01  0.12073587836E+02  0.51100000000E-03 0.  1.
        -12    1    3    3    0    0 -0.26285055487E+01 -0.33005925504E+02  0.22517429764E+02  0.40041663339E+02  0.00000000000E+00 0.  1.
</event>
<event>
 7    1  0.2148778E-015  0.9000772E+02  0.7816164E-02  0.1186339E+00
        -11   -1    0    0    0    0  0.00000000000E+00  0.00000000000E+00  0.45593999997E+02  0.45594000000E+02  0.51100000000E-03 0.  1.
         11   -1    0    0    0    0 -0.00000000000E+00 -0.00000000000E+00 -0.45593999997E+02  0.45594000000E+02  0.51100000000E-03 0. -1.
    9900012    2    1    2    0    0  0.10976198786E+00  0.60073030367E-02  0.11751458900E+01  0.90007723912E+02  0.89999985067E+02 0.  0.
         12    1    1    2    0    0 -0.10976198786E+00 -0.60073030367E-02 -0.11751458900E+01  0.11802760883E+01  0.00000000000E+00 0. -1.
         11    1    3    3    0    0 -0.43615650794E+01  0.29286381746E+02 -0.20910386148E+02  0.36248581419E+02  0.51100000000E-03 0. -1.
        -11    1    3    3    0    0 -0.42960888077E+00  0.87844920122E+01 -0.11877941738E+01  0.88748362782E+01  0.51100000000E-03 0.  1.
        -12    1    3    3    0    0  0.49009359480E+01 -0.38064866455E+02  0.23273326212E+02  0.44884306215E+02  0.00000000000E+00 0.  1.
</event>
<event>
 7    1  0.2148778E-015  0.9000779E+02  0.7816164E-02  0.1186339E+00
        -11   -1    0    0    0    0  0.00000000000E+00  0.00000000000E+00  0.45593999997E+02  0.45594000000E+02  0.51100000000E-03 0.  1.
         11   -1    0    0    0    0 -0.00000000000E+00 -0.00000000000E+00 -0.45593999997E+02  0.45594000000E+02  0.51100000000E-03 0. -1.
    9900012    2    1    2    0    0  0.11438466429E+01 -0.26656730703E+00 -0.11597586029E+00  0.90007790836E+02  0.90000052875E+02 0.  0.
         12    1    1    2    0    0 -0.11438466429E+01  0.26656730703E+00  0.11597586029E+00  0.11802091644E+01  0.00000000000E+00 0. -1.
         11    1    3    3    0    0  0.12051195885E+02 -0.47186220634E+01 -0.35938169673E+02  0.38197496727E+02  0.51100000000E-03 0. -1.
        -11    1    3    3    0    0 -0.74048739768E+01 -0.23327301542E+01 -0.56749115440E+01  0.96165695483E+01  0.51100000000E-03 0.  1.
        -12    1    3    3    0    0 -0.35024752658E+01  0.67847849105E+01  0.41497105357E+02  0.42193724561E+02  0.00000000000E+00 0.  1.
</event>
<event>
 7    1  0.2148778E-015  0.9000740E+02  0.7816164E-02  0.1186340E+00
        -11   -1    0    0    0    0  0.00000000000E+00  0.00000000000E+00  0.45593999997E+02  0.45594000000E+02  0.51100000000E-03 0.  1.
         11   -1    0    0    0    0 -0.00000000000E+00 -0.00000000000E+00 -0.45593999997E+02  0.45594000000E+02  0.51100000000E-03 0. -1.
    9900012    2    1    2    0    0 -0.66087580629E+00 -0.94328686178E+00  0.25936165318E+00  0.90007400406E+02  0.89999657290E+02 0.  0.
         12    1    1    2    0    0  0.66087580629E+00  0.94328686178E+00 -0.25936165318E+00  0.11805995943E+01  0.00000000000E+00 0. -1.
         11    1    3    3    0    0  0.95379750259E+00  0.32685390618E+01 -0.84953100549E+01  0.91522330863E+01  0.51100000000E-03 0. -1.
        -11    1    3    3    0    0 -0.26201953066E+02 -0.33075416468E+02  0.78992073555E+01  0.42929279008E+02  0.51100000000E-03 0.  1.
         12    1    3    3    0    0  0.24587279757E+02  0.28863590544E+02  0.85546435256E+00  0.37925888312E+02  0.00000000000E+00 0. -1.
</event>
<event>
 7    1  0.2399641E-015  0.9000770E+02  0.7816164E-02  0.1186339E+00
        -11   -1    0    0    0    0  0.00000000000E+00  0.00000000000E+00  0.45593999997E+02  0.45594000000E+02  0.51100000000E-03 0.  1.
         11   -1    0    0    0    0 -0.00000000000E+00 -0.00000000000E+00 -0.45593999997E+02  0.45594000000E+02  0.51100000000E-03 0. -1.
    9900012    2    1    2    0    0  0.85501710471E+00 -0.79610839093E+00  0.16809133671E+00  0.90007704479E+02  0.89999965378E+02 0.  0.
         12    1    1    2    0    0 -0.85501710471E+00  0.79610839093E+00 -0.16809133671E+00  0.11802955210E+01  0.00000000000E+00 0. -1.
         11    1    3    3    0    0 -0.19713413661E+01 -0.91665570051E+01  0.20578618855E+01  0.95993098663E+01  0.51100000000E-03 0. -1.
        -11    1    3    3    0    0 -0.31840190984E+02 -0.14727815638E+02  0.11062505147E+02  0.36784308281E+02  0.51100000000E-03 0.  1.
         12    1    3    3    0    0  0.34666549455E+02  0.23098264252E+02 -0.12952275696E+02  0.43624086331E+02  0.00000000000E+00 0. -1.
</event>
<event>
 7    1  0.2148778E-015  0.9000778E+02  0.7816164E-02  0.1186339E+00
        -11   -1    0    0    0    0  0.00000000000E+00  0.00000000000E+00  0.45593999997E+02  0.45594000000E+02  0.51100000000E-03 0. -1.
         11   -1    0    0    0    0 -0.00000000000E+00 -0.00000000000E+00 -0.45593999997E+02  0.45594000000E+02  0.51100000000E-03 0.  1.
    9900012    2    1    2    0    0  0.11003901390E+00  0.10375374010E+01  0.55166887754E+00  0.90007775024E+02  0.90000036855E+02 0.  0.
         12    1    1    2    0    0 -0.11003901390E+00 -0.10375374010E+01 -0.55166887754E+00  0.11802249758E+01  0.00000000000E+00 0. -1.
         11    1    3    3    0    0 -0.30909847435E+02  0.63942481054E+01  0.18947025433E+02  0.36814329416E+02  0.51100000000E-03 0. -1.
        -11    1    3    3    0    0 -0.75143975891E+01  0.78853161783E+00  0.36331037556E+01  0.83837578925E+01  0.51100000000E-03 0.  1.
        -12    1    3    3    0    0  0.38534284038E+02 -0.61452423222E+01 -0.22028460311E+02  0.44809687716E+02  0.00000000000E+00 0.  1.
</event>
<event>
 7    1  0.2148778E-015  0.9000780E+02  0.7816164E-02  0.1186339E+00
        -11   -1    0    0    0    0  0.00000000000E+00  0.00000000000E+00  0.45593999997E+02  0.45594000000E+02  0.51100000000E-03 0. -1.
         11   -1    0    0    0    0 -0.00000000000E+00 -0.00000000000E+00 -0.45593999997E+02  0.45594000000E+02  0.51100000000E-03 0.  1.
    9900012    2    1    2    0    0 -0.14296926858E+00  0.26789320654E+00 -0.11404693294E+01  0.90007797783E+02  0.90000059914E+02 0.  0.
         12    1    1    2    0    0  0.14296926858E+00 -0.26789320654E+00  0.11404693294E+01  0.11802022171E+01  0.00000000000E+00 0. -1.
         11    1    3    3    0    0  0.38090436128E+01  0.10226456372E+02 -0.13130976334E+02  0.17073715556E+02  0.51100000000E-03 0. -1.
        -11    1    3    3    0    0  0.30943576079E+02 -0.18174104605E+02  0.87565071604E+01  0.36938860251E+02  0.51100000000E-03 0.  1.
         12    1    3    3    0    0 -0.34895588960E+02  0.82155414399E+01  0.32339998437E+01  0.35995221975E+02  0.00000000000E+00 0. -1.
</event>
<event>
 7    1  0.2148778E-015  0.9000772E+02  0.7816164E-02  0.1186339E+00
        -11   -1    0    0    0    0  0.00000000000E+00  0.00000000000E+00  0.45593999997E+02  0.45594000000E+02  0.51100000000E-03 0. -1.
         11   -1    0    0    0    0 -0.00000000000E+00 -0.00000000000E+00 -0.45593999997E+02  0.45594000000E+02  0.51100000000E-03 0.  1.
    9900012    2    1    2    0    0 -0.76253448939E+00  0.89662030743E+00 -0.87623253816E-01  0.90007718399E+02  0.89999979482E+02 0.  0.
         12    1    1    2    0    0  0.76253448939E+00 -0.89662030743E+00  0.87623253816E-01  0.11802816011E+01  0.00000000000E+00 0. -1.
         11    1    3    3    0    0  0.21731108112E+01 -0.36825195976E+01  0.41313488662E+02  0.41534175168E+02  0.51100000000E-03 0. -1.
        -11    1    3    3    0    0 -0.81083138249E+01 -0.29005838690E+01 -0.31711827388E+01  0.91768480475E+01  0.51100000000E-03 0.  1.
        -12    1    3    3    0    0  0.51726685243E+01  0.74797237740E+01 -0.38229929177E+02  0.39296695183E+02  0.00000000000E+00 0.  1.
</event>
<event>
 7    1  0.2148778E-015  0.9000784E+02  0.7816164E-02  0.1186339E+00
        -11   -1    0    0    0    0  0.00000000000E+00  0.00000000000E+00  0.45593999997E+02  0.45594000000E+02  0.51100000000E-03 0.  1.
         11   -1    0    0    0    0 -0.00000000000E+00 -0.00000000000E+00 -0.45593999997E+02  0.45594000000E+02  0.51100000000E-03 0. -1.
    9900012    2    1    2    0    0  0.32959589817E+00  0.10780004420E+01 -0.34938485041E+00  0.90007835527E+02  0.90000098156E+02 0.  0.
         12    1    1    2    0    0 -0.32959589817E+00 -0.10780004420E+01  0.34938485041E+00  0.11801644727E+01  0.00000000000E+00 0. -1.
         11    1    3    3    0    0 -0.63528508890E+01 -0.36830040991E+01  0.29496204814E+01  0.79135007965E+01  0.51100000000E-03 0. -1.
        -11    1    3    3    0    0 -0.19108582542E+02  0.25350020740E+02  0.23569582880E+02  0.39538420754E+02  0.51100000000E-03 0.  1.
         12    1    3    3    0    0  0.25791029330E+02 -0.20589016199E+02 -0.26868588212E+02  0.42555913977E+02  0.00000000000E+00 0. -1.
</event>
<event>
 7    1  0.2148778E-015  0.9000775E+02  0.7816164E-02  0.1186339E+00
        -11   -1    0    0    0    0  0.00000000000E+00  0.00000000000E+00  0.45593999997E+02  0.45594000000E+02  0.51100000000E-03 0. -1.
         11   -1    0    0    0    0 -0.00000000000E+00 -0.00000000000E+00 -0.45593999997E+02  0.45594000000E+02  0.51100000000E-03 0.  1.
    9900012    2    1    2    0    0 -0.55737162519E+00 -0.10369062745E+01 -0.84523035890E-01  0.90007753460E+02  0.90000015006E+02 0.  0.
         12    1    1    2    0    0  0.55737162519E+00  0.10369062745E+01  0.84523035890E-01  0.11802465396E+01  0.00000000000E+00 0. -1.
         11    1    3    3    0    0 -0.25728338750E+01  0.96072225929E+01  0.58938537198E+00  0.99632111026E+01  0.51100000000E-03 0. -1.
        -11    1    3    3    0    0 -0.28755957102E+02  0.16939343349E+02 -0.14611615786E+02  0.36432756389E+02  0.51100000000E-03 0.  1.
         12    1    3    3    0    0  0.30771419352E+02 -0.27583472216E+02  0.13937707378E+02  0.43611785969E+02  0.00000000000E+00 0. -1.
</event>
<event>
 7    1  0.2148778E-015  0.9000777E+02  0.7816164E-02  0.1186339E+00
        -11   -1    0    0    0    0  0.00000000000E+00  0.00000000000E+00  0.45593999997E+02  0.45594000000E+02  0.51100000000E-03 0. -1.
         11   -1    0    0    0    0 -0.00000000000E+00 -0.00000000000E+00 -0.45593999997E+02  0.45594000000E+02  0.51100000000E-03 0.  1.
    9900012    2    1    2    0    0  0.72813058072E+00  0.24920647628E+00  0.89479557861E+00  0.90007772421E+02  0.90000034217E+02 0.  0.
         12    1    1    2    0    0 -0.72813058072E+00 -0.24920647628E+00 -0.89479557861E+00  0.11802275789E+01  0.00000000000E+00 0. -1.
         11    1    3    3    0    0  0.17785417846E+01 -0.52025056215E+01 -0.58483427236E+01  0.80269787901E+01  0.51100000000E-03 0. -1.
        -11    1    3    3    0    0 -0.34605336987E+02  0.16195167700E+02 -0.14468821719E+02  0.40855349797E+02  0.51100000000E-03 0.  1.
         12    1    3    3    0    0  0.33554925783E+02 -0.10743455603E+02  0.21211960021E+02  0.41125443834E+02  0.00000000000E+00 0. -1.
</event>
<event>
 7    1  0.2148778E-015  0.9000778E+02  0.7816164E-02  0.1186339E+00
        -11   -1    0    0    0    0  0.00000000000E+00  0.00000000000E+00  0.45593999997E+02  0.45594000000E+02  0.51100000000E-03 0.  1.
         11   -1    0    0    0    0 -0.00000000000E+00 -0.00000000000E+00 -0.45593999997E+02  0.45594000000E+02  0.51100000000E-03 0. -1.
    9900012    2    1    2    0    0  0.31919646697E+00 -0.95956800751E+00 -0.60848850596E+00  0.90007781627E+02  0.90000043545E+02 0.  0.
         12    1    1    2    0    0 -0.31919646697E+00  0.95956800751E+00  0.60848850596E+00  0.11802183728E+01  0.00000000000E+00 0. -1.
         11    1    3    3    0    0 -0.74547372384E+01  0.40454069102E+01  0.22390153098E+01  0.87722069162E+01  0.51100000000E-03 0. -1.
        -11    1    3    3    0    0 -0.20669935433E+02 -0.13240482239E+02  0.28835430335E+02  0.37868702692E+02  0.51100000000E-03 0.  1.
         12    1    3    3    0    0  0.28443869138E+02  0.82355073212E+01 -0.31682934150E+02  0.43366872019E+02  0.00000000000E+00 0. -1.
</event>
<event>
 7    1  0.2148778E-015  0.9000757E+02  0.7816164E-02  0.1186339E+00
        -11   -1    0    0    0    0  0.00000000000E+00  0.00000000000E+00  0.45593999997E+02  0.45594000000E+02  0.51100000000E-03 0. -1.
         11   -1    0    0    0    0 -0.00000000000E+00 -0.00000000000E+00 -0.45593999997E+02  0.45594000000E+02  0.51100000000E-03 0.  1.
    9900012    2    1    2    0    0  0.47028325506E+00 -0.10560022296E+01  0.23896204935E+00  0.90007572150E+02  0.89999831302E+02 0.  0.
         12    1    1    2    0    0 -0.47028325506E+00  0.10560022296E+01 -0.23896204935E+00  0.11804278504E+01  0.00000000000E+00 0. -1.
         11    1    3    3    0    0 -0.25262384976E+02  0.10029056740E+02  0.15031595073E+02  0.31059924734E+02  0.51100000000E-03 0. -1.
        -11    1    3    3    0    0  0.10371025308E+01  0.18321067639E+02 -0.19363670199E+01  0.18452279496E+02  0.51100000000E-03 0.  1.
        -12    1    3    3    0    0  0.24695565700E+02 -0.29406126609E+02 -0.12856266004E+02  0.40495367920E+02  0.00000000000E+00 0.  1.
</event>
<event>
 7    1  0.2148778E-015  0.9000774E+02  0.7816164E-02  0.1186339E+00
        -11   -1    0    0    0    0  0.00000000000E+00  0.00000000000E+00  0.45593999997E+02  0.45594000000E+02  0.51100000000E-03 0. -1.
         11   -1    0    0    0    0 -0.00000000000E+00 -0.00000000000E+00 -0.45593999997E+02  0.45594000000E+02  0.51100000000E-03 0.  1.
    9900012    2    1    2    0    0  0.19410835519E+00  0.73222341076E+00 -0.90508687302E+00  0.90007740950E+02  0.90000002331E+02 0.  0.
         12    1    1    2    0    0 -0.19410835519E+00 -0.73222341076E+00  0.90508687302E+00  0.11802590498E+01  0.00000000000E+00 0. -1.
         11    1    3    3    0    0  0.28664788238E+02 -0.20874833006E+02 -0.93478756803E+01  0.36671671870E+02  0.51100000000E-03 0. -1.
        -11    1    3    3    0    0  0.73966681305E+01 -0.41706454363E+01  0.11701979102E+01  0.85717178091E+01  0.51100000000E-03 0.  1.
        -12    1    3    3    0    0 -0.35867348013E+02  0.25777701854E+02  0.72725908971E+01  0.44764351271E+02  0.00000000000E+00 0.  1.
</event>
<event>
 7    1  0.2148778E-015  0.9000778E+02  0.7816164E-02  0.1186339E+00
        -11   -1    0    0    0    0  0.00000000000E+00  0.00000000000E+00  0.45593999997E+02  0.45594000000E+02  0.51100000000E-03 0.  1.
         11   -1    0    0    0    0 -0.00000000000E+00 -0.00000000000E+00 -0.45593999997E+02  0.45594000000E+02  0.51100000000E-03 0. -1.
    9900012    2    1    2    0    0 -0.67674385989E+00 -0.30186560539E+00  0.91859907154E+00  0.90007775721E+02  0.90000037560E+02 0.  0.
         12    1    1    2    0    0  0.67674385989E+00  0.30186560539E+00 -0.91859907154E+00  0.11802242795E+01  0.00000000000E+00 0. -1.
         11    1    3    3    0    0  0.27614353923E+02  0.16111291235E+02  0.36408961097E+01  0.32177358073E+02  0.51100000000E-03 0. -1.
        -11    1    3    3    0    0 -0.76859132679E+01  0.89705007351E+01  0.16204442743E+02  0.20053107268E+02  0.51100000000E-03 0.  1.
        -12    1    3    3    0    0 -0.20605184514E+02 -0.25383657576E+02 -0.18926739781E+02  0.37777310380E+02  0.00000000000E+00 0.  1.
</event>
<event>
 7    1  0.2148778E-015  0.9000771E+02  0.7816164E-02  0.1186339E+00
        -11   -1    0    0    0    0  0.00000000000E+00  0.00000000000E+00  0.45593999997E+02  0.45594000000E+02  0.51100000000E-03 0.  1.
         11   -1    0    0    0    0 -0.00000000000E+00 -0.00000000000E+00 -0.45593999997E+02  0.45594000000E+02  0.51100000000E-03 0. -1.
    9900012    2    1    2    0    0 -0.49932927266E+00  0.10539866427E+01 -0.18131914262E+00  0.90007705885E+02  0.89999966803E+02 0.  0.
         12    1    1    2    0    0  0.49932927266E+00 -0.10539866427E+01  0.18131914262E+00  0.11802941146E+01  0.00000000000E+00 0. -1.
         11    1    3    3    0    0 -0.90733387224E+01  0.79165057563E+01  0.99192323401E+01  0.15600888098E+02  0.51100000000E-03 0. -1.
        -11    1    3    3    0    0 -0.24686696174E+02  0.42427582217E+01  0.16843314014E+02  0.30184949768E+02  0.51100000000E-03 0.  1.
         12    1    3    3    0    0  0.33260705623E+02 -0.11105277335E+02 -0.26943865496E+02  0.44221868019E+02  0.00000000000E+00 0. -1.
</event>
<event>
 7    1  0.2148778E-015  0.9000765E+02  0.7816164E-02  0.1186339E+00
        -11   -1    0    0    0    0  0.00000000000E+00  0.00000000000E+00  0.45593999997E+02  0.45594000000E+02  0.51100000000E-03 0.  1.
         11   -1    0    0    0    0 -0.00000000000E+00 -0.00000000000E+00 -0.45593999997E+02  0.45594000000E+02  0.51100000000E-03 0. -1.
    9900012    2    1    2    0    0  0.61848422155E+00 -0.49590595392E+00  0.87451931611E+00  0.90007648577E+02  0.89999908738E+02 0.  0.
         12    1    1    2    0    0 -0.61848422155E+00  0.49590595392E+00 -0.87451931611E+00  0.11803514230E+01  0.00000000000E+00 0. -1.
         11    1    3    3    0    0 -0.21792585580E+02 -0.72700929134E+01 -0.30484690297E+02  0.38171813947E+02  0.51100000000E-03 0. -1.
        -11    1    3    3    0    0 -0.34534560189E+01 -0.71350217150E+01 -0.11684007497E+01  0.80124936145E+01  0.51100000000E-03 0.  1.
        -12    1    3    3    0    0  0.25864525821E+02  0.13909208674E+02  0.32527610362E+02  0.43823341016E+02  0.00000000000E+00 0.  1.
</event>
<event>
 7    1  0.2148778E-015  0.9000767E+02  0.7816164E-02  0.1186339E+00
        -11   -1    0    0    0    0  0.00000000000E+00  0.00000000000E+00  0.45593999997E+02  0.45594000000E+02  0.51100000000E-03 0. -1.
         11   -1    0    0    0    0 -0.00000000000E+00 -0.00000000000E+00 -0.45593999997E+02  0.45594000000E+02  0.51100000000E-03 0.  1.
    9900012    2    1    2    0    0 -0.26917365013E+00 -0.16698167679E+00 -0.11370310016E+01  0.90007670879E+02  0.89999931335E+02 0.  0.
         12    1    1    2    0    0  0.26917365013E+00  0.16698167679E+00  0.11370310016E+01  0.11803291206E+01  0.00000000000E+00 0. -1.
         11    1    3    3    0    0  0.33680497208E+02  0.24394744946E+02 -0.27106316899E+01  0.41675256419E+02  0.51100000000E-03 0. -1.
        -11    1    3    3    0    0 -0.10655632431E+02  0.29817940419E+01  0.49101192104E+01  0.12105489215E+02  0.51100000000E-03 0.  1.
        -12    1    3    3    0    0 -0.23294038427E+02 -0.27543520665E+02 -0.33365185221E+01  0.36226925245E+02  0.00000000000E+00 0.  1.
</event>
<event>
 7    1  0.2148778E-015  0.9000774E+02  0.7816164E-02  0.1186339E+00
        -11   -1    0    0    0    0  0.00000000000E+00  0.00000000000E+00  0.45593999997E+02  0.45594000000E+02  0.51100000000E-03 0.  1.
         11   -1    0    0    0    0 -0.00000000000E+00 -0.00000000000E+00 -0.45593999997E+02  0.45594000000E+02  0.51100000000E-03 0. -1.
    9900012    2    1    2    0    0  0.41257164011E+00  0.79494651990E+00  0.76867365460E+00  0.90007739641E+02  0.90000001004E+02 0.  0.
         12    1    1    2    0    0 -0.41257164011E+00 -0.79494651990E+00 -0.76867365460E+00  0.11802603590E+01  0.00000000000E+00 0. -1.
         11    1    3    3    0    0 -0.28489994923E+02  0.11402596330E+02 -0.23520148655E+02  0.38663890218E+02  0.51100000000E-03 0. -1.
        -11    1    3    3    0    0 -0.63764775975E+01  0.27930935550E+01  0.68660768733E+01  0.97777221299E+01  0.51100000000E-03 0.  1.
        -12    1    3    3    0    0  0.35279044161E+02 -0.13400743365E+02  0.17422745436E+02  0.41566127293E+02  0.00000000000E+00 0.  1.
</event>
<event>
 7    1  0.2148778E-015  0.9000782E+02  0.7816164E-02  0.1186339E+00
        -11   -1    0    0    0    0  0.00000000000E+00  0.00000000000E+00  0.45593999997E+02  0.45594000000E+02  0.51100000000E-03 0. -1.
         11   -1    0    0    0    0 -0.00000000000E+00 -0.00000000000E+00 -0.45593999997E+02  0.45594000000E+02  0.51100000000E-03 0.  1.
    9900012    2    1    2    0    0 -0.50096468028E+00 -0.10683070356E+01  0.24270003957E-01  0.90007815876E+02  0.90000078246E+02 0.  0.
         12    1    1    2    0    0  0.50096468028E+00  0.10683070356E+01 -0.24270003957E-01  0.11801841239E+01  0.00000000000E+00 0. -1.
         11    1    3    3    0    0 -0.30005225762E+01  0.90898017751E+01 -0.85617893533E+01  0.12842580318E+02  0.51100000000E-03 0. -1.
        -11    1    3    3    0    0 -0.25285553709E+02  0.11455317971E+02 -0.17971717103E+02  0.33069111752E+02  0.51100000000E-03 0.  1.
         12    1    3    3    0    0  0.27785111605E+02 -0.21613426782E+02  0.26557776460E+02  0.44096123805E+02  0.00000000000E+00 0. -1.
</event>
<event>
 7    1  0.2148778E-015  0.9000774E+02  0.7816164E-02  0.1186339E+00
        -11   -1    0    0    0    0  0.00000000000E+00  0.00000000000E+00  0.45593999997E+02  0.45594000000E+02  0.51100000000E-03 0.  1.
         11   -1    0    0    0    0 -0.00000000000E+00 -0.00000000000E+00 -0.45593999997E+02  0.45594000000E+02  0.51100000000E-03 0. -1.
    9900012    2    1    2    0    0 -0.33746733651E-02  0.99193937798E+00  0.63958269705E+00  0.90007736833E+02  0.89999998159E+02 0.  0.
         12    1    1    2    0    0  0.33746733651E-02 -0.99193937798E+00 -0.63958269705E+00  0.11802631674E+01  0.00000000000E+00 0. -1.
         11    1    3    3    0    0  0.10127269835E+00 -0.84051578396E+00  0.90449746003E+01  0.90845081718E+01  0.51100000000E-03 0. -1.
        -11    1    3    3    0    0 -0.15864397138E+02 -0.25272045079E+02  0.22136158854E+02  0.37153262146E+02  0.51100000000E-03 0.  1.
         12    1    3    3    0    0  0.15759749766E+02  0.27104500241E+02 -0.30541550758E+02  0.43769966515E+02  0.00000000000E+00 0. -1.
</event>
<event>
 7    1  0.2148778E-015  0.9000758E+02  0.7816164E-02  0.1186339E+00
        -11   -1    0    0    0    0  0.00000000000E+00  0.00000000000E+00  0.45593999997E+02  0.45594000000E+02  0.51100000000E-03 0. -1.
         11   -1    0    0    0    0 -0.00000000000E+00 -0.00000000000E+00 -0.45593999997E+02  0.45594000000E+02  0.51100000000E-03 0.  1.
    9900012    2    1    2    0    0 -0.11210638349E+01  0.13287877245E+00 -0.34490836236E+00  0.90007575217E+02  0.89999834410E+02 0.  0.
         12    1    1    2    0    0  0.11210638349E+01 -0.13287877245E+00  0.34490836236E+00  0.11804247830E+01  0.00000000000E+00 0. -1.
         11    1    3    3    0    0 -0.82695777500E+01  0.49430656970E+01  0.45171109281E+00  0.96448876520E+01  0.51100000000E-03 0. -1.
        -11    1    3    3    0    0 -0.33955272698E+02  0.11023038345E+02  0.45623969033E+01  0.35990045625E+02  0.51100000000E-03 0.  1.
         12    1    3    3    0    0  0.41103786613E+02 -0.15833225270E+02 -0.53590163585E+01  0.44372641940E+02  0.00000000000E+00 0. -1.
</event>
<event>
 7    1  0.2148778E-015  0.9000770E+02  0.7816164E-02  0.1186339E+00
        -11   -1    0    0    0    0  0.00000000000E+00  0.00000000000E+00  0.45593999997E+02  0.45594000000E+02  0.51100000000E-03 0.  1.
         11   -1    0    0    0    0 -0.00000000000E+00 -0.00000000000E+00 -0.45593999997E+02  0.45594000000E+02  0.51100000000E-03 0. -1.
    9900012    2    1    2    0    0 -0.17748844598E+00 -0.11314101851E+01  0.28552341187E+00  0.90007697168E+02  0.89999957971E+02 0.  0.
         12    1    1    2    0    0  0.17748844598E+00  0.11314101851E+01 -0.28552341187E+00  0.11803028316E+01  0.00000000000E+00 0. -1.
         11    1    3    3    0    0 -0.13673454770E+02  0.27741160180E+01  0.13946479556E+02  0.19727224267E+02  0.51100000000E-03 0. -1.
        -11    1    3    3    0    0  0.81953495796E+01 -0.30890178271E+02  0.10535644386E+02  0.33650656327E+02  0.51100000000E-03 0.  1.
         12    1    3    3    0    0  0.53006167445E+01  0.26984652068E+02 -0.24196600530E+02  0.36629816574E+02  0.00000000000E+00 0. -1.
</event>
<event>
 7    1  0.2148778E-015  0.9000805E+02  0.7816164E-02  0.1186338E+00
        -11   -1    0    0    0    0  0.00000000000E+00  0.00000000000E+00  0.45593999997E+02  0.45594000000E+02  0.51100000000E-03 0.  1.
         11   -1    0    0    0    0 -0.00000000000E+00 -0.00000000000E+00 -0.45593999997E+02  0.45594000000E+02  0.51100000000E-03 0. -1.
    9900012    2    1    2    0    0  0.10172354724E+01  0.40496169595E+00 -0.43989741735E+00  0.90008054357E+02  0.90000319874E+02 0.  0.
         12    1    1    2    0    0 -0.10172354724E+01 -0.40496169595E+00  0.43989741735E+00  0.11799456425E+01  0.00000000000E+00 0. -1.
         11    1    3    3    0    0 -0.18396483842E+02 -0.51768458696E+01 -0.31623859933E+02  0.36949950856E+02  0.51100000000E-03 0. -1.
        -11    1    3    3    0    0 -0.82288904375E+01  0.32261260373E+01 -0.27221910951E+01  0.92483972482E+01  0.51100000000E-03 0.  1.
        -12    1    3    3    0    0  0.27642609752E+02  0.23556815282E+01  0.33906153611E+02  0.43809706254E+02  0.00000000000E+00 0.  1.
</event>
<event>
 7    1  0.2148778E-015  0.9000772E+02  0.7816164E-02  0.1186339E+00
        -11   -1    0    0    0    0  0.00000000000E+00  0.00000000000E+00  0.45593999997E+02  0.45594000000E+02  0.51100000000E-03 0.  1.
         11   -1    0    0    0    0 -0.00000000000E+00 -0.00000000000E+00 -0.45593999997E+02  0.45594000000E+02  0.51100000000E-03 0. -1.
    9900012    2    1    2    0    0 -0.42533220040E-01 -0.11225375549E+01  0.36214983031E+00  0.90007723703E+02  0.89999984856E+02 0.  0.
         12    1    1    2    0    0  0.42533220040E-01  0.11225375549E+01 -0.36214983031E+00  0.11802762967E+01  0.00000000000E+00 0. -1.
         11    1    3    3    0    0 -0.36378815064E+02 -0.14109261850E+02 -0.10824700947E+02  0.40492759924E+02  0.51100000000E-03 0. -1.
        -11    1    3    3    0    0  0.46335934422E+01 -0.55567201067E+01 -0.55840728168E+01  0.91394308366E+01  0.51100000000E-03 0.  1.
        -12    1    3    3    0    0  0.31702688402E+02  0.18543444402E+02  0.16770923595E+02  0.40375532943E+02  0.00000000000E+00 0.  1.
</event>
<event>
 7    1  0.2148778E-015  0.9000776E+02  0.7816164E-02  0.1186339E+00
        -11   -1    0    0    0    0  0.00000000000E+00  0.00000000000E+00  0.45593999997E+02  0.45594000000E+02  0.51100000000E-03 0.  1.
         11   -1    0    0    0    0 -0.00000000000E+00 -0.00000000000E+00 -0.45593999997E+02  0.45594000000E+02  0.51100000000E-03 0. -1.
    9900012    2    1    2    0    0 -0.75869304693E+00 -0.90091564678E+00  0.75447390177E-01  0.90007764239E+02  0.90000025927E+02 0.  0.
         12    1    1    2    0    0  0.75869304693E+00  0.90091564678E+00 -0.75447390177E-01  0.11802357607E+01  0.00000000000E+00 0. -1.
         11    1    3    3    0    0  0.36998558565E+02  0.16757073713E+01  0.60640807187E+01  0.37529647031E+02  0.51100000000E-03 0. -1.
        -11    1    3    3    0    0  0.25901243572E+01 -0.10574192421E+02 -0.26867856714E+01  0.11213434222E+02  0.51100000000E-03 0.  1.
        -12    1    3    3    0    0 -0.40347375969E+02  0.79975694034E+01 -0.33018476571E+01  0.41264682986E+02  0.00000000000E+00 0.  1.
</event>
<event>
 7    1  0.2148778E-015  0.9000777E+02  0.7816164E-02  0.1186339E+00
        -11   -1    0    0    0    0  0.00000000000E+00  0.00000000000E+00  0.45593999997E+02  0.45594000000E+02  0.51100000000E-03 0.  1.
         11   -1    0    0    0    0 -0.00000000000E+00 -0.00000000000E+00 -0.45593999997E+02  0.45594000000E+02  0.51100000000E-03 0. -1.
    9900012    2    1    2    0    0  0.11211168692E+01 -0.28924624080E+00  0.22886795510E+00  0.90007768259E+02  0.90000030000E+02 0.  0.
         12    1    1    2    0    0 -0.11211168692E+01  0.28924624080E+00 -0.22886795510E+00  0.11802317412E+01  0.00000000000E+00 0. -1.
         11    1    3    3    0    0  0.53830227445E+01  0.30695434110E+01 -0.86713524452E+01  0.10657925882E+02  0.51100000000E-03 0. -1.
        -11    1    3    3    0    0  0.35851314476E+02 -0.55348576647E+01  0.13941009344E+02  0.38862618810E+02  0.51100000000E-03 0.  1.
         12    1    3    3    0    0 -0.40113220351E+02  0.21760680129E+01 -0.50407889440E+01  0.40487223566E+02  0.00000000000E+00 0. -1.
</event>
<event>
 7    1  0.2148778E-015  0.9000770E+02  0.7816164E-02  0.1186339E+00
        -11   -1    0    0    0    0  0.00000000000E+00  0.00000000000E+00  0.45593999997E+02  0.45594000000E+02  0.51100000000E-03 0. -1.
         11   -1    0    0    0    0 -0.00000000000E+00 -0.00000000000E+00 -0.45593999997E+02  0.45594000000E+02  0.51100000000E-03 0.  1.
    9900012    2    1    2    0    0  0.68159075250E+00  0.62734396255E+00 -0.73141675284E+00  0.90007704754E+02  0.89999965657E+02 0.  0.
         12    1    1    2    0    0 -0.68159075250E+00 -0.62734396255E+00  0.73141675284E+00  0.11802952459E+01  0.00000000000E+00 0. -1.
         11    1    3    3    0    0 -0.85175593956E+01  0.27133363867E+01 -0.39389808478E+01  0.97686530691E+01  0.51100000000E-03 0. -1.
        -11    1    3    3    0    0  0.17173010435E+02 -0.31022374604E+02  0.24794630078E+02  0.43267466929E+02  0.51100000000E-03 0.  1.
         12    1    3    3    0    0 -0.79738602873E+01  0.28936382180E+02 -0.21587065983E+02  0.36971584756E+02  0.00000000000E+00 0. -1.
</event>
<event>
 7    1  0.2148778E-015  0.9000763E+02  0.7816164E-02  0.1186339E+00
        -11   -1    0    0    0    0  0.00000000000E+00  0.00000000000E+00  0.45593999997E+02  0.45594000000E+02  0.51100000000E-03 0. -1.
         11   -1    0    0    0    0 -0.00000000000E+00 -0.00000000000E+00 -0.45593999997E+02  0.45594000000E+02  0.51100000000E-03 0.  1.
    9900012    2    1    2    0    0 -0.10983265220E+01 -0.39323770499E+00 -0.17978623760E+00  0.90007627121E+02  0.89999886999E+02 0.  0.
         12    1    1    2    0    0  0.10983265220E+01  0.39323770499E+00  0.17978623760E+00  0.11803728787E+01  0.00000000000E+00 0. -1.
         11    1    3    3    0    0  0.12539980767E+01  0.25076680024E+02  0.28518480832E+02  0.37996264835E+02  0.51100000000E-03 0. -1.
        -11    1    3    3    0    0  0.92480910501E+01  0.16063181767E+01  0.18580482772E+01  0.95686879883E+01  0.51100000000E-03 0.  1.
        -12    1    3    3    0    0 -0.11600415649E+02 -0.27076235905E+02 -0.30556315347E+02  0.42442674298E+02  0.00000000000E+00 0.  1.
</event>
<event>
 7    1  0.2148778E-015  0.9000801E+02  0.7816164E-02  0.1186339E+00
        -11   -1    0    0    0    0  0.00000000000E+00  0.00000000000E+00  0.45593999997E+02  0.45594000000E+02  0.51100000000E-03 0. -1.
         11   -1    0    0    0    0 -0.00000000000E+00 -0.00000000000E+00 -0.45593999997E+02  0.45594000000E+02  0.51100000000E-03 0.  1.
    9900012    2    1    2    0    0 -0.92044326250E-01  0.10695357365E+01 -0.48990549992E+00  0.90008005827E+02  0.90000270703E+02 0.  0.
         12    1    1    2    0    0  0.92044326250E-01 -0.10695357365E+01  0.48990549992E+00  0.11799941731E+01  0.00000000000E+00 0. -1.
         11    1    3    3    0    0  0.61347175012E+01  0.21906441829E+02  0.32054600749E+02  0.39306798163E+02  0.51100000000E-03 0. -1.
        -11    1    3    3    0    0 -0.12463483701E+02  0.96499168725E+00 -0.20007113699E+01  0.12659876823E+02  0.51100000000E-03 0.  1.
        -12    1    3    3    0    0  0.62367218739E+01 -0.21801897779E+02 -0.30543794879E+02  0.38041330841E+02  0.00000000000E+00 0.  1.
</event>
<event>
 7    1  0.2148778E-015  0.9000772E+02  0.7816164E-02  0.1186339E+00
        -11   -1    0    0    0    0  0.00000000000E+00  0.00000000000E+00  0.45593999997E+02  0.45594000000E+02  0.51100000000E-03 0. -1.
         11   -1    0    0    0    0 -0.00000000000E+00 -0.00000000000E+00 -0.45593999997E+02  0.45594000000E+02  0.51100000000E-03 0.  1.
    9900012    2    1    2    0    0  0.76341323063E+00  0.69167670325E+00  0.57605768687E+00  0.90007720846E+02  0.89999981961E+02 0.  0.
         12    1    1    2    0    0 -0.76341323063E+00 -0.69167670325E+00 -0.57605768687E+00  0.11802791539E+01  0.00000000000E+00 0. -1.
         11    1    3    3    0    0 -0.10526740467E+02 -0.29974383588E+02  0.22280694331E+02  0.38803418361E+02  0.51100000000E-03 0. -1.
        -11    1    3    3    0    0 -0.87301114284E+01  0.22723016073E+01  0.18779220568E+01  0.92143796134E+01  0.51100000000E-03 0.  1.
        -12    1    3    3    0    0  0.20020265126E+02  0.28393758684E+02 -0.23582558701E+02  0.41989922872E+02  0.00000000000E+00 0.  1.
</event>
<event>
 7    1  0.5170840E-015  0.9000775E+02  0.7816164E-02  0.1186339E+00
        -11   -1    0    0    0    0  0.00000000000E+00  0.00000000000E+00  0.45593999997E+02  0.45594000000E+02  0.51100000000E-03 0. -1.
         11   -1    0    0    0    0 -0.00000000000E+00 -0.00000000000E+00 -0.45593999997E+02  0.45594000000E+02  0.51100000000E-03 0.  1.
    9900012    2    1    2    0    0 -0.80531295870E+00 -0.75732386064E-01 -0.85948837792E+00  0.90007752302E+02  0.90000013833E+02 0.  0.
         12    1    1    2    0    0  0.80531295870E+00  0.75732386064E-01  0.85948837792E+00  0.11802476975E+01  0.00000000000E+00 0. -1.
         11    1    3    3    0    0 -0.67352087478E+01  0.49413052931E+01  0.42572639007E+01  0.93757042966E+01  0.51100000000E-03 0. -1.
        -11    1    3    3    0    0 -0.10070436613E+02 -0.31135955309E+01 -0.40448561073E+02  0.41799452913E+02  0.51100000000E-03 0.  1.
         12    1    3    3    0    0  0.16000332402E+02 -0.19034421483E+01  0.35331808794E+02  0.38832595093E+02  0.00000000000E+00 0. -1.
</event>
<event>
 7    1  0.2148778E-015  0.9000771E+02  0.7816164E-02  0.1186339E+00
        -11   -1    0    0    0    0  0.00000000000E+00  0.00000000000E+00  0.45593999997E+02  0.45594000000E+02  0.51100000000E-03 0. -1.
         11   -1    0    0    0    0 -0.00000000000E+00 -0.00000000000E+00 -0.45593999997E+02  0.45594000000E+02  0.51100000000E-03 0.  1.
    9900012    2    1    2    0    0  0.96258262272E+00 -0.14831449389E-01 -0.68286335960E+00  0.90007708661E+02  0.89999969615E+02 0.  0.
         12    1    1    2    0    0 -0.96258262272E+00  0.14831449389E-01  0.68286335960E+00  0.11802913392E+01  0.00000000000E+00 0. -1.
         11    1    3    3    0    0 -0.22556022357E+02 -0.22608239274E+02  0.15431262222E+02  0.35468725402E+02  0.51100000000E-03 0. -1.
        -11    1    3    3    0    0 -0.20817658970E+01 -0.87318854507E+01  0.34303282980E+01  0.96097203532E+01  0.51100000000E-03 0.  1.
        -12    1    3    3    0    0  0.25600370876E+02  0.31325293276E+02 -0.19544453879E+02  0.44929262906E+02  0.00000000000E+00 0.  1.
</event>
<event>
 7    1  0.2148778E-015  0.9000773E+02  0.7816164E-02  0.1186339E+00
        -11   -1    0    0    0    0  0.00000000000E+00  0.00000000000E+00  0.45593999997E+02  0.45594000000E+02  0.51100000000E-03 0. -1.
         11   -1    0    0    0    0 -0.00000000000E+00 -0.00000000000E+00 -0.45593999997E+02  0.45594000000E+02  0.51100000000E-03 0.  1.
    9900012    2    1    2    0    0 -0.93480506760E+00  0.19906543836E+00 -0.69249799336E+00  0.90007728407E+02  0.89999989622E+02 0.  0.
         12    1    1    2    0    0  0.93480506760E+00 -0.19906543836E+00  0.69249799336E+00  0.11802715933E+01  0.00000000000E+00 0. -1.
         11    1    3    3    0    0 -0.15465076331E+01  0.26329259500E+01  0.96137409949E+01  0.10087021418E+02  0.51100000000E-03 0. -1.
        -11    1    3    3    0    0  0.79450510547E+01 -0.35659102312E+02  0.12890362409E+02  0.38740893862E+02  0.51100000000E-03 0.  1.
         12    1    3    3    0    0 -0.73333484891E+01  0.33225241800E+02 -0.23196601397E+02  0.41179813126E+02  0.00000000000E+00 0. -1.
</event>
<event>
 7    1  0.2148778E-015  0.9000705E+02  0.7816164E-02  0.1186340E+00
        -11   -1    0    0    0    0  0.00000000000E+00  0.00000000000E+00  0.45593999997E+02  0.45594000000E+02  0.51100000000E-03 0.  1.
         11   -1    0    0    0    0 -0.00000000000E+00 -0.00000000000E+00 -0.45593999997E+02  0.45594000000E+02  0.51100000000E-03 0. -1.
    9900012    2    1    2    0    0 -0.99808062420E+00  0.53716194146E+00  0.33156304421E+00  0.90007050409E+02  0.89999302672E+02 0.  0.
         12    1    1    2    0    0  0.99808062420E+00 -0.53716194146E+00 -0.33156304421E+00  0.11809495908E+01  0.00000000000E+00 0. -1.
         11    1    3    3    0    0  0.75979072243E+01 -0.36025645852E+01 -0.36976113570E+01  0.91858040360E+01  0.51100000000E-03 0. -1.
        -11    1    3    3    0    0  0.27613580888E+02 -0.14510896435E+02 -0.16413079659E+02  0.35248619107E+02  0.51100000000E-03 0.  1.
         12    1    3    3    0    0 -0.36209568736E+02  0.18650622961E+02  0.20442254060E+02  0.45572627266E+02  0.00000000000E+00 0. -1.
</event>
<event>
 7    1  0.2148778E-015  0.9000787E+02  0.7816164E-02  0.1186339E+00
        -11   -1    0    0    0    0  0.00000000000E+00  0.00000000000E+00  0.45593999997E+02  0.45594000000E+02  0.51100000000E-03 0. -1.
         11   -1    0    0    0    0 -0.00000000000E+00 -0.00000000000E+00 -0.45593999997E+02  0.45594000000E+02  0.51100000000E-03 0.  1.
    9900012    2    1    2    0    0 -0.93242056203E+00 -0.26322476939E+00 -0.67379515315E+00  0.90007874883E+02  0.90000138031E+02 0.  0.
         12    1    1    2    0    0  0.93242056203E+00  0.26322476939E+00  0.67379515315E+00  0.11801251172E+01  0.00000000000E+00 0. -1.
         11    1    3    3    0    0  0.21160793135E+02  0.15532727868E+02  0.24425840884E+02  0.35856191993E+02  0.51100000000E-03 0. -1.
        -11    1    3    3    0    0  0.94354557106E+00  0.10067574202E+01  0.93393665957E+01  0.94407418892E+01  0.51100000000E-03 0.  1.
        -12    1    3    3    0    0 -0.23036759268E+02 -0.16802710057E+02 -0.34439002633E+02  0.44710941001E+02  0.00000000000E+00 0.  1.
</event>
<event>
 7    1  0.2148778E-015  0.9000767E+02  0.7816164E-02  0.1186339E+00
        -11   -1    0    0    0    0  0.00000000000E+00  0.00000000000E+00  0.45593999997E+02  0.45594000000E+02  0.51100000000E-03 0.  1.
         11   -1    0    0    0    0 -0.00000000000E+00 -0.00000000000E+00 -0.45593999997E+02  0.45594000000E+02  0.51100000000E-03 0. -1.
    9900012    2    1    2    0    0 -0.59830404313E+00 -0.26342529890E+00  0.98276601435E+00  0.90007665448E+02  0.89999925832E+02 0.  0.
         12    1    1    2    0    0  0.59830404313E+00  0.26342529890E+00 -0.98276601435E+00  0.11803345522E+01  0.00000000000E+00 0. -1.
         11    1    3    3    0    0 -0.25198959697E+02  0.17032835512E+02 -0.21260927078E+02  0.37109730205E+02  0.51100000000E-03 0. -1.
        -11    1    3    3    0    0 -0.43674025545E+01 -0.78029777137E+01 -0.64565435857E+01  0.11029398062E+02  0.51100000000E-03 0.  1.
        -12    1    3    3    0    0  0.28968058208E+02 -0.94932830967E+01  0.28700236679E+02  0.41868537181E+02  0.00000000000E+00 0.  1.
</event>
<event>
 7    1  0.2148778E-015  0.9000775E+02  0.7816164E-02  0.1186339E+00
        -11   -1    0    0    0    0  0.00000000000E+00  0.00000000000E+00  0.45593999997E+02  0.45594000000E+02  0.51100000000E-03 0.  1.
         11   -1    0    0    0    0 -0.00000000000E+00 -0.00000000000E+00 -0.45593999997E+02  0.45594000000E+02  0.51100000000E-03 0. -1.
    9900012    2    1    2    0    0  0.23322610525E+00  0.22733938309E+00  0.11344176428E+01  0.90007753839E+02  0.90000015390E+02 0.  0.
         12    1    1    2    0    0 -0.23322610525E+00 -0.22733938309E+00 -0.11344176428E+01  0.11802461606E+01  0.00000000000E+00 0. -1.
         11    1    3    3    0    0  0.67478060138E+01 -0.59698971093E+01 -0.10533480863E+01  0.90709481284E+01  0.51100000000E-03 0. -1.
        -11    1    3    3    0    0  0.20622834816E+02 -0.29388021857E+02 -0.22046153868E+01  0.35969674363E+02  0.51100000000E-03 0.  1.
         12    1    3    3    0    0 -0.27137414725E+02  0.35585258350E+02  0.43923811159E+01  0.44967131348E+02  0.00000000000E+00 0. -1.
</event>
<event>
 7    1  0.2148778E-015  0.9000773E+02  0.7816164E-02  0.1186339E+00
        -11   -1    0    0    0    0  0.00000000000E+00  0.00000000000E+00  0.45593999997E+02  0.45594000000E+02  0.51100000000E-03 0.  1.
         11   -1    0    0    0    0 -0.00000000000E+00 -0.00000000000E+00 -0.45593999997E+02  0.45594000000E+02  0.51100000000E-03 0. -1.
    9900012    2    1    2    0    0  0.10175074155E+01  0.23947114389E+00  0.54806421430E+00  0.90007727933E+02  0.89999989142E+02 0.  0.
         12    1    1    2    0    0 -0.10175074155E+01 -0.23947114389E+00 -0.54806421430E+00  0.11802720671E+01  0.00000000000E+00 0. -1.
         11    1    3    3    0    0 -0.17366198496E+01  0.35125145659E+01 -0.23437069968E+02  0.23762362173E+02  0.51100000000E-03 0. -1.
        -11    1    3    3    0    0  0.32626000311E+01 -0.26991048400E+02 -0.61681275339E+01  0.27878433425E+02  0.51100000000E-03 0.  1.
        -12    1    3    3    0    0 -0.50847276598E+00  0.23718004978E+02  0.30153261716E+02  0.38366932335E+02  0.00000000000E+00 0.  1.
</event>
<event>
 7    1  0.2148778E-015  0.9000771E+02  0.7816164E-02  0.1186339E+00
        -11   -1    0    0    0    0  0.00000000000E+00  0.00000000000E+00  0.45593999997E+02  0.45594000000E+02  0.51100000000E-03 0.  1.
         11   -1    0    0    0    0 -0.00000000000E+00 -0.00000000000E+00 -0.45593999997E+02  0.45594000000E+02  0.51100000000E-03 0. -1.
    9900012    2    1    2    0    0  0.46445389160E+00 -0.10715858227E+01  0.17047944474E+00  0.90007713241E+02  0.89999974256E+02 0.  0.
         12    1    1    2    0    0 -0.46445389160E+00  0.10715858227E+01 -0.17047944474E+00  0.11802867592E+01  0.00000000000E+00 0. -1.
         11    1    3    3    0    0  0.11794865558E+02  0.11724697018E+01 -0.38716506627E+02  0.40490263328E+02  0.51100000000E-03 0. -1.
        -11    1    3    3    0    0 -0.71176037432E+01 -0.63064776302E+01 -0.66691342939E+00  0.95329280355E+01  0.51100000000E-03 0.  1.
        -12    1    3    3    0    0 -0.42128079228E+01  0.40624221057E+01  0.39553899501E+02  0.39984521877E+02  0.00000000000E+00 0.  1.
</event>
<event>
 7    1  0.2148778E-015  0.9000773E+02  0.7816164E-02  0.1186339E+00
        -11   -1    0    0    0    0  0.00000000000E+00  0.00000000000E+00  0.45593999997E+02  0.45594000000E+02  0.51100000000E-03 0. -1.
         11   -1    0    0    0    0 -0.00000000000E+00 -0.00000000000E+00 -0.45593999997E+02  0.45594000000E+02  0.51100000000E-03 0.  1.
    9900012    2    1    2    0    0 -0.32046957090E+00 -0.89299827507E+00 -0.70206191740E+00  0.90007729861E+02  0.89999991095E+02 0.  0.
         12    1    1    2    0    0  0.32046957090E+00  0.89299827507E+00  0.70206191740E+00  0.11802701390E+01  0.00000000000E+00 0. -1.
         11    1    3    3    0    0 -0.35530156768E+02 -0.11703050244E+02  0.53884959120E+01  0.37794038067E+02  0.51100000000E-03 0. -1.
        -11    1    3    3    0    0 -0.63657118475E+01  0.77231606962E+01 -0.28074871532E+01  0.10394781520E+02  0.51100000000E-03 0.  1.
        -12    1    3    3    0    0  0.41575399045E+02  0.30868912727E+01 -0.32830706761E+01  0.41818910274E+02  0.00000000000E+00 0.  1.
</event>
<event>
 7    1  0.2148778E-015  0.9000667E+02  0.7816164E-02  0.1186341E+00
        -11   -1    0    0    0    0  0.00000000000E+00  0.00000000000E+00  0.45593999997E+02  0.45594000000E+02  0.51100000000E-03 0.  1.
         11   -1    0    0    0    0 -0.00000000000E+00 -0.00000000000E+00 -0.45593999997E+02  0.45594000000E+02  0.51100000000E-03 0. -1.
    9900012    2    1    2    0    0 -0.76151207649E+00 -0.89513414567E+00  0.11993270326E+00  0.90006666163E+02  0.89998913350E+02 0.  0.
         12    1    1    2    0    0  0.76151207649E+00  0.89513414567E+00 -0.11993270326E+00  0.11813338371E+01  0.00000000000E+00 0. -1.
         11    1    3    3    0    0  0.27479458276E+01  0.74651893278E+01 -0.63291645238E+01  0.10165558607E+02  0.51100000000E-03 0. -1.
        -11    1    3    3    0    0  0.17659565585E+02  0.11326717940E+02  0.33970637227E+02  0.39926920615E+02  0.51100000000E-03 0.  1.
         12    1    3    3    0    0 -0.21169023489E+02 -0.19687041414E+02 -0.27521540000E+02  0.39914186940E+02  0.00000000000E+00 0. -1.
</event>
<event>
 7    1  0.2148778E-015  0.9000753E+02  0.7816164E-02  0.1186339E+00
        -11   -1    0    0    0    0  0.00000000000E+00  0.00000000000E+00  0.45593999997E+02  0.45594000000E+02  0.51100000000E-03 0. -1.
         11   -1    0    0    0    0 -0.00000000000E+00 -0.00000000000E+00 -0.45593999997E+02  0.45594000000E+02  0.51100000000E-03 0.  1.
    9900012    2    1    2    0    0 -0.82272106208E+00 -0.15861766697E+00 -0.83155675717E+00  0.90007527150E+02  0.89999785708E+02 0.  0.
         12    1    1    2    0    0  0.82272106208E+00  0.15861766697E+00  0.83155675717E+00  0.11804728504E+01  0.00000000000E+00 0. -1.
         11    1    3    3    0    0 -0.90570474577E+01 -0.23654732643E+01 -0.46132812695E+01  0.10435896547E+02  0.51100000000E-03 0. -1.
        -11    1    3    3    0    0 -0.21554535610E+02 -0.20822341552E+02 -0.19074550372E+02  0.35524729207E+02  0.51100000000E-03 0.  1.
         12    1    3    3    0    0  0.29788862006E+02  0.23029197149E+02  0.22856274884E+02  0.44046901395E+02  0.00000000000E+00 0. -1.
</event>
<event>
 7    1  0.2148778E-015  0.9000787E+02  0.7816164E-02  0.1186339E+00
        -11   -1    0    0    0    0  0.00000000000E+00  0.00000000000E+00  0.45593999997E+02  0.45594000000E+02  0.51100000000E-03 0. -1.
         11   -1    0    0    0    0 -0.00000000000E+00 -0.00000000000E+00 -0.45593999997E+02  0.45594000000E+02  0.51100000000E-03 0.  1.
    9900012    2    1    2    0    0 -0.54324216053E+00 -0.86199618338E+00 -0.59545261202E+00  0.90007867262E+02  0.90000130310E+02 0.  0.
         12    1    1    2    0    0  0.54324216053E+00  0.86199618338E+00  0.59545261202E+00  0.11801327376E+01  0.00000000000E+00 0. -1.
         11    1    3    3    0    0  0.40755591050E+02  0.42009410275E+01 -0.67594922848E+00  0.40977103546E+02  0.51100000000E-03 0. -1.
        -11    1    3    3    0    0 -0.12803831388E+01  0.69624324403E+01 -0.14089611832E+01  0.72180342438E+01  0.51100000000E-03 0.  1.
        -12    1    3    3    0    0 -0.40018450072E+02 -0.12025369651E+02  0.14894577996E+01  0.41812729473E+02  0.00000000000E+00 0.  1.
</event>
<event>
 7    1  0.2148778E-015  0.9000768E+02  0.7816164E-02  0.1186339E+00
        -11   -1    0    0    0    0  0.00000000000E+00  0.00000000000E+00  0.45593999997E+02  0.45594000000E+02  0.51100000000E-03 0. -1.
         11   -1    0    0    0    0 -0.00000000000E+00 -0.00000000000E+00 -0.45593999997E+02  0.45594000000E+02  0.51100000000E-03 0.  1.
    9900012    2    1    2    0    0  0.20364675018E-01  0.30952665269E+00 -0.11388287727E+01  0.90007681212E+02  0.89999941804E+02 0.  0.
         12    1    1    2    0    0 -0.20364675018E-01 -0.30952665269E+00  0.11388287727E+01  0.11803187884E+01  0.00000000000E+00 0. -1.
         11    1    3    3    0    0  0.72345878781E+01  0.58780013293E+01 -0.14876738755E+01  0.94394562986E+01  0.51100000000E-03 0. -1.
        -11    1    3    3    0    0 -0.29381606356E+02  0.16258722808E+02  0.24179789905E+02  0.41379790955E+02  0.51100000000E-03 0.  1.
         12    1    3    3    0    0  0.22167383153E+02 -0.21827197484E+02 -0.23830944803E+02  0.39188433958E+02  0.00000000000E+00 0. -1.
</event>
<event>
 7    1  0.2148778E-015  0.9000775E+02  0.7816164E-02  0.1186339E+00
        -11   -1    0    0    0    0  0.00000000000E+00  0.00000000000E+00  0.45593999997E+02  0.45594000000E+02  0.51100000000E-03 0.  1.
         11   -1    0    0    0    0 -0.00000000000E+00 -0.00000000000E+00 -0.45593999997E+02  0.45594000000E+02  0.51100000000E-03 0. -1.
    9900012    2    1    2    0    0 -0.10132723497E+01 -0.59726201113E+00 -0.97661179896E-01  0.90007754064E+02  0.90000015617E+02 0.  0.
         12    1    1    2    0    0  0.10132723497E+01  0.59726201113E+00  0.97661179896E-01  0.11802459365E+01  0.00000000000E+00 0. -1.
         11    1    3    3    0    0  0.43647753313E+01  0.17300731664E-01 -0.94057695758E+01  0.10369188232E+02  0.51100000000E-03 0. -1.
        -11    1    3    3    0    0  0.23731124321E+01  0.32149197710E+02  0.26595592873E+02  0.41791484020E+02  0.51100000000E-03 0.  1.
         12    1    3    3    0    0 -0.77511601131E+01 -0.32763760453E+02 -0.17287484477E+02  0.37847081812E+02  0.00000000000E+00 0. -1.
</event>
<event>
 7    1  0.2148778E-015  0.9000784E+02  0.7816164E-02  0.1186339E+00
        -11   -1    0    0    0    0  0.00000000000E+00  0.00000000000E+00  0.45593999997E+02  0.45594000000E+02  0.51100000000E-03 0. -1.
         11   -1    0    0    0    0 -0.00000000000E+00 -0.00000000000E+00 -0.45593999997E+02  0.45594000000E+02  0.51100000000E-03 0.  1.
    9900012    2    1    2    0    0 -0.27140616159E+00  0.11481589388E+01 -0.29066345960E-01  0.90007841068E+02  0.90000103770E+02 0.  0.
         12    1    1    2    0    0  0.27140616159E+00 -0.11481589388E+01  0.29066345960E-01  0.11801589324E+01  0.00000000000E+00 0. -1.
         11    1    3    3    0    0 -0.64217510526E+00  0.11474971393E+02 -0.87354945349E+01  0.14435935106E+02  0.51100000000E-03 0. -1.
        -11    1    3    3    0    0  0.14824947915E+02  0.26920765296E+02 -0.87750510625E+01  0.31961042008E+02  0.51100000000E-03 0.  1.
         12    1    3    3    0    0 -0.14454178971E+02 -0.37247577751E+02  0.17481479251E+02  0.43610863954E+02  0.00000000000E+00 0. -1.
</event>
<event>
 7    1  0.2148778E-015  0.9000775E+02  0.7816164E-02  0.1186339E+00
        -11   -1    0    0    0    0  0.00000000000E+00  0.00000000000E+00  0.45593999997E+02  0.45594000000E+02  0.51100000000E-03 0. -1.
         11   -1    0    0    0    0 -0.00000000000E+00 -0.00000000000E+00 -0.45593999997E+02  0.45594000000E+02  0.51100000000E-03 0.  1.
    9900012    2    1    2    0    0  0.11256608081E+01 -0.25665208869E+00  0.24498600428E+00  0.90007745497E+02  0.90000006938E+02 0.  0.
         12    1    1    2    0    0 -0.11256608081E+01  0.25665208869E+00 -0.24498600428E+00  0.11802545030E+01  0.00000000000E+00 0. -1.
         11    1    3    3    0    0  0.21122471886E+01 -0.18708463987E+01 -0.11403409254E+02  0.11747314472E+02  0.51100000000E-03 0. -1.
        -11    1    3    3    0    0  0.22696922072E+02  0.12325313365E+02 -0.23246432480E+02  0.34748528665E+02  0.51100000000E-03 0.  1.
         12    1    3    3    0    0 -0.23683508453E+02 -0.10711119055E+02  0.34894827738E+02  0.43511902359E+02  0.00000000000E+00 0. -1.
</event>
<event>
 7    1  0.2148778E-015  0.9000757E+02  0.7816164E-02  0.1186339E+00
        -11   -1    0    0    0    0  0.00000000000E+00  0.00000000000E+00  0.45593999997E+02  0.45594000000E+02  0.51100000000E-03 0. -1.
         11   -1    0    0    0    0 -0.00000000000E+00 -0.00000000000E+00 -0.45593999997E+02  0.45594000000E+02  0.51100000000E-03 0.  1.
    9900012    2    1    2    0    0 -0.97657952005E+00  0.57128751589E+00 -0.33663990678E+00  0.90007574902E+02  0.89999834091E+02 0.  0.
         12    1    1    2    0    0  0.97657952005E+00 -0.57128751589E+00  0.33663990678E+00  0.11804250978E+01  0.00000000000E+00 0. -1.
         11    1    3    3    0    0  0.29919189867E+02 -0.22262026123E+02 -0.67462771378E+01  0.37898126403E+02  0.51100000000E-03 0. -1.
        -11    1    3    3    0    0 -0.56546641685E+00 -0.67386685180E+01  0.70159809449E+01  0.97444032421E+01  0.51100000000E-03 0.  1.
        -12    1    3    3    0    0 -0.30330302970E+02  0.29571982157E+02 -0.60634371379E+00  0.42365045257E+02  0.00000000000E+00 0.  1.
</event>
<event>
 7    1  0.2148778E-015  0.9000786E+02  0.7816164E-02  0.1186339E+00
        -11   -1    0    0    0    0  0.00000000000E+00  0.00000000000E+00  0.45593999997E+02  0.45594000000E+02  0.51100000000E-03 0. -1.
         11   -1    0    0    0    0 -0.00000000000E+00 -0.00000000000E+00 -0.45593999997E+02  0.45594000000E+02  0.51100000000E-03 0.  1.
    9900012    2    1    2    0    0  0.65446729534E+00 -0.56987837045E+00 -0.79977333831E+00  0.90007861792E+02  0.90000124767E+02 0.  0.
         12    1    1    2    0    0 -0.65446729534E+00  0.56987837045E+00  0.79977333831E+00  0.11801382082E+01  0.00000000000E+00 0. -1.
         11    1    3    3    0    0 -0.31621054999E+01  0.14519268484E+02 -0.67515538436E+01  0.16321505692E+02  0.51100000000E-03 0. -1.
        -11    1    3    3    0    0  0.19773075084E+02  0.20900083745E+02 -0.11028423555E+02  0.30812564404E+02  0.51100000000E-03 0.  1.
         12    1    3    3    0    0 -0.15956502289E+02 -0.35989230599E+02  0.16980204060E+02  0.42873791695E+02  0.00000000000E+00 0. -1.
</event>
<event>
 7    1  0.2148778E-015  0.9000784E+02  0.7816164E-02  0.1186339E+00
        -11   -1    0    0    0    0  0.00000000000E+00  0.00000000000E+00  0.45593999997E+02  0.45594000000E+02  0.51100000000E-03 0.  1.
         11   -1    0    0    0    0 -0.00000000000E+00 -0.00000000000E+00 -0.45593999997E+02  0.45594000000E+02  0.51100000000E-03 0. -1.
    9900012    2    1    2    0    0  0.10511900119E+01  0.48321595699E+00  0.23299467250E+00  0.90007837037E+02  0.90000099686E+02 0.  0.
         12    1    1    2    0    0 -0.10511900119E+01 -0.48321595699E+00 -0.23299467250E+00  0.11801629632E+01  0.00000000000E+00 0. -1.
         11    1    3    3    0    0  0.18358912630E+02 -0.15310525386E+02 -0.30526918246E+02  0.38773116955E+02  0.51100000000E-03 0. -1.
        -11    1    3    3    0    0  0.85772754189E+01  0.35500267757E+01  0.10103321655E+00  0.92834558055E+01  0.51100000000E-03 0.  1.
        -12    1    3    3    0    0 -0.25884998037E+02  0.12243714567E+02  0.30658879702E+02  0.41951264276E+02  0.00000000000E+00 0.  1.
</event>
<event>
 7    1  0.2148778E-015  0.9000765E+02  0.7816164E-02  0.1186339E+00
        -11   -1    0    0    0    0  0.00000000000E+00  0.00000000000E+00  0.45593999997E+02  0.45594000000E+02  0.51100000000E-03 0.  1.
         11   -1    0    0    0    0 -0.00000000000E+00 -0.00000000000E+00 -0.45593999997E+02  0.45594000000E+02  0.51100000000E-03 0. -1.
    9900012    2    1    2    0    0  0.21635566017E+00 -0.16624267378E+00  0.11483764781E+01  0.90007654740E+02  0.89999914982E+02 0.  0.
         12    1    1    2    0    0 -0.21635566017E+00  0.16624267378E+00 -0.11483764781E+01  0.11803452604E+01  0.00000000000E+00 0. -1.
         11    1    3    3    0    0  0.31693408030E+02 -0.12895771217E+02 -0.12344134862E+02  0.36375138400E+02  0.51100000000E-03 0. -1.
        -11    1    3    3    0    0  0.41131899177E+01 -0.91473661221E+01  0.13011649748E+01  0.10113637764E+02  0.51100000000E-03 0.  1.
        -12    1    3    3    0    0 -0.35590242288E+02  0.21876894665E+02  0.12191346365E+02  0.43518878576E+02  0.00000000000E+00 0.  1.
</event>
<event>
 7    1  0.2148778E-015  0.9000770E+02  0.7816164E-02  0.1186339E+00
        -11   -1    0    0    0    0  0.00000000000E+00  0.00000000000E+00  0.45593999997E+02  0.45594000000E+02  0.51100000000E-03 0.  1.
         11   -1    0    0    0    0 -0.00000000000E+00 -0.00000000000E+00 -0.45593999997E+02  0.45594000000E+02  0.51100000000E-03 0. -1.
    9900012    2    1    2    0    0  0.72454494690E+00 -0.71904266369E-01  0.92895937481E+00  0.90007702951E+02  0.89999963830E+02 0.  0.
         12    1    1    2    0    0 -0.72454494690E+00  0.71904266369E-01 -0.92895937481E+00  0.11802970489E+01  0.00000000000E+00 0. -1.
         11    1    3    3    0    0  0.15866015878E+01 -0.30175230042E+01 -0.93459499504E+01  0.99483430990E+01  0.51100000000E-03 0. -1.
        -11    1    3    3    0    0  0.15692037603E+02  0.37597239848E+02  0.84859171003E+01  0.41614940557E+02  0.51100000000E-03 0.  1.
         12    1    3    3    0    0 -0.16554094244E+02 -0.34651621110E+02  0.17889922248E+01  0.38444419295E+02  0.00000000000E+00 0. -1.
</event>
<event>
 7    1  0.2148778E-015  0.9000773E+02  0.7816164E-02  0.1186339E+00
        -11   -1    0    0    0    0  0.00000000000E+00  0.00000000000E+00  0.45593999997E+02  0.45594000000E+02  0.51100000000E-03 0. -1.
         11   -1    0    0    0    0 -0.00000000000E+00 -0.00000000000E+00 -0.45593999997E+02  0.45594000000E+02  0.51100000000E-03 0.  1.
    9900012    2    1    2    0    0  0.10169527693E+01 -0.51414655761E+00 -0.30739171733E+00  0.90007733384E+02  0.89999994664E+02 0.  0.
         12    1    1    2    0    0 -0.10169527693E+01  0.51414655761E+00  0.30739171733E+00  0.11802666163E+01  0.00000000000E+00 0. -1.
         11    1    3    3    0    0 -0.37747607422E+01 -0.67839760207E+01 -0.51873633836E+01  0.93370171064E+01  0.51100000000E-03 0. -1.
        -11    1    3    3    0    0  0.19544722460E+02 -0.44612572432E+01 -0.33008278096E+02  0.38619236339E+02  0.51100000000E-03 0.  1.
         12    1    3    3    0    0 -0.14753008949E+02  0.10731086706E+02  0.37888249763E+02  0.42051479939E+02  0.00000000000E+00 0. -1.
</event>
<event>
 7    1  0.2148778E-015  0.9000762E+02  0.7816164E-02  0.1186339E+00
        -11   -1    0    0    0    0  0.00000000000E+00  0.00000000000E+00  0.45593999997E+02  0.45594000000E+02  0.51100000000E-03 0. -1.
         11   -1    0    0    0    0 -0.00000000000E+00 -0.00000000000E+00 -0.45593999997E+02  0.45594000000E+02  0.51100000000E-03 0.  1.
    9900012    2    1    2    0    0 -0.25393405604E+00 -0.86086742423E+00  0.76662366317E+00  0.90007624184E+02  0.89999884023E+02 0.  0.
         12    1    1    2    0    0  0.25393405604E+00  0.86086742423E+00 -0.76662366317E+00  0.11803758164E+01  0.00000000000E+00 0. -1.
         11    1    3    3    0    0  0.24926671764E+02  0.14302800955E+02  0.29695062059E+02  0.41324397047E+02  0.51100000000E-03 0. -1.
        -11    1    3    3    0    0 -0.80030815047E+01  0.37901859046E+01  0.14462649136E+01  0.89725417371E+01  0.51100000000E-03 0.  1.
        -12    1    3    3    0    0 -0.17177524315E+02 -0.18953854284E+02 -0.30374703309E+02  0.39710685400E+02  0.00000000000E+00 0.  1.
</event>
<event>
 7    1  0.2148778E-015  0.9000757E+02  0.7816164E-02  0.1186339E+00
        -11   -1    0    0    0    0  0.00000000000E+00  0.00000000000E+00  0.45593999997E+02  0.45594000000E+02  0.51100000000E-03 0.  1.
         11   -1    0    0    0    0 -0.00000000000E+00 -0.00000000000E+00 -0.45593999997E+02  0.45594000000E+02  0.51100000000E-03 0. -1.
    9900012    2    1    2    0    0  0.23148500520E+00  0.11383094476E+01 -0.20997054553E+00  0.90007567310E+02  0.89999826398E+02 0.  0.
         12    1    1    2    0    0 -0.23148500520E+00 -0.11383094476E+01  0.20997054553E+00  0.11804326902E+01  0.00000000000E+00 0. -1.
         11    1    3    3    0    0  0.14535814459E+00 -0.38416621042E+02  0.16977635846E+02  0.42001166894E+02  0.51100000000E-03 0. -1.
        -11    1    3    3    0    0 -0.52538416425E+01  0.23524048087E+01 -0.70066224346E+01  0.90680438128E+01  0.51100000000E-03 0.  1.
        -12    1    3    3    0    0  0.53399685031E+01  0.37202525681E+02 -0.10180983957E+02  0.38938356603E+02  0.00000000000E+00 0.  1.
</event>
<event>
 7    1  0.2148778E-015  0.9000760E+02  0.7816164E-02  0.1186339E+00
        -11   -1    0    0    0    0  0.00000000000E+00  0.00000000000E+00  0.45593999997E+02  0.45594000000E+02  0.51100000000E-03 0. -1.
         11   -1    0    0    0    0 -0.00000000000E+00 -0.00000000000E+00 -0.45593999997E+02  0.45594000000E+02  0.51100000000E-03 0.  1.
    9900012    2    1    2    0    0  0.68281466453E+00  0.64247521740E+00 -0.71717718467E+00  0.90007596092E+02  0.89999855561E+02 0.  0.
         12    1    1    2    0    0 -0.68281466453E+00 -0.64247521740E+00  0.71717718467E+00  0.11804039077E+01  0.00000000000E+00 0. -1.
         11    1    3    3    0    0 -0.58915100787E+01  0.12008996290E+02 -0.17610880251E+02  0.22114904168E+02  0.51100000000E-03 0. -1.
        -11    1    3    3    0    0 -0.80120208316E+01  0.10825186207E+02 -0.18971625552E+02  0.23265848589E+02  0.51100000000E-03 0.  1.
         12    1    3    3    0    0  0.14586345575E+02 -0.22191707279E+02  0.35865328618E+02  0.44626843335E+02  0.00000000000E+00 0. -1.
</event>
<event>
 7    1  0.2148778E-015  0.9000777E+02  0.7816164E-02  0.1186339E+00
        -11   -1    0    0    0    0  0.00000000000E+00  0.00000000000E+00  0.45593999997E+02  0.45594000000E+02  0.51100000000E-03 0. -1.
         11   -1    0    0    0    0 -0.00000000000E+00 -0.00000000000E+00 -0.45593999997E+02  0.45594000000E+02  0.51100000000E-03 0.  1.
    9900012    2    1    2    0    0 -0.46703136726E+00 -0.58104319478E+00 -0.91498922668E+00  0.90007773421E+02  0.90000035230E+02 0.  0.
         12    1    1    2    0    0  0.46703136726E+00  0.58104319478E+00  0.91498922668E+00  0.11802265787E+01  0.00000000000E+00 0. -1.
         11    1    3    3    0    0  0.18921053451E+02  0.17483770783E+02  0.25185428017E+02  0.36027687814E+02  0.51100000000E-03 0. -1.
        -11    1    3    3    0    0  0.35257216173E+01  0.79289301712E+01  0.25215370545E+01  0.90364149950E+01  0.51100000000E-03 0.  1.
        -12    1    3    3    0    0 -0.22913806436E+02 -0.25993744149E+02 -0.28621954299E+02  0.44943670613E+02  0.00000000000E+00 0.  1.
</event>
<event>
 7    1  0.2148778E-015  0.9000766E+02  0.7816164E-02  0.1186339E+00
        -11   -1    0    0    0    0  0.00000000000E+00  0.00000000000E+00  0.45593999997E+02  0.45594000000E+02  0.51100000000E-03 0. -1.
         11   -1    0    0    0    0 -0.00000000000E+00 -0.00000000000E+00 -0.45593999997E+02  0.45594000000E+02  0.51100000000E-03 0.  1.
    9900012    2    1    2    0    0 -0.86790328513E+00  0.53024953747E+00 -0.59898607261E+00  0.90007658948E+02  0.89999919246E+02 0.  0.
         12    1    1    2    0    0  0.86790328513E+00 -0.53024953747E+00  0.59898607261E+00  0.11803410522E+01  0.00000000000E+00 0. -1.
         11    1    3    3    0    0  0.72905097792E+01 -0.41810715314E+02 -0.84284000644E+01  0.43270375268E+02  0.51100000000E-03 0. -1.
        -11    1    3    3    0    0 -0.49237308684E+01  0.57613862675E+01  0.65107038269E+01  0.99912943090E+01  0.51100000000E-03 0.  1.
        -12    1    3    3    0    0 -0.32346821959E+01  0.36579578584E+02  0.13187101650E+01  0.36745989371E+02  0.00000000000E+00 0.  1.
</event>
<event>
 7    1  0.2148778E-015  0.9000770E+02  0.7816164E-02  0.1186339E+00
        -11   -1    0    0    0    0  0.00000000000E+00  0.00000000000E+00  0.45593999997E+02  0.45594000000E+02  0.51100000000E-03 0. -1.
         11   -1    0    0    0    0 -0.00000000000E+00 -0.00000000000E+00 -0.45593999997E+02  0.45594000000E+02  0.51100000000E-03 0.  1.
    9900012    2    1    2    0    0  0.97068794015E+00  0.41747177115E+00 -0.52592388437E+00  0.90007697628E+02  0.89999958437E+02 0.  0.
         12    1    1    2    0    0 -0.97068794015E+00 -0.41747177115E+00  0.52592388437E+00  0.11803023719E+01  0.00000000000E+00 0. -1.
         11    1    3    3    0    0 -0.24883177336E+02 -0.10456699375E+02  0.19483701805E+02  0.33288582313E+02  0.51100000000E-03 0. -1.
        -11    1    3    3    0    0 -0.68050048756E+01  0.30819423298E+00  0.93375975251E+01  0.11558278542E+02  0.51100000000E-03 0.  1.
        -12    1    3    3    0    0  0.32658870151E+02  0.10565976913E+02 -0.29347223214E+02  0.45160836773E+02  0.00000000000E+00 0.  1.
</event>
<event>
 7    1  0.2148778E-015  0.9000784E+02  0.7816164E-02  0.1186339E+00
        -11   -1    0    0    0    0  0.00000000000E+00  0.00000000000E+00  0.45593999997E+02  0.45594000000E+02  0.51100000000E-03 0.  1.
         11   -1    0    0    0    0 -0.00000000000E+00 -0.00000000000E+00 -0.45593999997E+02  0.45594000000E+02  0.51100000000E-03 0. -1.
    9900012    2    1    2    0    0 -0.47981953854E+00 -0.10771339418E+01 -0.48342321346E-01  0.90007838444E+02  0.90000101111E+02 0.  0.
         12    1    1    2    0    0  0.47981953854E+00  0.10771339418E+01  0.48342321346E-01  0.11801615560E+01  0.00000000000E+00 0. -1.
         11    1    3    3    0    0  0.27217583460E+00  0.23608506168E+01  0.96305047222E+01  0.99193909483E+01  0.51100000000E-03 0. -1.
        -11    1    3    3    0    0  0.32981948949E+01  0.12972765301E+02  0.32230080779E+02  0.34899123719E+02  0.51100000000E-03 0.  1.
         12    1    3    3    0    0 -0.40501902681E+01 -0.16410749859E+02 -0.41908927822E+02  0.45189323776E+02  0.00000000000E+00 0. -1.
</event>
<event>
 7    1  0.2148778E-015  0.9000776E+02  0.7816164E-02  0.1186339E+00
        -11   -1    0    0    0    0  0.00000000000E+00  0.00000000000E+00  0.45593999997E+02  0.45594000000E+02  0.51100000000E-03 0.  1.
         11   -1    0    0    0    0 -0.00000000000E+00 -0.00000000000E+00 -0.45593999997E+02  0.45594000000E+02  0.51100000000E-03 0. -1.
    9900012    2    1    2    0    0 -0.14682043925E+00  0.81975331702E+00  0.83630957015E+00  0.90007760431E+02  0.90000022069E+02 0.  0.
         12    1    1    2    0    0  0.14682043925E+00 -0.81975331702E+00 -0.83630957015E+00  0.11802395686E+01  0.00000000000E+00 0. -1.
         11    1    3    3    0    0 -0.27551800118E+02  0.14430908709E+02 -0.18824898771E+02  0.36355599705E+02  0.51100000000E-03 0. -1.
        -11    1    3    3    0    0 -0.24921660017E+01  0.10860812270E+02  0.27496156204E+01  0.11477304599E+02  0.51100000000E-03 0.  1.
        -12    1    3    3    0    0  0.29897145680E+02 -0.24471967661E+02  0.16911592720E+02  0.42174856128E+02  0.00000000000E+00 0.  1.
</event>
<event>
 7    1  0.2916269E-015  0.9000773E+02  0.7816164E-02  0.1186339E+00
        -11   -1    0    0    0    0  0.00000000000E+00  0.00000000000E+00  0.45593999997E+02  0.45594000000E+02  0.51100000000E-03 0. -1.
         11   -1    0    0    0    0 -0.00000000000E+00 -0.00000000000E+00 -0.45593999997E+02  0.45594000000E+02  0.51100000000E-03 0.  1.
    9900012    2    1    2    0    0  0.91183100303E+00  0.73776380365E+00 -0.13152641908E+00  0.90007732909E+02  0.89999994183E+02 0.  0.
         12    1    1    2    0    0 -0.91183100303E+00 -0.73776380365E+00  0.13152641908E+00  0.11802670914E+01  0.00000000000E+00 0. -1.
         11    1    3    3    0    0 -0.56931857456E+01  0.48602581476E+01  0.57822819214E+01  0.94588190423E+01  0.51100000000E-03 0. -1.
        -11    1    3    3    0    0 -0.27780984926E+01 -0.11754760603E+02 -0.41364360370E+02  0.43091791993E+02  0.51100000000E-03 0.  1.
         12    1    3    3    0    0  0.93831152412E+01  0.76322662590E+01  0.35450552029E+02  0.37457121874E+02  0.00000000000E+00 0. -1.
</event>
<event>
 7    1  0.2148778E-015  0.9000788E+02  0.7816164E-02  0.1186339E+00
        -11   -1    0    0    0    0  0.00000000000E+00  0.00000000000E+00  0.45593999997E+02  0.45594000000E+02  0.51100000000E-03 0. -1.
         11   -1    0    0    0    0 -0.00000000000E+00 -0.00000000000E+00 -0.45593999997E+02  0.45594000000E+02  0.51100000000E-03 0.  1.
    9900012    2    1    2    0    0  0.23890783436E+00  0.40043803231E+00 -0.10840903750E+01  0.90007881569E+02  0.90000144805E+02 0.  0.
         12    1    1    2    0    0 -0.23890783436E+00 -0.40043803231E+00  0.10840903750E+01  0.11801184315E+01  0.00000000000E+00 0. -1.
         11    1    3    3    0    0 -0.33295238000E+00 -0.13347636026E+02 -0.92736120614E+01  0.16256387227E+02  0.51100000000E-03 0. -1.
        -11    1    3    3    0    0  0.12520228149E+02  0.28692618254E+01 -0.29809643044E+02  0.32459260543E+02  0.51100000000E-03 0.  1.
         12    1    3    3    0    0 -0.11948367934E+02  0.10878812233E+02  0.37999164730E+02  0.41292233799E+02  0.00000000000E+00 0. -1.
</event>
<event>
 7    1  0.2221631E-015  0.9000768E+02  0.7816164E-02  0.1186339E+00
        -11   -1    0    0    0    0  0.00000000000E+00  0.00000000000E+00  0.45593999997E+02  0.45594000000E+02  0.51100000000E-03 0.  1.
         11   -1    0    0    0    0 -0.00000000000E+00 -0.00000000000E+00 -0.45593999997E+02  0.45594000000E+02  0.51100000000E-03 0. -1.
    9900012    2    1    2    0    0 -0.50652942336E+00  0.93522726621E+00  0.51179544144E+00  0.90007679421E+02  0.89999939989E+02 0.  0.
         12    1    1    2    0    0  0.50652942336E+00 -0.93522726621E+00 -0.51179544144E+00  0.11803205794E+01  0.00000000000E+00 0. -1.
         11    1    3    3    0    0 -0.79549272202E+00 -0.67927278161E+01 -0.63346679913E+01  0.93221230777E+01  0.51100000000E-03 0. -1.
        -11    1    3    3    0    0  0.28069906862E+02  0.31746612759E+02 -0.35304729080E+01  0.42523303400E+02  0.51100000000E-03 0.  1.
         12    1    3    3    0    0 -0.27780943563E+02 -0.24018657676E+02  0.10376936341E+02  0.38162252942E+02  0.00000000000E+00 0. -1.
</event>
<event>
 7    1  0.2148778E-015  0.9000791E+02  0.7816164E-02  0.1186339E+00
        -11   -1    0    0    0    0  0.00000000000E+00  0.00000000000E+00  0.45593999997E+02  0.45594000000E+02  0.51100000000E-03 0. -1.
         11   -1    0    0    0    0 -0.00000000000E+00 -0.00000000000E+00 -0.45593999997E+02  0.45594000000E+02  0.51100000000E-03 0.  1.
    9900012    2    1    2    0    0 -0.18801822584E+00  0.11538282204E+01  0.16106570546E+00  0.90007909928E+02  0.90000173539E+02 0.  0.
         12    1    1    2    0    0  0.18801822584E+00 -0.11538282204E+01 -0.16106570546E+00  0.11800900715E+01  0.00000000000E+00 0. -1.
         11    1    3    3    0    0 -0.23940989664E+02  0.99345936843E+01  0.23180485130E+02  0.34773582342E+02  0.51100000000E-03 0. -1.
        -11    1    3    3    0    0 -0.54424154652E+01  0.21006029706E+01  0.88919979172E+01  0.10634850547E+02  0.51100000000E-03 0.  1.
        -12    1    3    3    0    0  0.29195386903E+02 -0.10881368435E+02 -0.31911417342E+02  0.44599477040E+02  0.00000000000E+00 0.  1.
</event>
<event>
 7    1  0.2148778E-015  0.9000775E+02  0.7816164E-02  0.1186339E+00
        -11   -1    0    0    0    0  0.00000000000E+00  0.00000000000E+00  0.45593999997E+02  0.45594000000E+02  0.51100000000E-03 0.  1.
         11   -1    0    0    0    0 -0.00000000000E+00 -0.00000000000E+00 -0.45593999997E+02  0.45594000000E+02  0.51100000000E-03 0. -1.
    9900012    2    1    2    0    0 -0.66921200914E+00 -0.93550368281E+00  0.26453365310E+00  0.90007750066E+02  0.90000011567E+02 0.  0.
         12    1    1    2    0    0  0.66921200914E+00  0.93550368281E+00 -0.26453365310E+00  0.11802499343E+01  0.00000000000E+00 0. -1.
         11    1    3    3    0    0 -0.91905602004E+01  0.28733133901E+02 -0.20213783582E+02  0.36313309234E+02  0.51100000000E-03 0. -1.
        -11    1    3    3    0    0  0.48186173481E+00  0.62512118101E+01 -0.57420166104E+01  0.85017995061E+01  0.51100000000E-03 0.  1.
        -12    1    3    3    0    0  0.80394864564E+01 -0.35919849394E+02  0.26220333846E+02  0.45192641325E+02  0.00000000000E+00 0.  1.
</event>
<event>
 7    1  0.2148778E-015  0.9000795E+02  0.7816164E-02  0.1186339E+00
        -11   -1    0    0    0    0  0.00000000000E+00  0.00000000000E+00  0.45593999997E+02  0.45594000000E+02  0.51100000000E-03 0.  1.
         11   -1    0    0    0    0 -0.00000000000E+00 -0.00000000000E+00 -0.45593999997E+02  0.45594000000E+02  0.51100000000E-03 0. -1.
    9900012    2    1    2    0    0 -0.89987831495E+00 -0.66029320019E+00  0.38306836099E+00  0.90007953619E+02  0.90000217807E+02 0.  0.
         12    1    1    2    0    0  0.89987831495E+00  0.66029320019E+00 -0.38306836099E+00  0.11800463809E+01  0.00000000000E+00 0. -1.
         11    1    3    3    0    0  0.30061589189E+02 -0.58236857236E+01 -0.18874556475E+02  0.35970311958E+02  0.51100000000E-03 0. -1.
        -11    1    3    3    0    0  0.29346240701E+01  0.86683038911E+01 -0.65812404178E+01  0.11272277342E+02  0.51100000000E-03 0.  1.
        -12    1    3    3    0    0 -0.33896091574E+02 -0.35049113677E+01  0.25838865253E+02  0.42765364319E+02  0.00000000000E+00 0.  1.
</event>
<event>
 7    1  0.2148778E-015  0.9000769E+02  0.7816164E-02  0.1186339E+00
        -11   -1    0    0    0    0  0.00000000000E+00  0.00000000000E+00  0.45593999997E+02  0.45594000000E+02  0.51100000000E-03 0.  1.
         11   -1    0    0    0    0 -0.00000000000E+00 -0.00000000000E+00 -0.45593999997E+02  0.45594000000E+02  0.51100000000E-03 0. -1.
    9900012    2    1    2    0    0 -0.34582047472E+00  0.48016478637E+00  0.10212621209E+01  0.90007692268E+02  0.89999953006E+02 0.  0.
         12    1    1    2    0    0  0.34582047472E+00 -0.48016478637E+00 -0.10212621209E+01  0.11803077321E+01  0.00000000000E+00 0. -1.
         11    1    3    3    0    0 -0.27440782015E+01 -0.10527545408E+02 -0.38225648054E+01  0.11531312998E+02  0.51100000000E-03 0. -1.
        -11    1    3    3    0    0  0.25728841259E+02  0.91335299050E+01  0.32368745841E+02  0.42345369861E+02  0.51100000000E-03 0.  1.
         12    1    3    3    0    0 -0.23330583532E+02  0.18741802895E+01 -0.27524918915E+02  0.36131009410E+02  0.00000000000E+00 0. -1.
</event>
<event>
 7    1  0.2496586E-015  0.9000775E+02  0.7816164E-02  0.1186339E+00
        -11   -1    0    0    0    0  0.00000000000E+00  0.00000000000E+00  0.45593999997E+02  0.45594000000E+02  0.51100000000E-03 0.  1.
         11   -1    0    0    0    0 -0.00000000000E+00 -0.00000000000E+00 -0.45593999997E+02  0.45594000000E+02  0.51100000000E-03 0. -1.
    9900012    2    1    2    0    0  0.10326883980E+01 -0.41960190510E+00  0.38791457289E+00  0.90007750534E+02  0.90000012041E+02 0.  0.
         12    1    1    2    0    0 -0.10326883980E+01  0.41960190510E+00 -0.38791457289E+00  0.11802494660E+01  0.00000000000E+00 0. -1.
         11    1    3    3    0    0  0.47979012509E+00 -0.73485794606E+01  0.62296080818E+01  0.96457159282E+01  0.51100000000E-03 0. -1.
        -11    1    3    3    0    0  0.13501699153E+02  0.19215474674E+02  0.31313396969E+02  0.39141527524E+02  0.51100000000E-03 0.  1.
         12    1    3    3    0    0 -0.12948800880E+02 -0.12286497118E+02 -0.37155090478E+02  0.41220507082E+02  0.00000000000E+00 0. -1.
</event>
<event>
 7    1  0.2148778E-015  0.9000758E+02  0.7816164E-02  0.1186339E+00
        -11   -1    0    0    0    0  0.00000000000E+00  0.00000000000E+00  0.45593999997E+02  0.45594000000E+02  0.51100000000E-03 0.  1.
         11   -1    0    0    0    0 -0.00000000000E+00 -0.00000000000E+00 -0.45593999997E+02  0.45594000000E+02  0.51100000000E-03 0. -1.
    9900012    2    1    2    0    0  0.38485265868E+00  0.24662869901E+00 -0.10883242882E+01  0.90007581837E+02  0.89999841117E+02 0.  0.
         12    1    1    2    0    0 -0.38485265868E+00 -0.24662869901E+00  0.10883242882E+01  0.11804181634E+01  0.00000000000E+00 0. -1.
         11    1    3    3    0    0 -0.92802477684E+01 -0.16280822862E+01  0.69980330035E+01  0.11736529161E+02  0.51100000000E-03 0. -1.
        -11    1    3    3    0    0  0.36358429156E+01 -0.17339244003E+02  0.30199257412E+02  0.35012339037E+02  0.51100000000E-03 0.  1.
         12    1    3    3    0    0  0.60292575115E+01  0.19213954988E+02 -0.38285614704E+02  0.43258713639E+02  0.00000000000E+00 0. -1.
</event>
<event>
 7    1  0.2148778E-015  0.9000767E+02  0.7816164E-02  0.1186339E+00
        -11   -1    0    0    0    0  0.00000000000E+00  0.00000000000E+00  0.45593999997E+02  0.45594000000E+02  0.51100000000E-03 0.  1.
         11   -1    0    0    0    0 -0.00000000000E+00 -0.00000000000E+00 -0.45593999997E+02  0.45594000000E+02  0.51100000000E-03 0. -1.
    9900012    2    1    2    0    0  0.28673569827E+00  0.92822654468E+00  0.67034014228E+00  0.90007670476E+02  0.89999930926E+02 0.  0.
         12    1    1    2    0    0 -0.28673569827E+00 -0.92822654468E+00 -0.67034014228E+00  0.11803295240E+01  0.00000000000E+00 0. -1.
         11    1    3    3    0    0 -0.32234662575E+01  0.81827399066E+01 -0.27842860604E+01  0.92249778438E+01  0.51100000000E-03 0. -1.
        -11    1    3    3    0    0  0.28884667362E+02  0.21034750948E+02  0.18101821602E+02  0.40055719962E+02  0.51100000000E-03 0.  1.
         12    1    3    3    0    0 -0.25374465407E+02 -0.28289264310E+02 -0.14647195399E+02  0.40726972671E+02  0.00000000000E+00 0. -1.
</event>
<event>
 7    1  0.2148778E-015  0.9000768E+02  0.7816164E-02  0.1186339E+00
        -11   -1    0    0    0    0  0.00000000000E+00  0.00000000000E+00  0.45593999997E+02  0.45594000000E+02  0.51100000000E-03 0. -1.
         11   -1    0    0    0    0 -0.00000000000E+00 -0.00000000000E+00 -0.45593999997E+02  0.45594000000E+02  0.51100000000E-03 0.  1.
    9900012    2    1    2    0    0 -0.10828096622E+01 -0.36326121763E+00 -0.29784880107E+00  0.90007682507E+02  0.89999943116E+02 0.  0.
         12    1    1    2    0    0  0.10828096622E+01  0.36326121763E+00  0.29784880107E+00  0.11803174934E+01  0.00000000000E+00 0. -1.
         11    1    3    3    0    0  0.56392107857E+01  0.98975167527E+01 -0.29387527436E+01  0.11764259607E+02  0.51100000000E-03 0. -1.
        -11    1    3    3    0    0  0.11205321548E+02  0.24881245125E+02 -0.18996083168E+02  0.33248861123E+02  0.51100000000E-03 0.  1.
         12    1    3    3    0    0 -0.17927341996E+02 -0.35142023095E+02  0.21636987111E+02  0.44994561777E+02  0.00000000000E+00 0. -1.
</event>
<event>
 7    1  0.2148778E-015  0.9000774E+02  0.7816164E-02  0.1186339E+00
        -11   -1    0    0    0    0  0.00000000000E+00  0.00000000000E+00  0.45593999997E+02  0.45594000000E+02  0.51100000000E-03 0. -1.
         11   -1    0    0    0    0 -0.00000000000E+00 -0.00000000000E+00 -0.45593999997E+02  0.45594000000E+02  0.51100000000E-03 0.  1.
    9900012    2    1    2    0    0 -0.15477125567E+00  0.11011727287E+01 -0.39556451568E+00  0.90007742907E+02  0.90000004313E+02 0.  0.
         12    1    1    2    0    0  0.15477125567E+00 -0.11011727287E+01  0.39556451568E+00  0.11802570932E+01  0.00000000000E+00 0. -1.
         11    1    3    3    0    0 -0.98425629629E+00 -0.66766633965E+00 -0.82465583786E+01  0.83318823894E+01  0.51100000000E-03 0. -1.
        -11    1    3    3    0    0 -0.16081131716E+01  0.28039125826E+02 -0.26329779016E+02  0.38497218969E+02  0.51100000000E-03 0.  1.
         12    1    3    3    0    0  0.24375982123E+01 -0.26270286758E+02  0.34180772879E+02  0.43178641548E+02  0.00000000000E+00 0. -1.
</event>
<event>
 7    1  0.2148778E-015  0.9000781E+02  0.7816164E-02  0.1186339E+00
        -11   -1    0    0    0    0  0.00000000000E+00  0.00000000000E+00  0.45593999997E+02  0.45594000000E+02  0.51100000000E-03 0. -1.
         11   -1    0    0    0    0 -0.00000000000E+00 -0.00000000000E+00 -0.45593999997E+02  0.45594000000E+02  0.51100000000E-03 0.  1.
    9900012    2    1    2    0    0 -0.10278903609E+01  0.57943113217E+00 -0.23316865490E-01  0.90007812427E+02  0.90000074751E+02 0.  0.
         12    1    1    2    0    0  0.10278903609E+01 -0.57943113217E+00  0.23316865490E-01  0.11801875729E+01  0.00000000000E+00 0. -1.
         11    1    3    3    0    0  0.10509244686E+01 -0.62656364828E+01 -0.11144241500E+02  0.12827967946E+02  0.51100000000E-03 0. -1.
        -11    1    3    3    0    0  0.10610326541E+02  0.21505744842E+02 -0.25956539421E+02  0.35338619519E+02  0.51100000000E-03 0.  1.
         12    1    3    3    0    0 -0.12689141371E+02 -0.14660677227E+02  0.37077464056E+02  0.41841224961E+02  0.00000000000E+00 0. -1.
</event>
<event>
 7    1  0.2148778E-015  0.9000768E+02  0.7816164E-02  0.1186339E+00
        -11   -1    0    0    0    0  0.00000000000E+00  0.00000000000E+00  0.45593999997E+02  0.45594000000E+02  0.51100000000E-03 0. -1.
         11   -1    0    0    0    0 -0.00000000000E+00 -0.00000000000E+00 -0.45593999997E+02  0.45594000000E+02  0.51100000000E-03 0.  1.
    9900012    2    1    2    0    0  0.83390774788E+00  0.68147913085E+00  0.48305626125E+00  0.90007678311E+02  0.89999938865E+02 0.  0.
         12    1    1    2    0    0 -0.83390774788E+00 -0.68147913085E+00 -0.48305626125E+00  0.11803216889E+01  0.00000000000E+00 0. -1.
         11    1    3    3    0    0  0.37507849675E+01  0.85204355930E+01 -0.54386922276E+01  0.10781724536E+02  0.51100000000E-03 0. -1.
        -11    1    3    3    0    0 -0.34040188822E+02 -0.20855739237E+01 -0.18910990678E+02  0.38996277288E+02  0.51100000000E-03 0.  1.
         12    1    3    3    0    0  0.31123311602E+02 -0.57533825384E+01  0.24832739167E+02  0.40229676487E+02  0.00000000000E+00 0. -1.
</event>
<event>
 7    1  0.2148778E-015  0.9000771E+02  0.7816164E-02  0.1186339E+00
        -11   -1    0    0    0    0  0.00000000000E+00  0.00000000000E+00  0.45593999997E+02  0.45594000000E+02  0.51100000000E-03 0.  1.
         11   -1    0    0    0    0 -0.00000000000E+00 -0.00000000000E+00 -0.45593999997E+02  0.45594000000E+02  0.51100000000E-03 0. -1.
    9900012    2    1    2    0    0  0.43448006593E-01  0.80021825193E+00 -0.86652134566E+00  0.90007705027E+02  0.89999965934E+02 0.  0.
         12    1    1    2    0    0 -0.43448006593E-01 -0.80021825193E+00  0.86652134566E+00  0.11802949727E+01  0.00000000000E+00 0. -1.
         11    1    3    3    0    0 -0.32629479069E+01  0.31783530438E+02 -0.52244288423E+01  0.32374902211E+02  0.51100000000E-03 0. -1.
        -11    1    3    3    0    0  0.72690505663E+00  0.13118459653E+02 -0.75795510768E+00  0.13160428216E+02  0.51100000000E-03 0.  1.
        -12    1    3    3    0    0  0.25794908569E+01 -0.44101771839E+02  0.51158626043E+01  0.44472374601E+02  0.00000000000E+00 0.  1.
</event>
<event>
 7    1  0.2148778E-015  0.9000775E+02  0.7816164E-02  0.1186339E+00
        -11   -1    0    0    0    0  0.00000000000E+00  0.00000000000E+00  0.45593999997E+02  0.45594000000E+02  0.51100000000E-03 0. -1.
         11   -1    0    0    0    0 -0.00000000000E+00 -0.00000000000E+00 -0.45593999997E+02  0.45594000000E+02  0.51100000000E-03 0.  1.
    9900012    2    1    2    0    0  0.60673442435E+00  0.32651699948E+00 -0.95824965933E+00  0.90007753237E+02  0.90000014779E+02 0.  0.
         12    1    1    2    0    0 -0.60673442435E+00 -0.32651699948E+00  0.95824965933E+00  0.11802467633E+01  0.00000000000E+00 0. -1.
         11    1    3    3    0    0  0.35739832081E+02 -0.12630821928E+02 -0.38964911107E+01  0.38105851296E+02  0.51100000000E-03 0. -1.
        -11    1    3    3    0    0  0.48977028895E+01 -0.14042758667E+01 -0.65787368814E+01  0.83210133710E+01  0.51100000000E-03 0.  1.
        -12    1    3    3    0    0 -0.40030800547E+02  0.14361614794E+02  0.95169783328E+01  0.43580888569E+02  0.00000000000E+00 0.  1.
</event>
<event>
 7    1  0.2148778E-015  0.9000697E+02  0.7816164E-02  0.1186341E+00
        -11   -1    0    0    0    0  0.00000000000E+00  0.00000000000E+00  0.45593999997E+02  0.45594000000E+02  0.51100000000E-03 0.  1.
         11   -1    0    0    0    0 -0.00000000000E+00 -0.00000000000E+00 -0.45593999997E+02  0.45594000000E+02  0.51100000000E-03 0. -1.
    9900012    2    1    2    0    0 -0.12802561458E+00  0.36778009913E+00  0.11149791303E+01  0.90006970271E+02  0.89999221475E+02 0.  0.
         12    1    1    2    0    0  0.12802561458E+00 -0.36778009913E+00 -0.11149791303E+01  0.11810297288E+01  0.00000000000E+00 0. -1.
         11    1    3    3    0    0 -0.34108959688E+02 -0.18691033413E+02 -0.83112715367E+01  0.39772516841E+02  0.51100000000E-03 0. -1.
        -11    1    3    3    0    0  0.45031228847E+01 -0.46197898164E+01 -0.65443585038E+01  0.91896247013E+01  0.51100000000E-03 0.  1.
        -12    1    3    3    0    0  0.29477811189E+02  0.23678603329E+02  0.15970609171E+02  0.41044828729E+02  0.00000000000E+00 0.  1.
</event>
<event>
 7    1  0.2148778E-015  0.9000770E+02  0.7816164E-02  0.1186339E+00
        -11   -1    0    0    0    0  0.00000000000E+00  0.00000000000E+00  0.45593999997E+02  0.45594000000E+02  0.51100000000E-03 0.  1.
         11   -1    0    0    0    0 -0.00000000000E+00 -0.00000000000E+00 -0.45593999997E+02  0.45594000000E+02  0.51100000000E-03 0. -1.
    9900012    2    1    2    0    0 -0.63407682615E+00 -0.95656597119E+00  0.27573504634E+00  0.90007702709E+02  0.89999963585E+02 0.  0.
         12    1    1    2    0    0  0.63407682615E+00  0.95656597119E+00 -0.27573504634E+00  0.11802972907E+01  0.00000000000E+00 0. -1.
         11    1    3    3    0    0 -0.23659814454E+02 -0.24948823344E+02 -0.12724648906E+02  0.36662614422E+02  0.51100000000E-03 0. -1.
        -11    1    3    3    0    0 -0.27708739491E+01  0.88678305075E+01 -0.11430909663E+02  0.14730304014E+02  0.51100000000E-03 0.  1.
        -12    1    3    3    0    0  0.25796611577E+02  0.15124426865E+02  0.24431293615E+02  0.38614784274E+02  0.00000000000E+00 0.  1.
</event>
<event>
 7    1  0.2148778E-015  0.9000784E+02  0.7816164E-02  0.1186339E+00
        -11   -1    0    0    0    0  0.00000000000E+00  0.00000000000E+00  0.45593999997E+02  0.45594000000E+02  0.51100000000E-03 0.  1.
         11   -1    0    0    0    0 -0.00000000000E+00 -0.00000000000E+00 -0.45593999997E+02  0.45594000000E+02  0.51100000000E-03 0. -1.
    9900012    2    1    2    0    0 -0.97238649853E+00 -0.66798421679E+00 -0.32364046299E-01  0.90007836516E+02  0.90000099158E+02 0.  0.
         12    1    1    2    0    0  0.97238649853E+00  0.66798421679E+00  0.32364046299E-01  0.11801634835E+01  0.00000000000E+00 0. -1.
         11    1    3    3    0    0  0.48187759503E+00  0.12117702215E+02  0.21578586299E+00  0.12129199347E+02  0.51100000000E-03 0. -1.
        -11    1    3    3    0    0 -0.26593453726E+02  0.73752149442E+01 -0.25006104219E+02  0.37241251658E+02  0.51100000000E-03 0.  1.
         12    1    3    3    0    0  0.25139189633E+02 -0.20160901376E+02  0.24757954309E+02  0.40637385512E+02  0.00000000000E+00 0. -1.
</event>
<event>
 7    1  0.2148778E-015  0.9000774E+02  0.7816164E-02  0.1186339E+00
        -11   -1    0    0    0    0  0.00000000000E+00  0.00000000000E+00  0.45593999997E+02  0.45594000000E+02  0.51100000000E-03 0. -1.
         11   -1    0    0    0    0 -0.00000000000E+00 -0.00000000000E+00 -0.45593999997E+02  0.45594000000E+02  0.51100000000E-03 0.  1.
    9900012    2    1    2    0    0  0.22686518313E+00 -0.89694614262E+00 -0.73282341768E+00  0.90007741403E+02  0.90000002790E+02 0.  0.
         12    1    1    2    0    0 -0.22686518313E+00  0.89694614262E+00  0.73282341768E+00  0.11802585969E+01  0.00000000000E+00 0. -1.
         11    1    3    3    0    0  0.27498700099E+02 -0.20464828457E+01  0.23739977496E+02  0.36386166752E+02  0.51100000000E-03 0. -1.
        -11    1    3    3    0    0 -0.62004285585E+00  0.84086894233E+01  0.75594157618E+01  0.11324101637E+02  0.51100000000E-03 0.  1.
        -12    1    3    3    0    0 -0.26651792060E+02 -0.72591527203E+01 -0.32032216676E+02  0.42297473014E+02  0.00000000000E+00 0.  1.
</event>
<event>
 7    1  0.2148778E-015  0.9000772E+02  0.7816164E-02  0.1186339E+00
        -11   -1    0    0    0    0  0.00000000000E+00  0.00000000000E+00  0.45593999997E+02  0.45594000000E+02  0.51100000000E-03 0.  1.
         11   -1    0    0    0    0 -0.00000000000E+00 -0.00000000000E+00 -0.45593999997E+02  0.45594000000E+02  0.51100000000E-03 0. -1.
    9900012    2    1    2    0    0 -0.16848634559E+00 -0.11427289778E+01 -0.24257085540E+00  0.90007721310E+02  0.89999982432E+02 0.  0.
         12    1    1    2    0    0  0.16848634559E+00  0.11427289778E+01  0.24257085540E+00  0.11802786897E+01  0.00000000000E+00 0. -1.
         11    1    3    3    0    0 -0.27862544777E+01  0.80424821488E+01 -0.84901988758E+01  0.12021988618E+02  0.51100000000E-03 0. -1.
        -11    1    3    3    0    0  0.45496547821E+01  0.33027126500E+02 -0.49762799322E+01  0.33708364032E+02  0.51100000000E-03 0.  1.
         12    1    3    3    0    0 -0.19318866500E+01 -0.42212337627E+02  0.13223907953E+02  0.44277368660E+02  0.00000000000E+00 0. -1.
</event>
<event>
 7    1  0.2148778E-015  0.9000790E+02  0.7816164E-02  0.1186339E+00
        -11   -1    0    0    0    0  0.00000000000E+00  0.00000000000E+00  0.45593999997E+02  0.45594000000E+02  0.51100000000E-03 0.  1.
         11   -1    0    0    0    0 -0.00000000000E+00 -0.00000000000E+00 -0.45593999997E+02  0.45594000000E+02  0.51100000000E-03 0. -1.
    9900012    2    1    2    0    0 -0.57131652149E+00  0.43730711722E+00  0.93541843178E+00  0.90007895036E+02  0.90000158451E+02 0.  0.
         12    1    1    2    0    0  0.57131652149E+00 -0.43730711722E+00 -0.93541843178E+00  0.11801049636E+01  0.00000000000E+00 0. -1.
         11    1    3    3    0    0  0.24271276951E+02 -0.20984377308E+02 -0.21860936793E+02  0.38824470808E+02  0.51100000000E-03 0. -1.
        -11    1    3    3    0    0  0.36955322823E+01  0.67629345550E+01 -0.46170204753E+01  0.89839368305E+01  0.51100000000E-03 0.  1.
        -12    1    3    3    0    0 -0.28538125755E+02  0.14658749870E+02  0.27413375700E+02  0.42199487398E+02  0.00000000000E+00 0.  1.
</event>
<event>
 7    1  0.2148778E-015  0.9000777E+02  0.7816164E-02  0.1186339E+00
        -11   -1    0    0    0    0  0.00000000000E+00  0.00000000000E+00  0.45593999997E+02  0.45594000000E+02  0.51100000000E-03 0.  1.
         11   -1    0    0    0    0 -0.00000000000E+00 -0.00000000000E+00 -0.45593999997E+02  0.45594000000E+02  0.51100000000E-03 0. -1.
    9900012    2    1    2    0    0  0.23977554317E+00 -0.45172226496E+00  0.10636759763E+01  0.90007766168E+02  0.90000027881E+02 0.  0.
         12    1    1    2    0    0 -0.23977554317E+00  0.45172226496E+00 -0.10636759763E+01  0.11802338320E+01  0.00000000000E+00 0. -1.
         11    1    3    3    0    0 -0.11390362089E+02 -0.29637633308E+02 -0.17945083091E+02  0.36471299182E+02  0.51100000000E-03 0. -1.
        -11    1    3    3    0    0  0.56458566010E+00 -0.52874361851E+01 -0.71203885384E+01  0.88868257313E+01  0.51100000000E-03 0.  1.
        -12    1    3    3    0    0  0.11065551972E+02  0.34473347228E+02  0.26129147606E+02  0.44649641255E+02  0.00000000000E+00 0.  1.
</event>
<event>
 7    1  0.2148778E-015  0.9000775E+02  0.7816164E-02  0.1186339E+00
        -11   -1    0    0    0    0  0.00000000000E+00  0.00000000000E+00  0.45593999997E+02  0.45594000000E+02  0.51100000000E-03 0. -1.
         11   -1    0    0    0    0 -0.00000000000E+00 -0.00000000000E+00 -0.45593999997E+02  0.45594000000E+02  0.51100000000E-03 0.  1.
    9900012    2    1    2    0    0  0.49240995806E+00  0.25808127943E+00 -0.10411184458E+01  0.90007745311E+02  0.90000006749E+02 0.  0.
         12    1    1    2    0    0 -0.49240995806E+00 -0.25808127943E+00  0.10411184458E+01  0.11802546894E+01  0.00000000000E+00 0. -1.
         11    1    3    3    0    0 -0.36507975803E+02 -0.78642580074E+01 -0.41749849509E+01  0.37578043468E+02  0.51100000000E-03 0. -1.
        -11    1    3    3    0    0  0.21512605028E+01  0.12936361481E+02  0.10117414340E+02  0.16563195443E+02  0.51100000000E-03 0.  1.
        -12    1    3    3    0    0  0.34849125259E+02 -0.48140221937E+01 -0.69835478346E+01  0.35866506400E+02  0.00000000000E+00 0.  1.
</event>
<event>
 7    1  0.2148778E-015  0.9000773E+02  0.7816164E-02  0.1186339E+00
        -11   -1    0    0    0    0  0.00000000000E+00  0.00000000000E+00  0.45593999997E+02  0.45594000000E+02  0.51100000000E-03 0.  1.
         11   -1    0    0    0    0 -0.00000000000E+00 -0.00000000000E+00 -0.45593999997E+02  0.45594000000E+02  0.51100000000E-03 0. -1.
    9900012    2    1    2    0    0  0.63155748798E+00  0.14552321794E+00  0.98640974305E+00  0.90007726282E+02  0.89999987469E+02 0.  0.
         12    1    1    2    0    0 -0.63155748798E+00 -0.14552321794E+00 -0.98640974305E+00  0.11802737177E+01  0.00000000000E+00 0. -1.
         11    1    3    3    0    0 -0.75831920815E+01  0.38477582111E+01  0.30449901832E-01  0.85035858820E+01  0.51100000000E-03 0. -1.
        -11    1    3    3    0    0  0.79143466483E+01  0.34818375713E+02 -0.16352033693E+02  0.39272702687E+02  0.51100000000E-03 0.  1.
         12    1    3    3    0    0  0.30040292119E+00 -0.38520610707E+02  0.17307993535E+02  0.42231437713E+02  0.00000000000E+00 0. -1.
</event>
<event>
 7    1  0.2148778E-015  0.9000789E+02  0.7816164E-02  0.1186339E+00
        -11   -1    0    0    0    0  0.00000000000E+00  0.00000000000E+00  0.45593999997E+02  0.45594000000E+02  0.51100000000E-03 0.  1.
         11   -1    0    0    0    0 -0.00000000000E+00 -0.00000000000E+00 -0.45593999997E+02  0.45594000000E+02  0.51100000000E-03 0. -1.
    9900012    2    1    2    0    0 -0.29846932447E+00 -0.66313917187E+00  0.92942661090E+00  0.90007885038E+02  0.90000148320E+02 0.  0.
         12    1    1    2    0    0  0.29846932447E+00  0.66313917187E+00 -0.92942661090E+00  0.11801149622E+01  0.00000000000E+00 0. -1.
         11    1    3    3    0    0 -0.10332411487E+02  0.27555962403E+01 -0.59306069142E+01  0.12228006232E+02  0.51100000000E-03 0. -1.
        -11    1    3    3    0    0  0.30636334067E+02  0.10234853480E+02 -0.22527543800E+02  0.39380546222E+02  0.51100000000E-03 0.  1.
         12    1    3    3    0    0 -0.20602391905E+02 -0.13653588892E+02  0.29387577325E+02  0.38399332583E+02  0.00000000000E+00 0. -1.
</event>
<event>
 7    1  0.2148778E-015  0.9000776E+02  0.7816164E-02  0.1186339E+00
        -11   -1    0    0    0    0  0.00000000000E+00  0.00000000000E+00  0.45593999997E+02  0.45594000000E+02  0.51100000000E-03 0.  1.
         11   -1    0    0    0    0 -0.00000000000E+00 -0.00000000000E+00 -0.45593999997E+02  0.45594000000E+02  0.51100000000E-03 0. -1.
    9900012    2    1    2    0    0  0.67050289648E+00 -0.92139207927E+00 -0.30730128314E+00  0.90007757831E+02  0.90000019435E+02 0.  0.
         12    1    1    2    0    0 -0.67050289648E+00  0.92139207927E+00  0.30730128314E+00  0.11802421686E+01  0.00000000000E+00 0. -1.
         11    1    3    3    0    0  0.82544925679E+01  0.63927426805E+01 -0.22996807692E+02  0.25255830432E+02  0.51100000000E-03 0. -1.
        -11    1    3    3    0    0 -0.21111485171E+02  0.96811587255E+01 -0.10175961716E+02  0.25356849913E+02  0.51100000000E-03 0.  1.
        -12    1    3    3    0    0  0.13527495500E+02 -0.16995293485E+02  0.32865468124E+02  0.39395077487E+02  0.00000000000E+00 0.  1.
</event>
<event>
 7    1  0.2148778E-015  0.9000771E+02  0.7816164E-02  0.1186339E+00
        -11   -1    0    0    0    0  0.00000000000E+00  0.00000000000E+00  0.45593999997E+02  0.45594000000E+02  0.51100000000E-03 0. -1.
         11   -1    0    0    0    0 -0.00000000000E+00 -0.00000000000E+00 -0.45593999997E+02  0.45594000000E+02  0.51100000000E-03 0.  1.
    9900012    2    1    2    0    0  0.84960451719E+00 -0.16669291171E+00 -0.80216901774E+00  0.90007707877E+02  0.89999968821E+02 0.  0.
         12    1    1    2    0    0 -0.84960451719E+00  0.16669291171E+00  0.80216901774E+00  0.11802921229E+01  0.00000000000E+00 0. -1.
         11    1    3    3    0    0 -0.60397696162E+01 -0.27850831653E+01 -0.10628625628E+02  0.12538069559E+02  0.51100000000E-03 0. -1.
        -11    1    3    3    0    0 -0.14594852394E+01 -0.20696496999E+01 -0.33247739068E+02  0.33344050450E+02  0.51100000000E-03 0.  1.
         12    1    3    3    0    0  0.83488593728E+01  0.46880399534E+01  0.43074195678E+02  0.44125587868E+02  0.00000000000E+00 0. -1.
</event>
<event>
 7    1  0.2148778E-015  0.9000773E+02  0.7816164E-02  0.1186339E+00
        -11   -1    0    0    0    0  0.00000000000E+00  0.00000000000E+00  0.45593999997E+02  0.45594000000E+02  0.51100000000E-03 0. -1.
         11   -1    0    0    0    0 -0.00000000000E+00 -0.00000000000E+00 -0.45593999997E+02  0.45594000000E+02  0.51100000000E-03 0.  1.
    9900012    2    1    2    0    0  0.40398664230E+00 -0.85087819411E+00 -0.71122169167E+00  0.90007730877E+02  0.89999992124E+02 0.  0.
         12    1    1    2    0    0 -0.40398664230E+00  0.85087819411E+00  0.71122169167E+00  0.11802691232E+01  0.00000000000E+00 0. -1.
         11    1    3    3    0    0  0.80311717557E+01 -0.14215982638E+01  0.54948895960E+01  0.98343516984E+01  0.51100000000E-03 0. -1.
        -11    1    3    3    0    0  0.15414644542E+02  0.35104771237E+02 -0.47425132542E+01  0.38632210164E+02  0.51100000000E-03 0.  1.
         12    1    3    3    0    0 -0.23041829656E+02 -0.34534051167E+02 -0.14635980335E+01  0.41541169014E+02  0.00000000000E+00 0. -1.
</event>
<event>
 7    1  0.2148778E-015  0.9000773E+02  0.7816164E-02  0.1186339E+00
        -11   -1    0    0    0    0  0.00000000000E+00  0.00000000000E+00  0.45593999997E+02  0.45594000000E+02  0.51100000000E-03 0.  1.
         11   -1    0    0    0    0 -0.00000000000E+00 -0.00000000000E+00 -0.45593999997E+02  0.45594000000E+02  0.51100000000E-03 0. -1.
    9900012    2    1    2    0    0 -0.12498649579E+00  0.11223145159E+01  0.34325481923E+00  0.90007730807E+02  0.89999992054E+02 0.  0.
         12    1    1    2    0    0  0.12498649579E+00 -0.11223145159E+01 -0.34325481923E+00  0.11802691929E+01  0.00000000000E+00 0. -1.
         11    1    3    3    0    0 -0.25198689155E+01 -0.22291331308E+02 -0.31252186804E+02  0.38470149091E+02  0.51100000000E-03 0. -1.
        -11    1    3    3    0    0  0.10067058957E+02 -0.10001513468E+00 -0.15444693547E+01  0.10185335778E+02  0.51100000000E-03 0.  1.
        -12    1    3    3    0    0 -0.76721765371E+01  0.23513660959E+02  0.33139910978E+02  0.41352245938E+02  0.00000000000E+00 0.  1.
</event>
<event>
 7    1  0.2148778E-015  0.9000736E+02  0.7816164E-02  0.1186340E+00
        -11   -1    0    0    0    0  0.00000000000E+00  0.00000000000E+00  0.45593999997E+02  0.45594000000E+02  0.51100000000E-03 0. -1.
         11   -1    0    0    0    0 -0.00000000000E+00 -0.00000000000E+00 -0.45593999997E+02  0.45594000000E+02  0.51100000000E-03 0.  1.
    9900012    2    1    2    0    0  0.66666055495E+00 -0.31146671383E+00 -0.92329095424E+00  0.90007358651E+02  0.89999614984E+02 0.  0.
         12    1    1    2    0    0 -0.66666055495E+00  0.31146671383E+00  0.92329095424E+00  0.11806413492E+01  0.00000000000E+00 0. -1.
         11    1    3    3    0    0  0.28841402999E+02 -0.16669429469E+02  0.24168707972E+02  0.41156079151E+02  0.51100000000E-03 0. -1.
        -11    1    3    3    0    0 -0.80649407541E+01 -0.27959341127E+01  0.32846333019E+01  0.91460009359E+01  0.51100000000E-03 0.  1.
        -12    1    3    3    0    0 -0.20109801690E+02  0.19153896867E+02 -0.28376632228E+02  0.39705278564E+02  0.00000000000E+00 0.  1.
</event>
<event>
 7    1  0.2148778E-015  0.9000770E+02  0.7816164E-02  0.1186339E+00
        -11   -1    0    0    0    0  0.00000000000E+00  0.00000000000E+00  0.45593999997E+02  0.45594000000E+02  0.51100000000E-03 0.  1.
         11   -1    0    0    0    0 -0.00000000000E+00 -0.00000000000E+00 -0.45593999997E+02  0.45594000000E+02  0.51100000000E-03 0. -1.
    9900012    2    1    2    0    0 -0.73775324295E+00  0.87902166663E+00  0.27596422744E+00  0.90007696991E+02  0.89999957791E+02 0.  0.
         12    1    1    2    0    0  0.73775324295E+00 -0.87902166663E+00 -0.27596422744E+00  0.11803030089E+01  0.00000000000E+00 0. -1.
         11    1    3    3    0    0  0.71134123734E+01 -0.76621600381E+01 -0.44554089098E+00  0.10464599323E+02  0.51100000000E-03 0. -1.
        -11    1    3    3    0    0 -0.12654373978E+01 -0.61216814110E+01  0.38228856476E+02  0.38736569063E+02  0.51100000000E-03 0.  1.
         12    1    3    3    0    0 -0.65857282186E+01  0.14662863116E+02 -0.37507351357E+02  0.40806528605E+02  0.00000000000E+00 0. -1.
</event>
<event>
 7    1  0.2148778E-015  0.9000776E+02  0.7816164E-02  0.1186339E+00
        -11   -1    0    0    0    0  0.00000000000E+00  0.00000000000E+00  0.45593999997E+02  0.45594000000E+02  0.51100000000E-03 0. -1.
         11   -1    0    0    0    0 -0.00000000000E+00 -0.00000000000E+00 -0.45593999997E+02  0.45594000000E+02  0.51100000000E-03 0.  1.
    9900012    2    1    2    0    0  0.30257767827E+00  0.10307911823E+01 -0.48875552563E+00  0.90007760331E+02  0.90000021967E+02 0.  0.
         12    1    1    2    0    0 -0.30257767827E+00 -0.10307911823E+01  0.48875552563E+00  0.11802396692E+01  0.00000000000E+00 0. -1.
         11    1    3    3    0    0 -0.45452754150E+01 -0.83607424647E+01  0.44391944779E+01  0.10500856681E+02  0.51100000000E-03 0. -1.
        -11    1    3    3    0    0  0.24683097879E+02 -0.25159425548E+02  0.10512127767E+02  0.36779842921E+02  0.51100000000E-03 0.  1.
         12    1    3    3    0    0 -0.19835244786E+02  0.34550959195E+02 -0.15440077771E+02  0.42727060729E+02  0.00000000000E+00 0. -1.
</event>
<event>
 7    1  0.2148778E-015  0.9000773E+02  0.7816164E-02  0.1186339E+00
        -11   -1    0    0    0    0  0.00000000000E+00  0.00000000000E+00  0.45593999997E+02  0.45594000000E+02  0.51100000000E-03 0.  1.
         11   -1    0    0    0    0 -0.00000000000E+00 -0.00000000000E+00 -0.45593999997E+02  0.45594000000E+02  0.51100000000E-03 0. -1.
    9900012    2    1    2    0    0 -0.81689337388E+00  0.82545796812E+00  0.21057020673E+00  0.90007730771E+02  0.89999992017E+02 0.  0.
         12    1    1    2    0    0  0.81689337388E+00 -0.82545796812E+00 -0.21057020673E+00  0.11802692292E+01  0.00000000000E+00 0. -1.
         11    1    3    3    0    0 -0.36559781396E+00  0.76112453224E+01 -0.21973292660E+01  0.79305090180E+01  0.51100000000E-03 0. -1.
        -11    1    3    3    0    0  0.24058252563E+02 -0.20263728640E+02  0.29509385297E+02  0.43130291394E+02  0.51100000000E-03 0.  1.
         12    1    3    3    0    0 -0.24509548123E+02  0.13477941286E+02 -0.27101485824E+02  0.38946930359E+02  0.00000000000E+00 0. -1.
</event>
<event>
 7    1  0.2148778E-015  0.9000775E+02  0.7816164E-02  0.1186339E+00
        -11   -1    0    0    0    0  0.00000000000E+00  0.00000000000E+00  0.45593999997E+02  0.45594000000E+02  0.51100000000E-03 0. -1.
         11   -1    0    0    0    0 -0.00000000000E+00 -0.00000000000E+00 -0.45593999997E+02  0.45594000000E+02  0.51100000000E-03 0.  1.
    9900012    2    1    2    0    0 -0.74423550146E+00 -0.84121240513E+00 -0.36258345611E+00  0.90007749368E+02  0.90000010859E+02 0.  0.
         12    1    1    2    0    0  0.74423550146E+00  0.84121240513E+00  0.36258345611E+00  0.11802506322E+01  0.00000000000E+00 0. -1.
         11    1    3    3    0    0 -0.30218036899E+01  0.75135869048E+01  0.40258847438E+01  0.90439501296E+01  0.51100000000E-03 0. -1.
        -11    1    3    3    0    0  0.22824314601E+02 -0.37871811167E+02  0.27291795969E+01  0.44302052318E+02  0.51100000000E-03 0.  1.
         12    1    3    3    0    0 -0.20546746413E+02  0.29517011857E+02 -0.71176477967E+01  0.36661746920E+02  0.00000000000E+00 0. -1.
</event>
<event>
 7    1  0.2148778E-015  0.9000769E+02  0.7816164E-02  0.1186339E+00
        -11   -1    0    0    0    0  0.00000000000E+00  0.00000000000E+00  0.45593999997E+02  0.45594000000E+02  0.51100000000E-03 0.  1.
         11   -1    0    0    0    0 -0.00000000000E+00 -0.00000000000E+00 -0.45593999997E+02  0.45594000000E+02  0.51100000000E-03 0. -1.
    9900012    2    1    2    0    0  0.51180718467E+00  0.10631981950E+01  0.28298898741E-01  0.90007687404E+02  0.89999948078E+02 0.  0.
         12    1    1    2    0    0 -0.51180718467E+00 -0.10631981950E+01 -0.28298898741E-01  0.11803125958E+01  0.00000000000E+00 0. -1.
         11    1    3    3    0    0  0.64821750041E+01  0.10768303253E+02  0.12623448149E+02  0.17813657433E+02  0.51100000000E-03 0. -1.
        -11    1    3    3    0    0 -0.13806331197E+02 -0.17211828423E+02  0.24835922728E+02  0.33221753066E+02  0.51100000000E-03 0.  1.
         12    1    3    3    0    0  0.78359633778E+01  0.75067233653E+01 -0.37431071978E+02  0.38972276905E+02  0.00000000000E+00 0. -1.
</event>
<event>
 7    1  0.2148778E-015  0.9000766E+02  0.7816164E-02  0.1186339E+00
        -11   -1    0    0    0    0  0.00000000000E+00  0.00000000000E+00  0.45593999997E+02  0.45594000000E+02  0.51100000000E-03 0. -1.
         11   -1    0    0    0    0 -0.00000000000E+00 -0.00000000000E+00 -0.45593999997E+02  0.45594000000E+02  0.51100000000E-03 0.  1.
    9900012    2    1    2    0    0  0.59420480152E+00 -0.62416724457E+00 -0.80655700265E+00  0.90007661788E+02  0.89999922124E+02 0.  0.
         12    1    1    2    0    0 -0.59420480152E+00  0.62416724457E+00  0.80655700265E+00  0.11803382116E+01  0.00000000000E+00 0. -1.
         11    1    3    3    0    0 -0.16973207819E+02  0.19741097382E+01  0.32665745110E+02  0.36865129822E+02  0.51100000000E-03 0. -1.
        -11    1    3    3    0    0  0.75382413132E+00  0.18913824386E+01  0.79534029728E+01  0.82098841319E+01  0.51100000000E-03 0.  1.
        -12    1    3    3    0    0  0.16813588489E+02 -0.44896594214E+01 -0.41425705085E+02  0.44932647835E+02  0.00000000000E+00 0.  1.
</event>
<event>
 7    1  0.2148778E-015  0.9000776E+02  0.7816164E-02  0.1186339E+00
        -11   -1    0    0    0    0  0.00000000000E+00  0.00000000000E+00  0.45593999997E+02  0.45594000000E+02  0.51100000000E-03 0. -1.
         11   -1    0    0    0    0 -0.00000000000E+00 -0.00000000000E+00 -0.45593999997E+02  0.45594000000E+02  0.51100000000E-03 0.  1.
    9900012    2    1    2    0    0  0.21427809659E-01 -0.74324310651E+00 -0.91656698053E+00  0.90007760831E+02  0.90000022474E+02 0.  0.
         12    1    1    2    0    0 -0.21427809659E-01  0.74324310651E+00  0.91656698053E+00  0.11802391691E+01  0.00000000000E+00 0. -1.
         11    1    3    3    0    0  0.76867003277E+01 -0.81065185462E+01  0.18343014689E+01  0.11321027648E+02  0.51100000000E-03 0. -1.
        -11    1    3    3    0    0  0.13654814220E+02  0.12975852424E-01 -0.36004820008E+02  0.38507157566E+02  0.51100000000E-03 0.  1.
         12    1    3    3    0    0 -0.21320086738E+02  0.73502995873E+01  0.33253951558E+02  0.40179575617E+02  0.00000000000E+00 0. -1.
</event>
<event>
 7    1  0.2148778E-015  0.9000775E+02  0.7816164E-02  0.1186339E+00
        -11   -1    0    0    0    0  0.00000000000E+00  0.00000000000E+00  0.45593999997E+02  0.45594000000E+02  0.51100000000E-03 0. -1.
         11   -1    0    0    0    0 -0.00000000000E+00 -0.00000000000E+00 -0.45593999997E+02  0.45594000000E+02  0.51100000000E-03 0.  1.
    9900012    2    1    2    0    0  0.83926944689E+00  0.34725297546E-01 -0.82910295456E+00  0.90007749704E+02  0.90000011201E+02 0.  0.
         12    1    1    2    0    0 -0.83926944689E+00 -0.34725297546E-01  0.82910295456E+00  0.11802502955E+01  0.00000000000E+00 0. -1.
         11    1    3    3    0    0  0.13150689706E+01  0.73354381394E+01  0.30828517013E+01  0.80648641630E+01  0.51100000000E-03 0. -1.
        -11    1    3    3    0    0 -0.12851158073E+02  0.27099495951E+02  0.21945924995E+02  0.37163941782E+02  0.51100000000E-03 0.  1.
         12    1    3    3    0    0  0.12375358549E+02 -0.34400208793E+02 -0.25857879651E+02  0.44778943760E+02  0.00000000000E+00 0. -1.
</event>
<event>
 7    1  0.2148778E-015  0.9000810E+02  0.7816164E-02  0.1186338E+00
        -11   -1    0    0    0    0  0.00000000000E+00  0.00000000000E+00  0.45593999997E+02  0.45594000000E+02  0.51100000000E-03 0. -1.
         11   -1    0    0    0    0 -0.00000000000E+00 -0.00000000000E+00 -0.45593999997E+02  0.45594000000E+02  0.51100000000E-03 0.  1.
    9900012    2    1    2    0    0 -0.69516748303E+00  0.86038723060E+00 -0.41064531513E+00  0.90008104415E+02  0.90000370593E+02 0.  0.
         12    1    1    2    0    0  0.69516748303E+00 -0.86038723060E+00  0.41064531513E+00  0.11798955847E+01  0.00000000000E+00 0. -1.
         11    1    3    3    0    0  0.10244057740E+02  0.19986899164E+00 -0.34540516285E+01  0.10812545469E+02  0.51100000000E-03 0. -1.
        -11    1    3    3    0    0  0.46479471808E+01 -0.15905216111E+02 -0.32797677926E+02  0.36745979237E+02  0.51100000000E-03 0.  1.
         12    1    3    3    0    0 -0.15587172404E+02  0.16565734350E+02  0.35841084239E+02  0.42449579710E+02  0.00000000000E+00 0. -1.
</event>
<event>
 7    1  0.2148778E-015  0.9000775E+02  0.7816164E-02  0.1186339E+00
        -11   -1    0    0    0    0  0.00000000000E+00  0.00000000000E+00  0.45593999997E+02  0.45594000000E+02  0.51100000000E-03 0.  1.
         11   -1    0    0    0    0 -0.00000000000E+00 -0.00000000000E+00 -0.45593999997E+02  0.45594000000E+02  0.51100000000E-03 0. -1.
    9900012    2    1    2    0    0 -0.10099989300E+01  0.39490890640E+00  0.46577639491E+00  0.90007746412E+02  0.90000007864E+02 0.  0.
         12    1    1    2    0    0  0.10099989300E+01 -0.39490890640E+00 -0.46577639491E+00  0.11802535885E+01  0.00000000000E+00 0. -1.
         11    1    3    3    0    0 -0.11128607108E+02 -0.20749961303E+01  0.33275825529E+01  0.11799335194E+02  0.51100000000E-03 0. -1.
        -11    1    3    3    0    0 -0.19369110648E+02  0.24904290850E+02  0.17346628284E+02  0.36004050649E+02  0.51100000000E-03 0.  1.
         12    1    3    3    0    0  0.29487718826E+02 -0.22434385813E+02 -0.20208434442E+02  0.42204360569E+02  0.00000000000E+00 0. -1.
</event>
<event>
 7    1  0.2148778E-015  0.9000775E+02  0.7816164E-02  0.1186339E+00
        -11   -1    0    0    0    0  0.00000000000E+00  0.00000000000E+00  0.45593999997E+02  0.45594000000E+02  0.51100000000E-03 0. -1.
         11   -1    0    0    0    0 -0.00000000000E+00 -0.00000000000E+00 -0.45593999997E+02  0.45594000000E+02  0.51100000000E-03 0.  1.
    9900012    2    1    2    0    0  0.15226814211E+00 -0.10784183077E+01 -0.45476172320E+00  0.90007754323E+02  0.90000015880E+02 0.  0.
         12    1    1    2    0    0 -0.15226814211E+00  0.10784183077E+01  0.45476172320E+00  0.11802456771E+01  0.00000000000E+00 0. -1.
         11    1    3    3    0    0 -0.28618340567E+02  0.24884509668E+02  0.31059751130E+01  0.38051219689E+02  0.51100000000E-03 0. -1.
        -11    1    3    3    0    0 -0.62390532122E+01 -0.43027285418E+01  0.60307750773E+01  0.96855307642E+01  0.51100000000E-03 0.  1.
        -12    1    3    3    0    0  0.35009661921E+02 -0.21660199434E+02 -0.95915119135E+01  0.42271003869E+02  0.00000000000E+00 0.  1.
</event>
<event>
 7    1  0.2148778E-015  0.9000778E+02  0.7816164E-02  0.1186339E+00
        -11   -1    0    0    0    0  0.00000000000E+00  0.00000000000E+00  0.45593999997E+02  0.45594000000E+02  0.51100000000E-03 0.  1.
         11   -1    0    0    0    0 -0.00000000000E+00 -0.00000000000E+00 -0.45593999997E+02  0.45594000000E+02  0.51100000000E-03 0. -1.
    9900012    2    1    2    0    0  0.69815467281E+00 -0.12235245571E+00  0.94367396653E+00  0.90007783653E+02  0.90000045597E+02 0.  0.
         12    1    1    2    0    0 -0.69815467281E+00  0.12235245571E+00 -0.94367396653E+00  0.11802163470E+01  0.00000000000E+00 0. -1.
         11    1    3    3    0    0 -0.87687330444E+01 -0.38793977887E+01 -0.57546905871E-01  0.95887287121E+01  0.51100000000E-03 0. -1.
        -11    1    3    3    0    0 -0.26335991517E+02 -0.22907727104E+02  0.62845002930E+01  0.35466087386E+02  0.51100000000E-03 0.  1.
         12    1    3    3    0    0  0.35802879234E+02  0.26664772437E+02 -0.52832794206E+01  0.44952967555E+02  0.00000000000E+00 0. -1.
</event>
<event>
 7    1  0.2148778E-015  0.9000771E+02  0.7816164E-02  0.1186339E+00
        -11   -1    0    0    0    0  0.00000000000E+00  0.00000000000E+00  0.45593999997E+02  0.45594000000E+02  0.51100000000E-03 0.  1.
         11   -1    0    0    0    0 -0.00000000000E+00 -0.00000000000E+00 -0.45593999997E+02  0.45594000000E+02  0.51100000000E-03 0. -1.
    9900012    2    1    2    0    0 -0.63895430498E+00 -0.52558885261E+00  0.84177492250E+00  0.90007707127E+02  0.89999968061E+02 0.  0.
         12    1    1    2    0    0  0.63895430498E+00  0.52558885261E+00 -0.84177492250E+00  0.11802928730E+01  0.00000000000E+00 0. -1.
         11    1    3    3    0    0 -0.11290465699E+02  0.42895608544E+01  0.22042525944E+01  0.12277364448E+02  0.51100000000E-03 0. -1.
        -11    1    3    3    0    0 -0.24342358440E+02  0.18358915504E+01 -0.25030681004E+02  0.34963636882E+02  0.51100000000E-03 0.  1.
         12    1    3    3    0    0  0.34993869834E+02 -0.66510412574E+01  0.23668203332E+02  0.42766705797E+02  0.00000000000E+00 0. -1.
</event>
<event>
 7    1  0.2148778E-015  0.9000772E+02  0.7816164E-02  0.1186339E+00
        -11   -1    0    0    0    0  0.00000000000E+00  0.00000000000E+00  0.45593999997E+02  0.45594000000E+02  0.51100000000E-03 0. -1.
         11   -1    0    0    0    0 -0.00000000000E+00 -0.00000000000E+00 -0.45593999997E+02  0.45594000000E+02  0.51100000000E-03 0.  1.
    9900012    2    1    2    0    0 -0.10345248605E+01 -0.65951289258E-01 -0.56433822263E+00  0.90007716606E+02  0.89999977666E+02 0.  0.
         12    1    1    2    0    0  0.10345248605E+01  0.65951289258E-01  0.56433822263E+00  0.11802833935E+01  0.00000000000E+00 0. -1.
         11    1    3    3    0    0 -0.18891796865E+02  0.29500617383E+02 -0.13136206073E+02  0.37413183840E+02  0.51100000000E-03 0. -1.
        -11    1    3    3    0    0 -0.12649471502E+01  0.84344791411E+01  0.20716410156E+01  0.87768004667E+01  0.51100000000E-03 0.  1.
        -12    1    3    3    0    0  0.19122219155E+02 -0.38001047814E+02  0.10500226835E+02  0.43817732300E+02  0.00000000000E+00 0.  1.
</event>
<event>
 7    1  0.2148778E-015  0.9000773E+02  0.7816164E-02  0.1186339E+00
        -11   -1    0    0    0    0  0.00000000000E+00  0.00000000000E+00  0.45593999997E+02  0.45594000000E+02  0.51100000000E-03 0. -1.
         11   -1    0    0    0    0 -0.00000000000E+00 -0.00000000000E+00 -0.45593999997E+02  0.45594000000E+02  0.51100000000E-03 0.  1.
    9900012    2    1    2    0    0 -0.10635942978E+01  0.15054585622E+00  0.48901296008E+00  0.90007732844E+02  0.89999994117E+02 0.  0.
         12    1    1    2    0    0  0.10635942978E+01 -0.15054585622E+00 -0.48901296008E+00  0.11802671563E+01  0.00000000000E+00 0. -1.
         11    1    3    3    0    0 -0.97944260191E+00  0.37901950039E+00 -0.20402402778E+01  0.22946773726E+01  0.51100000000E-03 0. -1.
        -11    1    3    3    0    0 -0.69438684760E+01  0.18872590766E+02 -0.37658428979E+02  0.42691325408E+02  0.51100000000E-03 0.  1.
         12    1    3    3    0    0  0.68597167801E+01 -0.19101064410E+02  0.40187682217E+02  0.45021730063E+02  0.00000000000E+00 0. -1.
</event>
<event>
 7    1  0.2148778E-015  0.9000768E+02  0.7816164E-02  0.1186339E+00
        -11   -1    0    0    0    0  0.00000000000E+00  0.00000000000E+00  0.45593999997E+02  0.45594000000E+02  0.51100000000E-03 0.  1.
         11   -1    0    0    0    0 -0.00000000000E+00 -0.00000000000E+00 -0.45593999997E+02  0.45594000000E+02  0.51100000000E-03 0. -1.
    9900012    2    1    2    0    0 -0.76402947776E+00  0.43867542299E+00  0.78548288433E+00  0.90007677785E+02  0.89999938332E+02 0.  0.
         12    1    1    2    0    0  0.76402947776E+00 -0.43867542299E+00 -0.78548288433E+00  0.11803222150E+01  0.00000000000E+00 0. -1.
         11    1    3    3    0    0  0.16537424532E+02  0.13734903075E+02 -0.33240421806E+02  0.39586103808E+02  0.51100000000E-03 0. -1.
        -11    1    3    3    0    0 -0.84491159086E+01  0.61079299636E+01  0.19330733904E+00  0.10427451082E+02  0.51100000000E-03 0.  1.
        -12    1    3    3    0    0 -0.88523381008E+01 -0.19404157616E+02  0.33832597351E+02  0.39994122895E+02  0.00000000000E+00 0.  1.
</event>
<event>
 7    1  0.2148778E-015  0.9000769E+02  0.7816164E-02  0.1186339E+00
        -11   -1    0    0    0    0  0.00000000000E+00  0.00000000000E+00  0.45593999997E+02  0.45594000000E+02  0.51100000000E-03 0.  1.
         11   -1    0    0    0    0 -0.00000000000E+00 -0.00000000000E+00 -0.45593999997E+02  0.45594000000E+02  0.51100000000E-03 0. -1.
    9900012    2    1    2    0    0 -0.56838941509E+00 -0.45860035001E+00 -0.92722275331E+00  0.90007693751E+02  0.89999954508E+02 0.  0.
         12    1    1    2    0    0  0.56838941509E+00  0.45860035001E+00  0.92722275331E+00  0.11803062494E+01  0.00000000000E+00 0. -1.
         11    1    3    3    0    0  0.37598682389E+02  0.99474409692E+01  0.86230821131E+01  0.39836792600E+02  0.51100000000E-03 0. -1.
        -11    1    3    3    0    0  0.52801633431E+00 -0.81577621344E+01  0.40120596359E+01  0.91062894240E+01  0.51100000000E-03 0.  1.
        -12    1    3    3    0    0 -0.38695088139E+02 -0.22482791848E+01 -0.13562364502E+02  0.41064611727E+02  0.00000000000E+00 0.  1.
</event>
<event>
 7    1  0.2148778E-015  0.9000796E+02  0.7816164E-02  0.1186339E+00
        -11   -1    0    0    0    0  0.00000000000E+00  0.00000000000E+00  0.45593999997E+02  0.45594000000E+02  0.51100000000E-03 0.  1.
         11   -1    0    0    0    0 -0.00000000000E+00 -0.00000000000E+00 -0.45593999997E+02  0.45594000000E+02  0.51100000000E-03 0. -1.
    9900012    2    1    2    0    0 -0.84491796852E+00 -0.55148076895E+00  0.61195404452E+00  0.90007955440E+02  0.90000219651E+02 0.  0.
         12    1    1    2    0    0  0.84491796852E+00  0.55148076895E+00 -0.61195404452E+00  0.11800445605E+01  0.00000000000E+00 0. -1.
         11    1    3    3    0    0 -0.23173115286E+02  0.27690673574E+02  0.10006544225E+02  0.37468621574E+02  0.51100000000E-03 0. -1.
        -11    1    3    3    0    0 -0.46250598647E-01  0.28249257660E+01  0.94528896726E+01  0.98660766329E+01  0.51100000000E-03 0.  1.
        -12    1    3    3    0    0  0.22374447916E+02 -0.31067080109E+02 -0.18847479853E+02  0.42673257233E+02  0.00000000000E+00 0.  1.
</event>
<event>
 7    1  0.2148778E-015  0.9000774E+02  0.7816164E-02  0.1186339E+00
        -11   -1    0    0    0    0  0.00000000000E+00  0.00000000000E+00  0.45593999997E+02  0.45594000000E+02  0.51100000000E-03 0. -1.
         11   -1    0    0    0    0 -0.00000000000E+00 -0.00000000000E+00 -0.45593999997E+02  0.45594000000E+02  0.51100000000E-03 0.  1.
    9900012    2    1    2    0    0  0.60894275914E+00 -0.10103532887E+01 -0.37340478530E-01  0.90007737587E+02  0.89999998923E+02 0.  0.
         12    1    1    2    0    0 -0.60894275914E+00  0.10103532887E+01  0.37340478530E-01  0.11802624128E+01  0.00000000000E+00 0. -1.
         11    1    3    3    0    0 -0.15533751327E+02 -0.11405027134E+02 -0.32752033729E+01  0.19547353570E+02  0.51100000000E-03 0. -1.
        -11    1    3    3    0    0  0.86510254560E+00 -0.27274524232E+02  0.10365908952E+02  0.29190754412E+02  0.51100000000E-03 0.  1.
         12    1    3    3    0    0  0.15277591540E+02  0.37669198078E+02 -0.71280460576E+01  0.41269629604E+02  0.00000000000E+00 0. -1.
</event>
<event>
 7    1  0.2148778E-015  0.9000756E+02  0.7816164E-02  0.1186339E+00
        -11   -1    0    0    0    0  0.00000000000E+00  0.00000000000E+00  0.45593999997E+02  0.45594000000E+02  0.51100000000E-03 0. -1.
         11   -1    0    0    0    0 -0.00000000000E+00 -0.00000000000E+00 -0.45593999997E+02  0.45594000000E+02  0.51100000000E-03 0.  1.
    9900012    2    1    2    0    0  0.11608542063E+01 -0.46696826715E-01 -0.20898466027E+00  0.90007560391E+02  0.89999819388E+02 0.  0.
         12    1    1    2    0    0 -0.11608542063E+01  0.46696826715E-01  0.20898466027E+00  0.11804396089E+01  0.00000000000E+00 0. -1.
         11    1    3    3    0    0 -0.11349174737E+02 -0.33113806206E+01  0.34958511815E+02  0.36903476223E+02  0.51100000000E-03 0. -1.
        -11    1    3    3    0    0 -0.62321482749E+01 -0.72551607533E+00  0.53746353354E+01  0.82615223141E+01  0.51100000000E-03 0.  1.
        -12    1    3    3    0    0  0.18742177218E+02  0.39901998692E+01 -0.40542131810E+02  0.44842561854E+02  0.00000000000E+00 0.  1.
</event>
<event>
 7    1  0.2148778E-015  0.9000806E+02  0.7816164E-02  0.1186338E+00
        -11   -1    0    0    0    0  0.00000000000E+00  0.00000000000E+00  0.45593999997E+02  0.45594000000E+02  0.51100000000E-03 0.  1.
         11   -1    0    0    0    0 -0.00000000000E+00 -0.00000000000E+00 -0.45593999997E+02  0.45594000000E+02  0.51100000000E-03 0. -1.
    9900012    2    1    2    0    0  0.11488795204E+01  0.11015722070E+00 -0.24533351597E+00  0.90008064705E+02  0.90000330359E+02 0.  0.
         12    1    1    2    0    0 -0.11488795204E+01 -0.11015722070E+00  0.24533351597E+00  0.11799352948E+01  0.00000000000E+00 0. -1.
         11    1    3    3    0    0 -0.14548594308E+02 -0.28457058995E+02 -0.20160307180E+02  0.37787614225E+02  0.51100000000E-03 0. -1.
        -11    1    3    3    0    0  0.17172095892E+01 -0.20827214410E+01 -0.80168665971E+01  0.84591186108E+01  0.51100000000E-03 0.  1.
        -12    1    3    3    0    0  0.13980264239E+02  0.30649937657E+02  0.27931840261E+02  0.43761331869E+02  0.00000000000E+00 0.  1.
</event>
<event>
 7    1  0.2148778E-015  0.9000778E+02  0.7816164E-02  0.1186339E+00
        -11   -1    0    0    0    0  0.00000000000E+00  0.00000000000E+00  0.45593999997E+02  0.45594000000E+02  0.51100000000E-03 0. -1.
         11   -1    0    0    0    0 -0.00000000000E+00 -0.00000000000E+00 -0.45593999997E+02  0.45594000000E+02  0.51100000000E-03 0.  1.
    9900012    2    1    2    0    0  0.10001328319E+01  0.30057906835E+00  0.54982612310E+00  0.90007778740E+02  0.90000040619E+02 0.  0.
         12    1    1    2    0    0 -0.10001328319E+01 -0.30057906835E+00 -0.54982612310E+00  0.11802212604E+01  0.00000000000E+00 0. -1.
         11    1    3    3    0    0 -0.26826449699E+02  0.14242918207E+02  0.20644469303E+02  0.36724831321E+02  0.51100000000E-03 0. -1.
        -11    1    3    3    0    0 -0.47368140943E+00  0.85976375579E+01  0.43226788348E+01  0.96347962212E+01  0.51100000000E-03 0.  1.
        -12    1    3    3    0    0  0.28300263941E+02 -0.22539976696E+02 -0.24417322014E+02  0.43648151197E+02  0.00000000000E+00 0.  1.
</event>
<event>
 7    1  0.2148778E-015  0.9000768E+02  0.7816164E-02  0.1186339E+00
        -11   -1    0    0    0    0  0.00000000000E+00  0.00000000000E+00  0.45593999997E+02  0.45594000000E+02  0.51100000000E-03 0.  1.
         11   -1    0    0    0    0 -0.00000000000E+00 -0.00000000000E+00 -0.45593999997E+02  0.45594000000E+02  0.51100000000E-03 0. -1.
    9900012    2    1    2    0    0 -0.33525507228E+00  0.96019168069E+00 -0.59899288733E+00  0.90007679490E+02  0.89999940059E+02 0.  0.
         12    1    1    2    0    0  0.33525507228E+00 -0.96019168069E+00  0.59899288733E+00  0.11803205100E+01  0.00000000000E+00 0. -1.
         11    1    3    3    0    0  0.35820544267E-01 -0.26126788982E+00  0.11697454940E+02  0.11700427187E+02  0.51100000000E-03 0. -1.
        -11    1    3    3    0    0  0.33006921270E+02  0.17217818324E+02  0.48007528607E+01  0.37536080614E+02  0.51100000000E-03 0.  1.
         12    1    3    3    0    0 -0.33377996887E+02 -0.15996358753E+02 -0.17097200688E+02  0.40771171689E+02  0.00000000000E+00 0. -1.
</event>
<event>
 7    1  0.2148778E-015  0.9000775E+02  0.7816164E-02  0.1186339E+00
        -11   -1    0    0    0    0  0.00000000000E+00  0.00000000000E+00  0.45593999997E+02  0.45594000000E+02  0.51100000000E-03 0. -1.
         11   -1    0    0    0    0 -0.00000000000E+00 -0.00000000000E+00 -0.45593999997E+02  0.45594000000E+02  0.51100000000E-03 0.  1.
    9900012    2    1    2    0    0  0.60522079599E+00  0.50420863310E+00 -0.87890849087E+00  0.90007746344E+02  0.90000007796E+02 0.  0.
         12    1    1    2    0    0 -0.60522079599E+00 -0.50420863310E+00  0.87890849087E+00  0.11802536562E+01  0.00000000000E+00 0. -1.
         11    1    3    3    0    0 -0.31211919385E+01 -0.65616663767E+01  0.26597466699E+00  0.72710417094E+01  0.51100000000E-03 0. -1.
        -11    1    3    3    0    0 -0.32398546710E+02  0.10620521266E+02 -0.22283370143E+02  0.40730945067E+02  0.51100000000E-03 0.  1.
         12    1    3    3    0    0  0.36124959444E+02 -0.35546462563E+01  0.21138486985E+02  0.42005759568E+02  0.00000000000E+00 0. -1.
</event>
<event>
 7    1  0.2148778E-015  0.9000773E+02  0.7816164E-02  0.1186339E+00
        -11   -1    0    0    0    0  0.00000000000E+00  0.00000000000E+00  0.45593999997E+02  0.45594000000E+02  0.51100000000E-03 0.  1.
         11   -1    0    0    0    0 -0.00000000000E+00 -0.00000000000E+00 -0.45593999997E+02  0.45594000000E+02  0.51100000000E-03 0. -1.
    9900012    2    1    2    0    0 -0.10634603800E+01  0.13588078239E+00 -0.49357382622E+00  0.90007734484E+02  0.89999995779E+02 0.  0.
         12    1    1    2    0    0  0.10634603800E+01 -0.13588078239E+00  0.49357382622E+00  0.11802655163E+01  0.00000000000E+00 0. -1.
         11    1    3    3    0    0 -0.53327391053E+01  0.32612502792E+00  0.69608092587E+01  0.87748122314E+01  0.51100000000E-03 0. -1.
        -11    1    3    3    0    0 -0.36784337106E+02 -0.11067959748E+02 -0.40555536150E+01  0.38626865064E+02  0.51100000000E-03 0.  1.
         12    1    3    3    0    0  0.41053615831E+02  0.10877715502E+02 -0.33988294698E+01  0.42606057188E+02  0.00000000000E+00 0. -1.
</event>
<event>
 7    1  0.2148778E-015  0.9000772E+02  0.7816164E-02  0.1186339E+00
        -11   -1    0    0    0    0  0.00000000000E+00  0.00000000000E+00  0.45593999997E+02  0.45594000000E+02  0.51100000000E-03 0.  1.
         11   -1    0    0    0    0 -0.00000000000E+00 -0.00000000000E+00 -0.45593999997E+02  0.45594000000E+02  0.51100000000E-03 0. -1.
    9900012    2    1    2    0    0  0.32082553855E+00 -0.36838385980E+00  0.10744424450E+01  0.90007719414E+02  0.89999980510E+02 0.  0.
         12    1    1    2    0    0 -0.32082553855E+00  0.36838385980E+00 -0.10744424450E+01  0.11802805861E+01  0.00000000000E+00 0. -1.
         11    1    3    3    0    0  0.14120570884E+02 -0.32159558419E+01 -0.64198744448E+01  0.15841328297E+02  0.51100000000E-03 0. -1.
        -11    1    3    3    0    0 -0.28805150447E+02 -0.11622582236E+02 -0.21989722239E+02  0.38057443352E+02  0.51100000000E-03 0.  1.
         12    1    3    3    0    0  0.15005405101E+02  0.14470154218E+02  0.29484039129E+02  0.36108947765E+02  0.00000000000E+00 0. -1.
</event>
<event>
 7    1  0.2148778E-015  0.9000778E+02  0.7816164E-02  0.1186339E+00
        -11   -1    0    0    0    0  0.00000000000E+00  0.00000000000E+00  0.45593999997E+02  0.45594000000E+02  0.51100000000E-03 0. -1.
         11   -1    0    0    0    0 -0.00000000000E+00 -0.00000000000E+00 -0.45593999997E+02  0.45594000000E+02  0.51100000000E-03 0.  1.
    9900012    2    1    2    0    0  0.70260533860E-01 -0.11107072605E+01 -0.39282321477E+00  0.90007780851E+02  0.90000042758E+02 0.  0.
         12    1    1    2    0    0 -0.70260533860E-01  0.11107072605E+01  0.39282321477E+00  0.11802191488E+01  0.00000000000E+00 0. -1.
         11    1    3    3    0    0 -0.26599227106E+01  0.33257405634E+01  0.89736740971E+01  0.99329032102E+01  0.51100000000E-03 0. -1.
        -11    1    3    3    0    0 -0.35708366055E+02 -0.56714795120E+01 -0.18401719527E+02  0.40569401869E+02  0.51100000000E-03 0.  1.
         12    1    3    3    0    0  0.38438549299E+02  0.12350316881E+01  0.90352222155E+01  0.39505475772E+02  0.00000000000E+00 0. -1.
</event>
<event>
 7    1  0.2148778E-015  0.9000770E+02  0.7816164E-02  0.1186339E+00
        -11   -1    0    0    0    0  0.00000000000E+00  0.00000000000E+00  0.45593999997E+02  0.45594000000E+02  0.51100000000E-03 0.  1.
         11   -1    0    0    0    0 -0.00000000000E+00 -0.00000000000E+00 -0.45593999997E+02  0.45594000000E+02  0.51100000000E-03 0. -1.
    9900012    2    1    2    0    0  0.49411153008E-01  0.10035511740E+01  0.61931313650E+00  0.90007701232E+02  0.89999962088E+02 0.  0.
         12    1    1    2    0    0 -0.49411153008E-01 -0.10035511740E+01 -0.61931313650E+00  0.11802987681E+01  0.00000000000E+00 0. -1.
         11    1    3    3    0    0  0.52852312435E+01  0.78136389991E+01 -0.12674881613E+00  0.94341236599E+01  0.51100000000E-03 0. -1.
        -11    1    3    3    0    0 -0.15119802733E+02 -0.41108982694E+02 -0.61131425001E+01  0.44225868045E+02  0.51100000000E-03 0.  1.
         12    1    3    3    0    0  0.98839826423E+01  0.34298894869E+02  0.68592044527E+01  0.36347709527E+02  0.00000000000E+00 0. -1.
</event>
<event>
 7    1  0.2148778E-015  0.9000756E+02  0.7816164E-02  0.1186339E+00
        -11   -1    0    0    0    0  0.00000000000E+00  0.00000000000E+00  0.45593999997E+02  0.45594000000E+02  0.51100000000E-03 0.  1.
         11   -1    0    0    0    0 -0.00000000000E+00 -0.00000000000E+00 -0.45593999997E+02  0.45594000000E+02  0.51100000000E-03 0. -1.
    9900012    2    1    2    0    0 -0.38934727904E+00 -0.10833308027E+01  0.26124151965E+00  0.90007557683E+02  0.89999816644E+02 0.  0.
         12    1    1    2    0    0  0.38934727904E+00  0.10833308027E+01 -0.26124151965E+00  0.11804423168E+01  0.00000000000E+00 0. -1.
         11    1    3    3    0    0 -0.95843277323E+01 -0.30082023294E+01 -0.22405191665E+01  0.10292159430E+02  0.51100000000E-03 0. -1.
        -11    1    3    3    0    0 -0.34230379366E+02  0.58193297288E+01  0.83876759337E+01  0.35720254448E+02  0.51100000000E-03 0.  1.
         12    1    3    3    0    0  0.43425359819E+02 -0.38944582021E+01 -0.58859152476E+01  0.43995143805E+02  0.00000000000E+00 0. -1.
</event>
<event>
 7    1  0.2148778E-015  0.9000794E+02  0.7816164E-02  0.1186339E+00
        -11   -1    0    0    0    0  0.00000000000E+00  0.00000000000E+00  0.45593999997E+02  0.45594000000E+02  0.51100000000E-03 0. -1.
         11   -1    0    0    0    0 -0.00000000000E+00 -0.00000000000E+00 -0.45593999997E+02  0.45594000000E+02  0.51100000000E-03 0.  1.
    9900012    2    1    2    0    0  0.61505832608E+00  0.45759466765E+00 -0.89713099346E+00  0.90007943373E+02  0.90000207425E+02 0.  0.
         12    1    1    2    0    0 -0.61505832608E+00 -0.45759466765E+00  0.89713099346E+00  0.11800566274E+01  0.00000000000E+00 0. -1.
         11    1    3    3    0    0  0.81464954405E+01 -0.25553494216E+02  0.28330095448E+02  0.39012059199E+02  0.51100000000E-03 0. -1.
        -11    1    3    3    0    0  0.96394906755E+01 -0.56764811423E-01 -0.26448082264E+01  0.99958998365E+01  0.51100000000E-03 0.  1.
        -12    1    3    3    0    0 -0.17170927790E+02  0.26067853695E+02 -0.26582418215E+02  0.40999984337E+02  0.00000000000E+00 0.  1.
</event>
<event>
 7    1  0.2148778E-015  0.9000776E+02  0.7816164E-02  0.1186339E+00
        -11   -1    0    0    0    0  0.00000000000E+00  0.00000000000E+00  0.45593999997E+02  0.45594000000E+02  0.51100000000E-03 0.  1.
         11   -1    0    0    0    0 -0.00000000000E+00 -0.00000000000E+00 -0.45593999997E+02  0.45594000000E+02  0.51100000000E-03 0. -1.
    9900012    2    1    2    0    0 -0.10254775794E+01  0.58405333739E+00  0.15739351940E-01  0.90007758375E+02  0.90000019985E+02 0.  0.
         12    1    1    2    0    0  0.10254775794E+01 -0.58405333739E+00 -0.15739351940E-01  0.11802416253E+01  0.00000000000E+00 0. -1.
         11    1    3    3    0    0 -0.25999719554E+02 -0.27437464478E+02 -0.81925539869E+01  0.38677096776E+02  0.51100000000E-03 0. -1.
        -11    1    3    3    0    0 -0.61170003298E+01  0.90252995081E+01  0.10078457627E+02  0.14847526146E+02  0.51100000000E-03 0.  1.
        -12    1    3    3    0    0  0.31091242305E+02  0.18996218307E+02 -0.18701642885E+01  0.36483135453E+02  0.00000000000E+00 0.  1.
</event>
<event>
 7    1  0.2148778E-015  0.9000777E+02  0.7816164E-02  0.1186339E+00
        -11   -1    0    0    0    0  0.00000000000E+00  0.00000000000E+00  0.45593999997E+02  0.45594000000E+02  0.51100000000E-03 0. -1.
         11   -1    0    0    0    0 -0.00000000000E+00 -0.00000000000E+00 -0.45593999997E+02  0.45594000000E+02  0.51100000000E-03 0.  1.
    9900012    2    1    2    0    0 -0.10104966015E+01 -0.39687748742E+00 -0.46296794882E+00  0.90007765090E+02  0.90000026789E+02 0.  0.
         12    1    1    2    0    0  0.10104966015E+01  0.39687748742E+00  0.46296794882E+00  0.11802349102E+01  0.00000000000E+00 0. -1.
         11    1    3    3    0    0  0.18729208695E+02  0.15886860889E+02  0.28473448102E+02  0.37602032583E+02  0.51100000000E-03 0. -1.
        -11    1    3    3    0    0 -0.23327006805E+01 -0.78669566436E+00  0.82002246237E+01  0.85617794104E+01  0.51100000000E-03 0.  1.
        -12    1    3    3    0    0 -0.17407004616E+02 -0.15497042712E+02 -0.37136640675E+02  0.43843953097E+02  0.00000000000E+00 0.  1.
</event>
<event>
 7    1  0.2148778E-015  0.9000771E+02  0.7816164E-02  0.1186339E+00
        -11   -1    0    0    0    0  0.00000000000E+00  0.00000000000E+00  0.45593999997E+02  0.45594000000E+02  0.51100000000E-03 0.  1.
         11   -1    0    0    0    0 -0.00000000000E+00 -0.00000000000E+00 -0.45593999997E+02  0.45594000000E+02  0.51100000000E-03 0. -1.
    9900012    2    1    2    0    0  0.75695803818E+00 -0.42660225902E+00  0.79881492667E+00  0.90007711795E+02  0.89999972791E+02 0.  0.
         12    1    1    2    0    0 -0.75695803818E+00  0.42660225902E+00 -0.79881492667E+00  0.11802882046E+01  0.00000000000E+00 0. -1.
         11    1    3    3    0    0 -0.35968367563E+02 -0.93632828191E+01 -0.12750521848E+02  0.39293387967E+02  0.51100000000E-03 0. -1.
        -11    1    3    3    0    0 -0.44676752101E+01  0.10408216781E+01  0.68434758788E+01  0.82387252602E+01  0.51100000000E-03 0.  1.
        -12    1    3    3    0    0  0.41193000811E+02  0.78958588820E+01  0.67058608957E+01  0.42475598568E+02  0.00000000000E+00 0.  1.
</event>
<event>
 7    1  0.2148778E-015  0.9000770E+02  0.7816164E-02  0.1186339E+00
        -11   -1    0    0    0    0  0.00000000000E+00  0.00000000000E+00  0.45593999997E+02  0.45594000000E+02  0.51100000000E-03 0. -1.
         11   -1    0    0    0    0 -0.00000000000E+00 -0.00000000000E+00 -0.45593999997E+02  0.45594000000E+02  0.51100000000E-03 0.  1.
    9900012    2    1    2    0    0  0.36010461587E+00 -0.10202833551E+01 -0.47165493448E+00  0.90007698413E+02  0.89999959232E+02 0.  0.
         12    1    1    2    0    0 -0.36010461587E+00  0.10202833551E+01  0.47165493448E+00  0.11803015870E+01  0.00000000000E+00 0. -1.
         11    1    3    3    0    0 -0.27317255594E+00 -0.33569070337E+01  0.98134216727E+01  0.10375292442E+02  0.51100000000E-03 0. -1.
        -11    1    3    3    0    0  0.30856543442E+02  0.36892371187E+01 -0.30263479814E+02  0.43377585852E+02  0.51100000000E-03 0.  1.
         12    1    3    3    0    0 -0.30223266270E+02 -0.13526134402E+01  0.19978403206E+02  0.36254820118E+02  0.00000000000E+00 0. -1.
</event>
<event>
 7    1  0.2148778E-015  0.9000772E+02  0.7816164E-02  0.1186339E+00
        -11   -1    0    0    0    0  0.00000000000E+00  0.00000000000E+00  0.45593999997E+02  0.45594000000E+02  0.51100000000E-03 0.  1.
         11   -1    0    0    0    0 -0.00000000000E+00 -0.00000000000E+00 -0.45593999997E+02  0.45594000000E+02  0.51100000000E-03 0. -1.
    9900012    2    1    2    0    0  0.10438308671E+01  0.29747834667E-01  0.55008387236E+00  0.90007720339E+02  0.89999981447E+02 0.  0.
         12    1    1    2    0    0 -0.10438308671E+01 -0.29747834667E-01 -0.55008387236E+00  0.11802796615E+01  0.00000000000E+00 0. -1.
         11    1    3    3    0    0  0.10366670916E+02 -0.11984475984E+02 -0.33985774608E+02  0.37498378718E+02  0.51100000000E-03 0. -1.
        -11    1    3    3    0    0  0.75895835636E+01  0.47291183771E+00 -0.42057694276E+01  0.86898746260E+01  0.51100000000E-03 0.  1.
        -12    1    3    3    0    0 -0.16912423613E+02  0.11541311981E+02  0.38741627908E+02  0.43819466994E+02  0.00000000000E+00 0.  1.
</event>
<event>
 7    1  0.2148778E-015  0.9000783E+02  0.7816164E-02  0.1186339E+00
        -11   -1    0    0    0    0  0.00000000000E+00  0.00000000000E+00  0.45593999997E+02  0.45594000000E+02  0.51100000000E-03 0.  1.
         11   -1    0    0    0    0 -0.00000000000E+00 -0.00000000000E+00 -0.45593999997E+02  0.45594000000E+02  0.51100000000E-03 0. -1.
    9900012    2    1    2    0    0  0.78448486054E+00  0.79031697701E+00  0.39088671210E+00  0.90007826351E+02  0.90000088859E+02 0.  0.
         12    1    1    2    0    0 -0.78448486054E+00 -0.79031697701E+00 -0.39088671210E+00  0.11801736492E+01  0.00000000000E+00 0. -1.
         11    1    3    3    0    0  0.10156730241E+02 -0.31482317633E+01  0.48693735264E+01  0.11695355114E+02  0.51100000000E-03 0. -1.
        -11    1    3    3    0    0  0.53745352788E+00 -0.18630647505E+02  0.30366701924E+02  0.35630414939E+02  0.51100000000E-03 0.  1.
         12    1    3    3    0    0 -0.99096989087E+01  0.22569196246E+02 -0.34845188738E+02  0.42682056298E+02  0.00000000000E+00 0. -1.
</event>
<event>
 7    1  0.2148778E-015  0.9000781E+02  0.7816164E-02  0.1186339E+00
        -11   -1    0    0    0    0  0.00000000000E+00  0.00000000000E+00  0.45593999997E+02  0.45594000000E+02  0.51100000000E-03 0. -1.
         11   -1    0    0    0    0 -0.00000000000E+00 -0.00000000000E+00 -0.45593999997E+02  0.45594000000E+02  0.51100000000E-03 0.  1.
    9900012    2    1    2    0    0 -0.55204585404E+00 -0.79656116327E+00 -0.67349381687E+00  0.90007805849E+02  0.90000068087E+02 0.  0.
         12    1    1    2    0    0  0.55204585404E+00  0.79656116327E+00  0.67349381687E+00  0.11801941506E+01  0.00000000000E+00 0. -1.
         11    1    3    3    0    0 -0.78837261283E+01  0.66686475093E+01  0.10332732806E+01  0.10377458803E+02  0.51100000000E-03 0. -1.
        -11    1    3    3    0    0  0.16517800886E+02  0.26381425099E+02 -0.22909754518E+02  0.38648081307E+02  0.51100000000E-03 0.  1.
         12    1    3    3    0    0 -0.91861206122E+01 -0.33846633771E+02  0.21202987421E+02  0.40982265739E+02  0.00000000000E+00 0. -1.
</event>
<event>
 7    1  0.2148778E-015  0.9000777E+02  0.7816164E-02  0.1186339E+00
        -11   -1    0    0    0    0  0.00000000000E+00  0.00000000000E+00  0.45593999997E+02  0.45594000000E+02  0.51100000000E-03 0.  1.
         11   -1    0    0    0    0 -0.00000000000E+00 -0.00000000000E+00 -0.45593999997E+02  0.45594000000E+02  0.51100000000E-03 0. -1.
    9900012    2    1    2    0    0  0.10445799859E+01 -0.41962194948E+00  0.35457224917E+00  0.90007766376E+02  0.90000028092E+02 0.  0.
         12    1    1    2    0    0 -0.10445799859E+01  0.41962194948E+00 -0.35457224917E+00  0.11802336240E+01  0.00000000000E+00 0. -1.
         11    1    3    3    0    0 -0.44352809565E+01  0.15268252925E+02 -0.37079456683E+02  0.40344483796E+02  0.51100000000E-03 0. -1.
        -11    1    3    3    0    0 -0.74585322831E+01  0.36086355806E+01  0.47101106017E+01  0.95308497372E+01  0.51100000000E-03 0.  1.
        -12    1    3    3    0    0  0.12938393225E+02 -0.19296510455E+02  0.32723918331E+02  0.40132432843E+02  0.00000000000E+00 0.  1.
</event>
<event>
 7    1  0.2148778E-015  0.9000784E+02  0.7816164E-02  0.1186339E+00
        -11   -1    0    0    0    0  0.00000000000E+00  0.00000000000E+00  0.45593999997E+02  0.45594000000E+02  0.51100000000E-03 0.  1.
         11   -1    0    0    0    0 -0.00000000000E+00 -0.00000000000E+00 -0.45593999997E+02  0.45594000000E+02  0.51100000000E-03 0. -1.
    9900012    2    1    2    0    0 -0.52014792591E+00  0.41476307610E+00  0.97478415391E+00  0.90007836274E+02  0.90000098912E+02 0.  0.
         12    1    1    2    0    0  0.52014792591E+00 -0.41476307610E+00 -0.97478415391E+00  0.11801637263E+01  0.00000000000E+00 0. -1.
         11    1    3    3    0    0 -0.36840763323E+02 -0.15632917983E+02  0.88421673855E+01  0.40985532706E+02  0.51100000000E-03 0. -1.
        -11    1    3    3    0    0  0.12144105992E+01 -0.13124720081E+01  0.69293019190E+01  0.71562980109E+01  0.51100000000E-03 0.  1.
        -12    1    3    3    0    0  0.35106204798E+02  0.17360153067E+02 -0.14796685151E+02  0.41866005557E+02  0.00000000000E+00 0.  1.
</event>
<event>
 7    1  0.2148778E-015  0.9000771E+02  0.7816164E-02  0.1186339E+00
        -11   -1    0    0    0    0  0.00000000000E+00  0.00000000000E+00  0.45593999997E+02  0.45594000000E+02  0.51100000000E-03 0. -1.
         11   -1    0    0    0    0 -0.00000000000E+00 -0.00000000000E+00 -0.45593999997E+02  0.45594000000E+02  0.51100000000E-03 0.  1.
    9900012    2    1    2    0    0  0.87559235742E+00  0.38835396950E+00 -0.68963480923E+00  0.90007713191E+02  0.89999974205E+02 0.  0.
         12    1    1    2    0    0 -0.87559235742E+00 -0.38835396950E+00  0.68963480923E+00  0.11802868093E+01  0.00000000000E+00 0. -1.
         11    1    3    3    0    0  0.28526600814E+01  0.19860586039E+02 -0.11767198821E+02  0.23260428106E+02  0.51100000000E-03 0. -1.
        -11    1    3    3    0    0  0.16969005392E+01 -0.20527175634E+02 -0.23906083795E+02  0.31555431444E+02  0.51100000000E-03 0.  1.
         12    1    3    3    0    0 -0.36739682631E+01  0.10549435651E+01  0.34983647807E+02  0.35191853640E+02  0.00000000000E+00 0. -1.
</event>
<event>
 7    1  0.2148778E-015  0.9000778E+02  0.7816164E-02  0.1186339E+00
        -11   -1    0    0    0    0  0.00000000000E+00  0.00000000000E+00  0.45593999997E+02  0.45594000000E+02  0.51100000000E-03 0. -1.
         11   -1    0    0    0    0 -0.00000000000E+00 -0.00000000000E+00 -0.45593999997E+02  0.45594000000E+02  0.51100000000E-03 0.  1.
    9900012    2    1    2    0    0  0.52527223802E+00 -0.54801358131E+00 -0.90370663635E+00  0.90007781591E+02  0.90000043508E+02 0.  0.
         12    1    1    2    0    0 -0.52527223802E+00  0.54801358131E+00  0.90370663635E+00  0.11802184094E+01  0.00000000000E+00 0. -1.
         11    1    3    3    0    0 -0.52809489359E+01 -0.72847488921E+01 -0.22219308843E+01  0.92678457691E+01  0.51100000000E-03 0. -1.
        -11    1    3    3    0    0 -0.11181465495E+02 -0.33501350058E+02 -0.76852670259E+01  0.36144556379E+02  0.51100000000E-03 0.  1.
         12    1    3    3    0    0  0.16987686669E+02  0.40238085369E+02  0.90034912739E+01  0.44595379442E+02  0.00000000000E+00 0. -1.
</event>
<event>
 7    1  0.2412661E-015  0.9000811E+02  0.7816164E-02  0.1186338E+00
        -11   -1    0    0    0    0  0.00000000000E+00  0.00000000000E+00  0.45593999997E+02  0.45594000000E+02  0.51100000000E-03 0. -1.
         11   -1    0    0    0    0 -0.00000000000E+00 -0.00000000000E+00 -0.45593999997E+02  0.45594000000E+02  0.51100000000E-03 0.  1.
    9900012    2    1    2    0    0  0.47799271377E+00 -0.37221330952E+00 -0.10124773072E+01  0.90008114378E+02  0.90000380687E+02 0.  0.
         12    1    1    2    0    0 -0.47799271377E+00  0.37221330952E+00  0.10124773072E+01  0.11798856215E+01  0.00000000000E+00 0. -1.
         11    1    3    3    0    0 -0.44802057109E+01 -0.16921523622E+01  0.71676359970E+01  0.86203612961E+01  0.51100000000E-03 0. -1.
        -11    1    3    3    0    0 -0.18939897657E+02 -0.24707534794E+02 -0.27128219112E+02  0.41293126199E+02  0.51100000000E-03 0.  1.
         12    1    3    3    0    0  0.23898096081E+02  0.26027473847E+02  0.18948105808E+02  0.40094626883E+02  0.00000000000E+00 0. -1.
</event>
<event>
 7    1  0.2148778E-015  0.9000773E+02  0.7816164E-02  0.1186339E+00
        -11   -1    0    0    0    0  0.00000000000E+00  0.00000000000E+00  0.45593999997E+02  0.45594000000E+02  0.51100000000E-03 0.  1.
         11   -1    0    0    0    0 -0.00000000000E+00 -0.00000000000E+00 -0.45593999997E+02  0.45594000000E+02  0.51100000000E-03 0. -1.
    9900012    2    1    2    0    0  0.80106333314E+00  0.86594636975E+00  0.38389241119E-01  0.90007729136E+02  0.89999990360E+02 0.  0.
         12    1    1    2    0    0 -0.80106333314E+00 -0.86594636975E+00 -0.38389241119E-01  0.11802708642E+01  0.00000000000E+00 0. -1.
         11    1    3    3    0    0 -0.33705261253E+02 -0.16917002662E+02 -0.61804194655E+01  0.38215536111E+02  0.51100000000E-03 0. -1.
        -11    1    3    3    0    0 -0.62674699646E+01 -0.10742501308E+00  0.35091361303E+01  0.71837842766E+01  0.51100000000E-03 0.  1.
        -12    1    3    3    0    0  0.40773794551E+02  0.17890374045E+02  0.27096725763E+01  0.44608408748E+02  0.00000000000E+00 0.  1.
</event>
<event>
 7    1  0.2148778E-015  0.9000773E+02  0.7816164E-02  0.1186339E+00
        -11   -1    0    0    0    0  0.00000000000E+00  0.00000000000E+00  0.45593999997E+02  0.45594000000E+02  0.51100000000E-03 0.  1.
         11   -1    0    0    0    0 -0.00000000000E+00 -0.00000000000E+00 -0.45593999997E+02  0.45594000000E+02  0.51100000000E-03 0. -1.
    9900012    2    1    2    0    0 -0.11435136740E+01 -0.29034700884E+00  0.33278580008E-01  0.90007732076E+02  0.89999993340E+02 0.  0.
         12    1    1    2    0    0  0.11435136740E+01  0.29034700884E+00 -0.33278580008E-01  0.11802679239E+01  0.00000000000E+00 0. -1.
         11    1    3    3    0    0 -0.34603957524E+01 -0.13864091212E+02 -0.36927959192E+02  0.39596231314E+02  0.51100000000E-03 0. -1.
        -11    1    3    3    0    0 -0.34851672449E+01 -0.78117665481E+01  0.16319500975E+01  0.87082345346E+01  0.51100000000E-03 0.  1.
        -12    1    3    3    0    0  0.58020493232E+01  0.21385510751E+02  0.35329287675E+02  0.41703266228E+02  0.00000000000E+00 0.  1.
</event>
<event>
 7    1  0.2148778E-015  0.9000762E+02  0.7816164E-02  0.1186339E+00
        -11   -1    0    0    0    0  0.00000000000E+00  0.00000000000E+00  0.45593999997E+02  0.45594000000E+02  0.51100000000E-03 0.  1.
         11   -1    0    0    0    0 -0.00000000000E+00 -0.00000000000E+00 -0.45593999997E+02  0.45594000000E+02  0.51100000000E-03 0. -1.
    9900012    2    1    2    0    0 -0.90778852184E+00  0.75174301893E+00 -0.64089383010E-01  0.90007616581E+02  0.89999876320E+02 0.  0.
         12    1    1    2    0    0  0.90778852184E+00 -0.75174301893E+00  0.64089383010E-01  0.11803834190E+01  0.00000000000E+00 0. -1.
         11    1    3    3    0    0 -0.31449643487E+02  0.60833351069E+01 -0.16750674589E+02  0.36147920285E+02  0.51100000000E-03 0. -1.
        -11    1    3    3    0    0 -0.74636914781E+01  0.46331111783E+01 -0.37741220718E+01  0.95611927784E+01  0.51100000000E-03 0.  1.
        -12    1    3    3    0    0  0.38005546443E+02 -0.99647032663E+01  0.20460707278E+02  0.44298503518E+02  0.00000000000E+00 0.  1.
</event>
<event>
 7    1  0.2148778E-015  0.9000779E+02  0.7816164E-02  0.1186339E+00
        -11   -1    0    0    0    0  0.00000000000E+00  0.00000000000E+00  0.45593999997E+02  0.45594000000E+02  0.51100000000E-03 0.  1.
         11   -1    0    0    0    0 -0.00000000000E+00 -0.00000000000E+00 -0.45593999997E+02  0.45594000000E+02  0.51100000000E-03 0. -1.
    9900012    2    1    2    0    0 -0.11448792449E+01  0.26765533297E+00  0.10255388887E+00  0.90007785967E+02  0.90000047942E+02 0.  0.
         12    1    1    2    0    0  0.11448792449E+01 -0.26765533297E+00 -0.10255388887E+00  0.11802140326E+01  0.00000000000E+00 0. -1.
         11    1    3    3    0    0  0.38991806407E+01  0.61417798713E+01 -0.37068779331E+02  0.37775911253E+02  0.51100000000E-03 0. -1.
        -11    1    3    3    0    0  0.47121027223E+01 -0.64365703035E+01 -0.46841873428E+01  0.92506735247E+01  0.51100000000E-03 0.  1.
        -12    1    3    3    0    0 -0.97561626078E+01  0.56244576519E+00  0.41855520563E+02  0.42981201189E+02  0.00000000000E+00 0.  1.
</event>
<event>
 7    1  0.2148778E-015  0.9000741E+02  0.7816164E-02  0.1186340E+00
        -11   -1    0    0    0    0  0.00000000000E+00  0.00000000000E+00  0.45593999997E+02  0.45594000000E+02  0.51100000000E-03 0. -1.
         11   -1    0    0    0    0 -0.00000000000E+00 -0.00000000000E+00 -0.45593999997E+02  0.45594000000E+02  0.51100000000E-03 0.  1.
    9900012    2    1    2    0    0 -0.11256804927E+01  0.31807845027E+00 -0.15953391755E+00  0.90007414746E+02  0.89999671820E+02 0.  0.
         12    1    1    2    0    0  0.11256804927E+01 -0.31807845027E+00  0.15953391755E+00  0.11805852545E+01  0.00000000000E+00 0. -1.
         11    1    3    3    0    0 -0.10289548401E+01 -0.31335674239E+02  0.19817599543E+02  0.37090706113E+02  0.51100000000E-03 0. -1.
        -11    1    3    3    0    0  0.14361936649E+02  0.51280585951E+01  0.22438838776E+01  0.15414189060E+02  0.51100000000E-03 0.  1.
        -12    1    3    3    0    0 -0.14458662302E+02  0.26525694094E+02 -0.22221017338E+02  0.37502519572E+02  0.00000000000E+00 0.  1.
</event>
<event>
 7    1  0.2148778E-015  0.9000774E+02  0.7816164E-02  0.1186339E+00
        -11   -1    0    0    0    0  0.00000000000E+00  0.00000000000E+00  0.45593999997E+02  0.45594000000E+02  0.51100000000E-03 0.  1.
         11   -1    0    0    0    0 -0.00000000000E+00 -0.00000000000E+00 -0.45593999997E+02  0.45594000000E+02  0.51100000000E-03 0. -1.
    9900012    2    1    2    0    0 -0.87320367653E+00  0.59855199009E+00  0.52177953700E+00  0.90007744506E+02  0.90000005934E+02 0.  0.
         12    1    1    2    0    0  0.87320367653E+00 -0.59855199009E+00 -0.52177953700E+00  0.11802554939E+01  0.00000000000E+00 0. -1.
         11    1    3    3    0    0 -0.19919734127E+02  0.23764839650E+02 -0.17836338317E+02  0.35772872069E+02  0.51100000000E-03 0. -1.
        -11    1    3    3    0    0 -0.18326423515E+01  0.97713830410E+01 -0.21526984939E+01  0.10172149015E+02  0.51100000000E-03 0.  1.
        -12    1    3    3    0    0  0.20879172802E+02 -0.32937670701E+02  0.20510816348E+02  0.44062723422E+02  0.00000000000E+00 0.  1.
</event>
<event>
 7    1  0.2148778E-015  0.9000772E+02  0.7816164E-02  0.1186339E+00
        -11   -1    0    0    0    0  0.00000000000E+00  0.00000000000E+00  0.45593999997E+02  0.45594000000E+02  0.51100000000E-03 0.  1.
         11   -1    0    0    0    0 -0.00000000000E+00 -0.00000000000E+00 -0.45593999997E+02  0.45594000000E+02  0.51100000000E-03 0. -1.
    9900012    2    1    2    0    0 -0.90522883864E+00 -0.35794705985E+00  0.66745652122E+00  0.90007718866E+02  0.89999979955E+02 0.  0.
         12    1    1    2    0    0  0.90522883864E+00  0.35794705985E+00 -0.66745652122E+00  0.11802811342E+01  0.00000000000E+00 0. -1.
         11    1    3    3    0    0 -0.97094018147E+01 -0.24609291709E+01 -0.12685454653E+01  0.10096428272E+02  0.51100000000E-03 0. -1.
        -11    1    3    3    0    0 -0.24789706636E+01 -0.35466692484E+02 -0.13115710528E+02  0.37895295674E+02  0.51100000000E-03 0.  1.
         12    1    3    3    0    0  0.11283143640E+02  0.37569674595E+02  0.15051712515E+02  0.42015994921E+02  0.00000000000E+00 0. -1.
</event>
<event>
 7    1  0.2502056E-015  0.9000774E+02  0.7816164E-02  0.1186339E+00
        -11   -1    0    0    0    0  0.00000000000E+00  0.00000000000E+00  0.45593999997E+02  0.45594000000E+02  0.51100000000E-03 0.  1.
         11   -1    0    0    0    0 -0.00000000000E+00 -0.00000000000E+00 -0.45593999997E+02  0.45594000000E+02  0.51100000000E-03 0. -1.
    9900012    2    1    2    0    0 -0.26410465307E+00  0.10984232455E+01  0.34164548765E+00  0.90007743022E+02  0.90000004430E+02 0.  0.
         12    1    1    2    0    0  0.26410465307E+00 -0.10984232455E+01 -0.34164548765E+00  0.11802569777E+01  0.00000000000E+00 0. -1.
         11    1    3    3    0    0 -0.65745161483E+01 -0.56006518479E+01  0.83944978494E+00  0.86773406011E+01  0.51100000000E-03 0. -1.
        -11    1    3    3    0    0  0.71134357968E+01  0.24181362583E+02  0.34190515745E+02  0.42477413202E+02  0.51100000000E-03 0.  1.
         12    1    3    3    0    0 -0.80302430160E+00 -0.17482287489E+02 -0.34688320042E+02  0.38852989219E+02  0.00000000000E+00 0. -1.
</event>
<event>
 7    1  0.2148778E-015  0.9000774E+02  0.7816164E-02  0.1186339E+00
        -11   -1    0    0    0    0  0.00000000000E+00  0.00000000000E+00  0.45593999997E+02  0.45594000000E+02  0.51100000000E-03 0.  1.
         11   -1    0    0    0    0 -0.00000000000E+00 -0.00000000000E+00 -0.45593999997E+02  0.45594000000E+02  0.51100000000E-03 0. -1.
    9900012    2    1    2    0    0 -0.64515935445E+00 -0.88063135034E+00 -0.44863141528E+00  0.90007740573E+02  0.90000001949E+02 0.  0.
         12    1    1    2    0    0  0.64515935445E+00  0.88063135034E+00  0.44863141528E+00  0.11802594268E+01  0.00000000000E+00 0. -1.
         11    1    3    3    0    0 -0.33555778184E+02 -0.59764009282E+00  0.13018425126E+02  0.35997594590E+02  0.51100000000E-03 0. -1.
        -11    1    3    3    0    0 -0.95896066053E+01 -0.10755926246E+01 -0.94176657949E+00  0.96955855362E+01  0.51100000000E-03 0.  1.
        -12    1    3    3    0    0  0.42500225435E+02  0.79260136707E+00 -0.12525289962E+02  0.44314560447E+02  0.00000000000E+00 0.  1.
</event>
<event>
 7    1  0.2148778E-015  0.9000783E+02  0.7816164E-02  0.1186339E+00
        -11   -1    0    0    0    0  0.00000000000E+00  0.00000000000E+00  0.45593999997E+02  0.45594000000E+02  0.51100000000E-03 0.  1.
         11   -1    0    0    0    0 -0.00000000000E+00 -0.00000000000E+00 -0.45593999997E+02  0.45594000000E+02  0.51100000000E-03 0. -1.
    9900012    2    1    2    0    0  0.58448646847E-02 -0.98789780212E+00  0.64562155804E+00  0.90007829069E+02  0.90000091613E+02 0.  0.
         12    1    1    2    0    0 -0.58448646847E-02  0.98789780212E+00 -0.64562155804E+00  0.11801709309E+01  0.00000000000E+00 0. -1.
         11    1    3    3    0    0  0.27802705168E+02 -0.24510904941E+02 -0.19842503830E+02  0.42041644047E+02  0.51100000000E-03 0. -1.
        -11    1    3    3    0    0  0.23639588962E+01  0.97053763971E+01  0.28206281115E+01  0.10379719451E+02  0.51100000000E-03 0.  1.
        -12    1    3    3    0    0 -0.30160819199E+02  0.13817630742E+02  0.17667497277E+02  0.37586465571E+02  0.00000000000E+00 0.  1.
</event>
<event>
 8    1  0.2148778E-015  0.9000784E+02  0.7816164E-02  0.1186339E+00
        -11   -1    0    0    0    0  0.00000000000E+00  0.00000000000E+00  0.45593999997E+02  0.45594000000E+02  0.51100000000E-03 0.  1.
         11   -1    0    0    0    0 -0.00000000000E+00 -0.00000000000E+00 -0.45593999997E+02  0.45594000000E+02  0.51100000000E-03 0. -1.
    9900012    2    1    2    0    0  0.63119207325E-01  0.71376295276E+00 -0.93772814855E+00  0.90007840830E+02  0.90000103528E+02 0.  0.
         23    2    3    3    0    0  0.16151143483E+01  0.29322038131E+00  0.25927120499E+02  0.63094913865E+02  0.57498330460E+02 0.  0.
         12    1    1    2    0    0 -0.63119207325E-01 -0.71376295276E+00  0.93772814855E+00  0.11801591705E+01  0.00000000000E+00 0. -1.
         11    1    4    4    0    0 -0.19715288529E+02  0.53542202375E+01 -0.86245353120E+01  0.22175276452E+02  0.51100000000E-03 0. -1.
        -11    1    4    4    0    0  0.21330402877E+02 -0.50609998562E+01  0.34551655811E+02  0.40919637412E+02  0.51100000000E-03 0.  1.
         12    1    3    3    0    0 -0.15519951409E+01  0.42054257145E+00 -0.26864848647E+02  0.26912926965E+02  0.00000000000E+00 0. -1.
</event>
<event>
 7    1  0.2148778E-015  0.9000779E+02  0.7816164E-02  0.1186339E+00
        -11   -1    0    0    0    0  0.00000000000E+00  0.00000000000E+00  0.45593999997E+02  0.45594000000E+02  0.51100000000E-03 0.  1.
         11   -1    0    0    0    0 -0.00000000000E+00 -0.00000000000E+00 -0.45593999997E+02  0.45594000000E+02  0.51100000000E-03 0. -1.
    9900012    2    1    2    0    0 -0.10703338528E+01  0.45136771595E+00  0.20867178354E+00  0.90007791847E+02  0.90000053899E+02 0.  0.
         12    1    1    2    0    0  0.10703338528E+01 -0.45136771595E+00 -0.20867178354E+00  0.11802081531E+01  0.00000000000E+00 0. -1.
         11    1    3    3    0    0 -0.33199898220E+02 -0.12366668377E+02 -0.11397343815E+02  0.37216490630E+02  0.51100000000E-03 0. -1.
        -11    1    3    3    0    0 -0.83944699191E+01  0.45675568222E+01 -0.86695073429E+00  0.95959003946E+01  0.51100000000E-03 0.  1.
        -12    1    3    3    0    0  0.40524034286E+02  0.82504792708E+01  0.12472966333E+02  0.43195400822E+02  0.00000000000E+00 0.  1.
</event>
<event>
 7    1  0.2148778E-015  0.9000790E+02  0.7816164E-02  0.1186339E+00
        -11   -1    0    0    0    0  0.00000000000E+00  0.00000000000E+00  0.45593999997E+02  0.45594000000E+02  0.51100000000E-03 0.  1.
         11   -1    0    0    0    0 -0.00000000000E+00 -0.00000000000E+00 -0.45593999997E+02  0.45594000000E+02  0.51100000000E-03 0. -1.
    9900012    2    1    2    0    0  0.10987711499E+00 -0.11004709232E+01  0.41173258474E+00  0.90007901295E+02  0.90000164791E+02 0.  0.
         12    1    1    2    0    0 -0.10987711499E+00  0.11004709232E+01 -0.41173258474E+00  0.11800987054E+01  0.00000000000E+00 0. -1.
         11    1    3    3    0    0 -0.31876449308E+01  0.17533823178E+01 -0.10108132925E+02  0.10742894454E+02  0.51100000000E-03 0. -1.
        -11    1    3    3    0    0  0.23863172738E+02  0.22979614274E+02 -0.16116400316E+02  0.36840901790E+02  0.51100000000E-03 0.  1.
         12    1    3    3    0    0 -0.20565650692E+02 -0.25833467515E+02  0.26636265825E+02  0.42424105051E+02  0.00000000000E+00 0. -1.
</event>
<event>
 7    1  0.2148778E-015  0.9000774E+02  0.7816164E-02  0.1186339E+00
        -11   -1    0    0    0    0  0.00000000000E+00  0.00000000000E+00  0.45593999997E+02  0.45594000000E+02  0.51100000000E-03 0. -1.
         11   -1    0    0    0    0 -0.00000000000E+00 -0.00000000000E+00 -0.45593999997E+02  0.45594000000E+02  0.51100000000E-03 0.  1.
    9900012    2    1    2    0    0 -0.10541610674E+01  0.11522572236E+00  0.51815372932E+00  0.90007739092E+02  0.90000000448E+02 0.  0.
         12    1    1    2    0    0  0.10541610674E+01 -0.11522572236E+00 -0.51815372932E+00  0.11802609077E+01  0.00000000000E+00 0. -1.
         11    1    3    3    0    0  0.36121576615E+02 -0.16096902053E+01  0.80328370899E+01  0.37038977736E+02  0.51100000000E-03 0. -1.
        -11    1    3    3    0    0  0.21757880508E+01  0.11382697630E+02 -0.41521185296E+01  0.12310156275E+02  0.51100000000E-03 0.  1.
        -12    1    3    3    0    0 -0.39351525733E+02 -0.96577817021E+01 -0.33625648310E+01  0.40658605082E+02  0.00000000000E+00 0.  1.
</event>
<event>
 7    1  0.2148778E-015  0.9000778E+02  0.7816164E-02  0.1186339E+00
        -11   -1    0    0    0    0  0.00000000000E+00  0.00000000000E+00  0.45593999997E+02  0.45594000000E+02  0.51100000000E-03 0.  1.
         11   -1    0    0    0    0 -0.00000000000E+00 -0.00000000000E+00 -0.45593999997E+02  0.45594000000E+02  0.51100000000E-03 0. -1.
    9900012    2    1    2    0    0  0.91598913891E+00  0.43563300422E+00  0.60341910144E+00  0.90007776789E+02  0.90000038642E+02 0.  0.
         12    1    1    2    0    0 -0.91598913891E+00 -0.43563300422E+00 -0.60341910144E+00  0.11802232115E+01  0.00000000000E+00 0. -1.
         11    1    3    3    0    0 -0.27085144241E+01 -0.37712610469E+01 -0.82532817624E+01  0.94696948409E+01  0.51100000000E-03 0. -1.
        -11    1    3    3    0    0  0.26749418917E+02 -0.28995037992E+02  0.20014203954E+01  0.39499991448E+02  0.51100000000E-03 0.  1.
         12    1    3    3    0    0 -0.23124915354E+02  0.33201932043E+02  0.68552804684E+01  0.41038090499E+02  0.00000000000E+00 0. -1.
</event>
<event>
 7    1  0.2148778E-015  0.9000769E+02  0.7816164E-02  0.1186339E+00
        -11   -1    0    0    0    0  0.00000000000E+00  0.00000000000E+00  0.45593999997E+02  0.45594000000E+02  0.51100000000E-03 0. -1.
         11   -1    0    0    0    0 -0.00000000000E+00 -0.00000000000E+00 -0.45593999997E+02  0.45594000000E+02  0.51100000000E-03 0.  1.
    9900012    2    1    2    0    0 -0.34321478391E+00 -0.65656859790E+00 -0.91883595480E+00  0.90007687235E+02  0.89999947906E+02 0.  0.
         12    1    1    2    0    0  0.34321478391E+00  0.65656859790E+00  0.91883595480E+00  0.11803127651E+01  0.00000000000E+00 0. -1.
         11    1    3    3    0    0  0.26200480040E+02 -0.19661850971E+02  0.14200390316E+02  0.35703005802E+02  0.51100000000E-03 0. -1.
        -11    1    3    3    0    0  0.68977526178E+01 -0.36814516559E+01  0.48793617578E+01  0.92163034290E+01  0.51100000000E-03 0.  1.
        -12    1    3    3    0    0 -0.33441447441E+02  0.22686734029E+02 -0.19998588029E+02  0.45088378004E+02  0.00000000000E+00 0.  1.
</event>
<event>
 7    1  0.2148778E-015  0.9000701E+02  0.7816164E-02  0.1186340E+00
        -11   -1    0    0    0    0  0.00000000000E+00  0.00000000000E+00  0.45593999997E+02  0.45594000000E+02  0.51100000000E-03 0. -1.
         11   -1    0    0    0    0 -0.00000000000E+00 -0.00000000000E+00 -0.45593999997E+02  0.45594000000E+02  0.51100000000E-03 0.  1.
    9900012    2    1    2    0    0 -0.91540151839E+00  0.95147960818E-01 -0.74007812091E+00  0.90007013675E+02  0.89999265453E+02 0.  0.
         12    1    1    2    0    0  0.91540151839E+00 -0.95147960818E-01  0.74007812091E+00  0.11809863248E+01  0.00000000000E+00 0. -1.
         11    1    3    3    0    0 -0.50125812871E+01  0.42982886053E+00 -0.89009015068E+01  0.10224322565E+02  0.51100000000E-03 0. -1.
        -11    1    3    3    0    0  0.15159722196E+02  0.25687338875E+02 -0.23029638159E+02  0.37683163210E+02  0.51100000000E-03 0.  1.
         12    1    3    3    0    0 -0.11062542427E+02 -0.26022019774E+02  0.31190461545E+02  0.42099527901E+02  0.00000000000E+00 0. -1.
</event>
<event>
 7    1  0.2148778E-015  0.9000774E+02  0.7816164E-02  0.1186339E+00
        -11   -1    0    0    0    0  0.00000000000E+00  0.00000000000E+00  0.45593999997E+02  0.45594000000E+02  0.51100000000E-03 0.  1.
         11   -1    0    0    0    0 -0.00000000000E+00 -0.00000000000E+00 -0.45593999997E+02  0.45594000000E+02  0.51100000000E-03 0. -1.
    9900012    2    1    2    0    0 -0.30276072668E+00  0.10590442619E+01 -0.42399896395E+00  0.90007739890E+02  0.90000001256E+02 0.  0.
         12    1    1    2    0    0  0.30276072668E+00 -0.10590442619E+01  0.42399896395E+00  0.11802601102E+01  0.00000000000E+00 0. -1.
         11    1    3    3    0    0 -0.80932746651E+01 -0.35987229893E+01  0.46612210753E+00  0.88695643658E+01  0.51100000000E-03 0. -1.
        -11    1    3    3    0    0  0.39772963074E+02  0.14983123470E+02  0.13478470900E+02  0.44587574038E+02  0.51100000000E-03 0.  1.
         12    1    3    3    0    0 -0.31982449135E+02 -0.10325356219E+02 -0.14368591971E+02  0.36550601486E+02  0.00000000000E+00 0. -1.
</event>
<event>
 7    1  0.2148778E-015  0.9000781E+02  0.7816164E-02  0.1186339E+00
        -11   -1    0    0    0    0  0.00000000000E+00  0.00000000000E+00  0.45593999997E+02  0.45594000000E+02  0.51100000000E-03 0. -1.
         11   -1    0    0    0    0 -0.00000000000E+00 -0.00000000000E+00 -0.45593999997E+02  0.45594000000E+02  0.51100000000E-03 0.  1.
    9900012    2    1    2    0    0 -0.11144789203E+01  0.33222712854E+00 -0.20099946437E+00  0.90007814034E+02  0.90000076380E+02 0.  0.
         12    1    1    2    0    0  0.11144789203E+01 -0.33222712854E+00  0.20099946437E+00  0.11801859656E+01  0.00000000000E+00 0. -1.
         11    1    3    3    0    0  0.37247403982E+02  0.20375495771E+02  0.58003777223E+01  0.42850604585E+02  0.51100000000E-03 0. -1.
        -11    1    3    3    0    0 -0.51228013802E+01 -0.10174628369E+02 -0.50772603438E+01  0.12471757265E+02  0.51100000000E-03 0.  1.
        -12    1    3    3    0    0 -0.33239081522E+02 -0.98686402732E+01 -0.92411684289E+00  0.34685452184E+02  0.00000000000E+00 0.  1.
</event>
<event>
 7    1  0.2148778E-015  0.9000776E+02  0.7816164E-02  0.1186339E+00
        -11   -1    0    0    0    0  0.00000000000E+00  0.00000000000E+00  0.45593999997E+02  0.45594000000E+02  0.51100000000E-03 0. -1.
         11   -1    0    0    0    0 -0.00000000000E+00 -0.00000000000E+00 -0.45593999997E+02  0.45594000000E+02  0.51100000000E-03 0.  1.
    9900012    2    1    2    0    0 -0.37012434959E+00 -0.10276238819E+01 -0.44717041568E+00  0.90007760932E+02  0.90000022576E+02 0.  0.
         12    1    1    2    0    0  0.37012434959E+00  0.10276238819E+01  0.44717041568E+00  0.11802390680E+01  0.00000000000E+00 0. -1.
         11    1    3    3    0    0  0.24523515656E+02 -0.17869028937E+02  0.19608127868E+02  0.36127326140E+02  0.51100000000E-03 0. -1.
        -11    1    3    3    0    0  0.71639835708E+01  0.55194216143E+00  0.60919575735E+01  0.94201511714E+01  0.51100000000E-03 0.  1.
        -12    1    3    3    0    0 -0.32057623576E+02  0.16289462894E+02 -0.26147255858E+02  0.44460283620E+02  0.00000000000E+00 0.  1.
</event>
<event>
 7    1  0.2148778E-015  0.9000775E+02  0.7816164E-02  0.1186339E+00
        -11   -1    0    0    0    0  0.00000000000E+00  0.00000000000E+00  0.45593999997E+02  0.45594000000E+02  0.51100000000E-03 0. -1.
         11   -1    0    0    0    0 -0.00000000000E+00 -0.00000000000E+00 -0.45593999997E+02  0.45594000000E+02  0.51100000000E-03 0.  1.
    9900012    2    1    2    0    0 -0.98351934749E+00  0.50454811909E+00 -0.41366388571E+00  0.90007747094E+02  0.90000008556E+02 0.  0.
         12    1    1    2    0    0  0.98351934749E+00 -0.50454811909E+00  0.41366388571E+00  0.11802529058E+01  0.00000000000E+00 0. -1.
         11    1    3    3    0    0  0.75723309329E+01 -0.59846734186E+01  0.37955663202E+02  0.39163616802E+02  0.51100000000E-03 0. -1.
        -11    1    3    3    0    0 -0.59715077278E+01 -0.89140608308E+01 -0.15392758753E+01  0.10839223013E+02  0.51100000000E-03 0.  1.
        -12    1    3    3    0    0 -0.25843425526E+01  0.15403282369E+02 -0.36830051212E+02  0.40004907279E+02  0.00000000000E+00 0.  1.
</event>
<event>
 7    1  0.2148778E-015  0.9000772E+02  0.7816164E-02  0.1186339E+00
        -11   -1    0    0    0    0  0.00000000000E+00  0.00000000000E+00  0.45593999997E+02  0.45594000000E+02  0.51100000000E-03 0.  1.
         11   -1    0    0    0    0 -0.00000000000E+00 -0.00000000000E+00 -0.45593999997E+02  0.45594000000E+02  0.51100000000E-03 0. -1.
    9900012    2    1    2    0    0  0.62349675912E+00 -0.29912327930E+00  0.95647418047E+00  0.90007717914E+02  0.89999978990E+02 0.  0.
         12    1    1    2    0    0 -0.62349675912E+00  0.29912327930E+00 -0.95647418047E+00  0.11802820861E+01  0.00000000000E+00 0. -1.
         11    1    3    3    0    0  0.22376193981E+02 -0.36331351145E+01 -0.31426532325E+02  0.38749460152E+02  0.51100000000E-03 0. -1.
        -11    1    3    3    0    0 -0.22622436407E+01  0.73960309566E+01 -0.47843204631E+01  0.90944347133E+01  0.51100000000E-03 0.  1.
        -12    1    3    3    0    0 -0.19490453581E+02 -0.40620191213E+01  0.37167326968E+02  0.42163823049E+02  0.00000000000E+00 0.  1.
</event>
<event>
 7    1  0.2148778E-015  0.9000747E+02  0.7816164E-02  0.1186340E+00
        -11   -1    0    0    0    0  0.00000000000E+00  0.00000000000E+00  0.45593999997E+02  0.45594000000E+02  0.51100000000E-03 0. -1.
         11   -1    0    0    0    0 -0.00000000000E+00 -0.00000000000E+00 -0.45593999997E+02  0.45594000000E+02  0.51100000000E-03 0.  1.
    9900012    2    1    2    0    0 -0.10362319425E+01 -0.38523234644E+00 -0.41408091187E+00  0.90007473168E+02  0.89999731013E+02 0.  0.
         12    1    1    2    0    0  0.10362319425E+01  0.38523234644E+00  0.41408091187E+00  0.11805268320E+01  0.00000000000E+00 0. -1.
         11    1    3    3    0    0  0.18860284495E+02 -0.13545781740E+02 -0.36398777386E+02  0.43174871507E+02  0.51100000000E-03 0. -1.
        -11    1    3    3    0    0 -0.60759811532E+01  0.64156681421E+01  0.13520255170E+01  0.89390333898E+01  0.51100000000E-03 0.  1.
        -12    1    3    3    0    0 -0.13820535285E+02  0.67448812514E+01  0.34632670958E+02  0.37893568271E+02  0.00000000000E+00 0.  1.
</event>
<event>
 7    1  0.2148778E-015  0.9000734E+02  0.7816164E-02  0.1186340E+00
        -11   -1    0    0    0    0  0.00000000000E+00  0.00000000000E+00  0.45593999997E+02  0.45594000000E+02  0.51100000000E-03 0.  1.
         11   -1    0    0    0    0 -0.00000000000E+00 -0.00000000000E+00 -0.45593999997E+02  0.45594000000E+02  0.51100000000E-03 0. -1.
    9900012    2    1    2    0    0  0.68618115748E+00  0.69455667824E+00  0.66384936980E+00  0.90007343595E+02  0.89999599730E+02 0.  0.
         12    1    1    2    0    0 -0.68618115748E+00 -0.69455667824E+00 -0.66384936980E+00  0.11806564047E+01  0.00000000000E+00 0. -1.
         11    1    3    3    0    0 -0.16594665502E+02 -0.15521171001E+02 -0.35773263647E+02  0.42379429734E+02  0.51100000000E-03 0. -1.
        -11    1    3    3    0    0 -0.70260014960E+00 -0.32986338039E+01  0.82588743902E+01  0.89209662255E+01  0.51100000000E-03 0.  1.
        -12    1    3    3    0    0  0.17983446809E+02  0.19514361483E+02  0.28178238627E+02  0.38706947636E+02  0.00000000000E+00 0.  1.
</event>
<event>
 7    1  0.2148778E-015  0.9000770E+02  0.7816164E-02  0.1186339E+00
        -11   -1    0    0    0    0  0.00000000000E+00  0.00000000000E+00  0.45593999997E+02  0.45594000000E+02  0.51100000000E-03 0. -1.
         11   -1    0    0    0    0 -0.00000000000E+00 -0.00000000000E+00 -0.45593999997E+02  0.45594000000E+02  0.51100000000E-03 0.  1.
    9900012    2    1    2    0    0  0.11428562561E+01  0.50461429885E-01 -0.29056888508E+00  0.90007704675E+02  0.89999965576E+02 0.  0.
         12    1    1    2    0    0 -0.11428562561E+01 -0.50461429885E-01  0.29056888508E+00  0.11802953253E+01  0.00000000000E+00 0. -1.
         11    1    3    3    0    0 -0.45153597731E+01  0.49728938716E+01  0.58636858145E+01  0.89163310241E+01  0.51100000000E-03 0. -1.
        -11    1    3    3    0    0  0.14335695282E+02  0.80907746136E+01 -0.40300786926E+02  0.43533047448E+02  0.51100000000E-03 0.  1.
         12    1    3    3    0    0 -0.86774792528E+01 -0.13013207055E+02  0.34146532226E+02  0.37558326202E+02  0.00000000000E+00 0. -1.
</event>
<event>
 7    1  0.2148778E-015  0.9000770E+02  0.7816164E-02  0.1186339E+00
        -11   -1    0    0    0    0  0.00000000000E+00  0.00000000000E+00  0.45593999997E+02  0.45594000000E+02  0.51100000000E-03 0.  1.
         11   -1    0    0    0    0 -0.00000000000E+00 -0.00000000000E+00 -0.45593999997E+02  0.45594000000E+02  0.51100000000E-03 0. -1.
    9900012    2    1    2    0    0  0.11678314852E+01 -0.16417473615E+00  0.48166485074E-01  0.90007701846E+02  0.89999962710E+02 0.  0.
         12    1    1    2    0    0 -0.11678314852E+01  0.16417473615E+00 -0.48166485074E-01  0.11802981539E+01  0.00000000000E+00 0. -1.
         11    1    3    3    0    0 -0.25055637089E+02  0.27816956651E+02 -0.10306908943E+02  0.38830405606E+02  0.51100000000E-03 0. -1.
        -11    1    3    3    0    0  0.10430478509E+01  0.62499244553E+01  0.55284927636E+01  0.84091460336E+01  0.51100000000E-03 0.  1.
        -12    1    3    3    0    0  0.25180420724E+02 -0.34231055842E+02  0.48265826642E+01  0.42768150207E+02  0.00000000000E+00 0.  1.
</event>
<event>
 7    1  0.2148778E-015  0.9000776E+02  0.7816164E-02  0.1186339E+00
        -11   -1    0    0    0    0  0.00000000000E+00  0.00000000000E+00  0.45593999997E+02  0.45594000000E+02  0.51100000000E-03 0. -1.
         11   -1    0    0    0    0 -0.00000000000E+00 -0.00000000000E+00 -0.45593999997E+02  0.45594000000E+02  0.51100000000E-03 0.  1.
    9900012    2    1    2    0    0 -0.14570943682E+00  0.50112674294E+00 -0.10585884328E+01  0.90007759041E+02  0.90000020660E+02 0.  0.
         12    1    1    2    0    0  0.14570943682E+00 -0.50112674294E+00  0.10585884328E+01  0.11802409595E+01  0.00000000000E+00 0. -1.
         11    1    3    3    0    0 -0.32361522460E+01  0.34652979700E+02  0.17324366449E+02  0.38877182982E+02  0.51100000000E-03 0. -1.
        -11    1    3    3    0    0 -0.11479638542E+01 -0.13417142886E+01  0.83886730481E+01  0.85725057020E+01  0.51100000000E-03 0.  1.
        -12    1    3    3    0    0  0.42384066634E+01 -0.32810138669E+02 -0.26771627930E+02  0.42558070357E+02  0.00000000000E+00 0.  1.
</event>
<event>
 7    1  0.2148778E-015  0.9000840E+02  0.7816164E-02  0.1186338E+00
        -11   -1    0    0    0    0  0.00000000000E+00  0.00000000000E+00  0.45593999997E+02  0.45594000000E+02  0.51100000000E-03 0.  1.
         11   -1    0    0    0    0 -0.00000000000E+00 -0.00000000000E+00 -0.45593999997E+02  0.45594000000E+02  0.51100000000E-03 0. -1.
    9900012    2    1    2    0    0 -0.42205420194E+00 -0.74691765442E+00 -0.80958721669E+00  0.90008403801E+02  0.90000673928E+02 0.  0.
         12    1    1    2    0    0  0.42205420194E+00  0.74691765442E+00  0.80958721669E+00  0.11795961993E+01  0.00000000000E+00 0. -1.
         11    1    3    3    0    0  0.46349258118E+01 -0.56755523785E+01  0.73722202221E+01  0.10394424628E+02  0.51100000000E-03 0. -1.
        -11    1    3    3    0    0 -0.32906172663E+02 -0.94413732985E+01  0.18090788001E+02  0.38719921744E+02  0.51100000000E-03 0.  1.
         12    1    3    3    0    0  0.27849192650E+02  0.14370008023E+02 -0.26272595440E+02  0.40894057429E+02  0.00000000000E+00 0. -1.
</event>
<event>
 7    1  0.2148778E-015  0.9000774E+02  0.7816164E-02  0.1186339E+00
        -11   -1    0    0    0    0  0.00000000000E+00  0.00000000000E+00  0.45593999997E+02  0.45594000000E+02  0.51100000000E-03 0.  1.
         11   -1    0    0    0    0 -0.00000000000E+00 -0.00000000000E+00 -0.45593999997E+02  0.45594000000E+02  0.51100000000E-03 0. -1.
    9900012    2    1    2    0    0 -0.73947482161E+00 -0.53736375607E+00  0.74661189031E+00  0.90007740650E+02  0.90000002027E+02 0.  0.
         12    1    1    2    0    0  0.73947482161E+00  0.53736375607E+00 -0.74661189031E+00  0.11802593498E+01  0.00000000000E+00 0. -1.
         11    1    3    3    0    0 -0.23617128749E+02  0.29219294061E+02  0.93117752757E+01  0.38707170845E+02  0.51100000000E-03 0. -1.
        -11    1    3    3    0    0 -0.84574096801E+01 -0.32285554729E+01 -0.43036689206E+01  0.10023617879E+02  0.51100000000E-03 0.  1.
        -12    1    3    3    0    0  0.31335063608E+02 -0.26528102344E+02 -0.42614944647E+01  0.41276951927E+02  0.00000000000E+00 0.  1.
</event>
<event>
 7    1  0.2148778E-015  0.9000770E+02  0.7816164E-02  0.1186339E+00
        -11   -1    0    0    0    0  0.00000000000E+00  0.00000000000E+00  0.45593999997E+02  0.45594000000E+02  0.51100000000E-03 0.  1.
         11   -1    0    0    0    0 -0.00000000000E+00 -0.00000000000E+00 -0.45593999997E+02  0.45594000000E+02  0.51100000000E-03 0. -1.
    9900012    2    1    2    0    0 -0.75621033065E-02 -0.17630357540E+00  0.11670295041E+01  0.90007704275E+02  0.89999965171E+02 0.  0.
         12    1    1    2    0    0  0.75621033065E-02  0.17630357540E+00 -0.11670295041E+01  0.11802957255E+01  0.00000000000E+00 0. -1.
         11    1    3    3    0    0 -0.24011395359E+02 -0.15690129192E+02 -0.27928140305E+02  0.40033839215E+02  0.51100000000E-03 0. -1.
        -11    1    3    3    0    0 -0.50026483338E+01 -0.29633842672E+01  0.69839970260E+01  0.90875932671E+01  0.51100000000E-03 0.  1.
        -12    1    3    3    0    0  0.29006481590E+02  0.18477209883E+02  0.22111172783E+02  0.40886271793E+02  0.00000000000E+00 0.  1.
</event>
<event>
 7    1  0.2148778E-015  0.9000771E+02  0.7816164E-02  0.1186339E+00
        -11   -1    0    0    0    0  0.00000000000E+00  0.00000000000E+00  0.45593999997E+02  0.45594000000E+02  0.51100000000E-03 0.  1.
         11   -1    0    0    0    0 -0.00000000000E+00 -0.00000000000E+00 -0.45593999997E+02  0.45594000000E+02  0.51100000000E-03 0. -1.
    9900012    2    1    2    0    0 -0.69655138112E+00 -0.77669927671E+00 -0.55193044258E+00  0.90007714947E+02  0.89999975984E+02 0.  0.
         12    1    1    2    0    0  0.69655138112E+00  0.77669927671E+00  0.55193044258E+00  0.11802850530E+01  0.00000000000E+00 0. -1.
         11    1    3    3    0    0  0.42942228345E+01  0.21488736482E+01  0.42019256333E+01  0.63807669599E+01  0.51100000000E-03 0. -1.
        -11    1    3    3    0    0  0.51690962588E+01 -0.17761774515E+02  0.35226911843E+02  0.39788635416E+02  0.51100000000E-03 0.  1.
         12    1    3    3    0    0 -0.10159870474E+02  0.14836201590E+02 -0.39980767919E+02  0.43838312571E+02  0.00000000000E+00 0. -1.
</event>
<event>
 7    1  0.2148778E-015  0.9000772E+02  0.7816164E-02  0.1186339E+00
        -11   -1    0    0    0    0  0.00000000000E+00  0.00000000000E+00  0.45593999997E+02  0.45594000000E+02  0.51100000000E-03 0.  1.
         11   -1    0    0    0    0 -0.00000000000E+00 -0.00000000000E+00 -0.45593999997E+02  0.45594000000E+02  0.51100000000E-03 0. -1.
    9900012    2    1    2    0    0  0.65624947875E+00  0.37935463320E+00  0.90469857251E+00  0.90007723412E+02  0.89999984561E+02 0.  0.
         12    1    1    2    0    0 -0.65624947875E+00 -0.37935463320E+00 -0.90469857251E+00  0.11802765876E+01  0.00000000000E+00 0. -1.
         11    1    3    3    0    0  0.23839137173E+01  0.65414699036E+01  0.73727350276E+01  0.10140566807E+02  0.51100000000E-03 0. -1.
        -11    1    3    3    0    0  0.44191770882E+01 -0.24974765366E+02  0.29444664442E+02  0.38862016103E+02  0.51100000000E-03 0.  1.
         12    1    3    3    0    0 -0.61468413268E+01  0.18812650096E+02 -0.35912700897E+02  0.41005140503E+02  0.00000000000E+00 0. -1.
</event>
<event>
 7    1  0.2148778E-015  0.9000778E+02  0.7816164E-02  0.1186339E+00
        -11   -1    0    0    0    0  0.00000000000E+00  0.00000000000E+00  0.45593999997E+02  0.45594000000E+02  0.51100000000E-03 0. -1.
         11   -1    0    0    0    0 -0.00000000000E+00 -0.00000000000E+00 -0.45593999997E+02  0.45594000000E+02  0.51100000000E-03 0.  1.
    9900012    2    1    2    0    0 -0.10493808920E+01 -0.51621676208E+00 -0.15883470375E+00  0.90007784568E+02  0.90000046525E+02 0.  0.
         12    1    1    2    0    0  0.10493808920E+01  0.51621676208E+00  0.15883470375E+00  0.11802154316E+01  0.00000000000E+00 0. -1.
         11    1    3    3    0    0  0.45292648854E+01 -0.84767037065E+01  0.42981407872E+02  0.44042821992E+02  0.51100000000E-03 0. -1.
        -11    1    3    3    0    0 -0.34083221296E+01 -0.29008653538E+01 -0.86410123918E+01  0.97313295575E+01  0.51100000000E-03 0.  1.
        -12    1    3    3    0    0 -0.21703236478E+01  0.10861352298E+02 -0.34499230184E+02  0.36233633019E+02  0.00000000000E+00 0.  1.
</event>
<event>
 7    1  0.2148778E-015  0.9000772E+02  0.7816164E-02  0.1186339E+00
        -11   -1    0    0    0    0  0.00000000000E+00  0.00000000000E+00  0.45593999997E+02  0.45594000000E+02  0.51100000000E-03 0.  1.
         11   -1    0    0    0    0 -0.00000000000E+00 -0.00000000000E+00 -0.45593999997E+02  0.45594000000E+02  0.51100000000E-03 0. -1.
    9900012    2    1    2    0    0  0.78258700375E+00  0.68827354442E+00  0.55398341061E+00  0.90007720156E+02  0.89999981262E+02 0.  0.
         12    1    1    2    0    0 -0.78258700375E+00 -0.68827354442E+00 -0.55398341061E+00  0.11802798438E+01  0.00000000000E+00 0. -1.
         11    1    3    3    0    0  0.14678052489E+02 -0.28131941886E+01 -0.31533000315E+02  0.34895406510E+02  0.51100000000E-03 0. -1.
        -11    1    3    3    0    0  0.67473727931E+01  0.21678128104E+01 -0.75791026351E+01  0.10376379378E+02  0.51100000000E-03 0.  1.
        -12    1    3    3    0    0 -0.20642838278E+02  0.13336549227E+01  0.39666086360E+02  0.44735934268E+02  0.00000000000E+00 0.  1.
</event>
<event>
 7    1  0.2148778E-015  0.9000748E+02  0.7816164E-02  0.1186340E+00
        -11   -1    0    0    0    0  0.00000000000E+00  0.00000000000E+00  0.45593999997E+02  0.45594000000E+02  0.51100000000E-03 0.  1.
         11   -1    0    0    0    0 -0.00000000000E+00 -0.00000000000E+00 -0.45593999997E+02  0.45594000000E+02  0.51100000000E-03 0. -1.
    9900012    2    1    2    0    0 -0.15226633532E-01  0.11793906998E+01  0.49345554886E-01  0.90007479243E+02  0.89999737169E+02 0.  0.
         12    1    1    2    0    0  0.15226633532E-01 -0.11793906998E+01 -0.49345554886E-01  0.11805207566E+01  0.00000000000E+00 0. -1.
         11    1    3    3    0    0 -0.64239826966E+01  0.82335641088E+00  0.60642965000E+01  0.88724946755E+01  0.51100000000E-03 0. -1.
        -11    1    3    3    0    0  0.29532946912E+02 -0.18248005896E+01  0.27475432656E+02  0.40378512236E+02  0.51100000000E-03 0.  1.
         12    1    3    3    0    0 -0.23124190849E+02  0.21808348784E+01 -0.33490383601E+02  0.40756472332E+02  0.00000000000E+00 0. -1.
</event>
<event>
 7    1  0.2148778E-015  0.9000773E+02  0.7816164E-02  0.1186339E+00
        -11   -1    0    0    0    0  0.00000000000E+00  0.00000000000E+00  0.45593999997E+02  0.45594000000E+02  0.51100000000E-03 0.  1.
         11   -1    0    0    0    0 -0.00000000000E+00 -0.00000000000E+00 -0.45593999997E+02  0.45594000000E+02  0.51100000000E-03 0. -1.
    9900012    2    1    2    0    0  0.52949304435E+00 -0.49292874197E+00  0.93257837281E+00  0.90007727129E+02  0.89999988327E+02 0.  0.
         12    1    1    2    0    0 -0.52949304435E+00  0.49292874197E+00 -0.93257837281E+00  0.11802728710E+01  0.00000000000E+00 0. -1.
         11    1    3    3    0    0  0.35125638980E+02  0.15256037856E+02  0.15593276938E+02  0.41348609297E+02  0.51100000000E-03 0. -1.
        -11    1    3    3    0    0  0.12293089412E+01 -0.66720833358E+01  0.33274973842E+01  0.75564631685E+01  0.51100000000E-03 0.  1.
        -12    1    3    3    0    0 -0.35825454877E+02 -0.90768832626E+01 -0.17988195949E+02  0.41102654664E+02  0.00000000000E+00 0.  1.
</event>
<event>
 7    1  0.2148778E-015  0.9000767E+02  0.7816164E-02  0.1186339E+00
        -11   -1    0    0    0    0  0.00000000000E+00  0.00000000000E+00  0.45593999997E+02  0.45594000000E+02  0.51100000000E-03 0. -1.
         11   -1    0    0    0    0 -0.00000000000E+00 -0.00000000000E+00 -0.45593999997E+02  0.45594000000E+02  0.51100000000E-03 0.  1.
    9900012    2    1    2    0    0 -0.77052883969E+00  0.76489160379E+00 -0.46303267109E+00  0.90007672455E+02  0.89999932932E+02 0.  0.
         12    1    1    2    0    0  0.77052883969E+00 -0.76489160379E+00  0.46303267109E+00  0.11803275447E+01  0.00000000000E+00 0. -1.
         11    1    3    3    0    0  0.34835782590E+02 -0.20393525260E+01  0.13704689847E+02  0.37490121785E+02  0.51100000000E-03 0. -1.
        -11    1    3    3    0    0  0.32817738746E+00 -0.60315434454E+01  0.75044645687E+01  0.96334939381E+01  0.51100000000E-03 0.  1.
        -12    1    3    3    0    0 -0.35934488818E+02  0.88357875752E+01 -0.21672187087E+02  0.42884056732E+02  0.00000000000E+00 0.  1.
</event>
<event>
 7    1  0.2148778E-015  0.9000775E+02  0.7816164E-02  0.1186339E+00
        -11   -1    0    0    0    0  0.00000000000E+00  0.00000000000E+00  0.45593999997E+02  0.45594000000E+02  0.51100000000E-03 0. -1.
         11   -1    0    0    0    0 -0.00000000000E+00 -0.00000000000E+00 -0.45593999997E+02  0.45594000000E+02  0.51100000000E-03 0.  1.
    9900012    2    1    2    0    0  0.85901813618E+00  0.65073340569E+00 -0.48126692574E+00  0.90007752578E+02  0.90000014112E+02 0.  0.
         12    1    1    2    0    0 -0.85901813618E+00 -0.65073340569E+00  0.48126692574E+00  0.11802474221E+01  0.00000000000E+00 0. -1.
         11    1    3    3    0    0  0.68868238797E+00  0.31558955176E+02  0.21218623025E+02  0.38035140312E+02  0.51100000000E-03 0. -1.
        -11    1    3    3    0    0 -0.56703975877E+01  0.44258179898E+01  0.36781139595E+01  0.80789724743E+01  0.51100000000E-03 0.  1.
        -12    1    3    3    0    0  0.58407333359E+01 -0.35334039760E+02 -0.25378003910E+02  0.43893639791E+02  0.00000000000E+00 0.  1.
</event>
<event>
 7    1  0.2148778E-015  0.9000772E+02  0.7816164E-02  0.1186339E+00
        -11   -1    0    0    0    0  0.00000000000E+00  0.00000000000E+00  0.45593999997E+02  0.45594000000E+02  0.51100000000E-03 0.  1.
         11   -1    0    0    0    0 -0.00000000000E+00 -0.00000000000E+00 -0.45593999997E+02  0.45594000000E+02  0.51100000000E-03 0. -1.
    9900012    2    1    2    0    0 -0.68656817313E+00 -0.29442328695E+00  0.91378121696E+00  0.90007721626E+02  0.89999982751E+02 0.  0.
         12    1    1    2    0    0  0.68656817313E+00  0.29442328695E+00 -0.91378121696E+00  0.11802783743E+01  0.00000000000E+00 0. -1.
         11    1    3    3    0    0 -0.29622522892E+02  0.21671860956E+02 -0.22109513592E+01  0.36770255995E+02  0.51100000000E-03 0. -1.
        -11    1    3    3    0    0 -0.61775630478E+01  0.42413420919E+01 -0.45329914137E+01  0.87578124762E+01  0.51100000000E-03 0.  1.
        -12    1    3    3    0    0  0.35113517767E+02 -0.26207626335E+02  0.76577239899E+01  0.44479653155E+02  0.00000000000E+00 0.  1.
</event>
<event>
 7    1  0.2148778E-015  0.9000773E+02  0.7816164E-02  0.1186339E+00
        -11   -1    0    0    0    0  0.00000000000E+00  0.00000000000E+00  0.45593999997E+02  0.45594000000E+02  0.51100000000E-03 0. -1.
         11   -1    0    0    0    0 -0.00000000000E+00 -0.00000000000E+00 -0.45593999997E+02  0.45594000000E+02  0.51100000000E-03 0.  1.
    9900012    2    1    2    0    0  0.10841330671E+01  0.38066764745E+00 -0.26978539534E+00  0.90007730317E+02  0.89999991557E+02 0.  0.
         12    1    1    2    0    0 -0.10841330671E+01 -0.38066764745E+00  0.26978539534E+00  0.11802696830E+01  0.00000000000E+00 0. -1.
         11    1    3    3    0    0 -0.40685383474E+01  0.32289544027E+02  0.20157946992E+02  0.38281986429E+02  0.51100000000E-03 0. -1.
        -11    1    3    3    0    0 -0.62446428268E+01  0.39955412144E+01 -0.10349791253E+02  0.12730989470E+02  0.51100000000E-03 0.  1.
        -12    1    3    3    0    0  0.11397314241E+02 -0.35904417594E+02 -0.10077941134E+02  0.38994754419E+02  0.00000000000E+00 0.  1.
</event>
<event>
 7    1  0.2148778E-015  0.9000776E+02  0.7816164E-02  0.1186339E+00
        -11   -1    0    0    0    0  0.00000000000E+00  0.00000000000E+00  0.45593999997E+02  0.45594000000E+02  0.51100000000E-03 0. -1.
         11   -1    0    0    0    0 -0.00000000000E+00 -0.00000000000E+00 -0.45593999997E+02  0.45594000000E+02  0.51100000000E-03 0.  1.
    9900012    2    1    2    0    0 -0.67427511826E-01  0.32280167976E+00 -0.11332305727E+01  0.90007763191E+02  0.90000024865E+02 0.  0.
         12    1    1    2    0    0  0.67427511826E-01 -0.32280167976E+00  0.11332305727E+01  0.11802368087E+01  0.00000000000E+00 0. -1.
         11    1    3    3    0    0  0.38429291516E+01 -0.22223593760E+02 -0.13345506086E+02  0.26206082444E+02  0.51100000000E-03 0. -1.
        -11    1    3    3    0    0 -0.70687457221E+01 -0.76182387102E+01 -0.18131794045E+02  0.20898963675E+02  0.51100000000E-03 0.  1.
        -12    1    3    3    0    0  0.31583890586E+01  0.30164634150E+02  0.30344069558E+02  0.42902717073E+02  0.00000000000E+00 0.  1.
</event>
<event>
 7    1  0.2148778E-015  0.9000783E+02  0.7816164E-02  0.1186339E+00
        -11   -1    0    0    0    0  0.00000000000E+00  0.00000000000E+00  0.45593999997E+02  0.45594000000E+02  0.51100000000E-03 0. -1.
         11   -1    0    0    0    0 -0.00000000000E+00 -0.00000000000E+00 -0.45593999997E+02  0.45594000000E+02  0.51100000000E-03 0.  1.
    9900012    2    1    2    0    0 -0.11268936814E+01 -0.25663267518E+00 -0.23883949945E+00  0.90007833060E+02  0.90000095657E+02 0.  0.
         12    1    1    2    0    0  0.11268936814E+01  0.25663267518E+00  0.23883949945E+00  0.11801669398E+01  0.00000000000E+00 0. -1.
         11    1    3    3    0    0  0.52723514808E+01  0.18296478249E+01  0.41373263841E+02  0.41747961177E+02  0.51100000000E-03 0. -1.
        -11    1    3    3    0    0 -0.85024990375E+01 -0.33480038727E+01 -0.30700478116E+01  0.96398554782E+01  0.51100000000E-03 0.  1.
        -12    1    3    3    0    0  0.21032538753E+01  0.12617233726E+01 -0.38542055529E+02  0.38620016405E+02  0.00000000000E+00 0.  1.
</event>
<event>
 7    1  0.2148778E-015  0.9000772E+02  0.7816164E-02  0.1186339E+00
        -11   -1    0    0    0    0  0.00000000000E+00  0.00000000000E+00  0.45593999997E+02  0.45594000000E+02  0.51100000000E-03 0. -1.
         11   -1    0    0    0    0 -0.00000000000E+00 -0.00000000000E+00 -0.45593999997E+02  0.45594000000E+02  0.51100000000E-03 0.  1.
    9900012    2    1    2    0    0 -0.49674895087E+00 -0.73459394518E+00  0.77888723316E+00  0.90007723292E+02  0.89999984440E+02 0.  0.
         12    1    1    2    0    0  0.49674895087E+00  0.73459394518E+00 -0.77888723316E+00  0.11802767076E+01  0.00000000000E+00 0. -1.
         11    1    3    3    0    0  0.33332149009E+01 -0.94545579639E+01 -0.11184423243E+02  0.15019664158E+02  0.51100000000E-03 0. -1.
        -11    1    3    3    0    0 -0.27692312874E+02  0.22626634030E+02 -0.12710972923E+02  0.37952570305E+02  0.51100000000E-03 0.  1.
         12    1    3    3    0    0  0.23862349022E+02 -0.13906670012E+02  0.24674283399E+02  0.37035488830E+02  0.00000000000E+00 0. -1.
</event>
<event>
 7    1  0.2148778E-015  0.9000779E+02  0.7816164E-02  0.1186339E+00
        -11   -1    0    0    0    0  0.00000000000E+00  0.00000000000E+00  0.45593999997E+02  0.45594000000E+02  0.51100000000E-03 0.  1.
         11   -1    0    0    0    0 -0.00000000000E+00 -0.00000000000E+00 -0.45593999997E+02  0.45594000000E+02  0.51100000000E-03 0. -1.
    9900012    2    1    2    0    0 -0.23150813915E+00 -0.11445108475E+01  0.17141431840E+00  0.90007794947E+02  0.90000057040E+02 0.  0.
         12    1    1    2    0    0  0.23150813915E+00  0.11445108475E+01 -0.17141431840E+00  0.11802050530E+01  0.00000000000E+00 0. -1.
         11    1    3    3    0    0  0.13180931689E+02  0.32149302128E+02 -0.23560107534E+02  0.41980867723E+02  0.51100000000E-03 0. -1.
        -11    1    3    3    0    0 -0.70932062320E+01 -0.95460471989E+00  0.10074511409E+02  0.12358018661E+02  0.51100000000E-03 0.  1.
        -12    1    3    3    0    0 -0.63192335960E+01 -0.32339208256E+02  0.13657010443E+02  0.35668908563E+02  0.00000000000E+00 0.  1.
</event>
<event>
 7    1  0.2148778E-015  0.9000785E+02  0.7816164E-02  0.1186339E+00
        -11   -1    0    0    0    0  0.00000000000E+00  0.00000000000E+00  0.45593999997E+02  0.45594000000E+02  0.51100000000E-03 0. -1.
         11   -1    0    0    0    0 -0.00000000000E+00 -0.00000000000E+00 -0.45593999997E+02  0.45594000000E+02  0.51100000000E-03 0.  1.
    9900012    2    1    2    0    0  0.82876304031E+00 -0.63297363362E+00 -0.55249755934E+00  0.90007848590E+02  0.90000111391E+02 0.  0.
         12    1    1    2    0    0 -0.82876304031E+00  0.63297363362E+00  0.55249755934E+00  0.11801514102E+01  0.00000000000E+00 0. -1.
         11    1    3    3    0    0 -0.31214140282E+02 -0.32976667366E+01  0.29621098486E+02  0.43157926679E+02  0.51100000000E-03 0. -1.
        -11    1    3    3    0    0  0.25293912939E+01  0.47301458042E+01 -0.89671154311E+01  0.10448983638E+02  0.51100000000E-03 0.  1.
        -12    1    3    3    0    0  0.29513512029E+02 -0.20654527012E+01 -0.21206480614E+02  0.36400938273E+02  0.00000000000E+00 0.  1.
</event>
<event>
 7    1  0.2148778E-015  0.9000770E+02  0.7816164E-02  0.1186339E+00
        -11   -1    0    0    0    0  0.00000000000E+00  0.00000000000E+00  0.45593999997E+02  0.45594000000E+02  0.51100000000E-03 0.  1.
         11   -1    0    0    0    0 -0.00000000000E+00 -0.00000000000E+00 -0.45593999997E+02  0.45594000000E+02  0.51100000000E-03 0. -1.
    9900012    2    1    2    0    0  0.10738122295E+01 -0.32110076537E+00  0.37003583030E+00  0.90007701342E+02  0.89999962200E+02 0.  0.
         12    1    1    2    0    0 -0.10738122295E+01  0.32110076537E+00 -0.37003583030E+00  0.11802986577E+01  0.00000000000E+00 0. -1.
         11    1    3    3    0    0  0.82697401361E+01 -0.17872140457E+01 -0.26526792628E+01  0.88667605977E+01  0.51100000000E-03 0. -1.
        -11    1    3    3    0    0  0.28422147412E+02 -0.13300912366E+02  0.21843902064E+02  0.38234654319E+02  0.51100000000E-03 0.  1.
         12    1    3    3    0    0 -0.35618075318E+02  0.14767025646E+02 -0.18821186971E+02  0.42906286425E+02  0.00000000000E+00 0. -1.
</event>
<event>
 7    1  0.2148778E-015  0.9000767E+02  0.7816164E-02  0.1186339E+00
        -11   -1    0    0    0    0  0.00000000000E+00  0.00000000000E+00  0.45593999997E+02  0.45594000000E+02  0.51100000000E-03 0.  1.
         11   -1    0    0    0    0 -0.00000000000E+00 -0.00000000000E+00 -0.45593999997E+02  0.45594000000E+02  0.51100000000E-03 0. -1.
    9900012    2    1    2    0    0  0.10270792216E+01  0.26800924989E+00  0.51618513308E+00  0.90007674716E+02  0.89999935222E+02 0.  0.
         12    1    1    2    0    0 -0.10270792216E+01 -0.26800924989E+00 -0.51618513308E+00  0.11803252844E+01  0.00000000000E+00 0. -1.
         11    1    3    3    0    0  0.72797884264E+01  0.46087187666E+01  0.31558736691E+01  0.91757913598E+01  0.51100000000E-03 0. -1.
        -11    1    3    3    0    0  0.15148661008E+02  0.79712373297E+01  0.33175219539E+02  0.37331189998E+02  0.51100000000E-03 0.  1.
         12    1    3    3    0    0 -0.21401370213E+02 -0.12311946846E+02 -0.35814908075E+02  0.43500693358E+02  0.00000000000E+00 0. -1.
</event>
<event>
 7    1  0.2148778E-015  0.9000774E+02  0.7816164E-02  0.1186339E+00
        -11   -1    0    0    0    0  0.00000000000E+00  0.00000000000E+00  0.45593999997E+02  0.45594000000E+02  0.51100000000E-03 0.  1.
         11   -1    0    0    0    0 -0.00000000000E+00 -0.00000000000E+00 -0.45593999997E+02  0.45594000000E+02  0.51100000000E-03 0. -1.
    9900012    2    1    2    0    0 -0.75745043089E-01  0.15241804549E+00  0.11679262421E+01  0.90007737199E+02  0.89999998530E+02 0.  0.
         12    1    1    2    0    0  0.75745043089E-01 -0.15241804549E+00 -0.11679262421E+01  0.11802628009E+01  0.00000000000E+00 0. -1.
         11    1    3    3    0    0  0.86146019230E+00 -0.21063950864E+02 -0.36866683820E+02  0.42468629785E+02  0.51100000000E-03 0. -1.
        -11    1    3    3    0    0  0.49870120910E+01 -0.12324605016E+01  0.90026321668E+01  0.10365164479E+02  0.51100000000E-03 0.  1.
        -12    1    3    3    0    0 -0.59242173264E+01  0.22448829411E+02  0.29031977895E+02  0.37173942935E+02  0.00000000000E+00 0.  1.
</event>
<event>
 7    1  0.2148778E-015  0.9000784E+02  0.7816164E-02  0.1186339E+00
        -11   -1    0    0    0    0  0.00000000000E+00  0.00000000000E+00  0.45593999997E+02  0.45594000000E+02  0.51100000000E-03 0.  1.
         11   -1    0    0    0    0 -0.00000000000E+00 -0.00000000000E+00 -0.45593999997E+02  0.45594000000E+02  0.51100000000E-03 0. -1.
    9900012    2    1    2    0    0 -0.10807656884E+01  0.34384728448E+00 -0.32634121950E+00  0.90007837291E+02  0.90000099943E+02 0.  0.
         12    1    1    2    0    0  0.10807656884E+01 -0.34384728448E+00  0.32634121950E+00  0.11801627090E+01  0.00000000000E+00 0. -1.
         11    1    3    3    0    0 -0.23375449248E+01 -0.65547049579E+01  0.67803814349E+01  0.97160612402E+01  0.51100000000E-03 0. -1.
        -11    1    3    3    0    0  0.14903529984E+02 -0.27942622204E+02  0.16839028584E+02  0.35867230525E+02  0.51100000000E-03 0.  1.
         12    1    3    3    0    0 -0.13646750747E+02  0.34841174447E+02 -0.23945751238E+02  0.44424545526E+02  0.00000000000E+00 0. -1.
</event>
<event>
 7    1  0.2148778E-015  0.9000777E+02  0.7816164E-02  0.1186339E+00
        -11   -1    0    0    0    0  0.00000000000E+00  0.00000000000E+00  0.45593999997E+02  0.45594000000E+02  0.51100000000E-03 0.  1.
         11   -1    0    0    0    0 -0.00000000000E+00 -0.00000000000E+00 -0.45593999997E+02  0.45594000000E+02  0.51100000000E-03 0. -1.
    9900012    2    1    2    0    0 -0.10957522713E+01  0.40555838237E+00  0.16671827753E+00  0.90007768825E+02  0.90000030574E+02 0.  0.
         12    1    1    2    0    0  0.10957522713E+01 -0.40555838237E+00 -0.16671827753E+00  0.11802311747E+01  0.00000000000E+00 0. -1.
         11    1    3    3    0    0  0.16004833255E+01 -0.73241648456E+01  0.51457755465E+01  0.90930711972E+01  0.51100000000E-03 0. -1.
        -11    1    3    3    0    0 -0.23780482597E+02 -0.24798662164E+02  0.14783592055E+02  0.37403737674E+02  0.51100000000E-03 0.  1.
         12    1    3    3    0    0  0.21084247000E+02  0.32528385392E+02 -0.19762649324E+02  0.43510959954E+02  0.00000000000E+00 0. -1.
</event>
<event>
 7    1  0.2148778E-015  0.9000774E+02  0.7816164E-02  0.1186339E+00
        -11   -1    0    0    0    0  0.00000000000E+00  0.00000000000E+00  0.45593999997E+02  0.45594000000E+02  0.51100000000E-03 0.  1.
         11   -1    0    0    0    0 -0.00000000000E+00 -0.00000000000E+00 -0.45593999997E+02  0.45594000000E+02  0.51100000000E-03 0. -1.
    9900012    2    1    2    0    0  0.78814857743E+00 -0.57302818933E+00 -0.66594332415E+00  0.90007737319E+02  0.89999998651E+02 0.  0.
         12    1    1    2    0    0 -0.78814857743E+00  0.57302818933E+00  0.66594332415E+00  0.11802626813E+01  0.00000000000E+00 0. -1.
         11    1    3    3    0    0  0.36535404629E+02  0.10077781806E+02 -0.14052469317E+02  0.40421150054E+02  0.51100000000E-03 0. -1.
        -11    1    3    3    0    0 -0.41172281698E+01 -0.30225395423E+01 -0.88212746576E+01  0.10193242857E+02  0.51100000000E-03 0.  1.
        -12    1    3    3    0    0 -0.31630027882E+02 -0.76282704533E+01  0.22207800650E+02  0.39393344408E+02  0.00000000000E+00 0.  1.
</event>
<event>
 7    1  0.2148778E-015  0.9000707E+02  0.7816164E-02  0.1186340E+00
        -11   -1    0    0    0    0  0.00000000000E+00  0.00000000000E+00  0.45593999997E+02  0.45594000000E+02  0.51100000000E-03 0.  1.
         11   -1    0    0    0    0 -0.00000000000E+00 -0.00000000000E+00 -0.45593999997E+02  0.45594000000E+02  0.51100000000E-03 0. -1.
    9900012    2    1    2    0    0 -0.43793746281E+00 -0.51831072191E+00 -0.96652197899E+00  0.90007068181E+02  0.89999320678E+02 0.  0.
         12    1    1    2    0    0  0.43793746281E+00  0.51831072191E+00  0.96652197899E+00  0.11809318192E+01  0.00000000000E+00 0. -1.
         11    1    3    3    0    0  0.28975775905E+01  0.86641253353E+01  0.29746947023E-01  0.91358584085E+01  0.51100000000E-03 0. -1.
        -11    1    3    3    0    0 -0.18654365187E+02  0.20933287341E+02  0.25525414270E+02  0.37917471347E+02  0.51100000000E-03 0.  1.
         12    1    3    3    0    0  0.15318850133E+02 -0.30115723398E+02 -0.26521683196E+02  0.42953738426E+02  0.00000000000E+00 0. -1.
</event>
<event>
 7    1  0.2148778E-015  0.9000773E+02  0.7816164E-02  0.1186339E+00
        -11   -1    0    0    0    0  0.00000000000E+00  0.00000000000E+00  0.45593999997E+02  0.45594000000E+02  0.51100000000E-03 0.  1.
         11   -1    0    0    0    0 -0.00000000000E+00 -0.00000000000E+00 -0.45593999997E+02  0.45594000000E+02  0.51100000000E-03 0. -1.
    9900012    2    1    2    0    0  0.11631448422E+01 -0.70423506955E-01 -0.18752469802E+00  0.90007732697E+02  0.89999993969E+02 0.  0.
         12    1    1    2    0    0 -0.11631448422E+01  0.70423506955E-01  0.18752469802E+00  0.11802673030E+01  0.00000000000E+00 0. -1.
         11    1    3    3    0    0 -0.25128778358E+00  0.29785930691E+02 -0.22649667181E+02  0.37420211602E+02  0.51100000000E-03 0. -1.
        -11    1    3    3    0    0  0.27144152028E+01  0.76869410077E+01 -0.11267229724E+01  0.82296182698E+01  0.51100000000E-03 0.  1.
        -12    1    3    3    0    0 -0.12999825771E+01 -0.37543295205E+02  0.23588865455E+02  0.44357902825E+02  0.00000000000E+00 0.  1.
</event>
<event>
 7    1  0.2148778E-015  0.9000834E+02  0.7816164E-02  0.1186338E+00
        -11   -1    0    0    0    0  0.00000000000E+00  0.00000000000E+00  0.45593999997E+02  0.45594000000E+02  0.51100000000E-03 0.  1.
         11   -1    0    0    0    0 -0.00000000000E+00 -0.00000000000E+00 -0.45593999997E+02  0.45594000000E+02  0.51100000000E-03 0. -1.
    9900012    2    1    2    0    0  0.10816689312E+01 -0.42907162291E+00  0.19363942468E+00  0.90008336336E+02  0.90000605573E+02 0.  0.
         12    1    1    2    0    0 -0.10816689312E+01  0.42907162291E+00 -0.19363942468E+00  0.11796636644E+01  0.00000000000E+00 0. -1.
         11    1    3    3    0    0 -0.36194075786E+02  0.18608090797E+02  0.89912692737E+01  0.41678712654E+02  0.51100000000E-03 0. -1.
        -11    1    3    3    0    0  0.57931937252E+01  0.44087461341E+01 -0.51278179070E+01  0.89046422029E+01  0.51100000000E-03 0.  1.
        -12    1    3    3    0    0  0.31482550992E+02 -0.23445908554E+02 -0.36698119420E+01  0.39424981478E+02  0.00000000000E+00 0.  1.
</event>
<event>
 7    1  0.2148778E-015  0.9000782E+02  0.7816164E-02  0.1186339E+00
        -11   -1    0    0    0    0  0.00000000000E+00  0.00000000000E+00  0.45593999997E+02  0.45594000000E+02  0.51100000000E-03 0.  1.
         11   -1    0    0    0    0 -0.00000000000E+00 -0.00000000000E+00 -0.45593999997E+02  0.45594000000E+02  0.51100000000E-03 0. -1.
    9900012    2    1    2    0    0 -0.79873686398E+00 -0.45724156433E+00  0.73875838604E+00  0.90007824429E+02  0.90000086911E+02 0.  0.
         12    1    1    2    0    0  0.79873686398E+00  0.45724156433E+00 -0.73875838604E+00  0.11801755713E+01  0.00000000000E+00 0. -1.
         11    1    3    3    0    0 -0.30440137725E+02  0.26271228415E+02  0.11942368269E+02  0.41945197428E+02  0.51100000000E-03 0. -1.
        -11    1    3    3    0    0  0.61347582623E+01 -0.36574442452E+01  0.73590467843E+01  0.10255131748E+02  0.51100000000E-03 0.  1.
        -12    1    3    3    0    0  0.23506642599E+02 -0.23071025734E+02 -0.18562656667E+02  0.37807495252E+02  0.00000000000E+00 0.  1.
</event>
<event>
 7    1  0.2148778E-015  0.9000770E+02  0.7816164E-02  0.1186339E+00
        -11   -1    0    0    0    0  0.00000000000E+00  0.00000000000E+00  0.45593999997E+02  0.45594000000E+02  0.51100000000E-03 0. -1.
         11   -1    0    0    0    0 -0.00000000000E+00 -0.00000000000E+00 -0.45593999997E+02  0.45594000000E+02  0.51100000000E-03 0.  1.
    9900012    2    1    2    0    0 -0.57522974793E+00  0.11928407218E+00 -0.10237174750E+01  0.90007696894E+02  0.89999957693E+02 0.  0.
         12    1    1    2    0    0  0.57522974793E+00 -0.11928407218E+00  0.10237174750E+01  0.11803031058E+01  0.00000000000E+00 0. -1.
         11    1    3    3    0    0 -0.35135772928E+02 -0.13326826455E+02  0.41532632686E+01  0.37807095084E+02  0.51100000000E-03 0. -1.
        -11    1    3    3    0    0 -0.93938636398E+00  0.13716137517E+02  0.59731923512E+01  0.14989793269E+02  0.51100000000E-03 0.  1.
        -12    1    3    3    0    0  0.35499929544E+02 -0.27002698998E+00 -0.11150173095E+02  0.37210808541E+02  0.00000000000E+00 0.  1.
</event>
<event>
 7    1  0.2148778E-015  0.9000783E+02  0.7816164E-02  0.1186339E+00
        -11   -1    0    0    0    0  0.00000000000E+00  0.00000000000E+00  0.45593999997E+02  0.45594000000E+02  0.51100000000E-03 0.  1.
         11   -1    0    0    0    0 -0.00000000000E+00 -0.00000000000E+00 -0.45593999997E+02  0.45594000000E+02  0.51100000000E-03 0. -1.
    9900012    2    1    2    0    0  0.93947675568E+00  0.71265661500E+00  0.48040560247E-01  0.90007828860E+02  0.90000091400E+02 0.  0.
         12    1    1    2    0    0 -0.93947675568E+00 -0.71265661500E+00 -0.48040560247E-01  0.11801711405E+01  0.00000000000E+00 0. -1.
         11    1    3    3    0    0  0.23857266411E+02  0.30521139161E+02  0.10248930932E+02  0.40071806570E+02  0.51100000000E-03 0. -1.
        -11    1    3    3    0    0 -0.59698919206E+01  0.35221003133E+01  0.60167425552E+01  0.91785615102E+01  0.51100000000E-03 0.  1.
        -12    1    3    3    0    0 -0.16947897734E+02 -0.33330582860E+02 -0.16217632927E+02  0.40757460779E+02  0.00000000000E+00 0.  1.
</event>
<event>
 7    1  0.2148778E-015  0.9000773E+02  0.7816164E-02  0.1186339E+00
        -11   -1    0    0    0    0  0.00000000000E+00  0.00000000000E+00  0.45593999997E+02  0.45594000000E+02  0.51100000000E-03 0.  1.
         11   -1    0    0    0    0 -0.00000000000E+00 -0.00000000000E+00 -0.45593999997E+02  0.45594000000E+02  0.51100000000E-03 0. -1.
    9900012    2    1    2    0    0  0.44529822174E-01  0.10261138892E+00  0.11749536508E+01  0.90007733893E+02  0.89999995180E+02 0.  0.
         12    1    1    2    0    0 -0.44529822174E-01 -0.10261138892E+00 -0.11749536508E+01  0.11802661072E+01  0.00000000000E+00 0. -1.
         11    1    3    3    0    0 -0.29501173210E+00  0.36631361869E+02 -0.55482253718E+01  0.37050324012E+02  0.51100000000E-03 0. -1.
        -11    1    3    3    0    0  0.38703715260E+01  0.66902207926E+01  0.56626865921E+01  0.95814847338E+01  0.51100000000E-03 0.  1.
        -12    1    3    3    0    0 -0.35308299717E+01 -0.43218971273E+02  0.10604924305E+01  0.43375925147E+02  0.00000000000E+00 0.  1.
</event>
<event>
 7    1  0.2148778E-015  0.9000782E+02  0.7816164E-02  0.1186339E+00
        -11   -1    0    0    0    0  0.00000000000E+00  0.00000000000E+00  0.45593999997E+02  0.45594000000E+02  0.51100000000E-03 0. -1.
         11   -1    0    0    0    0 -0.00000000000E+00 -0.00000000000E+00 -0.45593999997E+02  0.45594000000E+02  0.51100000000E-03 0.  1.
    9900012    2    1    2    0    0 -0.11737416791E+01  0.87736315712E-01 -0.86382601213E-01  0.90007818173E+02  0.90000080573E+02 0.  0.
         12    1    1    2    0    0  0.11737416791E+01 -0.87736315712E-01  0.86382601213E-01  0.11801818267E+01  0.00000000000E+00 0. -1.
         11    1    3    3    0    0 -0.29114765664E+02  0.29997531459E+02  0.81243599672E+00  0.41811260754E+02  0.51100000000E-03 0. -1.
        -11    1    3    3    0    0  0.55432000249E+01  0.42635861150E+01 -0.21556601086E+01  0.73179302976E+01  0.51100000000E-03 0.  1.
        -12    1    3    3    0    0  0.22397823960E+02 -0.34173381258E+02  0.12568415107E+01  0.40878627122E+02  0.00000000000E+00 0.  1.
</event>
<event>
 7    1  0.2148778E-015  0.9000771E+02  0.7816164E-02  0.1186339E+00
        -11   -1    0    0    0    0  0.00000000000E+00  0.00000000000E+00  0.45593999997E+02  0.45594000000E+02  0.51100000000E-03 0.  1.
         11   -1    0    0    0    0 -0.00000000000E+00 -0.00000000000E+00 -0.45593999997E+02  0.45594000000E+02  0.51100000000E-03 0. -1.
    9900012    2    1    2    0    0  0.80519311411E+00 -0.69097657038E+00  0.51701547460E+00  0.90007707844E+02  0.89999968788E+02 0.  0.
         12    1    1    2    0    0 -0.80519311411E+00  0.69097657038E+00 -0.51701547460E+00  0.11802921557E+01  0.00000000000E+00 0. -1.
         11    1    3    3    0    0  0.86733053722E+01 -0.81277177232E-02  0.45954212677E+01  0.98155075788E+01  0.51100000000E-03 0. -1.
        -11    1    3    3    0    0  0.89581253978E+00 -0.20294153492E+02  0.32176069313E+02  0.38051998407E+02  0.51100000000E-03 0.  1.
         12    1    3    3    0    0 -0.87639247979E+01  0.19611304640E+02 -0.36254475106E+02  0.42140201859E+02  0.00000000000E+00 0. -1.
</event>
<event>
 7    1  0.2148778E-015  0.9000776E+02  0.7816164E-02  0.1186339E+00
        -11   -1    0    0    0    0  0.00000000000E+00  0.00000000000E+00  0.45593999997E+02  0.45594000000E+02  0.51100000000E-03 0.  1.
         11   -1    0    0    0    0 -0.00000000000E+00 -0.00000000000E+00 -0.45593999997E+02  0.45594000000E+02  0.51100000000E-03 0. -1.
    9900012    2    1    2    0    0  0.79943351155E+00  0.76535857359E+00  0.41000433843E+00  0.90007757973E+02  0.90000019578E+02 0.  0.
         12    1    1    2    0    0 -0.79943351155E+00 -0.76535857359E+00 -0.41000433843E+00  0.11802420273E+01  0.00000000000E+00 0. -1.
         11    1    3    3    0    0 -0.67799673592E+01 -0.66264289308E+01 -0.31180196046E+01  0.99799581303E+01  0.51100000000E-03 0. -1.
        -11    1    3    3    0    0 -0.92483064548E+01 -0.33594611644E+02  0.71614246309E+01  0.35572673596E+02  0.51100000000E-03 0.  1.
         12    1    3    3    0    0  0.16827707326E+02  0.40986399148E+02 -0.36334006879E+01  0.44455126246E+02  0.00000000000E+00 0. -1.
</event>
<event>
 7    1  0.2148778E-015  0.9000790E+02  0.7816164E-02  0.1186339E+00
        -11   -1    0    0    0    0  0.00000000000E+00  0.00000000000E+00  0.45593999997E+02  0.45594000000E+02  0.51100000000E-03 0.  1.
         11   -1    0    0    0    0 -0.00000000000E+00 -0.00000000000E+00 -0.45593999997E+02  0.45594000000E+02  0.51100000000E-03 0. -1.
    9900012    2    1    2    0    0  0.90127153796E-01  0.95789440912E+00  0.68334507621E+00  0.90007896150E+02  0.90000159579E+02 0.  0.
         12    1    1    2    0    0 -0.90127153796E-01 -0.95789440912E+00 -0.68334507621E+00  0.11801038497E+01  0.00000000000E+00 0. -1.
         11    1    3    3    0    0 -0.73958465490E+01 -0.21058188550E+01  0.48995568055E+01  0.91180412577E+01  0.51100000000E-03 0. -1.
        -11    1    3    3    0    0  0.79814404275E+01 -0.10450322945E+02  0.36071252940E+02  0.38393331841E+02  0.51100000000E-03 0.  1.
         12    1    3    3    0    0 -0.49546672472E+00  0.13514036209E+02 -0.40287464670E+02  0.42496523051E+02  0.00000000000E+00 0. -1.
</event>
<event>
 7    1  0.2148778E-015  0.9000753E+02  0.7816164E-02  0.1186339E+00
        -11   -1    0    0    0    0  0.00000000000E+00  0.00000000000E+00  0.45593999997E+02  0.45594000000E+02  0.51100000000E-03 0.  1.
         11   -1    0    0    0    0 -0.00000000000E+00 -0.00000000000E+00 -0.45593999997E+02  0.45594000000E+02  0.51100000000E-03 0. -1.
    9900012    2    1    2    0    0 -0.10049951701E+01 -0.30461854329E+00 -0.53915881677E+00  0.90007533999E+02  0.89999792648E+02 0.  0.
         12    1    1    2    0    0  0.10049951701E+01  0.30461854329E+00  0.53915881677E+00  0.11804660006E+01  0.00000000000E+00 0. -1.
         11    1    3    3    0    0 -0.36354552556E+02 -0.39192352909E+01 -0.11273842313E+02  0.38263735019E+02  0.51100000000E-03 0. -1.
        -11    1    3    3    0    0 -0.52089453173E+01  0.82230920572E+01  0.31057221688E+01  0.10217527331E+02  0.51100000000E-03 0.  1.
        -12    1    3    3    0    0  0.40558502703E+02 -0.46084753096E+01  0.76289613272E+01  0.41526271650E+02  0.00000000000E+00 0.  1.
</event>
<event>
 7    1  0.2148778E-015  0.9000778E+02  0.7816164E-02  0.1186339E+00
        -11   -1    0    0    0    0  0.00000000000E+00  0.00000000000E+00  0.45593999997E+02  0.45594000000E+02  0.51100000000E-03 0.  1.
         11   -1    0    0    0    0 -0.00000000000E+00 -0.00000000000E+00 -0.45593999997E+02  0.45594000000E+02  0.51100000000E-03 0. -1.
    9900012    2    1    2    0    0  0.13882322117E+00 -0.63761491452E+00  0.98340539834E+00  0.90007783561E+02  0.90000045504E+02 0.  0.
         12    1    1    2    0    0 -0.13882322117E+00  0.63761491452E+00 -0.98340539834E+00  0.11802164392E+01  0.00000000000E+00 0. -1.
         11    1    3    3    0    0  0.16513708755E+02 -0.33456768810E+02  0.67765056999E+01  0.37920693372E+02  0.51100000000E-03 0. -1.
        -11    1    3    3    0    0 -0.26713550005E+01 -0.58353832477E+01  0.66376389554E+01  0.92328807178E+01  0.51100000000E-03 0.  1.
        -12    1    3    3    0    0 -0.13703530534E+02  0.38654537144E+02 -0.12430739257E+02  0.42854209471E+02  0.00000000000E+00 0.  1.
</event>
<event>
 7    1  0.2148778E-015  0.9000779E+02  0.7816164E-02  0.1186339E+00
        -11   -1    0    0    0    0  0.00000000000E+00  0.00000000000E+00  0.45593999997E+02  0.45594000000E+02  0.51100000000E-03 0.  1.
         11   -1    0    0    0    0 -0.00000000000E+00 -0.00000000000E+00 -0.45593999997E+02  0.45594000000E+02  0.51100000000E-03 0. -1.
    9900012    2    1    2    0    0 -0.55989377870E+00 -0.31826010981E+00  0.98899854547E+00  0.90007792957E+02  0.90000055024E+02 0.  0.
         12    1    1    2    0    0  0.55989377870E+00  0.31826010981E+00 -0.98899854547E+00  0.11802070428E+01  0.00000000000E+00 0. -1.
         11    1    3    3    0    0 -0.98369655113E+01 -0.70160979803E+01  0.37236398967E+01  0.12643457426E+02  0.51100000000E-03 0. -1.
        -11    1    3    3    0    0 -0.11828618292E+02  0.24891160491E+01  0.33281211045E+02  0.35408345320E+02  0.51100000000E-03 0.  1.
        -12    1    3    3    0    0  0.21105690025E+02  0.42087218215E+01 -0.36015852396E+02  0.41955990211E+02  0.00000000000E+00 0.  1.
</event>
<event>
 7    1  0.2148778E-015  0.9000770E+02  0.7816164E-02  0.1186339E+00
        -11   -1    0    0    0    0  0.00000000000E+00  0.00000000000E+00  0.45593999997E+02  0.45594000000E+02  0.51100000000E-03 0. -1.
         11   -1    0    0    0    0 -0.00000000000E+00 -0.00000000000E+00 -0.45593999997E+02  0.45594000000E+02  0.51100000000E-03 0.  1.
    9900012    2    1    2    0    0  0.83763646441E+00 -0.31182149865E-01 -0.83096003545E+00  0.90007702684E+02  0.89999963560E+02 0.  0.
         12    1    1    2    0    0 -0.83763646441E+00  0.31182149865E-01  0.83096003545E+00  0.11802973157E+01  0.00000000000E+00 0. -1.
         11    1    3    3    0    0 -0.34392861310E+02 -0.99504275327E+01  0.15121190527E+02  0.38865541555E+02  0.51100000000E-03 0. -1.
        -11    1    3    3    0    0 -0.42230802135E+01  0.69024164075E+01 -0.67012373702E+01  0.10506395257E+02  0.51100000000E-03 0.  1.
        -12    1    3    3    0    0  0.39453577988E+02  0.30168289753E+01 -0.92509131920E+01  0.40635765872E+02  0.00000000000E+00 0.  1.
</event>
<event>
 7    1  0.2148778E-015  0.9000779E+02  0.7816164E-02  0.1186339E+00
        -11   -1    0    0    0    0  0.00000000000E+00  0.00000000000E+00  0.45593999997E+02  0.45594000000E+02  0.51100000000E-03 0. -1.
         11   -1    0    0    0    0 -0.00000000000E+00 -0.00000000000E+00 -0.45593999997E+02  0.45594000000E+02  0.51100000000E-03 0.  1.
    9900012    2    1    2    0    0  0.80488652103E+00  0.53793914777E+00 -0.67503577410E+00  0.90007790639E+02  0.90000052676E+02 0.  0.
         12    1    1    2    0    0 -0.80488652103E+00 -0.53793914777E+00  0.67503577410E+00  0.11802093606E+01  0.00000000000E+00 0. -1.
         11    1    3    3    0    0 -0.27621058882E+02  0.15537583969E+02 -0.14042686395E+02  0.34663185814E+02  0.51100000000E-03 0. -1.
        -11    1    3    3    0    0 -0.44852319956E+01  0.10873792469E+02  0.16957150562E+01  0.11884112021E+02  0.51100000000E-03 0.  1.
        -12    1    3    3    0    0  0.32911177399E+02 -0.25873437290E+02  0.11671935565E+02  0.43460492804E+02  0.00000000000E+00 0.  1.
</event>
<event>
 7    1  0.2148778E-015  0.9000808E+02  0.7816164E-02  0.1186338E+00
        -11   -1    0    0    0    0  0.00000000000E+00  0.00000000000E+00  0.45593999997E+02  0.45594000000E+02  0.51100000000E-03 0.  1.
         11   -1    0    0    0    0 -0.00000000000E+00 -0.00000000000E+00 -0.45593999997E+02  0.45594000000E+02  0.51100000000E-03 0. -1.
    9900012    2    1    2    0    0 -0.30853273628E-01 -0.11540222384E+01 -0.24392464459E+00  0.90008076916E+02  0.90000342731E+02 0.  0.
         12    1    1    2    0    0  0.30853273628E-01  0.11540222384E+01  0.24392464459E+00  0.11799230837E+01  0.00000000000E+00 0. -1.
         11    1    3    3    0    0 -0.19451050234E+02  0.35026116949E+02 -0.15462513215E+01  0.40094427507E+02  0.51100000000E-03 0. -1.
        -11    1    3    3    0    0  0.20152452173E+00 -0.14899969705E+01  0.93307257056E+01  0.94510922945E+01  0.51100000000E-03 0.  1.
        -12    1    3    3    0    0  0.19218672439E+02 -0.34690142217E+02 -0.80283990287E+01  0.40462557115E+02  0.00000000000E+00 0.  1.
</event>
<event>
 7    1  0.2148778E-015  0.9000765E+02  0.7816164E-02  0.1186339E+00
        -11   -1    0    0    0    0  0.00000000000E+00  0.00000000000E+00  0.45593999997E+02  0.45594000000E+02  0.51100000000E-03 0. -1.
         11   -1    0    0    0    0 -0.00000000000E+00 -0.00000000000E+00 -0.45593999997E+02  0.45594000000E+02  0.51100000000E-03 0.  1.
    9900012    2    1    2    0    0  0.10185419168E+01 -0.15105609533E+00 -0.57704848629E+00  0.90007648131E+02  0.89999908286E+02 0.  0.
         12    1    1    2    0    0 -0.10185419168E+01  0.15105609533E+00  0.57704848629E+00  0.11803518694E+01  0.00000000000E+00 0. -1.
         11    1    3    3    0    0  0.10892992301E+02  0.19710795532E+02  0.10968477193E+02  0.25049555565E+02  0.51100000000E-03 0. -1.
        -11    1    3    3    0    0  0.21996811025E+02 -0.40350417597E+01  0.87242966164E+01  0.24005303768E+02  0.51100000000E-03 0.  1.
        -12    1    3    3    0    0 -0.31871261410E+02 -0.15826809868E+02 -0.20269822296E+02  0.40952788798E+02  0.00000000000E+00 0.  1.
</event>
<event>
 7    1  0.2148778E-015  0.9000772E+02  0.7816164E-02  0.1186339E+00
        -11   -1    0    0    0    0  0.00000000000E+00  0.00000000000E+00  0.45593999997E+02  0.45594000000E+02  0.51100000000E-03 0. -1.
         11   -1    0    0    0    0 -0.00000000000E+00 -0.00000000000E+00 -0.45593999997E+02  0.45594000000E+02  0.51100000000E-03 0.  1.
    9900012    2    1    2    0    0  0.53849918930E+00 -0.20671886359E+00 -0.10297320944E+01  0.90007719418E+02  0.89999980515E+02 0.  0.
         12    1    1    2    0    0 -0.53849918930E+00  0.20671886359E+00  0.10297320944E+01  0.11802805818E+01  0.00000000000E+00 0. -1.
         11    1    3    3    0    0 -0.20712120529E+02  0.11342131143E+02  0.25149851504E+02  0.34498563834E+02  0.51100000000E-03 0. -1.
        -11    1    3    3    0    0 -0.72509930921E+01  0.27228062520E+01  0.63130077614E+01  0.99922290788E+01  0.51100000000E-03 0.  1.
        -12    1    3    3    0    0  0.28501612810E+02 -0.14271656259E+02 -0.32492591360E+02  0.45516926505E+02  0.00000000000E+00 0.  1.
</event>
<event>
 7    1  0.2148778E-015  0.9000722E+02  0.7816164E-02  0.1186340E+00
        -11   -1    0    0    0    0  0.00000000000E+00  0.00000000000E+00  0.45593999997E+02  0.45594000000E+02  0.51100000000E-03 0. -1.
         11   -1    0    0    0    0 -0.00000000000E+00 -0.00000000000E+00 -0.45593999997E+02  0.45594000000E+02  0.51100000000E-03 0.  1.
    9900012    2    1    2    0    0  0.33310642213E+00 -0.81715121205E+00 -0.78456804684E+00  0.90007219321E+02  0.89999473814E+02 0.  0.
         12    1    1    2    0    0 -0.33310642213E+00  0.81715121205E+00  0.78456804684E+00  0.11807806790E+01  0.00000000000E+00 0. -1.
         11    1    3    3    0    0  0.12903656145E+02  0.22294294084E+02  0.22453081801E+02  0.34171344329E+02  0.51100000000E-03 0. -1.
        -11    1    3    3    0    0 -0.38193460184E+01 -0.31281392460E+01  0.12794674555E+02  0.13714093349E+02  0.51100000000E-03 0.  1.
        -12    1    3    3    0    0 -0.87512037047E+01 -0.19983306050E+02 -0.36032324403E+02  0.42121781644E+02  0.00000000000E+00 0.  1.
</event>
<event>
 7    1  0.2148778E-015  0.9000776E+02  0.7816164E-02  0.1186339E+00
        -11   -1    0    0    0    0  0.00000000000E+00  0.00000000000E+00  0.45593999997E+02  0.45594000000E+02  0.51100000000E-03 0.  1.
         11   -1    0    0    0    0 -0.00000000000E+00 -0.00000000000E+00 -0.45593999997E+02  0.45594000000E+02  0.51100000000E-03 0. -1.
    9900012    2    1    2    0    0 -0.10726896538E+01  0.54587778911E-01  0.48920123243E+00  0.90007762412E+02  0.90000024076E+02 0.  0.
         12    1    1    2    0    0  0.10726896538E+01 -0.54587778911E-01 -0.48920123243E+00  0.11802375883E+01  0.00000000000E+00 0. -1.
         11    1    3    3    0    0  0.15217972345E+02 -0.21945112173E+02 -0.13416019414E+02  0.29885852970E+02  0.51100000000E-03 0. -1.
        -11    1    3    3    0    0  0.13942412317E+02 -0.76359765863E+01  0.63472523339E+01  0.17116851699E+02  0.51100000000E-03 0.  1.
        -12    1    3    3    0    0 -0.30233074315E+02  0.29635676538E+02  0.75579683123E+01  0.43005057743E+02  0.00000000000E+00 0.  1.
</event>
<event>
 7    1  0.2148778E-015  0.9000773E+02  0.7816164E-02  0.1186339E+00
        -11   -1    0    0    0    0  0.00000000000E+00  0.00000000000E+00  0.45593999997E+02  0.45594000000E+02  0.51100000000E-03 0. -1.
         11   -1    0    0    0    0 -0.00000000000E+00 -0.00000000000E+00 -0.45593999997E+02  0.45594000000E+02  0.51100000000E-03 0.  1.
    9900012    2    1    2    0    0  0.10229602847E+01  0.52007686745E-02 -0.58870164571E+00  0.90007726972E+02  0.89999988168E+02 0.  0.
         12    1    1    2    0    0 -0.10229602847E+01 -0.52007686745E-02  0.58870164571E+00  0.11802730276E+01  0.00000000000E+00 0. -1.
         11    1    3    3    0    0 -0.79970152501E+01  0.30618568330E+01  0.92103278958E+00  0.86125212242E+01  0.51100000000E-03 0. -1.
        -11    1    3    3    0    0  0.18076957552E+02 -0.21527182789E+02 -0.33269449658E+02  0.43555163574E+02  0.51100000000E-03 0.  1.
         12    1    3    3    0    0 -0.90569820177E+01  0.18470526725E+02  0.31759715222E+02  0.37840042174E+02  0.00000000000E+00 0. -1.
</event>
<event>
 7    1  0.2148778E-015  0.9000774E+02  0.7816164E-02  0.1186339E+00
        -11   -1    0    0    0    0  0.00000000000E+00  0.00000000000E+00  0.45593999997E+02  0.45594000000E+02  0.51100000000E-03 0. -1.
         11   -1    0    0    0    0 -0.00000000000E+00 -0.00000000000E+00 -0.45593999997E+02  0.45594000000E+02  0.51100000000E-03 0.  1.
    9900012    2    1    2    0    0  0.41226415476E+00  0.90304447811E+00 -0.63840631023E+00  0.90007739995E+02  0.90000001363E+02 0.  0.
         12    1    1    2    0    0 -0.41226415476E+00 -0.90304447811E+00  0.63840631023E+00  0.11802600051E+01  0.00000000000E+00 0. -1.
         11    1    3    3    0    0  0.34104667927E+02  0.59667423866E+00  0.25419766921E+02  0.42539968796E+02  0.51100000000E-03 0. -1.
        -11    1    3    3    0    0 -0.58447620164E+01 -0.78721343518E+01 -0.25844882045E+01  0.10139591798E+02  0.51100000000E-03 0.  1.
        -12    1    3    3    0    0 -0.27847641756E+02  0.81785045913E+01 -0.23473685027E+02  0.37328179402E+02  0.00000000000E+00 0.  1.
</event>
<event>
 7    1  0.2216181E-015  0.9000774E+02  0.7816164E-02  0.1186339E+00
        -11   -1    0    0    0    0  0.00000000000E+00  0.00000000000E+00  0.45593999997E+02  0.45594000000E+02  0.51100000000E-03 0. -1.
         11   -1    0    0    0    0 -0.00000000000E+00 -0.00000000000E+00 -0.45593999997E+02  0.45594000000E+02  0.51100000000E-03 0.  1.
    9900012    2    1    2    0    0 -0.20686833893E+00 -0.27096301341E+00 -0.11299531862E+01  0.90007741695E+02  0.90000003085E+02 0.  0.
         12    1    1    2    0    0  0.20686833893E+00  0.27096301341E+00  0.11299531862E+01  0.11802583053E+01  0.00000000000E+00 0. -1.
         11    1    3    3    0    0 -0.32234175569E+01 -0.92739461801E+01  0.44650478006E+00  0.98283195551E+01  0.51100000000E-03 0. -1.
        -11    1    3    3    0    0  0.23426904986E+02 -0.28836537279E+02  0.10428859052E+00  0.37153420244E+02  0.51100000000E-03 0.  1.
         12    1    3    3    0    0 -0.20410355768E+02  0.37839520446E+02 -0.16807465568E+01  0.43026001896E+02  0.00000000000E+00 0. -1.
</event>
<event>
 7    1  0.2148778E-015  0.9000776E+02  0.7816164E-02  0.1186339E+00
        -11   -1    0    0    0    0  0.00000000000E+00  0.00000000000E+00  0.45593999997E+02  0.45594000000E+02  0.51100000000E-03 0.  1.
         11   -1    0    0    0    0 -0.00000000000E+00 -0.00000000000E+00 -0.45593999997E+02  0.45594000000E+02  0.51100000000E-03 0. -1.
    9900012    2    1    2    0    0 -0.61830332176E+00  0.20411694829E+00  0.98437743827E+00  0.90007762029E+02  0.90000023688E+02 0.  0.
         12    1    1    2    0    0  0.61830332176E+00 -0.20411694829E+00 -0.98437743827E+00  0.11802379706E+01  0.00000000000E+00 0. -1.
         11    1    3    3    0    0 -0.30582660483E+02 -0.20785846503E+02 -0.18845309387E+02  0.41502966439E+02  0.51100000000E-03 0. -1.
        -11    1    3    3    0    0 -0.46401174182E+00  0.93130516607E+01 -0.16525506607E+01  0.94699082402E+01  0.51100000000E-03 0.  1.
        -12    1    3    3    0    0  0.30428368903E+02  0.11676911791E+02  0.21482237486E+02  0.39034887350E+02  0.00000000000E+00 0.  1.
</event>
<event>
 7    1  0.2148778E-015  0.9000781E+02  0.7816164E-02  0.1186339E+00
        -11   -1    0    0    0    0  0.00000000000E+00  0.00000000000E+00  0.45593999997E+02  0.45594000000E+02  0.51100000000E-03 0. -1.
         11   -1    0    0    0    0 -0.00000000000E+00 -0.00000000000E+00 -0.45593999997E+02  0.45594000000E+02  0.51100000000E-03 0.  1.
    9900012    2    1    2    0    0  0.10114504975E+01 -0.51631515444E+00 -0.32131661368E+00  0.90007806027E+02  0.90000068267E+02 0.  0.
         12    1    1    2    0    0 -0.10114504975E+01  0.51631515444E+00  0.32131661368E+00  0.11801939730E+01  0.00000000000E+00 0. -1.
         11    1    3    3    0    0  0.24075700301E+01 -0.23459217320E+01 -0.97105025543E+01  0.10275874773E+02  0.51100000000E-03 0. -1.
        -11    1    3    3    0    0 -0.12251176434E+02  0.30122828859E+01 -0.33330780104E+02  0.35638547596E+02  0.51100000000E-03 0.  1.
         12    1    3    3    0    0  0.10855056902E+02 -0.11826763083E+01  0.42719966044E+02  0.44093383658E+02  0.00000000000E+00 0. -1.
</event>
<event>
 7    1  0.2209227E-015  0.9000772E+02  0.7816164E-02  0.1186339E+00
        -11   -1    0    0    0    0  0.00000000000E+00  0.00000000000E+00  0.45593999997E+02  0.45594000000E+02  0.51100000000E-03 0. -1.
         11   -1    0    0    0    0 -0.00000000000E+00 -0.00000000000E+00 -0.45593999997E+02  0.45594000000E+02  0.51100000000E-03 0.  1.
    9900012    2    1    2    0    0  0.59692290016E-01 -0.36518585689E+00 -0.11207801733E+01  0.90007715256E+02  0.89999976298E+02 0.  0.
         12    1    1    2    0    0 -0.59692290016E-01  0.36518585689E+00  0.11207801733E+01  0.11802847438E+01  0.00000000000E+00 0. -1.
         11    1    3    3    0    0  0.10240412819E+02  0.15827849956E+01 -0.89852019578E+00  0.10400894281E+02  0.51100000000E-03 0. -1.
        -11    1    3    3    0    0 -0.16313683967E+01 -0.31554620576E+02 -0.24818202229E+02  0.40178335016E+02  0.51100000000E-03 0.  1.
         12    1    3    3    0    0 -0.85493521324E+01  0.29606649724E+02  0.24595942252E+02  0.39428485959E+02  0.00000000000E+00 0. -1.
</event>
<event>
 7    1  0.2148778E-015  0.9000775E+02  0.7816164E-02  0.1186339E+00
        -11   -1    0    0    0    0  0.00000000000E+00  0.00000000000E+00  0.45593999997E+02  0.45594000000E+02  0.51100000000E-03 0. -1.
         11   -1    0    0    0    0 -0.00000000000E+00 -0.00000000000E+00 -0.45593999997E+02  0.45594000000E+02  0.51100000000E-03 0.  1.
    9900012    2    1    2    0    0 -0.64120587014E+00 -0.82168178596E+00 -0.55378313651E+00  0.90007753548E+02  0.90000015095E+02 0.  0.
         12    1    1    2    0    0  0.64120587014E+00  0.82168178596E+00  0.55378313651E+00  0.11802464520E+01  0.00000000000E+00 0. -1.
         11    1    3    3    0    0  0.34980431529E+01 -0.61964412980E+01 -0.72830554673E+01  0.10182096437E+02  0.51100000000E-03 0. -1.
        -11    1    3    3    0    0  0.37507486605E+02  0.48747951455E+01  0.15447310092E+01  0.37854476265E+02  0.51100000000E-03 0.  1.
         12    1    3    3    0    0 -0.41646735628E+02  0.49996436653E+00  0.51845413216E+01  0.41971180846E+02  0.00000000000E+00 0. -1.
</event>
<event>
 7    1  0.2148778E-015  0.9000773E+02  0.7816164E-02  0.1186339E+00
        -11   -1    0    0    0    0  0.00000000000E+00  0.00000000000E+00  0.45593999997E+02  0.45594000000E+02  0.51100000000E-03 0.  1.
         11   -1    0    0    0    0 -0.00000000000E+00 -0.00000000000E+00 -0.45593999997E+02  0.45594000000E+02  0.51100000000E-03 0. -1.
    9900012    2    1    2    0    0  0.50954828188E+00 -0.88668849770E+00  0.58921243962E+00  0.90007734249E+02  0.89999995541E+02 0.  0.
         12    1    1    2    0    0 -0.50954828188E+00  0.88668849770E+00 -0.58921243962E+00  0.11802657508E+01  0.00000000000E+00 0. -1.
         11    1    3    3    0    0  0.24677105413E+02 -0.12031142146E+02  0.45800532298E+01  0.27833160093E+02  0.51100000000E-03 0. -1.
        -11    1    3    3    0    0  0.11151131216E+02 -0.97847514424E+00 -0.18900535102E+02  0.21966687697E+02  0.51100000000E-03 0.  1.
        -12    1    3    3    0    0 -0.35318688347E+02  0.12122928793E+02  0.14909694312E+02  0.40207886459E+02  0.00000000000E+00 0.  1.
</event>
<event>
 7    1  0.2148778E-015  0.9000789E+02  0.7816164E-02  0.1186339E+00
        -11   -1    0    0    0    0  0.00000000000E+00  0.00000000000E+00  0.45593999997E+02  0.45594000000E+02  0.51100000000E-03 0.  1.
         11   -1    0    0    0    0 -0.00000000000E+00 -0.00000000000E+00 -0.45593999997E+02  0.45594000000E+02  0.51100000000E-03 0. -1.
    9900012    2    1    2    0    0 -0.92753290392E+00 -0.24356326816E+00  0.68775677531E+00  0.90007894185E+02  0.90000157588E+02 0.  0.
         12    1    1    2    0    0  0.92753290392E+00  0.24356326816E+00 -0.68775677531E+00  0.11801058154E+01  0.00000000000E+00 0. -1.
         11    1    3    3    0    0  0.13309919211E+02  0.17059822353E+02  0.37782676533E+00  0.21641031432E+02  0.51100000000E-03 0. -1.
        -11    1    3    3    0    0  0.87379135682E+01  0.20816991160E+02 -0.61317276082E+01  0.23394365522E+02  0.51100000000E-03 0.  1.
        -12    1    3    3    0    0 -0.22975365684E+02 -0.38120376781E+02  0.64416576182E+01  0.44972497230E+02  0.00000000000E+00 0.  1.
</event>
<event>
 7    1  0.2148778E-015  0.9000762E+02  0.7816164E-02  0.1186339E+00
        -11   -1    0    0    0    0  0.00000000000E+00  0.00000000000E+00  0.45593999997E+02  0.45594000000E+02  0.51100000000E-03 0.  1.
         11   -1    0    0    0    0 -0.00000000000E+00 -0.00000000000E+00 -0.45593999997E+02  0.45594000000E+02  0.51100000000E-03 0. -1.
    9900012    2    1    2    0    0  0.73582220142E+00  0.92174251175E+00 -0.47545240687E-01  0.90007616960E+02  0.89999876704E+02 0.  0.
         12    1    1    2    0    0 -0.73582220142E+00 -0.92174251175E+00  0.47545240687E-01  0.11803830395E+01  0.00000000000E+00 0. -1.
         11    1    3    3    0    0 -0.77661672892E+01  0.55963922698E+01  0.25021578353E+00  0.95757803338E+01  0.51100000000E-03 0. -1.
        -11    1    3    3    0    0  0.40097709718E+02  0.90007439627E+01 -0.13945457736E+02  0.43397183183E+02  0.51100000000E-03 0.  1.
         12    1    3    3    0    0 -0.31595720228E+02 -0.13675393721E+02  0.13647696711E+02  0.37034653443E+02  0.00000000000E+00 0. -1.
</event>
<event>
 7    1  0.2148778E-015  0.9000776E+02  0.7816164E-02  0.1186339E+00
        -11   -1    0    0    0    0  0.00000000000E+00  0.00000000000E+00  0.45593999997E+02  0.45594000000E+02  0.51100000000E-03 0.  1.
         11   -1    0    0    0    0 -0.00000000000E+00 -0.00000000000E+00 -0.45593999997E+02  0.45594000000E+02  0.51100000000E-03 0. -1.
    9900012    2    1    2    0    0  0.10768688806E+01 -0.31199898552E+00 -0.36875929491E+00  0.90007757071E+02  0.90000018665E+02 0.  0.
         12    1    1    2    0    0 -0.10768688806E+01  0.31199898552E+00  0.36875929491E+00  0.11802429286E+01  0.00000000000E+00 0. -1.
         11    1    3    3    0    0 -0.29437085335E+01  0.59140788117E+01 -0.70910116531E+01  0.96914495638E+01  0.51100000000E-03 0. -1.
        -11    1    3    3    0    0 -0.56927480285E+01  0.24178480671E+02  0.31352359823E+02  0.39999709679E+02  0.51100000000E-03 0.  1.
         12    1    3    3    0    0  0.97133254426E+01 -0.30404558468E+02 -0.24630107464E+02  0.40316597829E+02  0.00000000000E+00 0. -1.
</event>
<event>
 7    1  0.2148778E-015  0.9000799E+02  0.7816164E-02  0.1186339E+00
        -11   -1    0    0    0    0  0.00000000000E+00  0.00000000000E+00  0.45593999997E+02  0.45594000000E+02  0.51100000000E-03 0.  1.
         11   -1    0    0    0    0 -0.00000000000E+00 -0.00000000000E+00 -0.45593999997E+02  0.45594000000E+02  0.51100000000E-03 0. -1.
    9900012    2    1    2    0    0  0.84724919628E+00  0.53702644708E+00  0.62144062599E+00  0.90007992772E+02  0.90000257477E+02 0.  0.
         12    1    1    2    0    0 -0.84724919628E+00 -0.53702644708E+00 -0.62144062599E+00  0.11800072276E+01  0.00000000000E+00 0. -1.
         11    1    3    3    0    0  0.31776195753E+02  0.17110601465E+02 -0.15827275941E+02  0.39408145896E+02  0.51100000000E-03 0. -1.
        -11    1    3    3    0    0 -0.18711530163E+01  0.60411773516E+00 -0.84367271535E+01  0.86628250110E+01  0.51100000000E-03 0.  1.
        -12    1    3    3    0    0 -0.29057793540E+02 -0.17177692753E+02  0.24885443720E+02  0.41937021865E+02  0.00000000000E+00 0.  1.
</event>
<event>
 7    1  0.2148778E-015  0.9000774E+02  0.7816164E-02  0.1186339E+00
        -11   -1    0    0    0    0  0.00000000000E+00  0.00000000000E+00  0.45593999997E+02  0.45594000000E+02  0.51100000000E-03 0. -1.
         11   -1    0    0    0    0 -0.00000000000E+00 -0.00000000000E+00 -0.45593999997E+02  0.45594000000E+02  0.51100000000E-03 0.  1.
    9900012    2    1    2    0    0 -0.14862140916E+00  0.64324882324E+00 -0.97834218002E+00  0.90007741218E+02  0.90000002602E+02 0.  0.
         12    1    1    2    0    0  0.14862140916E+00 -0.64324882324E+00  0.97834218002E+00  0.11802587822E+01  0.00000000000E+00 0. -1.
         11    1    3    3    0    0  0.12364390168E+02 -0.26742483171E+02  0.28349454047E+02  0.40886796101E+02  0.51100000000E-03 0. -1.
        -11    1    3    3    0    0 -0.80291143914E+01 -0.21384806357E+01 -0.17906386547E+01  0.84997743730E+01  0.51100000000E-03 0.  1.
        -12    1    3    3    0    0 -0.44838971861E+01  0.29524212630E+02 -0.27537157573E+02  0.40621170743E+02  0.00000000000E+00 0.  1.
</event>
<event>
 7    1  0.2148778E-015  0.9000765E+02  0.7816164E-02  0.1186339E+00
        -11   -1    0    0    0    0  0.00000000000E+00  0.00000000000E+00  0.45593999997E+02  0.45594000000E+02  0.51100000000E-03 0.  1.
         11   -1    0    0    0    0 -0.00000000000E+00 -0.00000000000E+00 -0.45593999997E+02  0.45594000000E+02  0.51100000000E-03 0. -1.
    9900012    2    1    2    0    0 -0.46294528763E-01  0.67735591717E+00  0.96554455731E+00  0.90007648140E+02  0.89999908295E+02 0.  0.
         12    1    1    2    0    0  0.46294528763E-01 -0.67735591717E+00 -0.96554455731E+00  0.11803518603E+01  0.00000000000E+00 0. -1.
         11    1    3    3    0    0 -0.14352735173E+02  0.24553868508E+01  0.13496727761E+02  0.19854258789E+02  0.51100000000E-03 0.  1.
        -11    1    3    3    0    0 -0.16857180550E+02 -0.20611611133E+02 -0.19597462869E+02  0.33061512378E+02  0.51100000000E-03 0. -1.
         12    1    3    3    0    0  0.31163621194E+02  0.18833580199E+02  0.70662796648E+01  0.37091876973E+02  0.00000000000E+00 0. -1.
</event>
<event>
 7    1  0.2148778E-015  0.9000768E+02  0.7816164E-02  0.1186339E+00
        -11   -1    0    0    0    0  0.00000000000E+00  0.00000000000E+00  0.45593999997E+02  0.45594000000E+02  0.51100000000E-03 0.  1.
         11   -1    0    0    0    0 -0.00000000000E+00 -0.00000000000E+00 -0.45593999997E+02  0.45594000000E+02  0.51100000000E-03 0. -1.
    9900012    2    1    2    0    0  0.90443865632E+00  0.68288115319E+00  0.32986184275E+00  0.90007684454E+02  0.89999945089E+02 0.  0.
         12    1    1    2    0    0 -0.90443865632E+00 -0.68288115319E+00 -0.32986184275E+00  0.11803155458E+01  0.00000000000E+00 0. -1.
         11    1    3    3    0    0 -0.31571572256E+01  0.17371770881E+01 -0.33792264811E+01  0.49401009964E+01  0.51100000000E-03 0. -1.
        -11    1    3    3    0    0 -0.39012303534E+02  0.59725876204E+01 -0.71126119430E+01  0.40102629326E+02  0.51100000000E-03 0.  1.
         12    1    3    3    0    0  0.43073899416E+02 -0.70268835553E+01  0.10821700267E+02  0.44964954132E+02  0.00000000000E+00 0. -1.
</event>
<event>
 7    1  0.2148778E-015  0.9000772E+02  0.7816164E-02  0.1186339E+00
        -11   -1    0    0    0    0  0.00000000000E+00  0.00000000000E+00  0.45593999997E+02  0.45594000000E+02  0.51100000000E-03 0. -1.
         11   -1    0    0    0    0 -0.00000000000E+00 -0.00000000000E+00 -0.45593999997E+02  0.45594000000E+02  0.51100000000E-03 0.  1.
    9900012    2    1    2    0    0 -0.93012474449E+00 -0.59627033196E+00 -0.41518921192E+00  0.90007723579E+02  0.89999984730E+02 0.  0.
         12    1    1    2    0    0  0.93012474449E+00  0.59627033196E+00  0.41518921192E+00  0.11802764213E+01  0.00000000000E+00 0. -1.
         11    1    3    3    0    0  0.19129544444E+02  0.22925658071E+02  0.23245275762E+02  0.37840033221E+02  0.51100000000E-03 0. -1.
        -11    1    3    3    0    0 -0.15478188020E+01  0.81642105730E+01 -0.10019685808E+02  0.13017072685E+02  0.51100000000E-03 0.  1.
        -12    1    3    3    0    0 -0.18511850386E+02 -0.31686138976E+02 -0.13640779165E+02  0.39150617673E+02  0.00000000000E+00 0.  1.
</event>
<event>
 7    1  0.2148778E-015  0.9000776E+02  0.7816164E-02  0.1186339E+00
        -11   -1    0    0    0    0  0.00000000000E+00  0.00000000000E+00  0.45593999997E+02  0.45594000000E+02  0.51100000000E-03 0.  1.
         11   -1    0    0    0    0 -0.00000000000E+00 -0.00000000000E+00 -0.45593999997E+02  0.45594000000E+02  0.51100000000E-03 0. -1.
    9900012    2    1    2    0    0 -0.54136898998E+00  0.49134032168E+00  0.92653884791E+00  0.90007758528E+02  0.90000020141E+02 0.  0.
         12    1    1    2    0    0  0.54136898998E+00 -0.49134032168E+00 -0.92653884791E+00  0.11802414718E+01  0.00000000000E+00 0. -1.
         11    1    3    3    0    0  0.57099230187E+01  0.11466542386E+02  0.61970225462E+01  0.14229824449E+02  0.51100000000E-03 0. -1.
        -11    1    3    3    0    0  0.12926815878E+02 -0.36077458536E+02  0.11500956881E+02  0.40011968117E+02  0.51100000000E-03 0.  1.
         12    1    3    3    0    0 -0.19178107886E+02  0.25102256472E+02 -0.16771440579E+02  0.35765965962E+02  0.00000000000E+00 0. -1.
</event>
<event>
 7    1  0.2148778E-015  0.9000774E+02  0.7816164E-02  0.1186339E+00
        -11   -1    0    0    0    0  0.00000000000E+00  0.00000000000E+00  0.45593999997E+02  0.45594000000E+02  0.51100000000E-03 0.  1.
         11   -1    0    0    0    0 -0.00000000000E+00 -0.00000000000E+00 -0.45593999997E+02  0.45594000000E+02  0.51100000000E-03 0. -1.
    9900012    2    1    2    0    0  0.53450966435E+00  0.10505631155E+01  0.60222620905E-01  0.90007741467E+02  0.90000002854E+02 0.  0.
         12    1    1    2    0    0 -0.53450966435E+00 -0.10505631155E+01 -0.60222620905E-01  0.11802585331E+01  0.00000000000E+00 0. -1.
         11    1    3    3    0    0  0.22613413416E+01  0.59186550387E+01 -0.11459435993E+02  0.13094381072E+02  0.51100000000E-03 0. -1.
        -11    1    3    3    0    0 -0.18624822554E+02  0.25432124050E+02  0.24444976850E+02  0.39890272528E+02  0.51100000000E-03 0.  1.
         12    1    3    3    0    0  0.16897990876E+02 -0.30300215974E+02 -0.12925318236E+02  0.37023087867E+02  0.00000000000E+00 0. -1.
</event>
<event>
 7    1  0.2148778E-015  0.9000774E+02  0.7816164E-02  0.1186339E+00
        -11   -1    0    0    0    0  0.00000000000E+00  0.00000000000E+00  0.45593999997E+02  0.45594000000E+02  0.51100000000E-03 0.  1.
         11   -1    0    0    0    0 -0.00000000000E+00 -0.00000000000E+00 -0.45593999997E+02  0.45594000000E+02  0.51100000000E-03 0. -1.
    9900012    2    1    2    0    0 -0.49581734932E-01 -0.51170954083E+00  0.10624056189E+01  0.90007741256E+02  0.90000002641E+02 0.  0.
         12    1    1    2    0    0  0.49581734932E-01  0.51170954083E+00 -0.10624056189E+01  0.11802587436E+01  0.00000000000E+00 0. -1.
         11    1    3    3    0    0 -0.32655080528E+02 -0.18613681500E+01 -0.10955559482E+02  0.34494104707E+02  0.51100000000E-03 0. -1.
        -11    1    3    3    0    0 -0.74081268014E+01 -0.47571656786E-01 -0.78699315839E+01  0.10808257453E+02  0.51100000000E-03 0.  1.
        -12    1    3    3    0    0  0.40013625595E+02  0.13972302660E+01  0.19887896685E+02  0.44705379097E+02  0.00000000000E+00 0.  1.
</event>
<event>
 7    1  0.2148778E-015  0.9000779E+02  0.7816164E-02  0.1186339E+00
        -11   -1    0    0    0    0  0.00000000000E+00  0.00000000000E+00  0.45593999997E+02  0.45594000000E+02  0.51100000000E-03 0.  1.
         11   -1    0    0    0    0 -0.00000000000E+00 -0.00000000000E+00 -0.45593999997E+02  0.45594000000E+02  0.51100000000E-03 0. -1.
    9900012    2    1    2    0    0  0.14056976418E+00  0.60102602368E+00  0.10059377331E+01  0.90007786942E+02  0.90000048929E+02 0.  0.
         12    1    1    2    0    0 -0.14056976418E+00 -0.60102602368E+00 -0.10059377331E+01  0.11802130581E+01  0.00000000000E+00 0. -1.
         11    1    3    3    0    0 -0.64361021903E+01  0.21216158518E+02 -0.35464468753E+02  0.41824362970E+02  0.51100000000E-03 0. -1.
        -11    1    3    3    0    0 -0.38235558190E+01 -0.86905941241E+01  0.12556086416E+01  0.95771894965E+01  0.51100000000E-03 0.  1.
        -12    1    3    3    0    0  0.10400227773E+02 -0.11924538370E+02  0.35214797845E+02  0.38606234475E+02  0.00000000000E+00 0.  1.
</event>
<event>
 7    1  0.2148778E-015  0.9000775E+02  0.7816164E-02  0.1186339E+00
        -11   -1    0    0    0    0  0.00000000000E+00  0.00000000000E+00  0.45593999997E+02  0.45594000000E+02  0.51100000000E-03 0.  1.
         11   -1    0    0    0    0 -0.00000000000E+00 -0.00000000000E+00 -0.45593999997E+02  0.45594000000E+02  0.51100000000E-03 0. -1.
    9900012    2    1    2    0    0  0.60527611115E+00 -0.34603712329E+00  0.95231314306E+00  0.90007745289E+02  0.90000006726E+02 0.  0.
         12    1    1    2    0    0 -0.60527611115E+00  0.34603712329E+00 -0.95231314306E+00  0.11802547114E+01  0.00000000000E+00 0. -1.
         11    1    3    3    0    0  0.67434848018E+01 -0.24463682821E+02 -0.33753033720E+02  0.42228114450E+02  0.51100000000E-03 0. -1.
        -11    1    3    3    0    0 -0.88608123830E+01  0.44744280448E+01  0.29763161323E+01  0.10363057483E+02  0.51100000000E-03 0.  1.
        -12    1    3    3    0    0  0.27226036924E+01  0.19643217653E+02  0.31729030730E+02  0.37416573356E+02  0.00000000000E+00 0.  1.
</event>
<event>
 7    1  0.2148778E-015  0.9000777E+02  0.7816164E-02  0.1186339E+00
        -11   -1    0    0    0    0  0.00000000000E+00  0.00000000000E+00  0.45593999997E+02  0.45594000000E+02  0.51100000000E-03 0. -1.
         11   -1    0    0    0    0 -0.00000000000E+00 -0.00000000000E+00 -0.45593999997E+02  0.45594000000E+02  0.51100000000E-03 0.  1.
    9900012    2    1    2    0    0 -0.75882710589E-01 -0.76100673855E+00 -0.89891941378E+00  0.90007768856E+02  0.90000030604E+02 0.  0.
         12    1    1    2    0    0  0.75882710589E-01  0.76100673855E+00  0.89891941378E+00  0.11802311445E+01  0.00000000000E+00 0. -1.
         11    1    3    3    0    0 -0.44240898439E+01 -0.35678040801E+02  0.16692705822E+01  0.35990021269E+02  0.51100000000E-03 0. -1.
        -11    1    3    3    0    0  0.37558215379E+01 -0.35978272469E+01  0.11808265590E+02  0.12902933497E+02  0.51100000000E-03 0.  1.
        -12    1    3    3    0    0  0.59238559540E+00  0.38514861310E+02 -0.14376455586E+02  0.41114814090E+02  0.00000000000E+00 0.  1.
</event>
<event>
 7    1  0.2148778E-015  0.9000777E+02  0.7816164E-02  0.1186339E+00
        -11   -1    0    0    0    0  0.00000000000E+00  0.00000000000E+00  0.45593999997E+02  0.45594000000E+02  0.51100000000E-03 0.  1.
         11   -1    0    0    0    0 -0.00000000000E+00 -0.00000000000E+00 -0.45593999997E+02  0.45594000000E+02  0.51100000000E-03 0. -1.
    9900012    2    1    2    0    0 -0.10938220060E+01  0.23062918513E+00  0.37855250314E+00  0.90007771887E+02  0.90000033676E+02 0.  0.
         12    1    1    2    0    0  0.10938220060E+01 -0.23062918513E+00 -0.37855250314E+00  0.11802281133E+01  0.00000000000E+00 0. -1.
         11    1    3    3    0    0 -0.58838206747E+01 -0.88471758164E+01 -0.13993758554E+01  0.10716814765E+02  0.51100000000E-03 0. -1.
        -11    1    3    3    0    0  0.28323122356E+02  0.30208840946E+02  0.16282106026E+02  0.44495845966E+02  0.51100000000E-03 0.  1.
         12    1    3    3    0    0 -0.23533123687E+02 -0.21131035944E+02 -0.14504177668E+02  0.34795111156E+02  0.00000000000E+00 0. -1.
</event>
<event>
 7    1  0.2148778E-015  0.9000783E+02  0.7816164E-02  0.1186339E+00
        -11   -1    0    0    0    0  0.00000000000E+00  0.00000000000E+00  0.45593999997E+02  0.45594000000E+02  0.51100000000E-03 0.  1.
         11   -1    0    0    0    0 -0.00000000000E+00 -0.00000000000E+00 -0.45593999997E+02  0.45594000000E+02  0.51100000000E-03 0. -1.
    9900012    2    1    2    0    0  0.67855595489E+00  0.72995064458E+00  0.63209492741E+00  0.90007826231E+02  0.90000088737E+02 0.  0.
         12    1    1    2    0    0 -0.67855595489E+00 -0.72995064458E+00 -0.63209492741E+00  0.11801737689E+01  0.00000000000E+00 0. -1.
         11    1    3    3    0    0 -0.83062550579E+00 -0.52955008569E+01  0.10147222936E+02  0.11475992403E+02  0.51100000000E-03 0. -1.
        -11    1    3    3    0    0 -0.19916565272E+01  0.41635373691E+02 -0.94927034616E+01  0.42750233419E+02  0.51100000000E-03 0.  1.
         12    1    3    3    0    0  0.35008379879E+01 -0.35609922190E+02 -0.22424546743E-01  0.35781600409E+02  0.00000000000E+00 0. -1.
</event>
<event>
 7    1  0.2148778E-015  0.9000771E+02  0.7816164E-02  0.1186339E+00
        -11   -1    0    0    0    0  0.00000000000E+00  0.00000000000E+00  0.45593999997E+02  0.45594000000E+02  0.51100000000E-03 0. -1.
         11   -1    0    0    0    0 -0.00000000000E+00 -0.00000000000E+00 -0.45593999997E+02  0.45594000000E+02  0.51100000000E-03 0.  1.
    9900012    2    1    2    0    0 -0.56946383686E+00 -0.15606240721E+00 -0.10219833601E+01  0.90007705747E+02  0.89999966662E+02 0.  0.
         12    1    1    2    0    0  0.56946383686E+00  0.15606240721E+00  0.10219833601E+01  0.11802942534E+01  0.00000000000E+00 0. -1.
         11    1    3    3    0    0 -0.29197399626E+02  0.19204661623E+02  0.14923469023E+02  0.38000225012E+02  0.51100000000E-03 0. -1.
        -11    1    3    3    0    0 -0.28840624760E+01 -0.83658848254E+01  0.71866802683E+01  0.11399746437E+02  0.51100000000E-03 0.  1.
        -12    1    3    3    0    0  0.31511998265E+02 -0.10994839205E+02 -0.23132132652E+02  0.40607734298E+02  0.00000000000E+00 0.  1.
</event>
<event>
 7    1  0.2148778E-015  0.9000774E+02  0.7816164E-02  0.1186339E+00
        -11   -1    0    0    0    0  0.00000000000E+00  0.00000000000E+00  0.45593999997E+02  0.45594000000E+02  0.51100000000E-03 0. -1.
         11   -1    0    0    0    0 -0.00000000000E+00 -0.00000000000E+00 -0.45593999997E+02  0.45594000000E+02  0.51100000000E-03 0.  1.
    9900012    2    1    2    0    0  0.68888330966E+00 -0.70389281376E+00  0.65037932886E+00  0.90007737919E+02  0.89999999260E+02 0.  0.
         12    1    1    2    0    0 -0.68888330966E+00  0.70389281376E+00 -0.65037932886E+00  0.11802620806E+01  0.00000000000E+00 0. -1.
         11    1    3    3    0    0  0.12669378097E+01  0.33861635787E+02 -0.17087914528E+02  0.37950129549E+02  0.51100000000E-03 0. -1.
        -11    1    3    3    0    0 -0.91862887800E+01 -0.49377980031E+00 -0.47322840521E+01  0.10345348358E+02  0.51100000000E-03 0.  1.
        -12    1    3    3    0    0  0.86082342799E+01 -0.34071748801E+02  0.22470577909E+02  0.41712260012E+02  0.00000000000E+00 0.  1.
</event>
<event>
 7    1  0.2148778E-015  0.9000765E+02  0.7816164E-02  0.1186339E+00
        -11   -1    0    0    0    0  0.00000000000E+00  0.00000000000E+00  0.45593999997E+02  0.45594000000E+02  0.51100000000E-03 0.  1.
         11   -1    0    0    0    0 -0.00000000000E+00 -0.00000000000E+00 -0.45593999997E+02  0.45594000000E+02  0.51100000000E-03 0. -1.
    9900012    2    1    2    0    0 -0.10315898698E+01 -0.57258347149E+00 -0.34487386178E-01  0.90007653072E+02  0.89999913292E+02 0.  0.
         12    1    1    2    0    0  0.10315898698E+01  0.57258347149E+00  0.34487386178E-01  0.11803469283E+01  0.00000000000E+00 0. -1.
         11    1    3    3    0    0  0.20315565230E+02  0.15863254363E+01  0.69229827672E+01  0.21521298977E+02  0.51100000000E-03 0. -1.
        -11    1    3    3    0    0 -0.25029358424E+02 -0.16759175349E+02  0.21008364616E+02  0.36724516683E+02  0.51100000000E-03 0.  1.
         12    1    3    3    0    0  0.36822033246E+01  0.14600266441E+02 -0.27965834769E+02  0.31761837412E+02  0.00000000000E+00 0. -1.
</event>
<event>
 7    1  0.2148778E-015  0.9000772E+02  0.7816164E-02  0.1186339E+00
        -11   -1    0    0    0    0  0.00000000000E+00  0.00000000000E+00  0.45593999997E+02  0.45594000000E+02  0.51100000000E-03 0.  1.
         11   -1    0    0    0    0 -0.00000000000E+00 -0.00000000000E+00 -0.45593999997E+02  0.45594000000E+02  0.51100000000E-03 0. -1.
    9900012    2    1    2    0    0  0.25112984866E+00  0.36036791638E+00  0.10955043631E+01  0.90007719929E+02  0.89999981032E+02 0.  0.
         12    1    1    2    0    0 -0.25112984866E+00 -0.36036791638E+00 -0.10955043631E+01  0.11802800708E+01  0.00000000000E+00 0. -1.
         11    1    3    3    0    0  0.18370591095E+02 -0.24149346769E+02 -0.24067955063E+02  0.38729007575E+02  0.51100000000E-03 0. -1.
        -11    1    3    3    0    0 -0.79860006586E+01 -0.56829252993E+01 -0.12786291693E+01  0.98846719364E+01  0.51100000000E-03 0.  1.
        -12    1    3    3    0    0 -0.10133460588E+02  0.30192639985E+02  0.26442088596E+02  0.41394040417E+02  0.00000000000E+00 0.  1.
</event>
<event>
 7    1  0.2148778E-015  0.9000761E+02  0.7816164E-02  0.1186339E+00
        -11   -1    0    0    0    0  0.00000000000E+00  0.00000000000E+00  0.45593999997E+02  0.45594000000E+02  0.51100000000E-03 0.  1.
         11   -1    0    0    0    0 -0.00000000000E+00 -0.00000000000E+00 -0.45593999997E+02  0.45594000000E+02  0.51100000000E-03 0. -1.
    9900012    2    1    2    0    0  0.59853659752E+00  0.10152221084E+01  0.66240519148E-01  0.90007614557E+02  0.89999874269E+02 0.  0.
         12    1    1    2    0    0 -0.59853659752E+00 -0.10152221084E+01 -0.66240519148E-01  0.11803854431E+01  0.00000000000E+00 0. -1.
         11    1    3    3    0    0 -0.48930948496E+01  0.81627214212E+01  0.13867063042E+01  0.96174504336E+01  0.51100000000E-03 0. -1.
        -11    1    3    3    0    0 -0.23529529204E+02  0.20089158928E+02 -0.19566477233E+02  0.36606831091E+02  0.51100000000E-03 0.  1.
         12    1    3    3    0    0  0.29021160651E+02 -0.27236658240E+02  0.18246011448E+02  0.43783333032E+02  0.00000000000E+00 0. -1.
</event>
<event>
 7    1  0.2148778E-015  0.9000768E+02  0.7816164E-02  0.1186339E+00
        -11   -1    0    0    0    0  0.00000000000E+00  0.00000000000E+00  0.45593999997E+02  0.45594000000E+02  0.51100000000E-03 0. -1.
         11   -1    0    0    0    0 -0.00000000000E+00 -0.00000000000E+00 -0.45593999997E+02  0.45594000000E+02  0.51100000000E-03 0.  1.
    9900012    2    1    2    0    0 -0.20434817859E+00 -0.10931733134E+01  0.39544237113E+00  0.90007677696E+02  0.89999938242E+02 0.  0.
         12    1    1    2    0    0  0.20434817859E+00  0.10931733134E+01 -0.39544237113E+00  0.11803223035E+01  0.00000000000E+00 0. -1.
         11    1    3    3    0    0  0.29426695764E+02 -0.20903078648E+02  0.35037677094E+01  0.36264934978E+02  0.51100000000E-03 0. -1.
        -11    1    3    3    0    0  0.53026052120E+01 -0.61766340842E+01  0.48592463891E+01  0.94805435696E+01  0.51100000000E-03 0.  1.
        -12    1    3    3    0    0 -0.34933649154E+02  0.25986539419E+02 -0.79675717273E+01  0.44262199149E+02  0.00000000000E+00 0.  1.
</event>
<event>
 7    1  0.2148778E-015  0.9000776E+02  0.7816164E-02  0.1186339E+00
        -11   -1    0    0    0    0  0.00000000000E+00  0.00000000000E+00  0.45593999997E+02  0.45594000000E+02  0.51100000000E-03 0. -1.
         11   -1    0    0    0    0 -0.00000000000E+00 -0.00000000000E+00 -0.45593999997E+02  0.45594000000E+02  0.51100000000E-03 0.  1.
    9900012    2    1    2    0    0 -0.63958435075E+00  0.98070772938E+00 -0.14870724558E+00  0.90007758653E+02  0.90000020267E+02 0.  0.
         12    1    1    2    0    0  0.63958435075E+00 -0.98070772938E+00  0.14870724558E+00  0.11802413470E+01  0.00000000000E+00 0. -1.
         11    1    3    3    0    0 -0.83149824139E+01 -0.22904957169E+01  0.35118813236E+01  0.93122829567E+01  0.51100000000E-03 0. -1.
        -11    1    3    3    0    0 -0.34237715977E+02 -0.54248378652E+01  0.94448830974E+01  0.35928482826E+02  0.51100000000E-03 0.  1.
         12    1    3    3    0    0  0.41913114040E+02  0.86960413114E+01 -0.13105471667E+02  0.44766992870E+02  0.00000000000E+00 0. -1.
</event>
<event>
 7    1  0.2148778E-015  0.9000783E+02  0.7816164E-02  0.1186339E+00
        -11   -1    0    0    0    0  0.00000000000E+00  0.00000000000E+00  0.45593999997E+02  0.45594000000E+02  0.51100000000E-03 0. -1.
         11   -1    0    0    0    0 -0.00000000000E+00 -0.00000000000E+00 -0.45593999997E+02  0.45594000000E+02  0.51100000000E-03 0.  1.
    9900012    2    1    2    0    0  0.43766472258E+00  0.76532691833E+00 -0.78455067099E+00  0.90007832446E+02  0.90000095034E+02 0.  0.
         12    1    1    2    0    0 -0.43766472258E+00 -0.76532691833E+00  0.78455067099E+00  0.11801675545E+01  0.00000000000E+00 0. -1.
         11    1    3    3    0    0 -0.70743720107E+01 -0.54283365467E+01  0.40782356604E+00  0.89263596910E+01  0.51100000000E-03 0. -1.
        -11    1    3    3    0    0  0.64910244212E+01 -0.37121755197E+02  0.10044041559E+01  0.37698367802E+02  0.51100000000E-03 0.  1.
         12    1    3    3    0    0  0.10210123121E+01  0.43315418662E+02 -0.21967783929E+01  0.43383104953E+02  0.00000000000E+00 0. -1.
</event>
<event>
 7    1  0.2148778E-015  0.9000768E+02  0.7816164E-02  0.1186339E+00
        -11   -1    0    0    0    0  0.00000000000E+00  0.00000000000E+00  0.45593999997E+02  0.45594000000E+02  0.51100000000E-03 0.  1.
         11   -1    0    0    0    0 -0.00000000000E+00 -0.00000000000E+00 -0.45593999997E+02  0.45594000000E+02  0.51100000000E-03 0. -1.
    9900012    2    1    2    0    0 -0.42707422860E+00 -0.55577900956E+00  0.94967090375E+00  0.90007679057E+02  0.89999939620E+02 0.  0.
         12    1    1    2    0    0  0.42707422860E+00  0.55577900956E+00 -0.94967090375E+00  0.11803209435E+01  0.00000000000E+00 0. -1.
         11    1    3    3    0    0  0.71448184696E+01 -0.33122755867E+02 -0.24231557778E+02  0.41657337646E+02  0.51100000000E-03 0. -1.
        -11    1    3    3    0    0 -0.47905216026E+01 -0.23234326241E+01  0.16209195581E+00  0.53266978934E+01  0.51100000000E-03 0.  1.
        -12    1    3    3    0    0 -0.27813710955E+01  0.34890409482E+02  0.25019136725E+02  0.43023643517E+02  0.00000000000E+00 0.  1.
</event>
<event>
 7    1  0.2148778E-015  0.9000787E+02  0.7816164E-02  0.1186339E+00
        -11   -1    0    0    0    0  0.00000000000E+00  0.00000000000E+00  0.45593999997E+02  0.45594000000E+02  0.51100000000E-03 0. -1.
         11   -1    0    0    0    0 -0.00000000000E+00 -0.00000000000E+00 -0.45593999997E+02  0.45594000000E+02  0.51100000000E-03 0.  1.
    9900012    2    1    2    0    0 -0.10347895842E+01  0.44092412152E+00 -0.35709179311E+00  0.90007865214E+02  0.90000128235E+02 0.  0.
         12    1    1    2    0    0  0.10347895842E+01 -0.44092412152E+00  0.35709179311E+00  0.11801347860E+01  0.00000000000E+00 0. -1.
         11    1    3    3    0    0  0.42409865952E+01 -0.13290375928E+01 -0.11584330611E+02  0.12407619602E+02  0.51100000000E-03 0. -1.
        -11    1    3    3    0    0  0.14467220965E+02  0.26862654759E+02 -0.17048845878E+02  0.34950906271E+02  0.51100000000E-03 0.  1.
         12    1    3    3    0    0 -0.19742997145E+02 -0.25092693045E+02  0.28276084695E+02  0.42649339341E+02  0.00000000000E+00 0. -1.
</event>
<event>
 7    1  0.2148778E-015  0.9000777E+02  0.7816164E-02  0.1186339E+00
        -11   -1    0    0    0    0  0.00000000000E+00  0.00000000000E+00  0.45593999997E+02  0.45594000000E+02  0.51100000000E-03 0.  1.
         11   -1    0    0    0    0 -0.00000000000E+00 -0.00000000000E+00 -0.45593999997E+02  0.45594000000E+02  0.51100000000E-03 0. -1.
    9900012    2    1    2    0    0 -0.75888544955E+00 -0.88776219334E+00  0.17006343982E+00  0.90007766798E+02  0.90000028520E+02 0.  0.
         12    1    1    2    0    0  0.75888544955E+00  0.88776219334E+00 -0.17006343982E+00  0.11802332020E+01  0.00000000000E+00 0. -1.
         11    1    3    3    0    0 -0.81026635705E+01 -0.27025128072E+02 -0.28525723496E+02  0.40121410811E+02  0.51100000000E-03 0. -1.
        -11    1    3    3    0    0 -0.72200634438E+01 -0.26905768587E+01  0.19399566267E+01  0.79455617762E+01  0.51100000000E-03 0.  1.
        -12    1    3    3    0    0  0.14563841565E+02  0.28827942737E+02  0.26755830309E+02  0.41940794211E+02  0.00000000000E+00 0.  1.
</event>
<event>
 7    1  0.2148778E-015  0.9000781E+02  0.7816164E-02  0.1186339E+00
        -11   -1    0    0    0    0  0.00000000000E+00  0.00000000000E+00  0.45593999997E+02  0.45594000000E+02  0.51100000000E-03 0. -1.
         11   -1    0    0    0    0 -0.00000000000E+00 -0.00000000000E+00 -0.45593999997E+02  0.45594000000E+02  0.51100000000E-03 0.  1.
    9900012    2    1    2    0    0  0.50345681052E+00  0.20862461161E+00 -0.10468317061E+01  0.90007809503E+02  0.90000071788E+02 0.  0.
         12    1    1    2    0    0 -0.50345681052E+00 -0.20862461161E+00  0.10468317061E+01  0.11801904972E+01  0.00000000000E+00 0. -1.
         11    1    3    3    0    0 -0.97114843113E+01  0.10111858799E+01  0.42603557027E+01  0.10652983403E+02  0.51100000000E-03 0. -1.
        -11    1    3    3    0    0 -0.16103891600E+02 -0.31822450518E+02  0.80030628413E+01  0.36552054617E+02  0.51100000000E-03 0.  1.
         12    1    3    3    0    0  0.26318832721E+02  0.31019889250E+02 -0.13310250250E+02  0.42802771483E+02  0.00000000000E+00 0. -1.
</event>
<event>
 7    1  0.2148778E-015  0.9000773E+02  0.7816164E-02  0.1186339E+00
        -11   -1    0    0    0    0  0.00000000000E+00  0.00000000000E+00  0.45593999997E+02  0.45594000000E+02  0.51100000000E-03 0.  1.
         11   -1    0    0    0    0 -0.00000000000E+00 -0.00000000000E+00 -0.45593999997E+02  0.45594000000E+02  0.51100000000E-03 0. -1.
    9900012    2    1    2    0    0  0.49382373937E+00  0.60954238241E+00  0.88183562932E+00  0.90007729743E+02  0.89999990976E+02 0.  0.
         12    1    1    2    0    0 -0.49382373937E+00 -0.60954238241E+00 -0.88183562932E+00  0.11802702566E+01  0.00000000000E+00 0. -1.
         11    1    3    3    0    0 -0.36364037510E+01  0.22033421394E+00  0.81579574979E+01  0.89344417959E+01  0.51100000000E-03 0. -1.
        -11    1    3    3    0    0 -0.21602128329E+02 -0.22743366589E+02  0.19837619557E+02  0.37113930297E+02  0.51100000000E-03 0.  1.
         12    1    3    3    0    0  0.25732355820E+02  0.23132574758E+02 -0.27113741425E+02  0.43959357650E+02  0.00000000000E+00 0. -1.
</event>
<event>
 7    1  0.2148778E-015  0.9000778E+02  0.7816164E-02  0.1186339E+00
        -11   -1    0    0    0    0  0.00000000000E+00  0.00000000000E+00  0.45593999997E+02  0.45594000000E+02  0.51100000000E-03 0. -1.
         11   -1    0    0    0    0 -0.00000000000E+00 -0.00000000000E+00 -0.45593999997E+02  0.45594000000E+02  0.51100000000E-03 0.  1.
    9900012    2    1    2    0    0 -0.10550405749E+01  0.52755641845E+00 -0.38652822019E-01  0.90007779499E+02  0.90000041389E+02 0.  0.
         12    1    1    2    0    0  0.10550405749E+01 -0.52755641845E+00  0.38652822019E-01  0.11802205006E+01  0.00000000000E+00 0. -1.
         11    1    3    3    0    0  0.32465031833E+01  0.95312337951E+01  0.30919688443E+01  0.10533018189E+02  0.51100000000E-03 0. -1.
        -11    1    3    3    0    0 -0.32121720270E+02  0.17735157785E+02  0.11120351912E+02  0.38340617648E+02  0.51100000000E-03 0.  1.
         12    1    3    3    0    0  0.27820176511E+02 -0.26738835161E+02 -0.14250973578E+02  0.41134143662E+02  0.00000000000E+00 0. -1.
</event>
<event>
 7    1  0.2148778E-015  0.9000779E+02  0.7816164E-02  0.1186339E+00
        -11   -1    0    0    0    0  0.00000000000E+00  0.00000000000E+00  0.45593999997E+02  0.45594000000E+02  0.51100000000E-03 0.  1.
         11   -1    0    0    0    0 -0.00000000000E+00 -0.00000000000E+00 -0.45593999997E+02  0.45594000000E+02  0.51100000000E-03 0. -1.
    9900012    2    1    2    0    0  0.39577933651E+00 -0.10953754810E+01  0.19079452587E+00  0.90007791849E+02  0.90000053902E+02 0.  0.
         12    1    1    2    0    0 -0.39577933651E+00  0.10953754810E+01 -0.19079452587E+00  0.11802081506E+01  0.00000000000E+00 0. -1.
         11    1    3    3    0    0 -0.82892374958E+01 -0.16720603041E+01  0.99655296158E+01  0.13069775236E+02  0.51100000000E-03 0. -1.
        -11    1    3    3    0    0  0.13263616105E+01 -0.37313007821E+02 -0.97163338447E+00  0.37349214978E+02  0.51100000000E-03 0.  1.
         12    1    3    3    0    0  0.73586552219E+01  0.37889692644E+02 -0.88031017055E+01  0.39588801636E+02  0.00000000000E+00 0. -1.
</event>
<event>
 7    1  0.2148778E-015  0.9000776E+02  0.7816164E-02  0.1186339E+00
        -11   -1    0    0    0    0  0.00000000000E+00  0.00000000000E+00  0.45593999997E+02  0.45594000000E+02  0.51100000000E-03 0. -1.
         11   -1    0    0    0    0 -0.00000000000E+00 -0.00000000000E+00 -0.45593999997E+02  0.45594000000E+02  0.51100000000E-03 0.  1.
    9900012    2    1    2    0    0 -0.36566399793E+00  0.86863728767E+00 -0.71044388859E+00  0.90007757900E+02  0.90000019504E+02 0.  0.
         12    1    1    2    0    0  0.36566399793E+00 -0.86863728767E+00  0.71044388859E+00  0.11802421005E+01  0.00000000000E+00 0. -1.
         11    1    3    3    0    0 -0.20929137976E+02 -0.69661763763E+01  0.30959381389E+02  0.38013678143E+02  0.51100000000E-03 0. -1.
        -11    1    3    3    0    0  0.44001711965E+01 -0.28441183276E+01  0.69997052401E+01  0.87433625871E+01  0.51100000000E-03 0.  1.
        -12    1    3    3    0    0  0.16163302781E+02  0.10678931992E+02 -0.38669530517E+02  0.43250717170E+02  0.00000000000E+00 0.  1.
</event>
<event>
 7    1  0.2148778E-015  0.9000778E+02  0.7816164E-02  0.1186339E+00
        -11   -1    0    0    0    0  0.00000000000E+00  0.00000000000E+00  0.45593999997E+02  0.45594000000E+02  0.51100000000E-03 0. -1.
         11   -1    0    0    0    0 -0.00000000000E+00 -0.00000000000E+00 -0.45593999997E+02  0.45594000000E+02  0.51100000000E-03 0.  1.
    9900012    2    1    2    0    0 -0.11079941345E+01  0.94142007314E-01 -0.39547205979E+00  0.90007783126E+02  0.90000045063E+02 0.  0.
         12    1    1    2    0    0  0.11079941345E+01 -0.94142007314E-01  0.39547205979E+00  0.11802168740E+01  0.00000000000E+00 0. -1.
         11    1    3    3    0    0  0.11184400867E+02 -0.55933356410E+01  0.39571927637E+02  0.41500767264E+02  0.51100000000E-03 0. -1.
        -11    1    3    3    0    0 -0.83171659898E+01  0.51343994548E+01 -0.15690176287E+01  0.98994507143E+01  0.51100000000E-03 0.  1.
        -12    1    3    3    0    0 -0.39752290114E+01  0.55307819349E+00 -0.38398382068E+02  0.38607565148E+02  0.00000000000E+00 0.  1.
</event>
<event>
 7    1  0.2148778E-015  0.9000778E+02  0.7816164E-02  0.1186339E+00
        -11   -1    0    0    0    0  0.00000000000E+00  0.00000000000E+00  0.45593999997E+02  0.45594000000E+02  0.51100000000E-03 0. -1.
         11   -1    0    0    0    0 -0.00000000000E+00 -0.00000000000E+00 -0.45593999997E+02  0.45594000000E+02  0.51100000000E-03 0.  1.
    9900012    2    1    2    0    0  0.25056844022E-01 -0.10133256168E+01 -0.60453075884E+00  0.90007782186E+02  0.90000044110E+02 0.  0.
         12    1    1    2    0    0 -0.25056844022E-01  0.10133256168E+01  0.60453075884E+00  0.11802178144E+01  0.00000000000E+00 0. -1.
         11    1    3    3    0    0 -0.36188493127E+02 -0.31079097992E+01  0.91403467533E+01  0.37454132979E+02  0.51100000000E-03 0. -1.
        -11    1    3    3    0    0 -0.37447895419E+01 -0.67773349785E+01  0.48053423293E+01  0.91130145005E+01  0.51100000000E-03 0.  1.
        -12    1    3    3    0    0  0.39958339513E+02  0.88719191608E+01 -0.14550219841E+02  0.43440634706E+02  0.00000000000E+00 0.  1.
</event>
<event>
 7    1  0.2321175E-015  0.9000775E+02  0.7816164E-02  0.1186339E+00
        -11   -1    0    0    0    0  0.00000000000E+00  0.00000000000E+00  0.45593999997E+02  0.45594000000E+02  0.51100000000E-03 0.  1.
         11   -1    0    0    0    0 -0.00000000000E+00 -0.00000000000E+00 -0.45593999997E+02  0.45594000000E+02  0.51100000000E-03 0. -1.
    9900012    2    1    2    0    0  0.21659251915E+00  0.11367671762E+01 -0.23203658990E+00  0.90007748793E+02  0.90000010277E+02 0.  0.
         12    1    1    2    0    0 -0.21659251915E+00 -0.11367671762E+01  0.23203658990E+00  0.11802512068E+01  0.00000000000E+00 0. -1.
         11    1    3    3    0    0  0.74489738395E+01 -0.36043694559E+01  0.51019271632E+01  0.97215405917E+01  0.51100000000E-03 0. -1.
        -11    1    3    3    0    0 -0.39220077734E+01  0.12011430180E+02  0.36017814446E+02  0.38169877622E+02  0.51100000000E-03 0.  1.
         12    1    3    3    0    0 -0.33103735470E+01 -0.72702935482E+01 -0.41351778199E+02  0.42116330580E+02  0.00000000000E+00 0. -1.
</event>
<event>
 7    1  0.2148778E-015  0.9000770E+02  0.7816164E-02  0.1186339E+00
        -11   -1    0    0    0    0  0.00000000000E+00  0.00000000000E+00  0.45593999997E+02  0.45594000000E+02  0.51100000000E-03 0.  1.
         11   -1    0    0    0    0 -0.00000000000E+00 -0.00000000000E+00 -0.45593999997E+02  0.45594000000E+02  0.51100000000E-03 0. -1.
    9900012    2    1    2    0    0 -0.97292935025E+00  0.14622425105E+00  0.65201547365E+00  0.90007704601E+02  0.89999965501E+02 0.  0.
         12    1    1    2    0    0  0.97292935025E+00 -0.14622425105E+00 -0.65201547365E+00  0.11802953995E+01  0.00000000000E+00 0. -1.
         11    1    3    3    0    0  0.29063370766E+02 -0.16577731880E+02  0.11292948543E+02  0.35313331783E+02  0.51100000000E-03 0. -1.
        -11    1    3    3    0    0  0.61630318754E+01 -0.32331367379E+01  0.68909952529E+01  0.97939752348E+01  0.51100000000E-03 0.  1.
        -12    1    3    3    0    0 -0.36199331992E+02  0.19957092869E+02 -0.17531928322E+02  0.44900397583E+02  0.00000000000E+00 0.  1.
</event>
<event>
 7    1  0.2148778E-015  0.9000774E+02  0.7816164E-02  0.1186339E+00
        -11   -1    0    0    0    0  0.00000000000E+00  0.00000000000E+00  0.45593999997E+02  0.45594000000E+02  0.51100000000E-03 0. -1.
         11   -1    0    0    0    0 -0.00000000000E+00 -0.00000000000E+00 -0.45593999997E+02  0.45594000000E+02  0.51100000000E-03 0.  1.
    9900012    2    1    2    0    0 -0.54973880180E+00  0.66193805749E+00 -0.80785866975E+00  0.90007741396E+02  0.90000002782E+02 0.  0.
         12    1    1    2    0    0  0.54973880180E+00 -0.66193805749E+00  0.80785866975E+00  0.11802586041E+01  0.00000000000E+00 0. -1.
         11    1    3    3    0    0 -0.71006902444E+01  0.28847959095E+01  0.53205132791E+01  0.93300434726E+01  0.51100000000E-03 0. -1.
        -11    1    3    3    0    0 -0.27058363591E+02  0.16537997560E+02  0.16787594120E+02  0.35881523381E+02  0.51100000000E-03 0.  1.
         12    1    3    3    0    0  0.33609315034E+02 -0.18760855412E+02 -0.22915966069E+02  0.44796174543E+02  0.00000000000E+00 0. -1.
</event>
<event>
 7    1  0.2148778E-015  0.9000773E+02  0.7816164E-02  0.1186339E+00
        -11   -1    0    0    0    0  0.00000000000E+00  0.00000000000E+00  0.45593999997E+02  0.45594000000E+02  0.51100000000E-03 0. -1.
         11   -1    0    0    0    0 -0.00000000000E+00 -0.00000000000E+00 -0.45593999997E+02  0.45594000000E+02  0.51100000000E-03 0.  1.
    9900012    2    1    2    0    0 -0.38619380481E+00  0.11010445989E+01 -0.17772869175E+00  0.90007732085E+02  0.89999993348E+02 0.  0.
         12    1    1    2    0    0  0.38619380481E+00 -0.11010445989E+01  0.17772869175E+00  0.11802679151E+01  0.00000000000E+00 0. -1.
         11    1    3    3    0    0  0.28309805333E+02  0.96818637553E+01  0.26878069760E+02  0.40219574812E+02  0.51100000000E-03 0. -1.
        -11    1    3    3    0    0 -0.54483600240E+01 -0.71349702256E+01  0.49130242934E+01  0.10233779118E+02  0.51100000000E-03 0.  1.
        -12    1    3    3    0    0 -0.23247639113E+02 -0.14458489308E+01 -0.31968822746E+02  0.39554378155E+02  0.00000000000E+00 0.  1.
</event>
<event>
 7    1  0.2148778E-015  0.9000773E+02  0.7816164E-02  0.1186339E+00
        -11   -1    0    0    0    0  0.00000000000E+00  0.00000000000E+00  0.45593999997E+02  0.45594000000E+02  0.51100000000E-03 0. -1.
         11   -1    0    0    0    0 -0.00000000000E+00 -0.00000000000E+00 -0.45593999997E+02  0.45594000000E+02  0.51100000000E-03 0.  1.
    9900012    2    1    2    0    0 -0.83392035860E+00  0.20084136336E+00 -0.81073044840E+00  0.90007727033E+02  0.89999988229E+02 0.  0.
         12    1    1    2    0    0  0.83392035860E+00 -0.20084136336E+00  0.81073044840E+00  0.11802729674E+01  0.00000000000E+00 0. -1.
         11    1    3    3    0    0 -0.46222605338E+00 -0.32654393471E+01 -0.10718883036E+02  0.11214776006E+02  0.51100000000E-03 0. -1.
        -11    1    3    3    0    0  0.32230065465E+02  0.23436715049E+02  0.68926109826E+01  0.40442116890E+02  0.51100000000E-03 0.  1.
         12    1    3    3    0    0 -0.32601759770E+02 -0.19970434339E+02  0.30155416052E+01  0.38350834136E+02  0.00000000000E+00 0. -1.
</event>
<event>
 7    1  0.2148778E-015  0.9000793E+02  0.7816164E-02  0.1186339E+00
        -11   -1    0    0    0    0  0.00000000000E+00  0.00000000000E+00  0.45593999997E+02  0.45594000000E+02  0.51100000000E-03 0. -1.
         11   -1    0    0    0    0 -0.00000000000E+00 -0.00000000000E+00 -0.45593999997E+02  0.45594000000E+02  0.51100000000E-03 0.  1.
    9900012    2    1    2    0    0 -0.26871030673E+00 -0.23000125795E+00  0.11258116786E+01  0.90007933162E+02  0.90000197079E+02 0.  0.
         12    1    1    2    0    0  0.26871030673E+00  0.23000125795E+00 -0.11258116786E+01  0.11800668385E+01  0.00000000000E+00 0. -1.
         11    1    3    3    0    0  0.29341711434E+02  0.86540648985E+01  0.28316881587E+02  0.41685424938E+02  0.51100000000E-03 0. -1.
        -11    1    3    3    0    0  0.84939454800E+00 -0.85635791757E+01 -0.21008670364E+01  0.88583295243E+01  0.51100000000E-03 0.  1.
        -12    1    3    3    0    0 -0.30459816289E+02 -0.32048698080E+00 -0.25090202872E+02  0.39464178700E+02  0.00000000000E+00 0.  1.
</event>
<event>
 7    1  0.2148778E-015  0.9000773E+02  0.7816164E-02  0.1186339E+00
        -11   -1    0    0    0    0  0.00000000000E+00  0.00000000000E+00  0.45593999997E+02  0.45594000000E+02  0.51100000000E-03 0.  1.
         11   -1    0    0    0    0 -0.00000000000E+00 -0.00000000000E+00 -0.45593999997E+02  0.45594000000E+02  0.51100000000E-03 0. -1.
    9900012    2    1    2    0    0 -0.67092075663E+00 -0.73412830511E+00  0.63557666140E+00  0.90007730233E+02  0.89999991472E+02 0.  0.
         12    1    1    2    0    0  0.67092075663E+00  0.73412830511E+00 -0.63557666140E+00  0.11802697669E+01  0.00000000000E+00 0. -1.
         11    1    3    3    0    0  0.14653351259E+01 -0.11148745771E+02 -0.38252808430E+02  0.39871281549E+02  0.51100000000E-03 0. -1.
        -11    1    3    3    0    0  0.12420296404E+01  0.72665491605E+01 -0.30257436756E+01  0.79687200592E+01  0.51100000000E-03 0.  1.
        -12    1    3    3    0    0 -0.33782855229E+01  0.31480683057E+01  0.41914128767E+02  0.42167728625E+02  0.00000000000E+00 0.  1.
</event>
<event>
 7    1  0.2148778E-015  0.9000769E+02  0.7816164E-02  0.1186339E+00
        -11   -1    0    0    0    0  0.00000000000E+00  0.00000000000E+00  0.45593999997E+02  0.45594000000E+02  0.51100000000E-03 0. -1.
         11   -1    0    0    0    0 -0.00000000000E+00 -0.00000000000E+00 -0.45593999997E+02  0.45594000000E+02  0.51100000000E-03 0.  1.
    9900012    2    1    2    0    0  0.17334445799E-01  0.65904200496E+00 -0.97902926285E+00  0.90007688539E+02  0.89999949228E+02 0.  0.
         12    1    1    2    0    0 -0.17334445799E-01 -0.65904200496E+00  0.97902926285E+00  0.11803114609E+01  0.00000000000E+00 0. -1.
         11    1    3    3    0    0  0.57704710255E+01 -0.67554550662E+01 -0.76109471125E+01  0.11698761696E+02  0.51100000000E-03 0. -1.
        -11    1    3    3    0    0 -0.16717159236E+02  0.38297563898E+02 -0.77854169012E+01  0.42506229309E+02  0.51100000000E-03 0.  1.
         12    1    3    3    0    0  0.10964022656E+02 -0.30883066827E+02  0.14417334751E+02  0.35802697535E+02  0.00000000000E+00 0. -1.
</event>
<event>
 7    1  0.2148778E-015  0.9000781E+02  0.7816164E-02  0.1186339E+00
        -11   -1    0    0    0    0  0.00000000000E+00  0.00000000000E+00  0.45593999997E+02  0.45594000000E+02  0.51100000000E-03 0. -1.
         11   -1    0    0    0    0 -0.00000000000E+00 -0.00000000000E+00 -0.45593999997E+02  0.45594000000E+02  0.51100000000E-03 0.  1.
    9900012    2    1    2    0    0 -0.81709970699E+00  0.83647155260E+00  0.15975616839E+00  0.90007805684E+02  0.90000067919E+02 0.  0.
         12    1    1    2    0    0  0.81709970699E+00 -0.83647155260E+00 -0.15975616839E+00  0.11801943157E+01  0.00000000000E+00 0. -1.
         11    1    3    3    0    0 -0.24241105770E+02  0.12050499403E+02  0.13287860363E+02  0.30156474895E+02  0.51100000000E-03 0. -1.
        -11    1    3    3    0    0 -0.15895113687E+02 -0.80941846314E+01  0.12223621587E+01  0.17879167583E+02  0.51100000000E-03 0.  1.
        -12    1    3    3    0    0  0.39319119750E+02 -0.31198432190E+01 -0.14350466353E+02  0.41972163206E+02  0.00000000000E+00 0.  1.
</event>
<event>
 7    1  0.2148778E-015  0.9000740E+02  0.7816164E-02  0.1186340E+00
        -11   -1    0    0    0    0  0.00000000000E+00  0.00000000000E+00  0.45593999997E+02  0.45594000000E+02  0.51100000000E-03 0. -1.
         11   -1    0    0    0    0 -0.00000000000E+00 -0.00000000000E+00 -0.45593999997E+02  0.45594000000E+02  0.51100000000E-03 0.  1.
    9900012    2    1    2    0    0  0.11416457429E+01 -0.29777281030E+00 -0.42434834910E-01  0.90007396610E+02  0.89999653445E+02 0.  0.
         12    1    1    2    0    0 -0.11416457429E+01  0.29777281030E+00  0.42434834910E-01  0.11806033898E+01  0.00000000000E+00 0. -1.
         11    1    3    3    0    0  0.23479337569E+02  0.28776283967E+02  0.18703290288E+02  0.41583252391E+02  0.51100000000E-03 0. -1.
        -11    1    3    3    0    0  0.17388215541E+01 -0.11104500468E+02  0.26414664188E+01  0.11546028588E+02  0.51100000000E-03 0.  1.
        -12    1    3    3    0    0 -0.24076513380E+02 -0.17969556309E+02 -0.21387191541E+02  0.36878115631E+02  0.00000000000E+00 0.  1.
</event>
<event>
 7    1  0.2148778E-015  0.9000781E+02  0.7816164E-02  0.1186339E+00
        -11   -1    0    0    0    0  0.00000000000E+00  0.00000000000E+00  0.45593999997E+02  0.45594000000E+02  0.51100000000E-03 0.  1.
         11   -1    0    0    0    0 -0.00000000000E+00 -0.00000000000E+00 -0.45593999997E+02  0.45594000000E+02  0.51100000000E-03 0. -1.
    9900012    2    1    2    0    0  0.11768955971E+00 -0.11742954369E+01 -0.56574495959E-02  0.90007808231E+02  0.90000070499E+02 0.  0.
         12    1    1    2    0    0 -0.11768955971E+00  0.11742954369E+01  0.56574495959E-02  0.11801917693E+01  0.00000000000E+00 0. -1.
         11    1    3    3    0    0  0.83728297328E+01  0.63152654205E+01  0.48998485947E+01  0.11575636984E+02  0.51100000000E-03 0. -1.
        -11    1    3    3    0    0  0.12604013555E+02  0.16862805848E+02  0.26300629544E+02  0.33688848206E+02  0.51100000000E-03 0.  1.
         12    1    3    3    0    0 -0.20859153728E+02 -0.24352366705E+02 -0.31206135589E+02  0.44743323041E+02  0.00000000000E+00 0. -1.
</event>
<event>
 8    1  0.2148778E-015  0.9000775E+02  0.7816164E-02  0.1186339E+00
        -11   -1    0    0    0    0  0.00000000000E+00  0.00000000000E+00  0.45593999997E+02  0.45594000000E+02  0.51100000000E-03 0.  1.
         11   -1    0    0    0    0 -0.00000000000E+00 -0.00000000000E+00 -0.45593999997E+02  0.45594000000E+02  0.51100000000E-03 0. -1.
    9900012    2    1    2    0    0  0.42047207438E+00  0.11307379319E-01  0.11027586216E+01  0.90007745282E+02  0.90000006720E+02 0.  0.
         23    2    3    3    0    0 -0.10066463098E+02 -0.12708260900E+02  0.23689750117E+02  0.62044637240E+02  0.55004537769E+02 0.  0.
         12    1    1    2    0    0 -0.42047207438E+00 -0.11307379319E-01 -0.11027586216E+01  0.11802547182E+01  0.00000000000E+00 0. -1.
         11    1    4    4    0    0  0.20758580807E+02 -0.14603984236E+02  0.16693706471E+02  0.30378855619E+02  0.51100000000E-03 0. -1.
        -11    1    4    4    0    0 -0.30825043905E+02  0.18957233358E+01  0.69960436467E+01  0.31665781621E+02  0.51100000000E-03 0.  1.
         12    1    3    3    0    0  0.10486935172E+02  0.12719568280E+02 -0.22586991496E+02  0.27963108042E+02  0.00000000000E+00 0. -1.
</event>
<event>
 7    1  0.2148778E-015  0.9000743E+02  0.7816164E-02  0.1186340E+00
        -11   -1    0    0    0    0  0.00000000000E+00  0.00000000000E+00  0.45593999997E+02  0.45594000000E+02  0.51100000000E-03 0.  1.
         11   -1    0    0    0    0 -0.00000000000E+00 -0.00000000000E+00 -0.45593999997E+02  0.45594000000E+02  0.51100000000E-03 0. -1.
    9900012    2    1    2    0    0 -0.71358235757E+00  0.31991248787E+00  0.88441885144E+00  0.90007432134E+02  0.89999689438E+02 0.  0.
         12    1    1    2    0    0  0.71358235757E+00 -0.31991248787E+00 -0.88441885144E+00  0.11805678658E+01  0.00000000000E+00 0. -1.
         11    1    3    3    0    0 -0.15578430251E+01  0.58847092878E+01  0.53131641435E+01  0.80799994907E+01  0.51100000000E-03 0. -1.
        -11    1    3    3    0    0 -0.30139817304E+02  0.11098425559E+02 -0.25419819587E+02  0.40960357239E+02  0.51100000000E-03 0.  1.
         12    1    3    3    0    0  0.30984077971E+02 -0.16663222359E+02  0.20991074295E+02  0.40967075405E+02  0.00000000000E+00 0. -1.
</event>
<event>
 7    1  0.2148778E-015  0.9000782E+02  0.7816164E-02  0.1186339E+00
        -11   -1    0    0    0    0  0.00000000000E+00  0.00000000000E+00  0.45593999997E+02  0.45594000000E+02  0.51100000000E-03 0.  1.
         11   -1    0    0    0    0 -0.00000000000E+00 -0.00000000000E+00 -0.45593999997E+02  0.45594000000E+02  0.51100000000E-03 0. -1.
    9900012    2    1    2    0    0 -0.10512529775E+01 -0.53579633419E+00  0.24777892505E-01  0.90007820150E+02  0.90000082576E+02 0.  0.
         12    1    1    2    0    0  0.10512529775E+01  0.53579633419E+00 -0.24777892505E-01  0.11801798500E+01  0.00000000000E+00 0. -1.
         11    1    3    3    0    0  0.83931205479E-02 -0.30955522662E+02 -0.26289590076E+02  0.40612645818E+02  0.51100000000E-03 0. -1.
        -11    1    3    3    0    0  0.17396096756E+01 -0.49339083319E+01  0.77917249687E+01  0.93851303401E+01  0.51100000000E-03 0.  1.
        -12    1    3    3    0    0 -0.27992557736E+01  0.35353634659E+02  0.18522643000E+02  0.40010043992E+02  0.00000000000E+00 0.  1.
</event>
<event>
 7    1  0.2148778E-015  0.9000787E+02  0.7816164E-02  0.1186339E+00
        -11   -1    0    0    0    0  0.00000000000E+00  0.00000000000E+00  0.45593999997E+02  0.45594000000E+02  0.51100000000E-03 0.  1.
         11   -1    0    0    0    0 -0.00000000000E+00 -0.00000000000E+00 -0.45593999997E+02  0.45594000000E+02  0.51100000000E-03 0. -1.
    9900012    2    1    2    0    0 -0.32544189030E+00  0.95115392582E-01  0.11303723495E+01  0.90007872460E+02  0.90000135576E+02 0.  0.
         12    1    1    2    0    0  0.32544189030E+00 -0.95115392582E-01 -0.11303723495E+01  0.11801275399E+01  0.00000000000E+00 0. -1.
         11    1    3    3    0    0  0.36292470647E+02 -0.16293739253E+02 -0.33349942680E+01  0.39921817989E+02  0.51100000000E-03 0. -1.
        -11    1    3    3    0    0  0.29915646210E+01  0.63461018489E+01 -0.43881225451E+01  0.82751487776E+01  0.51100000000E-03 0.  1.
        -12    1    3    3    0    0 -0.39609477159E+02  0.10042752797E+02  0.88534891627E+01  0.41810905693E+02  0.00000000000E+00 0.  1.
</event>
<event>
 7    1  0.2148778E-015  0.9000776E+02  0.7816164E-02  0.1186339E+00
        -11   -1    0    0    0    0  0.00000000000E+00  0.00000000000E+00  0.45593999997E+02  0.45594000000E+02  0.51100000000E-03 0.  1.
         11   -1    0    0    0    0 -0.00000000000E+00 -0.00000000000E+00 -0.45593999997E+02  0.45594000000E+02  0.51100000000E-03 0. -1.
    9900012    2    1    2    0    0 -0.56194129286E+00 -0.48681891690E+00 -0.91662056815E+00  0.90007761066E+02  0.90000022712E+02 0.  0.
         12    1    1    2    0    0  0.56194129286E+00  0.48681891690E+00  0.91662056815E+00  0.11802389336E+01  0.00000000000E+00 0. -1.
         11    1    3    3    0    0  0.32457015279E+02 -0.10677443398E+02 -0.10316987688E+02  0.35691818020E+02  0.51100000000E-03 0. -1.
        -11    1    3    3    0    0  0.73885724106E+01 -0.52454997012E+00 -0.62365730058E+01  0.96830262860E+01  0.51100000000E-03 0.  1.
        -12    1    3    3    0    0 -0.40407528983E+02  0.10715174451E+02  0.15636940126E+02  0.44632916760E+02  0.00000000000E+00 0.  1.
</event>
<event>
 7    1  0.2148778E-015  0.9000732E+02  0.7816164E-02  0.1186340E+00
        -11   -1    0    0    0    0  0.00000000000E+00  0.00000000000E+00  0.45593999997E+02  0.45594000000E+02  0.51100000000E-03 0.  1.
         11   -1    0    0    0    0 -0.00000000000E+00 -0.00000000000E+00 -0.45593999997E+02  0.45594000000E+02  0.51100000000E-03 0. -1.
    9900012    2    1    2    0    0 -0.18472322480E+00 -0.10317222946E+01  0.54353791966E+00  0.90007319250E+02  0.89999575063E+02 0.  0.
         12    1    1    2    0    0  0.18472322480E+00  0.10317222946E+01 -0.54353791966E+00  0.11806807498E+01  0.00000000000E+00 0. -1.
         11    1    3    3    0    0  0.20530289739E+02  0.27351203239E+02 -0.16165967140E+02  0.37827498057E+02  0.51100000000E-03 0. -1.
        -11    1    3    3    0    0  0.89901316773E+01 -0.29973255288E+01 -0.48573560761E+00  0.94890656675E+01  0.51100000000E-03 0.  1.
        -12    1    3    3    0    0 -0.29705144641E+02 -0.25385600005E+02  0.17195240667E+02  0.42690755526E+02  0.00000000000E+00 0.  1.
</event>
<event>
 7    1  0.2148778E-015  0.9000784E+02  0.7816164E-02  0.1186339E+00
        -11   -1    0    0    0    0  0.00000000000E+00  0.00000000000E+00  0.45593999997E+02  0.45594000000E+02  0.51100000000E-03 0. -1.
         11   -1    0    0    0    0 -0.00000000000E+00 -0.00000000000E+00 -0.45593999997E+02  0.45594000000E+02  0.51100000000E-03 0.  1.
    9900012    2    1    2    0    0  0.99682110117E-01  0.11249671772E+01 -0.34246785784E+00  0.90007842423E+02  0.90000105143E+02 0.  0.
         12    1    1    2    0    0 -0.99682110117E-01 -0.11249671772E+01  0.34246785784E+00  0.11801575770E+01  0.00000000000E+00 0. -1.
         11    1    3    3    0    0  0.21432130707E+02  0.18035088329E+02  0.24090390237E+02  0.36945196437E+02  0.51100000000E-03 0. -1.
        -11    1    3    3    0    0  0.68964559356E+01  0.21188012029E+01  0.43994401537E+01  0.84501773317E+01  0.51100000000E-03 0.  1.
        -12    1    3    3    0    0 -0.28228904533E+02 -0.19028922355E+02 -0.28832298249E+02  0.44612468654E+02  0.00000000000E+00 0.  1.
</event>
<event>
 7    1  0.2148778E-015  0.9000772E+02  0.7816164E-02  0.1186339E+00
        -11   -1    0    0    0    0  0.00000000000E+00  0.00000000000E+00  0.45593999997E+02  0.45594000000E+02  0.51100000000E-03 0. -1.
         11   -1    0    0    0    0 -0.00000000000E+00 -0.00000000000E+00 -0.45593999997E+02  0.45594000000E+02  0.51100000000E-03 0.  1.
    9900012    2    1    2    0    0 -0.89399227624E+00 -0.23618230837E+00 -0.73352715395E+00  0.90007717679E+02  0.89999978752E+02 0.  0.
         12    1    1    2    0    0  0.89399227624E+00  0.23618230837E+00  0.73352715395E+00  0.11802823215E+01  0.00000000000E+00 0. -1.
         11    1    3    3    0    0 -0.17365818651E+01 -0.70233920575E+01 -0.65630522258E+01  0.97681834210E+01  0.51100000000E-03 0. -1.
        -11    1    3    3    0    0 -0.20048091260E+02 -0.30227952713E+02 -0.43563125455E+01  0.36532623060E+02  0.51100000000E-03 0.  1.
         12    1    3    3    0    0  0.20890680849E+02  0.37015162462E+02  0.10185837617E+02  0.43706911197E+02  0.00000000000E+00 0. -1.
</event>
<event>
 7    1  0.2148778E-015  0.9000751E+02  0.7816164E-02  0.1186339E+00
        -11   -1    0    0    0    0  0.00000000000E+00  0.00000000000E+00  0.45593999997E+02  0.45594000000E+02  0.51100000000E-03 0.  1.
         11   -1    0    0    0    0 -0.00000000000E+00 -0.00000000000E+00 -0.45593999997E+02  0.45594000000E+02  0.51100000000E-03 0. -1.
    9900012    2    1    2    0    0  0.11250808199E+01  0.50611187106E-01 -0.35380394118E+00  0.90007514688E+02  0.89999773081E+02 0.  0.
         12    1    1    2    0    0 -0.11250808199E+01 -0.50611187106E-01  0.35380394118E+00  0.11804853122E+01  0.00000000000E+00 0. -1.
         11    1    3    3    0    0 -0.56781781479E+01  0.40674551885E+01 -0.42951307488E+02  0.43515522678E+02  0.51100000000E-03 0. -1.
        -11    1    3    3    0    0 -0.37686478450E+01 -0.44456206106E+01  0.58740468013E+01  0.82747009177E+01  0.51100000000E-03 0.  1.
        -12    1    3    3    0    0  0.10571906813E+02  0.42877660925E+00  0.36723456746E+02  0.38217291092E+02  0.00000000000E+00 0.  1.
</event>
<event>
 7    1  0.2148778E-015  0.9000779E+02  0.7816164E-02  0.1186339E+00
        -11   -1    0    0    0    0  0.00000000000E+00  0.00000000000E+00  0.45593999997E+02  0.45594000000E+02  0.51100000000E-03 0.  1.
         11   -1    0    0    0    0 -0.00000000000E+00 -0.00000000000E+00 -0.45593999997E+02  0.45594000000E+02  0.51100000000E-03 0. -1.
    9900012    2    1    2    0    0 -0.23699632903E+00  0.23420381666E+00  0.11322007246E+01  0.90007789354E+02  0.90000051374E+02 0.  0.
         12    1    1    2    0    0  0.23699632903E+00 -0.23420381666E+00 -0.11322007246E+01  0.11802106458E+01  0.00000000000E+00 0. -1.
         11    1    3    3    0    0  0.19082225438E+02 -0.20375257190E+02 -0.11178185214E+02  0.30070488160E+02  0.51100000000E-03 0. -1.
        -11    1    3    3    0    0  0.11041938163E+02 -0.69947145882E+01 -0.67290247480E+01  0.14701367449E+02  0.51100000000E-03 0.  1.
        -12    1    3    3    0    0 -0.30361159929E+02  0.27604175595E+02  0.19039410687E+02  0.45235933745E+02  0.00000000000E+00 0.  1.
</event>
<event>
 7    1  0.2148778E-015  0.9000765E+02  0.7816164E-02  0.1186339E+00
        -11   -1    0    0    0    0  0.00000000000E+00  0.00000000000E+00  0.45593999997E+02  0.45594000000E+02  0.51100000000E-03 0.  1.
         11   -1    0    0    0    0 -0.00000000000E+00 -0.00000000000E+00 -0.45593999997E+02  0.45594000000E+02  0.51100000000E-03 0. -1.
    9900012    2    1    2    0    0  0.77623971337E+00  0.85776023964E+00 -0.23435370435E+00  0.90007651585E+02  0.89999911786E+02 0.  0.
         12    1    1    2    0    0 -0.77623971337E+00 -0.85776023964E+00  0.23435370435E+00  0.11803484147E+01  0.00000000000E+00 0. -1.
         11    1    3    3    0    0 -0.87296318874E+00 -0.33723793008E+02 -0.20136929665E+02  0.39288067097E+02  0.51100000000E-03 0. -1.
        -11    1    3    3    0    0 -0.82483393488E+01 -0.22073743947E+01  0.31368640112E+01  0.90965663751E+01  0.51100000000E-03 0.  1.
        -12    1    3    3    0    0  0.98975422509E+01  0.36788927643E+02  0.16765711950E+02  0.41623018114E+02  0.00000000000E+00 0.  1.
</event>
<event>
 7    1  0.2193371E-015  0.9000780E+02  0.7816164E-02  0.1186339E+00
        -11   -1    0    0    0    0  0.00000000000E+00  0.00000000000E+00  0.45593999997E+02  0.45594000000E+02  0.51100000000E-03 0.  1.
         11   -1    0    0    0    0 -0.00000000000E+00 -0.00000000000E+00 -0.45593999997E+02  0.45594000000E+02  0.51100000000E-03 0. -1.
    9900012    2    1    2    0    0 -0.80524344226E+00  0.71619587110E+00  0.48115409355E+00  0.90007803919E+02  0.90000066131E+02 0.  0.
         12    1    1    2    0    0  0.80524344226E+00 -0.71619587110E+00 -0.48115409355E+00  0.11801960807E+01  0.00000000000E+00 0. -1.
         11    1    3    3    0    0  0.70610017807E+01 -0.59137728357E+01  0.15785221285E+01  0.93446341646E+01  0.51100000000E-03 0. -1.
        -11    1    3    3    0    0  0.14291912222E+02 -0.45151010279E+01  0.34305243392E+02  0.37436541196E+02  0.51100000000E-03 0.  1.
         12    1    3    3    0    0 -0.22158157445E+02  0.11145069735E+02 -0.35402611427E+02  0.43226628559E+02  0.00000000000E+00 0. -1.
</event>
<event>
 7    1  0.2148778E-015  0.9000768E+02  0.7816164E-02  0.1186339E+00
        -11   -1    0    0    0    0  0.00000000000E+00  0.00000000000E+00  0.45593999997E+02  0.45594000000E+02  0.51100000000E-03 0.  1.
         11   -1    0    0    0    0 -0.00000000000E+00 -0.00000000000E+00 -0.45593999997E+02  0.45594000000E+02  0.51100000000E-03 0. -1.
    9900012    2    1    2    0    0 -0.33722608462E+00  0.40368838072E+00  0.10566343363E+01  0.90007677221E+02  0.89999937761E+02 0.  0.
         12    1    1    2    0    0  0.33722608462E+00 -0.40368838072E+00 -0.10566343363E+01  0.11803227786E+01  0.00000000000E+00 0. -1.
         11    1    3    3    0    0 -0.23262460141E+02 -0.20620215866E+02 -0.22649997341E+02  0.38462419763E+02  0.51100000000E-03 0. -1.
        -11    1    3    3    0    0 -0.80323744265E+01 -0.36050028005E+00  0.55363583047E+01  0.97621853556E+01  0.51100000000E-03 0.  1.
        -12    1    3    3    0    0  0.30957608483E+02  0.21384404527E+02  0.18170273373E+02  0.41783072103E+02  0.00000000000E+00 0.  1.
</event>
<event>
 7    1  0.2148778E-015  0.9000768E+02  0.7816164E-02  0.1186339E+00
        -11   -1    0    0    0    0  0.00000000000E+00  0.00000000000E+00  0.45593999997E+02  0.45594000000E+02  0.51100000000E-03 0. -1.
         11   -1    0    0    0    0 -0.00000000000E+00 -0.00000000000E+00 -0.45593999997E+02  0.45594000000E+02  0.51100000000E-03 0.  1.
    9900012    2    1    2    0    0  0.32255881086E+00  0.11334688590E+01  0.66029751658E-01  0.90007679802E+02  0.89999940376E+02 0.  0.
         12    1    1    2    0    0 -0.32255881086E+00 -0.11334688590E+01 -0.66029751658E-01  0.11803201976E+01  0.00000000000E+00 0. -1.
         11    1    3    3    0    0  0.16100653003E+02  0.18040201436E+02  0.25362359402E+02  0.35041820296E+02  0.51100000000E-03 0. -1.
        -11    1    3    3    0    0  0.19671571428E+01  0.27462450457E+01  0.10163698472E+02  0.10710384492E+02  0.51100000000E-03 0.  1.
        -12    1    3    3    0    0 -0.17745251334E+02 -0.19652977623E+02 -0.35460028122E+02  0.44255475015E+02  0.00000000000E+00 0.  1.
</event>
<event>
 7    1  0.2148778E-015  0.9000785E+02  0.7816164E-02  0.1186339E+00
        -11   -1    0    0    0    0  0.00000000000E+00  0.00000000000E+00  0.45593999997E+02  0.45594000000E+02  0.51100000000E-03 0.  1.
         11   -1    0    0    0    0 -0.00000000000E+00 -0.00000000000E+00 -0.45593999997E+02  0.45594000000E+02  0.51100000000E-03 0. -1.
    9900012    2    1    2    0    0  0.72824694636E+00  0.42760841651E+00  0.82435092095E+00  0.90007852969E+02  0.90000115829E+02 0.  0.
         12    1    1    2    0    0 -0.72824694636E+00 -0.42760841651E+00 -0.82435092095E+00  0.11801470305E+01  0.00000000000E+00 0. -1.
         11    1    3    3    0    0  0.23186628086E+00 -0.59446142917E+01  0.91458205177E+01  0.10910464438E+02  0.51100000000E-03 0. -1.
        -11    1    3    3    0    0  0.30494091204E+02 -0.19102939501E+02 -0.15347435671E+02  0.39119760708E+02  0.51100000000E-03 0.  1.
         12    1    3    3    0    0 -0.29997710538E+02  0.25475162209E+02  0.70259660743E+01  0.39977627823E+02  0.00000000000E+00 0. -1.
</event>
<event>
 7    1  0.2148778E-015  0.9000769E+02  0.7816164E-02  0.1186339E+00
        -11   -1    0    0    0    0  0.00000000000E+00  0.00000000000E+00  0.45593999997E+02  0.45594000000E+02  0.51100000000E-03 0. -1.
         11   -1    0    0    0    0 -0.00000000000E+00 -0.00000000000E+00 -0.45593999997E+02  0.45594000000E+02  0.51100000000E-03 0.  1.
    9900012    2    1    2    0    0  0.76842632706E+00  0.89541307768E+00  0.29810053106E-01  0.90007689770E+02  0.89999950475E+02 0.  0.
         12    1    1    2    0    0 -0.76842632706E+00 -0.89541307768E+00 -0.29810053106E-01  0.11803102300E+01  0.00000000000E+00 0. -1.
         11    1    3    3    0    0  0.12974686596E+01 -0.40330593441E+01 -0.12396140482E+02  0.13100125637E+02  0.51100000000E-03 0. -1.
        -11    1    3    3    0    0 -0.26372394977E+01 -0.88770986519E+01 -0.30443420885E+02  0.31820744619E+02  0.51100000000E-03 0.  1.
         12    1    3    3    0    0  0.21081971652E+01  0.13805571074E+02  0.42869371420E+02  0.45086819514E+02  0.00000000000E+00 0. -1.
</event>
<event>
 7    1  0.2148778E-015  0.9000789E+02  0.7816164E-02  0.1186339E+00
        -11   -1    0    0    0    0  0.00000000000E+00  0.00000000000E+00  0.45593999997E+02  0.45594000000E+02  0.51100000000E-03 0.  1.
         11   -1    0    0    0    0 -0.00000000000E+00 -0.00000000000E+00 -0.45593999997E+02  0.45594000000E+02  0.51100000000E-03 0. -1.
    9900012    2    1    2    0    0  0.66499422017E+00  0.86376776112E+00  0.45203976424E+00  0.90007893222E+02  0.90000156613E+02 0.  0.
         12    1    1    2    0    0 -0.66499422017E+00 -0.86376776112E+00 -0.45203976424E+00  0.11801067776E+01  0.00000000000E+00 0. -1.
         11    1    3    3    0    0  0.84515954970E+01  0.38843035778E+01 -0.46861609799E+01  0.10415247751E+02  0.51100000000E-03 0. -1.
        -11    1    3    3    0    0  0.20037226764E+02 -0.74375606474E+01  0.33422315273E+02  0.39671890845E+02  0.51100000000E-03 0.  1.
         12    1    3    3    0    0 -0.27823828041E+02  0.44170248308E+01 -0.28284114529E+02  0.39920754626E+02  0.00000000000E+00 0. -1.
</event>
<event>
 7    1  0.2148778E-015  0.9000763E+02  0.7816164E-02  0.1186339E+00
        -11   -1    0    0    0    0  0.00000000000E+00  0.00000000000E+00  0.45593999997E+02  0.45594000000E+02  0.51100000000E-03 0. -1.
         11   -1    0    0    0    0 -0.00000000000E+00 -0.00000000000E+00 -0.45593999997E+02  0.45594000000E+02  0.51100000000E-03 0.  1.
    9900012    2    1    2    0    0 -0.61252314633E+00  0.69008156297E+00 -0.73612807929E+00  0.90007626450E+02  0.89999886319E+02 0.  0.
         12    1    1    2    0    0  0.61252314633E+00 -0.69008156297E+00  0.73612807929E+00  0.11803735500E+01  0.00000000000E+00 0. -1.
         11    1    3    3    0    0 -0.27093381922E+02  0.61184995593E+01  0.22129200262E+02  0.35513221275E+02  0.51100000000E-03 0. -1.
        -11    1    3    3    0    0 -0.36691957099E+01  0.83533177828E+01  0.56801554456E+01  0.10747329030E+02  0.51100000000E-03 0.  1.
        -12    1    3    3    0    0  0.30150054486E+02 -0.13781735779E+02 -0.28545483787E+02  0.43747076145E+02  0.00000000000E+00 0.  1.
</event>
<event>
 7    1  0.2148778E-015  0.9000796E+02  0.7816164E-02  0.1186339E+00
        -11   -1    0    0    0    0  0.00000000000E+00  0.00000000000E+00  0.45593999997E+02  0.45594000000E+02  0.51100000000E-03 0.  1.
         11   -1    0    0    0    0 -0.00000000000E+00 -0.00000000000E+00 -0.45593999997E+02  0.45594000000E+02  0.51100000000E-03 0. -1.
    9900012    2    1    2    0    0  0.11140771345E+01 -0.32926137235E+00  0.20718301658E+00  0.90007955206E+02  0.90000219415E+02 0.  0.
         12    1    1    2    0    0 -0.11140771345E+01  0.32926137235E+00 -0.20718301658E+00  0.11800447938E+01  0.00000000000E+00 0. -1.
         11    1    3    3    0    0 -0.79602847605E+01 -0.99452321288E+01 -0.15380233776E+02  0.19970612580E+02  0.51100000000E-03 0. -1.
        -11    1    3    3    0    0 -0.24739097326E+02  0.19111390837E+02 -0.82092389575E+00  0.31272066010E+02  0.51100000000E-03 0.  1.
         12    1    3    3    0    0  0.33813459221E+02 -0.94954200808E+01  0.16408340688E+02  0.38765276616E+02  0.00000000000E+00 0. -1.
</event>
<event>
 7    1  0.2148778E-015  0.9000778E+02  0.7816164E-02  0.1186339E+00
        -11   -1    0    0    0    0  0.00000000000E+00  0.00000000000E+00  0.45593999997E+02  0.45594000000E+02  0.51100000000E-03 0. -1.
         11   -1    0    0    0    0 -0.00000000000E+00 -0.00000000000E+00 -0.45593999997E+02  0.45594000000E+02  0.51100000000E-03 0.  1.
    9900012    2    1    2    0    0  0.13430174774E+00  0.11416577770E+01 -0.26739912661E+00  0.90007778948E+02  0.90000040830E+02 0.  0.
         12    1    1    2    0    0 -0.13430174774E+00 -0.11416577770E+01  0.26739912661E+00  0.11802210523E+01  0.00000000000E+00 0. -1.
         11    1    3    3    0    0  0.30813004401E+02 -0.71329423816E+01  0.37011345949E+01  0.31843657214E+02  0.51100000000E-03 0. -1.
        -11    1    3    3    0    0  0.72178794672E+01 -0.80899623235E+01 -0.11934250869E+02  0.16123635399E+02  0.51100000000E-03 0.  1.
        -12    1    3    3    0    0 -0.37896582120E+02  0.16364562482E+02  0.79657171477E+01  0.42040486335E+02  0.00000000000E+00 0.  1.
</event>
<event>
 7    1  0.2148778E-015  0.9000773E+02  0.7816164E-02  0.1186339E+00
        -11   -1    0    0    0    0  0.00000000000E+00  0.00000000000E+00  0.45593999997E+02  0.45594000000E+02  0.51100000000E-03 0.  1.
         11   -1    0    0    0    0 -0.00000000000E+00 -0.00000000000E+00 -0.45593999997E+02  0.45594000000E+02  0.51100000000E-03 0. -1.
    9900012    2    1    2    0    0 -0.89946584264E+00 -0.75228283755E+00  0.13443765658E+00  0.90007728102E+02  0.89999989313E+02 0.  0.
         12    1    1    2    0    0  0.89946584264E+00  0.75228283755E+00 -0.13443765658E+00  0.11802718980E+01  0.00000000000E+00 0. -1.
         11    1    3    3    0    0  0.74698050713E+01  0.31366829746E+02 -0.10080820768E+02  0.33783116253E+02  0.51100000000E-03 0. -1.
        -11    1    3    3    0    0 -0.32543112386E+00 -0.13281207017E+02 -0.17368671649E+02  0.21867032729E+02  0.51100000000E-03 0.  1.
        -12    1    3    3    0    0 -0.80438397901E+01 -0.18837905567E+02  0.27583930074E+02  0.34357579121E+02  0.00000000000E+00 0.  1.
</event>
<event>
 7    1  0.2148778E-015  0.9000773E+02  0.7816164E-02  0.1186339E+00
        -11   -1    0    0    0    0  0.00000000000E+00  0.00000000000E+00  0.45593999997E+02  0.45594000000E+02  0.51100000000E-03 0.  1.
         11   -1    0    0    0    0 -0.00000000000E+00 -0.00000000000E+00 -0.45593999997E+02  0.45594000000E+02  0.51100000000E-03 0. -1.
    9900012    2    1    2    0    0 -0.81205882371E+00  0.76458618507E+00  0.38602556113E+00  0.90007725752E+02  0.89999986932E+02 0.  0.
         12    1    1    2    0    0  0.81205882371E+00 -0.76458618507E+00 -0.38602556113E+00  0.11802742484E+01  0.00000000000E+00 0. -1.
         11    1    3    3    0    0 -0.15148048991E+00  0.19844815440E+01  0.83440972557E+01  0.85781742003E+01  0.51100000000E-03 0. -1.
        -11    1    3    3    0    0  0.17176163577E+02 -0.17659562919E+02  0.28479706377E+02  0.37656001292E+02  0.51100000000E-03 0.  1.
         12    1    3    3    0    0 -0.17836741911E+02  0.16439667560E+02 -0.36437778072E+02  0.43773550259E+02  0.00000000000E+00 0. -1.
</event>
<event>
 7    1  0.2148778E-015  0.9000770E+02  0.7816164E-02  0.1186339E+00
        -11   -1    0    0    0    0  0.00000000000E+00  0.00000000000E+00  0.45593999997E+02  0.45594000000E+02  0.51100000000E-03 0. -1.
         11   -1    0    0    0    0 -0.00000000000E+00 -0.00000000000E+00 -0.45593999997E+02  0.45594000000E+02  0.51100000000E-03 0.  1.
    9900012    2    1    2    0    0 -0.11139790263E+01 -0.15190989204E+00 -0.35928377328E+00  0.90007698888E+02  0.89999959713E+02 0.  0.
         12    1    1    2    0    0  0.11139790263E+01  0.15190989204E+00  0.35928377328E+00  0.11803011125E+01  0.00000000000E+00 0. -1.
         11    1    3    3    0    0 -0.80097992007E+01  0.37248150144E+01  0.17894179221E+01  0.90129432977E+01  0.51100000000E-03 0. -1.
        -11    1    3    3    0    0  0.20331330914E+02  0.24390789688E+02 -0.26484755460E+02  0.41348711109E+02  0.51100000000E-03 0.  1.
         12    1    3    3    0    0 -0.13435510739E+02 -0.28267514594E+02  0.24336053765E+02  0.39646044481E+02  0.00000000000E+00 0. -1.
</event>
<event>
 7    1  0.2148778E-015  0.9000769E+02  0.7816164E-02  0.1186339E+00
        -11   -1    0    0    0    0  0.00000000000E+00  0.00000000000E+00  0.45593999997E+02  0.45594000000E+02  0.51100000000E-03 0. -1.
         11   -1    0    0    0    0 -0.00000000000E+00 -0.00000000000E+00 -0.45593999997E+02  0.45594000000E+02  0.51100000000E-03 0.  1.
    9900012    2    1    2    0    0  0.96503727132E+00  0.64940550629E+00  0.20026284251E+00  0.90007690866E+02  0.89999951585E+02 0.  0.
         12    1    1    2    0    0 -0.96503727132E+00 -0.64940550629E+00 -0.20026284251E+00  0.11803091344E+01  0.00000000000E+00 0. -1.
         11    1    3    3    0    0 -0.29999953533E+02 -0.13188557625E+02  0.24374336249E+02  0.40841688654E+02  0.51100000000E-03 0. -1.
        -11    1    3    3    0    0 -0.47322752276E+00  0.92322813265E+01 -0.46667977545E-02  0.92444028915E+01  0.51100000000E-03 0.  1.
        -12    1    3    3    0    0  0.31438218327E+02  0.46056818051E+01 -0.24169406609E+02  0.39921599321E+02  0.00000000000E+00 0.  1.
</event>
<event>
 7    1  0.2148778E-015  0.9000774E+02  0.7816164E-02  0.1186339E+00
        -11   -1    0    0    0    0  0.00000000000E+00  0.00000000000E+00  0.45593999997E+02  0.45594000000E+02  0.51100000000E-03 0.  1.
         11   -1    0    0    0    0 -0.00000000000E+00 -0.00000000000E+00 -0.45593999997E+02  0.45594000000E+02  0.51100000000E-03 0. -1.
    9900012    2    1    2    0    0 -0.72697526972E+00  0.85123822073E+00  0.37403580575E+00  0.90007744801E+02  0.90000006232E+02 0.  0.
         12    1    1    2    0    0  0.72697526972E+00 -0.85123822073E+00 -0.37403580575E+00  0.11802551992E+01  0.00000000000E+00 0. -1.
         11    1    3    3    0    0  0.26429964474E+02 -0.15598619674E+02  0.20124409257E+02  0.36699479643E+02  0.51100000000E-03 0. -1.
        -11    1    3    3    0    0  0.95474129376E+01  0.46403427120E+01 -0.17598211000E+01  0.10760243717E+02  0.51100000000E-03 0.  1.
        -12    1    3    3    0    0 -0.36704352681E+02  0.11809515183E+02 -0.17990552352E+02  0.42548021441E+02  0.00000000000E+00 0.  1.
</event>
<event>
 7    1  0.2148778E-015  0.9000744E+02  0.7816164E-02  0.1186340E+00
        -11   -1    0    0    0    0  0.00000000000E+00  0.00000000000E+00  0.45593999997E+02  0.45594000000E+02  0.51100000000E-03 0.  1.
         11   -1    0    0    0    0 -0.00000000000E+00 -0.00000000000E+00 -0.45593999997E+02  0.45594000000E+02  0.51100000000E-03 0. -1.
    9900012    2    1    2    0    0  0.97692354306E+00  0.29749741429E+00  0.59232294611E+00  0.90007436239E+02  0.89999693597E+02 0.  0.
         12    1    1    2    0    0 -0.97692354306E+00 -0.29749741429E+00 -0.59232294611E+00  0.11805637607E+01  0.00000000000E+00 0. -1.
         11    1    3    3    0    0 -0.35535006253E+02  0.20265841140E+01 -0.53001502511E+01  0.35985209538E+02  0.51100000000E-03 0. -1.
        -11    1    3    3    0    0 -0.79670155569E+01 -0.56021525982E+00 -0.32078454005E+01  0.86068258026E+01  0.51100000000E-03 0.  1.
        -12    1    3    3    0    0  0.44478945353E+02 -0.11688714399E+01  0.91003185977E+01  0.45415400898E+02  0.00000000000E+00 0.  1.
</event>
<event>
 7    1  0.2148778E-015  0.9000764E+02  0.7816164E-02  0.1186339E+00
        -11   -1    0    0    0    0  0.00000000000E+00  0.00000000000E+00  0.45593999997E+02  0.45594000000E+02  0.51100000000E-03 0.  1.
         11   -1    0    0    0    0 -0.00000000000E+00 -0.00000000000E+00 -0.45593999997E+02  0.45594000000E+02  0.51100000000E-03 0. -1.
    9900012    2    1    2    0    0 -0.32919409514E+00  0.79047739274E+00  0.81242037224E+00  0.90007639834E+02  0.89999899880E+02 0.  0.
         12    1    1    2    0    0  0.32919409514E+00 -0.79047739274E+00 -0.81242037224E+00  0.11803601662E+01  0.00000000000E+00 0. -1.
         11    1    3    3    0    0 -0.84678492963E+01  0.35392716828E+02  0.65313096195E+01  0.36973056160E+02  0.51100000000E-03 0. -1.
        -11    1    3    3    0    0  0.18454509390E+01  0.86837938368E+01  0.29122965114E+00  0.88824984964E+01  0.51100000000E-03 0.  1.
        -12    1    3    3    0    0  0.62932042621E+01 -0.43286033272E+02 -0.60101188984E+01  0.44152085177E+02  0.00000000000E+00 0.  1.
</event>
<event>
 7    1  0.2148778E-015  0.9000776E+02  0.7816164E-02  0.1186339E+00
        -11   -1    0    0    0    0  0.00000000000E+00  0.00000000000E+00  0.45593999997E+02  0.45594000000E+02  0.51100000000E-03 0.  1.
         11   -1    0    0    0    0 -0.00000000000E+00 -0.00000000000E+00 -0.45593999997E+02  0.45594000000E+02  0.51100000000E-03 0. -1.
    9900012    2    1    2    0    0  0.15515408446E+00 -0.91517761649E+00  0.72893958359E+00  0.90007756052E+02  0.90000017632E+02 0.  0.
         12    1    1    2    0    0 -0.15515408446E+00  0.91517761649E+00 -0.72893958359E+00  0.11802439477E+01  0.00000000000E+00 0. -1.
         11    1    3    3    0    0 -0.48095329916E+01  0.26351487026E+01 -0.80289064964E+01  0.97231145252E+01  0.51100000000E-03 0. -1.
        -11    1    3    3    0    0 -0.30174129303E+02 -0.23075568216E+02 -0.37842968532E+01  0.38174347809E+02  0.51100000000E-03 0.  1.
         12    1    3    3    0    0  0.35138816379E+02  0.19525241897E+02  0.12542142933E+02  0.42110293718E+02  0.00000000000E+00 0. -1.
</event>
<event>
 7    1  0.2148778E-015  0.9000770E+02  0.7816164E-02  0.1186339E+00
        -11   -1    0    0    0    0  0.00000000000E+00  0.00000000000E+00  0.45593999997E+02  0.45594000000E+02  0.51100000000E-03 0. -1.
         11   -1    0    0    0    0 -0.00000000000E+00 -0.00000000000E+00 -0.45593999997E+02  0.45594000000E+02  0.51100000000E-03 0.  1.
    9900012    2    1    2    0    0  0.24541014581E+00 -0.11454869038E+01 -0.14399967076E+00  0.90007702456E+02  0.89999963329E+02 0.  0.
         12    1    1    2    0    0 -0.24541014581E+00  0.11454869038E+01  0.14399967076E+00  0.11802975437E+01  0.00000000000E+00 0. -1.
         11    1    3    3    0    0 -0.29265758260E+02 -0.28197184968E+02  0.70787570336E+01  0.41251359348E+02  0.51100000000E-03 0. -1.
        -11    1    3    3    0    0 -0.40086244157E+01  0.85771859880E+01  0.12674805908E+01  0.95521566407E+01  0.51100000000E-03 0.  1.
        -12    1    3    3    0    0  0.33519792822E+02  0.18474512076E+02 -0.84902372951E+01  0.39204186468E+02  0.00000000000E+00 0.  1.
</event>
<event>
 7    1  0.2148778E-015  0.9000774E+02  0.7816164E-02  0.1186339E+00
        -11   -1    0    0    0    0  0.00000000000E+00  0.00000000000E+00  0.45593999997E+02  0.45594000000E+02  0.51100000000E-03 0.  1.
         11   -1    0    0    0    0 -0.00000000000E+00 -0.00000000000E+00 -0.45593999997E+02  0.45594000000E+02  0.51100000000E-03 0. -1.
    9900012    2    1    2    0    0  0.10211210596E+01 -0.50023727679E+00  0.31636237243E+00  0.90007741256E+02  0.90000002641E+02 0.  0.
         12    1    1    2    0    0 -0.10211210596E+01  0.50023727679E+00 -0.31636237243E+00  0.11802587437E+01  0.00000000000E+00 0. -1.
         11    1    3    3    0    0  0.33271261987E+02  0.24592808659E+02 -0.80525008727E+01  0.42150040125E+02  0.51100000000E-03 0. -1.
        -11    1    3    3    0    0 -0.30881871170E+01 -0.58052292050E+01  0.10978470881E+02  0.12797046883E+02  0.51100000000E-03 0.  1.
        -12    1    3    3    0    0 -0.29161953811E+02 -0.19287816731E+02 -0.26096076358E+01  0.35060654248E+02  0.00000000000E+00 0.  1.
</event>
<event>
 7    1  0.2148778E-015  0.9000778E+02  0.7816164E-02  0.1186339E+00
        -11   -1    0    0    0    0  0.00000000000E+00  0.00000000000E+00  0.45593999997E+02  0.45594000000E+02  0.51100000000E-03 0.  1.
         11   -1    0    0    0    0 -0.00000000000E+00 -0.00000000000E+00 -0.45593999997E+02  0.45594000000E+02  0.51100000000E-03 0. -1.
    9900012    2    1    2    0    0 -0.96473637113E+00 -0.46468194278E+00 -0.49625772547E+00  0.90007780824E+02  0.90000042731E+02 0.  0.
         12    1    1    2    0    0  0.96473637113E+00  0.46468194278E+00  0.49625772547E+00  0.11802191762E+01  0.00000000000E+00 0. -1.
         11    1    3    3    0    0 -0.59065068906E+01 -0.67256170704E+01  0.24775556584E+02  0.26342910867E+02  0.51100000000E-03 0. -1.
        -11    1    3    3    0    0 -0.34020853851E+01 -0.10968789457E+02  0.15107741985E+02  0.18977154562E+02  0.51100000000E-03 0.  1.
         12    1    3    3    0    0  0.83438559046E+01  0.17229724585E+02 -0.40379556295E+02  0.44687715395E+02  0.00000000000E+00 0. -1.
</event>
<event>
 7    1  0.2148778E-015  0.9000775E+02  0.7816164E-02  0.1186339E+00
        -11   -1    0    0    0    0  0.00000000000E+00  0.00000000000E+00  0.45593999997E+02  0.45594000000E+02  0.51100000000E-03 0.  1.
         11   -1    0    0    0    0 -0.00000000000E+00 -0.00000000000E+00 -0.45593999997E+02  0.45594000000E+02  0.51100000000E-03 0. -1.
    9900012    2    1    2    0    0  0.75599875240E+00 -0.58273776366E+00  0.69416407990E+00  0.90007753761E+02  0.90000015311E+02 0.  0.
         12    1    1    2    0    0 -0.75599875240E+00  0.58273776366E+00 -0.69416407990E+00  0.11802462390E+01  0.00000000000E+00 0. -1.
         11    1    3    3    0    0 -0.19929824323E+01  0.53325498861E+01  0.83272774923E+01  0.10087200700E+02  0.51100000000E-03 0. -1.
        -11    1    3    3    0    0 -0.22217804154E+02 -0.11228553377E+02  0.27111737070E+02  0.36807030845E+02  0.51100000000E-03 0.  1.
         12    1    3    3    0    0  0.24966785339E+02  0.53132657272E+01 -0.34744850483E+02  0.43113522217E+02  0.00000000000E+00 0. -1.
</event>
<event>
 7    1  0.2148778E-015  0.9000772E+02  0.7816164E-02  0.1186339E+00
        -11   -1    0    0    0    0  0.00000000000E+00  0.00000000000E+00  0.45593999997E+02  0.45594000000E+02  0.51100000000E-03 0. -1.
         11   -1    0    0    0    0 -0.00000000000E+00 -0.00000000000E+00 -0.45593999997E+02  0.45594000000E+02  0.51100000000E-03 0.  1.
    9900012    2    1    2    0    0 -0.69208912516E+00  0.95078207355E+00  0.10042606725E+00  0.90007720667E+02  0.89999981780E+02 0.  0.
         12    1    1    2    0    0  0.69208912516E+00 -0.95078207355E+00 -0.10042606725E+00  0.11802793328E+01  0.00000000000E+00 0. -1.
         11    1    3    3    0    0 -0.25367324994E+02 -0.12179002927E+02  0.29823266530E+02  0.41003128130E+02  0.51100000000E-03 0. -1.
        -11    1    3    3    0    0 -0.51771178188E+01 -0.56284693079E+00 -0.82801860980E+01  0.97816577151E+01  0.51100000000E-03 0.  1.
        -12    1    3    3    0    0  0.29852353687E+02  0.13692631931E+02 -0.21442654365E+02  0.39222934822E+02  0.00000000000E+00 0.  1.
</event>
<event>
 7    1  0.2148778E-015  0.9000768E+02  0.7816164E-02  0.1186339E+00
        -11   -1    0    0    0    0  0.00000000000E+00  0.00000000000E+00  0.45593999997E+02  0.45594000000E+02  0.51100000000E-03 0. -1.
         11   -1    0    0    0    0 -0.00000000000E+00 -0.00000000000E+00 -0.45593999997E+02  0.45594000000E+02  0.51100000000E-03 0.  1.
    9900012    2    1    2    0    0 -0.88807131682E+00  0.77447824378E+00  0.68273028031E-01  0.90007682915E+02  0.89999943530E+02 0.  0.
         12    1    1    2    0    0  0.88807131682E+00 -0.77447824378E+00 -0.68273028031E-01  0.11803170846E+01  0.00000000000E+00 0. -1.
         11    1    3    3    0    0 -0.36865829372E+02  0.21757800308E+01  0.15857664292E+02  0.40190657013E+02  0.51100000000E-03 0. -1.
        -11    1    3    3    0    0  0.27918163954E+01 -0.28279960594E+01  0.80186778966E+01  0.89493572936E+01  0.51100000000E-03 0.  1.
        -12    1    3    3    0    0  0.33185941660E+02  0.14266942724E+01 -0.23808069160E+02  0.40867668609E+02  0.00000000000E+00 0.  1.
</event>
<event>
 7    1  0.2148778E-015  0.9000771E+02  0.7816164E-02  0.1186339E+00
        -11   -1    0    0    0    0  0.00000000000E+00  0.00000000000E+00  0.45593999997E+02  0.45594000000E+02  0.51100000000E-03 0. -1.
         11   -1    0    0    0    0 -0.00000000000E+00 -0.00000000000E+00 -0.45593999997E+02  0.45594000000E+02  0.51100000000E-03 0.  1.
    9900012    2    1    2    0    0 -0.91561665361E+00 -0.50785220661E+00 -0.54480528153E+00  0.90007711681E+02  0.89999972676E+02 0.  0.
         12    1    1    2    0    0  0.91561665361E+00  0.50785220661E+00  0.54480528153E+00  0.11802883186E+01  0.00000000000E+00 0. -1.
         11    1    3    3    0    0 -0.71126236638E+01  0.45522995713E+01 -0.59421222181E+01  0.10325776653E+02  0.51100000000E-03 0. -1.
        -11    1    3    3    0    0 -0.10025255199E+02  0.21147075118E+02 -0.26480685618E+02  0.35340221263E+02  0.51100000000E-03 0.  1.
         12    1    3    3    0    0  0.16222262209E+02 -0.26207226896E+02  0.31878002555E+02  0.44341713765E+02  0.00000000000E+00 0. -1.
</event>
<event>
 7    1  0.2148778E-015  0.9000758E+02  0.7816164E-02  0.1186339E+00
        -11   -1    0    0    0    0  0.00000000000E+00  0.00000000000E+00  0.45593999997E+02  0.45594000000E+02  0.51100000000E-03 0. -1.
         11   -1    0    0    0    0 -0.00000000000E+00 -0.00000000000E+00 -0.45593999997E+02  0.45594000000E+02  0.51100000000E-03 0.  1.
    9900012    2    1    2    0    0 -0.22076474476E+00 -0.68992404618E+00 -0.93202170024E+00  0.90007577740E+02  0.89999836966E+02 0.  0.
         12    1    1    2    0    0  0.22076474476E+00  0.68992404618E+00  0.93202170024E+00  0.11804222599E+01  0.00000000000E+00 0. -1.
         11    1    3    3    0    0  0.23827334307E+02  0.21351447724E+02  0.15704474606E+02  0.35640660810E+02  0.51100000000E-03 0. -1.
        -11    1    3    3    0    0  0.52943697935E+01  0.41154332054E+01  0.60071163055E+01  0.90029211120E+01  0.51100000000E-03 0.  1.
        -12    1    3    3    0    0 -0.29342468845E+02 -0.26156804976E+02 -0.22643612612E+02  0.45363995818E+02  0.00000000000E+00 0.  1.
</event>
<event>
 7    1  0.2148778E-015  0.9000771E+02  0.7816164E-02  0.1186339E+00
        -11   -1    0    0    0    0  0.00000000000E+00  0.00000000000E+00  0.45593999997E+02  0.45594000000E+02  0.51100000000E-03 0.  1.
         11   -1    0    0    0    0 -0.00000000000E+00 -0.00000000000E+00 -0.45593999997E+02  0.45594000000E+02  0.51100000000E-03 0. -1.
    9900012    2    1    2    0    0  0.10093717233E+01 -0.57834051587E+00  0.19946027728E+00  0.90007706210E+02  0.89999967132E+02 0.  0.
         12    1    1    2    0    0 -0.10093717233E+01  0.57834051587E+00 -0.19946027728E+00  0.11802937899E+01  0.00000000000E+00 0. -1.
         11    1    3    3    0    0 -0.36981047878E+01 -0.52694368998E+01  0.91158586197E+01  0.11159830774E+02  0.51100000000E-03 0. -1.
        -11    1    3    3    0    0 -0.20720404402E+02 -0.17918628225E+02  0.20222956404E+02  0.34049674918E+02  0.51100000000E-03 0.  1.
         12    1    3    3    0    0  0.25427880913E+02  0.22609724609E+02 -0.29139354746E+02  0.44798200518E+02  0.00000000000E+00 0. -1.
</event>
<event>
 7    1  0.2148778E-015  0.9000773E+02  0.7816164E-02  0.1186339E+00
        -11   -1    0    0    0    0  0.00000000000E+00  0.00000000000E+00  0.45593999997E+02  0.45594000000E+02  0.51100000000E-03 0. -1.
         11   -1    0    0    0    0 -0.00000000000E+00 -0.00000000000E+00 -0.45593999997E+02  0.45594000000E+02  0.51100000000E-03 0.  1.
    9900012    2    1    2    0    0 -0.51298405083E+00 -0.10352653775E+01  0.24105017447E+00  0.90007732138E+02  0.89999993403E+02 0.  0.
         12    1    1    2    0    0  0.51298405083E+00  0.10352653775E+01 -0.24105017447E+00  0.11802678615E+01  0.00000000000E+00 0. -1.
         11    1    3    3    0    0  0.37187679060E+02  0.69840924856E+01  0.38293625452E+01  0.38031106209E+02  0.51100000000E-03 0. -1.
        -11    1    3    3    0    0  0.15794389121E+01  0.18266891698E+01  0.91987233957E+01  0.95104118193E+01  0.51100000000E-03 0.  1.
        -12    1    3    3    0    0 -0.39280102023E+02 -0.98460470329E+01 -0.12787035766E+02  0.42466214110E+02  0.00000000000E+00 0.  1.
</event>
<event>
 7    1  0.2148778E-015  0.9000768E+02  0.7816164E-02  0.1186339E+00
        -11   -1    0    0    0    0  0.00000000000E+00  0.00000000000E+00  0.45593999997E+02  0.45594000000E+02  0.51100000000E-03 0. -1.
         11   -1    0    0    0    0 -0.00000000000E+00 -0.00000000000E+00 -0.45593999997E+02  0.45594000000E+02  0.51100000000E-03 0.  1.
    9900012    2    1    2    0    0  0.52577036420E+00 -0.24693238251E+00 -0.10274903932E+01  0.90007683693E+02  0.89999944317E+02 0.  0.
         12    1    1    2    0    0 -0.52577036420E+00  0.24693238251E+00  0.10274903932E+01  0.11803163074E+01  0.00000000000E+00 0. -1.
         11    1    3    3    0    0 -0.24807408037E+01 -0.36329614403E+01 -0.18864046694E+01  0.47865443275E+01  0.51100000000E-03 0. -1.
        -11    1    3    3    0    0  0.10585472132E+02  0.18980798301E+02 -0.37377793496E+02  0.43236817312E+02  0.51100000000E-03 0.  1.
         12    1    3    3    0    0 -0.75789609645E+01 -0.15594769243E+02  0.38236707772E+02  0.41984322053E+02  0.00000000000E+00 0. -1.
</event>
<event>
 7    1  0.2148778E-015  0.9000784E+02  0.7816164E-02  0.1186339E+00
        -11   -1    0    0    0    0  0.00000000000E+00  0.00000000000E+00  0.45593999997E+02  0.45594000000E+02  0.51100000000E-03 0.  1.
         11   -1    0    0    0    0 -0.00000000000E+00 -0.00000000000E+00 -0.45593999997E+02  0.45594000000E+02  0.51100000000E-03 0. -1.
    9900012    2    1    2    0    0 -0.46924575119E+00  0.66083529618E+00  0.85783282186E+00  0.90007842377E+02  0.90000105097E+02 0.  0.
         12    1    1    2    0    0  0.46924575119E+00 -0.66083529618E+00 -0.85783282186E+00  0.11801576225E+01  0.00000000000E+00 0. -1.
         11    1    3    3    0    0  0.25872746992E+02  0.79050542308E+01 -0.21934494447E+02  0.34828306968E+02  0.51100000000E-03 0. -1.
        -11    1    3    3    0    0  0.80350838461E+01  0.42074347752E+01 -0.42011949287E+01  0.99957550436E+01  0.51100000000E-03 0.  1.
        -12    1    3    3    0    0 -0.34377076590E+02 -0.11451653710E+02  0.26993522198E+02  0.45183780366E+02  0.00000000000E+00 0.  1.
</event>
<event>
 7    1  0.2148778E-015  0.9000763E+02  0.7816164E-02  0.1186339E+00
        -11   -1    0    0    0    0  0.00000000000E+00  0.00000000000E+00  0.45593999997E+02  0.45594000000E+02  0.51100000000E-03 0.  1.
         11   -1    0    0    0    0 -0.00000000000E+00 -0.00000000000E+00 -0.45593999997E+02  0.45594000000E+02  0.51100000000E-03 0. -1.
    9900012    2    1    2    0    0  0.68160251012E+00  0.88849152680E+00  0.37319593627E+00  0.90007629557E+02  0.89999889467E+02 0.  0.
         12    1    1    2    0    0 -0.68160251012E+00 -0.88849152680E+00 -0.37319593627E+00  0.11803704426E+01  0.00000000000E+00 0. -1.
         11    1    3    3    0    0 -0.14358930563E+02  0.90009427483E+01 -0.31983958107E+02  0.36196262704E+02  0.51100000000E-03 0. -1.
        -11    1    3    3    0    0 -0.18734680455E+01 -0.62891816850E+01 -0.78036008784E+01  0.10196071582E+02  0.51100000000E-03 0.  1.
        -12    1    3    3    0    0  0.16914001119E+02 -0.18232695364E+01  0.40160754922E+02  0.43615295271E+02  0.00000000000E+00 0.  1.
</event>
<event>
 7    1  0.2148778E-015  0.9000775E+02  0.7816164E-02  0.1186339E+00
        -11   -1    0    0    0    0  0.00000000000E+00  0.00000000000E+00  0.45593999997E+02  0.45594000000E+02  0.51100000000E-03 0.  1.
         11   -1    0    0    0    0 -0.00000000000E+00 -0.00000000000E+00 -0.45593999997E+02  0.45594000000E+02  0.51100000000E-03 0. -1.
    9900012    2    1    2    0    0 -0.23735366880E-01  0.86543035489E+00  0.80215305383E+00  0.90007753166E+02  0.90000014708E+02 0.  0.
         12    1    1    2    0    0  0.23735366880E-01 -0.86543035489E+00 -0.80215305383E+00  0.11802468338E+01  0.00000000000E+00 0. -1.
         11    1    3    3    0    0 -0.63600277196E+01 -0.35709604017E+02  0.12437759354E+02  0.38344799252E+02  0.51100000000E-03 0. -1.
        -11    1    3    3    0    0 -0.92355194069E+00 -0.47358678255E+01  0.46189715901E+01  0.66795427282E+01  0.51100000000E-03 0.  1.
        -12    1    3    3    0    0  0.72598442934E+01  0.41310902197E+02 -0.16254577891E+02  0.44983411186E+02  0.00000000000E+00 0.  1.
</event>
<event>
 7    1  0.2148778E-015  0.9000741E+02  0.7816164E-02  0.1186340E+00
        -11   -1    0    0    0    0  0.00000000000E+00  0.00000000000E+00  0.45593999997E+02  0.45594000000E+02  0.51100000000E-03 0. -1.
         11   -1    0    0    0    0 -0.00000000000E+00 -0.00000000000E+00 -0.45593999997E+02  0.45594000000E+02  0.51100000000E-03 0.  1.
    9900012    2    1    2    0    0 -0.86260658606E+00  0.66977205559E+00 -0.44845875486E+00  0.90007406936E+02  0.89999663907E+02 0.  0.
         12    1    1    2    0    0  0.86260658606E+00 -0.66977205559E+00  0.44845875486E+00  0.11805930643E+01  0.00000000000E+00 0. -1.
         11    1    3    3    0    0 -0.15780090222E+02 -0.31317565961E+02 -0.85227200318E+01  0.36089305094E+02  0.51100000000E-03 0. -1.
        -11    1    3    3    0    0  0.29638520433E+01 -0.91111533669E+01 -0.23506494843E+01  0.98652464677E+01  0.51100000000E-03 0.  1.
        -12    1    3    3    0    0  0.11953631592E+02  0.41098491384E+02  0.10424910761E+02  0.44052855374E+02  0.00000000000E+00 0.  1.
</event>
<event>
 7    1  0.2148778E-015  0.9000772E+02  0.7816164E-02  0.1186339E+00
        -11   -1    0    0    0    0  0.00000000000E+00  0.00000000000E+00  0.45593999997E+02  0.45594000000E+02  0.51100000000E-03 0.  1.
         11   -1    0    0    0    0 -0.00000000000E+00 -0.00000000000E+00 -0.45593999997E+02  0.45594000000E+02  0.51100000000E-03 0. -1.
    9900012    2    1    2    0    0  0.13414617073E+00  0.20097194171E+00  0.11552778398E+01  0.90007723844E+02  0.89999984999E+02 0.  0.
         12    1    1    2    0    0 -0.13414617073E+00 -0.20097194171E+00 -0.11552778398E+01  0.11802761557E+01  0.00000000000E+00 0. -1.
         11    1    3    3    0    0  0.76511851544E+01 -0.85344434111E+01 -0.35917957410E+02  0.37702480334E+02  0.51100000000E-03 0. -1.
        -11    1    3    3    0    0  0.19205879177E+01  0.11331965364E+02 -0.23103758953E+01  0.11723477897E+02  0.51100000000E-03 0.  1.
        -12    1    3    3    0    0 -0.94376269014E+01 -0.25965500109E+01  0.39383611145E+02  0.40581765613E+02  0.00000000000E+00 0.  1.
</event>
<event>
 7    1  0.2148778E-015  0.9000766E+02  0.7816164E-02  0.1186339E+00
        -11   -1    0    0    0    0  0.00000000000E+00  0.00000000000E+00  0.45593999997E+02  0.45594000000E+02  0.51100000000E-03 0. -1.
         11   -1    0    0    0    0 -0.00000000000E+00 -0.00000000000E+00 -0.45593999997E+02  0.45594000000E+02  0.51100000000E-03 0.  1.
    9900012    2    1    2    0    0  0.96104114129E+00  0.65373093449E+00  0.20551250949E+00  0.90007661234E+02  0.89999921563E+02 0.  0.
         12    1    1    2    0    0 -0.96104114129E+00 -0.65373093449E+00 -0.20551250949E+00  0.11803387656E+01  0.00000000000E+00 0. -1.
         11    1    3    3    0    0  0.43565740377E+01  0.28720704514E+02 -0.18577542317E+02  0.34481642710E+02  0.51100000000E-03 0. -1.
        -11    1    3    3    0    0 -0.58433055032E+01  0.10906755388E+02  0.43818562058E+00  0.12381176810E+02  0.51100000000E-03 0.  1.
        -12    1    3    3    0    0  0.24477726067E+01 -0.38973728968E+02  0.18344869206E+02  0.43144841715E+02  0.00000000000E+00 0.  1.
</event>
<event>
 7    1  0.2148778E-015  0.9000706E+02  0.7816164E-02  0.1186340E+00
        -11   -1    0    0    0    0  0.00000000000E+00  0.00000000000E+00  0.45593999997E+02  0.45594000000E+02  0.51100000000E-03 0. -1.
         11   -1    0    0    0    0 -0.00000000000E+00 -0.00000000000E+00 -0.45593999997E+02  0.45594000000E+02  0.51100000000E-03 0.  1.
    9900012    2    1    2    0    0  0.54905092515E+00 -0.46018025277E+00  0.93882490654E+00  0.90007061818E+02  0.89999314232E+02 0.  0.
         12    1    1    2    0    0 -0.54905092515E+00  0.46018025277E+00 -0.93882490654E+00  0.11809381815E+01  0.00000000000E+00 0. -1.
         11    1    3    3    0    0  0.65172262489E+01  0.38816936872E+02  0.82623093434E+01  0.40218087747E+02  0.51100000000E-03 0. -1.
        -11    1    3    3    0    0 -0.10577506899E+02 -0.30265318498E+01  0.37206283593E+01  0.11614070040E+02  0.51100000000E-03 0.  1.
        -12    1    3    3    0    0  0.46093315752E+01 -0.36250585275E+02 -0.11044112796E+02  0.38174904031E+02  0.00000000000E+00 0.  1.
</event>
<event>
 7    1  0.2148778E-015  0.9000777E+02  0.7816164E-02  0.1186339E+00
        -11   -1    0    0    0    0  0.00000000000E+00  0.00000000000E+00  0.45593999997E+02  0.45594000000E+02  0.51100000000E-03 0. -1.
         11   -1    0    0    0    0 -0.00000000000E+00 -0.00000000000E+00 -0.45593999997E+02  0.45594000000E+02  0.51100000000E-03 0.  1.
    9900012    2    1    2    0    0 -0.11119389583E+01 -0.32419852065E+00 -0.22677078525E+00  0.90007772091E+02  0.90000033883E+02 0.  0.
         12    1    1    2    0    0  0.11119389583E+01  0.32419852065E+00  0.22677078525E+00  0.11802279088E+01  0.00000000000E+00 0. -1.
         11    1    3    3    0    0 -0.13610398567E+02 -0.96124188615E+01 -0.70232458391E+01  0.18082243442E+02  0.51100000000E-03 0. -1.
        -11    1    3    3    0    0 -0.82601000649E+01  0.36031737379E+02 -0.17535034310E+01  0.37007973819E+02  0.51100000000E-03 0.  1.
         12    1    3    3    0    0  0.20758559673E+02 -0.26743517038E+02  0.85499784848E+01  0.34917554831E+02  0.00000000000E+00 0. -1.
</event>
<event>
 7    1  0.2148778E-015  0.9000787E+02  0.7816164E-02  0.1186339E+00
        -11   -1    0    0    0    0  0.00000000000E+00  0.00000000000E+00  0.45593999997E+02  0.45594000000E+02  0.51100000000E-03 0.  1.
         11   -1    0    0    0    0 -0.00000000000E+00 -0.00000000000E+00 -0.45593999997E+02  0.45594000000E+02  0.51100000000E-03 0. -1.
    9900012    2    1    2    0    0 -0.49612936838E+00  0.79965985719E+00  0.71210617747E+00  0.90007874818E+02  0.90000137965E+02 0.  0.
         12    1    1    2    0    0  0.49612936838E+00 -0.79965985719E+00 -0.71210617747E+00  0.11801251821E+01  0.00000000000E+00 0. -1.
         11    1    3    3    0    0 -0.56613275209E+01 -0.59770095357E+01  0.27858335568E+01  0.86911530395E+01  0.51100000000E-03 0. -1.
        -11    1    3    3    0    0 -0.26411817148E+02 -0.23228136746E+02  0.91326596960E+01  0.36339178515E+02  0.51100000000E-03 0.  1.
         12    1    3    3    0    0  0.31577015301E+02  0.30004806139E+02 -0.11206387075E+02  0.44977543263E+02  0.00000000000E+00 0. -1.
</event>
<event>
 7    1  0.2148778E-015  0.9000773E+02  0.7816164E-02  0.1186339E+00
        -11   -1    0    0    0    0  0.00000000000E+00  0.00000000000E+00  0.45593999997E+02  0.45594000000E+02  0.51100000000E-03 0. -1.
         11   -1    0    0    0    0 -0.00000000000E+00 -0.00000000000E+00 -0.45593999997E+02  0.45594000000E+02  0.51100000000E-03 0.  1.
    9900012    2    1    2    0    0  0.14475083949E+00 -0.11368549996E+01 -0.28222750567E+00  0.90007726955E+02  0.89999988151E+02 0.  0.
         12    1    1    2    0    0 -0.14475083949E+00  0.11368549996E+01  0.28222750567E+00  0.11802730450E+01  0.00000000000E+00 0. -1.
         11    1    3    3    0    0  0.11100847617E+02  0.98232606792E+01  0.32394728569E+02  0.35625043263E+02  0.51100000000E-03 0. -1.
        -11    1    3    3    0    0 -0.19948235025E+02 -0.11704359243E+02 -0.29490930412E+01  0.23315686906E+02  0.51100000000E-03 0.  1.
        -12    1    3    3    0    0  0.89921382467E+01  0.74424356375E+00 -0.29727863034E+02  0.31066996786E+02  0.00000000000E+00 0.  1.
</event>
<event>
 7    1  0.2148778E-015  0.9000773E+02  0.7816164E-02  0.1186339E+00
        -11   -1    0    0    0    0  0.00000000000E+00  0.00000000000E+00  0.45593999997E+02  0.45594000000E+02  0.51100000000E-03 0.  1.
         11   -1    0    0    0    0 -0.00000000000E+00 -0.00000000000E+00 -0.45593999997E+02  0.45594000000E+02  0.51100000000E-03 0. -1.
    9900012    2    1    2    0    0 -0.15728711971E+00  0.10430985767E+01 -0.52938943567E+00  0.90007725857E+02  0.89999987038E+02 0.  0.
         12    1    1    2    0    0  0.15728711971E+00 -0.10430985767E+01  0.52938943567E+00  0.11802741433E+01  0.00000000000E+00 0. -1.
         11    1    3    3    0    0  0.10695636700E+02 -0.26851504233E+02 -0.26071484153E+02  0.38924570777E+02  0.51100000000E-03 0. -1.
        -11    1    3    3    0    0  0.92116552483E+01  0.21789361196E+01 -0.29829933947E+00  0.94705510813E+01  0.51100000000E-03 0.  1.
        -12    1    3    3    0    0 -0.20064579068E+02  0.25715666690E+02  0.25840394056E+02  0.41612603998E+02  0.00000000000E+00 0.  1.
</event>
<event>
 7    1  0.2148778E-015  0.9000756E+02  0.7816164E-02  0.1186339E+00
        -11   -1    0    0    0    0  0.00000000000E+00  0.00000000000E+00  0.45593999997E+02  0.45594000000E+02  0.51100000000E-03 0.  1.
         11   -1    0    0    0    0 -0.00000000000E+00 -0.00000000000E+00 -0.45593999997E+02  0.45594000000E+02  0.51100000000E-03 0. -1.
    9900012    2    1    2    0    0  0.81886906951E-01  0.15472729498E+00  0.11673846098E+01  0.90007562442E+02  0.89999821466E+02 0.  0.
         12    1    1    2    0    0 -0.81886906951E-01 -0.15472729498E+00 -0.11673846098E+01  0.11804375581E+01  0.00000000000E+00 0. -1.
         11    1    3    3    0    0 -0.27350079225E+02 -0.52914999512E+01 -0.25010595848E+02  0.37437370504E+02  0.51100000000E-03 0. -1.
        -11    1    3    3    0    0 -0.69621866321E+01 -0.21580217826E+01 -0.18902948018E+01  0.75300939844E+01  0.51100000000E-03 0.  1.
        -12    1    3    3    0    0  0.34394152764E+02  0.76042490288E+01  0.28068275259E+02  0.45040097954E+02  0.00000000000E+00 0.  1.
</event>
<event>
 7    1  0.2148778E-015  0.9000778E+02  0.7816164E-02  0.1186339E+00
        -11   -1    0    0    0    0  0.00000000000E+00  0.00000000000E+00  0.45593999997E+02  0.45594000000E+02  0.51100000000E-03 0.  1.
         11   -1    0    0    0    0 -0.00000000000E+00 -0.00000000000E+00 -0.45593999997E+02  0.45594000000E+02  0.51100000000E-03 0. -1.
    9900012    2    1    2    0    0  0.64032074519E+00 -0.92862443092E+00  0.34724024114E+00  0.90007775540E+02  0.90000037377E+02 0.  0.
         12    1    1    2    0    0 -0.64032074519E+00  0.92862443092E+00 -0.34724024114E+00  0.11802244598E+01  0.00000000000E+00 0. -1.
         11    1    3    3    0    0 -0.56293352438E+01  0.60277952468E+01 -0.49154874368E+01  0.96013409390E+01  0.51100000000E-03 0. -1.
        -11    1    3    3    0    0 -0.24267409467E+02  0.61199494030E+01  0.29941319303E+02  0.39023628032E+02  0.51100000000E-03 0.  1.
         12    1    3    3    0    0  0.30537065456E+02 -0.13076369081E+02 -0.24678591625E+02  0.41382806569E+02  0.00000000000E+00 0. -1.
</event>
<event>
 7    1  0.2148778E-015  0.9000899E+02  0.7816164E-02  0.1186337E+00
        -11   -1    0    0    0    0  0.00000000000E+00  0.00000000000E+00  0.45593999997E+02  0.45594000000E+02  0.51100000000E-03 0.  1.
         11   -1    0    0    0    0 -0.00000000000E+00 -0.00000000000E+00 -0.45593999997E+02  0.45594000000E+02  0.51100000000E-03 0. -1.
    9900012    2    1    2    0    0  0.12143664186E+00  0.11477502822E+01 -0.24080252779E+00  0.90008990490E+02  0.90001268355E+02 0.  0.
         12    1    1    2    0    0 -0.12143664186E+00 -0.11477502822E+01  0.24080252779E+00  0.11790095104E+01  0.00000000000E+00 0. -1.
         11    1    3    3    0    0 -0.68785198826E+01  0.22036829020E+02 -0.36313341350E+02  0.43030159532E+02  0.51100000000E-03 0. -1.
        -11    1    3    3    0    0 -0.48029413360E+01  0.10713786952E+01  0.83708617387E+01  0.97101711774E+01  0.51100000000E-03 0.  1.
        -12    1    3    3    0    0  0.11802897861E+02 -0.21960457433E+02  0.27701677084E+02  0.37268659780E+02  0.00000000000E+00 0.  1.
</event>
<event>
 7    1  0.2148778E-015  0.9000767E+02  0.7816164E-02  0.1186339E+00
        -11   -1    0    0    0    0  0.00000000000E+00  0.00000000000E+00  0.45593999997E+02  0.45594000000E+02  0.51100000000E-03 0.  1.
         11   -1    0    0    0    0 -0.00000000000E+00 -0.00000000000E+00 -0.45593999997E+02  0.45594000000E+02  0.51100000000E-03 0. -1.
    9900012    2    1    2    0    0 -0.98253616091E+00 -0.55721752331E+00 -0.34249057663E+00  0.90007674422E+02  0.89999934924E+02 0.  0.
         12    1    1    2    0    0  0.98253616091E+00  0.55721752331E+00  0.34249057663E+00  0.11803255783E+01  0.00000000000E+00 0. -1.
         11    1    3    3    0    0 -0.92174222943E+01 -0.26511797975E+01 -0.67459742102E+01  0.11725945436E+02  0.51100000000E-03 0. -1.
        -11    1    3    3    0    0  0.22559227763E+02 -0.32898272302E+02  0.68198090476E+01  0.40468813591E+02  0.51100000000E-03 0.  1.
         12    1    3    3    0    0 -0.14324341630E+02  0.34992234577E+02 -0.41632541405E+00  0.37812915395E+02  0.00000000000E+00 0. -1.
</event>
<event>
 7    1  0.2148778E-015  0.9000771E+02  0.7816164E-02  0.1186339E+00
        -11   -1    0    0    0    0  0.00000000000E+00  0.00000000000E+00  0.45593999997E+02  0.45594000000E+02  0.51100000000E-03 0. -1.
         11   -1    0    0    0    0 -0.00000000000E+00 -0.00000000000E+00 -0.45593999997E+02  0.45594000000E+02  0.51100000000E-03 0.  1.
    9900012    2    1    2    0    0  0.93141565580E+00  0.40286554815E+00  0.60270727604E+00  0.90007706886E+02  0.89999967817E+02 0.  0.
         12    1    1    2    0    0 -0.93141565580E+00 -0.40286554815E+00 -0.60270727604E+00  0.11802931137E+01  0.00000000000E+00 0. -1.
         11    1    3    3    0    0 -0.68582254735E+01 -0.58726882539E+01 -0.51120758202E+01  0.10375791219E+02  0.51100000000E-03 0. -1.
        -11    1    3    3    0    0  0.18039475135E+00 -0.16592811662E+02 -0.31320723042E+02  0.35444909836E+02  0.51100000000E-03 0.  1.
         12    1    3    3    0    0  0.76092463779E+01  0.22868365464E+02  0.37035506138E+02  0.44187005831E+02  0.00000000000E+00 0. -1.
</event>
<event>
 7    1  0.2148778E-015  0.9000778E+02  0.7816164E-02  0.1186339E+00
        -11   -1    0    0    0    0  0.00000000000E+00  0.00000000000E+00  0.45593999997E+02  0.45594000000E+02  0.51100000000E-03 0. -1.
         11   -1    0    0    0    0 -0.00000000000E+00 -0.00000000000E+00 -0.45593999997E+02  0.45594000000E+02  0.51100000000E-03 0.  1.
    9900012    2    1    2    0    0 -0.66603574005E+00 -0.97421195749E+00 -0.15118099425E-01  0.90007779215E+02  0.90000041100E+02 0.  0.
         12    1    1    2    0    0  0.66603574005E+00  0.97421195749E+00  0.15118099425E-01  0.11802207853E+01  0.00000000000E+00 0. -1.
         11    1    3    3    0    0  0.14866466835E+01  0.99533976109E+01 -0.59058150167E+01  0.11668714309E+02  0.51100000000E-03 0. -1.
        -11    1    3    3    0    0 -0.74811742653E+01  0.31807057659E+02 -0.69376926407E+01  0.33403419956E+02  0.51100000000E-03 0.  1.
         12    1    3    3    0    0  0.53284918418E+01 -0.42734667228E+02  0.12828389558E+02  0.44935644949E+02  0.00000000000E+00 0. -1.
</event>
<event>
 8    1  0.2148778E-015  0.9000757E+02  0.7816164E-02  0.1186339E+00
        -11   -1    0    0    0    0  0.00000000000E+00  0.00000000000E+00  0.45593999997E+02  0.45594000000E+02  0.51100000000E-03 0.  1.
         11   -1    0    0    0    0 -0.00000000000E+00 -0.00000000000E+00 -0.45593999997E+02  0.45594000000E+02  0.51100000000E-03 0. -1.
    9900012    2    1    2    0    0 -0.97303352087E+00  0.24398184605E+00 -0.62216816089E+00  0.90007570165E+02  0.89999829291E+02 0.  0.
         23    2    3    3    0    0  0.39125311218E+01  0.20555340817E+02  0.15814678971E+02  0.63425809713E+02  0.57748587264E+02 0.  0.
         12    1    1    2    0    0  0.97303352087E+00 -0.24398184605E+00  0.62216816089E+00  0.11804298346E+01  0.00000000000E+00 0. -1.
         11    1    4    4    0    0  0.17701765352E+02  0.17865891726E+02 -0.15193514567E+02  0.29383421668E+02  0.51100000000E-03 0. -1.
        -11    1    4    4    0    0 -0.13789234230E+02  0.26894490913E+01  0.31008193538E+02  0.34042388045E+02  0.51100000000E-03 0.  1.
         12    1    3    3    0    0 -0.48855646427E+01 -0.20311358971E+02 -0.16436847131E+02  0.26581760452E+02  0.00000000000E+00 0. -1.
</event>
<event>
 7    1  0.2148778E-015  0.9000774E+02  0.7816164E-02  0.1186339E+00
        -11   -1    0    0    0    0  0.00000000000E+00  0.00000000000E+00  0.45593999997E+02  0.45594000000E+02  0.51100000000E-03 0. -1.
         11   -1    0    0    0    0 -0.00000000000E+00 -0.00000000000E+00 -0.45593999997E+02  0.45594000000E+02  0.51100000000E-03 0.  1.
    9900012    2    1    2    0    0 -0.73914531711E+00 -0.89914424449E+00  0.19549172260E+00  0.90007740204E+02  0.90000001575E+02 0.  0.
         12    1    1    2    0    0  0.73914531711E+00  0.89914424449E+00 -0.19549172260E+00  0.11802597959E+01  0.00000000000E+00 0. -1.
         11    1    3    3    0    0 -0.60360009416E+01 -0.76081766651E+01  0.11728926247E+01  0.97822971180E+01  0.51100000000E-03 0. -1.
        -11    1    3    3    0    0  0.34532646167E+02  0.16566302316E+02  0.19714134287E+02  0.43076595904E+02  0.51100000000E-03 0.  1.
         12    1    3    3    0    0 -0.29235790543E+02 -0.98572698950E+01 -0.20691535190E+02  0.37148847182E+02  0.00000000000E+00 0. -1.
</event>
<event>
 7    1  0.2148778E-015  0.9000770E+02  0.7816164E-02  0.1186339E+00
        -11   -1    0    0    0    0  0.00000000000E+00  0.00000000000E+00  0.45593999997E+02  0.45594000000E+02  0.51100000000E-03 0. -1.
         11   -1    0    0    0    0 -0.00000000000E+00 -0.00000000000E+00 -0.45593999997E+02  0.45594000000E+02  0.51100000000E-03 0.  1.
    9900012    2    1    2    0    0  0.31888252276E+00 -0.95907907656E+00 -0.60958610314E+00  0.90007697515E+02  0.89999958322E+02 0.  0.
         12    1    1    2    0    0 -0.31888252276E+00  0.95907907656E+00  0.60958610314E+00  0.11803024848E+01  0.00000000000E+00 0. -1.
         11    1    3    3    0    0  0.66015248118E+01  0.68751359623E+01 -0.14467991481E+02  0.17325426462E+02  0.51100000000E-03 0. -1.
        -11    1    3    3    0    0  0.27895808928E+01  0.60887026628E+01 -0.27398067927E+02  0.28204754707E+02  0.51100000000E-03 0.  1.
         12    1    3    3    0    0 -0.90722231819E+01 -0.13922917702E+02  0.41256473305E+02  0.44477516346E+02  0.00000000000E+00 0. -1.
</event>
<event>
 7    1  0.2148778E-015  0.9000777E+02  0.7816164E-02  0.1186339E+00
        -11   -1    0    0    0    0  0.00000000000E+00  0.00000000000E+00  0.45593999997E+02  0.45594000000E+02  0.51100000000E-03 0.  1.
         11   -1    0    0    0    0 -0.00000000000E+00 -0.00000000000E+00 -0.45593999997E+02  0.45594000000E+02  0.51100000000E-03 0. -1.
    9900012    2    1    2    0    0  0.10162848211E+01  0.25334532633E+00  0.54398609756E+00  0.90007771392E+02  0.90000033175E+02 0.  0.
         12    1    1    2    0    0 -0.10162848211E+01 -0.25334532633E+00 -0.54398609756E+00  0.11802286076E+01  0.00000000000E+00 0. -1.
         11    1    3    3    0    0  0.51591576181E+01 -0.84425972632E+01  0.15723207588E+01  0.10018310671E+02  0.51100000000E-03 0. -1.
        -11    1    3    3    0    0  0.97061666001E+01 -0.31812029321E+02  0.11812493305E+02  0.35295182078E+02  0.51100000000E-03 0.  1.
         12    1    3    3    0    0 -0.13849039397E+02  0.40507971911E+02 -0.12840827966E+02  0.44694278643E+02  0.00000000000E+00 0. -1.
</event>
<event>
 7    1  0.2148778E-015  0.9000764E+02  0.7816164E-02  0.1186339E+00
        -11   -1    0    0    0    0  0.00000000000E+00  0.00000000000E+00  0.45593999997E+02  0.45594000000E+02  0.51100000000E-03 0.  1.
         11   -1    0    0    0    0 -0.00000000000E+00 -0.00000000000E+00 -0.45593999997E+02  0.45594000000E+02  0.51100000000E-03 0. -1.
    9900012    2    1    2    0    0  0.41387819439E+00 -0.86734582740E+00  0.68531708886E+00  0.90007642657E+02  0.89999902740E+02 0.  0.
         12    1    1    2    0    0 -0.41387819439E+00  0.86734582740E+00 -0.68531708886E+00  0.11803573427E+01  0.00000000000E+00 0. -1.
         11    1    3    3    0    0 -0.39978785770E+01  0.11335966862E+02  0.11479673765E+01  0.12074974417E+02  0.51100000000E-03 0. -1.
        -11    1    3    3    0    0 -0.81247112322E+01 -0.11896370674E+02  0.36319145798E+02  0.39071919834E+02  0.51100000000E-03 0.  1.
         12    1    3    3    0    0  0.12536468004E+02 -0.30694201573E+00 -0.36781796085E+02  0.38860748406E+02  0.00000000000E+00 0. -1.
</event>
<event>
 7    1  0.2337359E-015  0.9000774E+02  0.7816164E-02  0.1186339E+00
        -11   -1    0    0    0    0  0.00000000000E+00  0.00000000000E+00  0.45593999997E+02  0.45594000000E+02  0.51100000000E-03 0. -1.
         11   -1    0    0    0    0 -0.00000000000E+00 -0.00000000000E+00 -0.45593999997E+02  0.45594000000E+02  0.51100000000E-03 0.  1.
    9900012    2    1    2    0    0  0.77655745274E+00  0.87386759873E+00  0.16228417558E+00  0.90007736381E+02  0.89999997701E+02 0.  0.
         12    1    1    2    0    0 -0.77655745274E+00 -0.87386759873E+00 -0.16228417558E+00  0.11802636194E+01  0.00000000000E+00 0. -1.
         11    1    3    3    0    0  0.30405558620E+01  0.88938560662E+01 -0.19759021700E+01  0.96046783039E+01  0.51100000000E-03 0. -1.
        -11    1    3    3    0    0  0.35246356752E+02 -0.20450569590E+02 -0.10034164400E+01  0.40761971317E+02  0.51100000000E-03 0.  1.
         12    1    3    3    0    0 -0.37510355162E+02  0.12430581123E+02  0.31416027856E+01  0.39641086759E+02  0.00000000000E+00 0. -1.
</event>
<event>
 7    1  0.2225081E-015  0.9000767E+02  0.7816164E-02  0.1186339E+00
        -11   -1    0    0    0    0  0.00000000000E+00  0.00000000000E+00  0.45593999997E+02  0.45594000000E+02  0.51100000000E-03 0. -1.
         11   -1    0    0    0    0 -0.00000000000E+00 -0.00000000000E+00 -0.45593999997E+02  0.45594000000E+02  0.51100000000E-03 0.  1.
    9900012    2    1    2    0    0 -0.17205280824E+00 -0.11590761951E+01  0.14187516261E+00  0.90007665998E+02  0.89999926389E+02 0.  0.
         12    1    1    2    0    0  0.17205280824E+00  0.11590761951E+01 -0.14187516261E+00  0.11803340022E+01  0.00000000000E+00 0. -1.
         11    1    3    3    0    0 -0.74275236575E+01 -0.14764048923E+01  0.53800526830E+01  0.92893942871E+01  0.51100000000E-03 0. -1.
        -11    1    3    3    0    0 -0.92711327208E+01 -0.25557053958E+02 -0.30573373499E+02  0.40912688451E+02  0.51100000000E-03 0.  1.
         12    1    3    3    0    0  0.16526603570E+02  0.25874382655E+02  0.25335195979E+02  0.39805583259E+02  0.00000000000E+00 0. -1.
</event>
<event>
 7    1  0.2148778E-015  0.9000773E+02  0.7816164E-02  0.1186339E+00
        -11   -1    0    0    0    0  0.00000000000E+00  0.00000000000E+00  0.45593999997E+02  0.45594000000E+02  0.51100000000E-03 0.  1.
         11   -1    0    0    0    0 -0.00000000000E+00 -0.00000000000E+00 -0.45593999997E+02  0.45594000000E+02  0.51100000000E-03 0. -1.
    9900012    2    1    2    0    0  0.44535885916E+00 -0.10680646185E+01 -0.23223918520E+00  0.90007728175E+02  0.89999989387E+02 0.  0.
         12    1    1    2    0    0 -0.44535885916E+00  0.10680646185E+01  0.23223918520E+00  0.11802718254E+01  0.00000000000E+00 0. -1.
         11    1    3    3    0    0  0.15393042497E+02  0.14919053469E+02  0.17220194080E+02  0.27496527020E+02  0.51100000000E-03 0. -1.
        -11    1    3    3    0    0 -0.25500730952E+02 -0.17099502794E+02  0.10629657521E+02  0.32491074069E+02  0.51100000000E-03 0.  1.
         12    1    3    3    0    0  0.10553047314E+02  0.11123847065E+01 -0.28082090786E+02  0.30020127086E+02  0.00000000000E+00 0. -1.
</event>
<event>
 7    1  0.2148778E-015  0.9000771E+02  0.7816164E-02  0.1186339E+00
        -11   -1    0    0    0    0  0.00000000000E+00  0.00000000000E+00  0.45593999997E+02  0.45594000000E+02  0.51100000000E-03 0.  1.
         11   -1    0    0    0    0 -0.00000000000E+00 -0.00000000000E+00 -0.45593999997E+02  0.45594000000E+02  0.51100000000E-03 0. -1.
    9900012    2    1    2    0    0  0.29003461334E+00 -0.26783875622E+00  0.11123058461E+01  0.90007711064E+02  0.89999972050E+02 0.  0.
         12    1    1    2    0    0 -0.29003461334E+00  0.26783875622E+00 -0.11123058461E+01  0.11802889356E+01  0.00000000000E+00 0. -1.
         11    1    3    3    0    0  0.33690671408E+02  0.74746448176E+01 -0.13166901808E+02  0.36936417782E+02  0.51100000000E-03 0. -1.
        -11    1    3    3    0    0  0.13334451186E+01 -0.36810287318E+01 -0.98396067135E+01  0.10589896550E+02  0.51100000000E-03 0.  1.
        -12    1    3    3    0    0 -0.34734081913E+02 -0.40614548420E+01  0.24118814368E+02  0.42481396732E+02  0.00000000000E+00 0.  1.
</event>
<event>
 7    1  0.2148778E-015  0.9000774E+02  0.7816164E-02  0.1186339E+00
        -11   -1    0    0    0    0  0.00000000000E+00  0.00000000000E+00  0.45593999997E+02  0.45594000000E+02  0.51100000000E-03 0. -1.
         11   -1    0    0    0    0 -0.00000000000E+00 -0.00000000000E+00 -0.45593999997E+02  0.45594000000E+02  0.51100000000E-03 0.  1.
    9900012    2    1    2    0    0  0.35546943521E+00 -0.60477382546E+00 -0.94915816149E+00  0.90007741081E+02  0.90000002464E+02 0.  0.
         12    1    1    2    0    0 -0.35546943521E+00  0.60477382546E+00  0.94915816149E+00  0.11802589186E+01  0.00000000000E+00 0. -1.
         11    1    3    3    0    0 -0.26949193846E+02  0.93687028839E+01  0.29804632722E+02  0.41259517382E+02  0.51100000000E-03 0. -1.
        -11    1    3    3    0    0  0.83966319000E+01  0.33974066934E+01  0.13558111051E+01  0.91588221687E+01  0.51100000000E-03 0.  1.
        -12    1    3    3    0    0  0.18908031381E+02 -0.13370883403E+02 -0.32109601989E+02  0.39589401530E+02  0.00000000000E+00 0.  1.
</event>
<event>
 7    1  0.2148778E-015  0.9000764E+02  0.7816164E-02  0.1186339E+00
        -11   -1    0    0    0    0  0.00000000000E+00  0.00000000000E+00  0.45593999997E+02  0.45594000000E+02  0.51100000000E-03 0.  1.
         11   -1    0    0    0    0 -0.00000000000E+00 -0.00000000000E+00 -0.45593999997E+02  0.45594000000E+02  0.51100000000E-03 0. -1.
    9900012    2    1    2    0    0 -0.81580075437E+00  0.84551401265E+00 -0.11321444177E+00  0.90007643136E+02  0.89999903225E+02 0.  0.
         12    1    1    2    0    0  0.81580075437E+00 -0.84551401265E+00  0.11321444177E+00  0.11803568639E+01  0.00000000000E+00 0. -1.
         11    1    3    3    0    0  0.23020376045E+01 -0.23583268604E+01 -0.74887355911E+01  0.81818239853E+01  0.51100000000E-03 0. -1.
        -11    1    3    3    0    0 -0.13073279446E+02  0.40378662676E+02  0.86721595027E+01  0.43319203429E+02  0.51100000000E-03 0.  1.
         12    1    3    3    0    0  0.99554410873E+01 -0.37174821803E+02 -0.12966383534E+01  0.38506615722E+02  0.00000000000E+00 0. -1.
</event>
<event>
 7    1  0.2148778E-015  0.9000778E+02  0.7816164E-02  0.1186339E+00
        -11   -1    0    0    0    0  0.00000000000E+00  0.00000000000E+00  0.45593999997E+02  0.45594000000E+02  0.51100000000E-03 0. -1.
         11   -1    0    0    0    0 -0.00000000000E+00 -0.00000000000E+00 -0.45593999997E+02  0.45594000000E+02  0.51100000000E-03 0.  1.
    9900012    2    1    2    0    0 -0.79569811770E+00  0.86836208861E+00  0.75769414711E-01  0.90007775777E+02  0.90000037618E+02 0.  0.
         12    1    1    2    0    0  0.79569811770E+00 -0.86836208861E+00 -0.75769414711E-01  0.11802242226E+01  0.00000000000E+00 0. -1.
         11    1    3    3    0    0  0.21853013202E+02 -0.31125075483E+02 -0.10810614011E+02  0.39537246811E+02  0.51100000000E-03 0. -1.
        -11    1    3    3    0    0 -0.38214013109E+01  0.22924947819E+01 -0.90206334994E+01  0.10061335363E+02  0.51100000000E-03 0.  1.
        -12    1    3    3    0    0 -0.18827310008E+02  0.29700942790E+02  0.19907016925E+02  0.40409193603E+02  0.00000000000E+00 0.  1.
</event>
<event>
 7    1  0.2148778E-015  0.9000776E+02  0.7816164E-02  0.1186339E+00
        -11   -1    0    0    0    0  0.00000000000E+00  0.00000000000E+00  0.45593999997E+02  0.45594000000E+02  0.51100000000E-03 0.  1.
         11   -1    0    0    0    0 -0.00000000000E+00 -0.00000000000E+00 -0.45593999997E+02  0.45594000000E+02  0.51100000000E-03 0. -1.
    9900012    2    1    2    0    0 -0.24833827276E+00  0.94374119667E+00 -0.66380857732E+00  0.90007762239E+02  0.90000023901E+02 0.  0.
         12    1    1    2    0    0  0.24833827276E+00 -0.94374119667E+00  0.66380857732E+00  0.11802377605E+01  0.00000000000E+00 0. -1.
         11    1    3    3    0    0 -0.66258399507E+01 -0.22410678833E+02 -0.28036780937E+02  0.36499333780E+02  0.51100000000E-03 0. -1.
        -11    1    3    3    0    0  0.12368139401E+01 -0.35990144654E+01 -0.79299853497E+01  0.87958673110E+01  0.51100000000E-03 0.  1.
        -12    1    3    3    0    0  0.51406877379E+01  0.26953434495E+02  0.35302957709E+02  0.44712561149E+02  0.00000000000E+00 0.  1.
</event>
<event>
 7    1  0.2148778E-015  0.9000781E+02  0.7816164E-02  0.1186339E+00
        -11   -1    0    0    0    0  0.00000000000E+00  0.00000000000E+00  0.45593999997E+02  0.45594000000E+02  0.51100000000E-03 0.  1.
         11   -1    0    0    0    0 -0.00000000000E+00 -0.00000000000E+00 -0.45593999997E+02  0.45594000000E+02  0.51100000000E-03 0. -1.
    9900012    2    1    2    0    0 -0.23589836935E-01 -0.11308171032E+01  0.33698117397E+00  0.90007805053E+02  0.90000067280E+02 0.  0.
         12    1    1    2    0    0  0.23589836935E-01  0.11308171032E+01 -0.33698117397E+00  0.11801949470E+01  0.00000000000E+00 0. -1.
         11    1    3    3    0    0  0.19135590050E+02 -0.30370981566E+02 -0.11084013259E+02  0.37568905734E+02  0.51100000000E-03 0. -1.
        -11    1    3    3    0    0 -0.35830786587E+01 -0.86507025553E+01 -0.14985642552E+01  0.94825525288E+01  0.51100000000E-03 0.  1.
        -12    1    3    3    0    0 -0.15576101228E+02  0.37890867018E+02  0.12919558688E+02  0.42956346790E+02  0.00000000000E+00 0.  1.
</event>
<event>
 7    1  0.2148778E-015  0.9000773E+02  0.7816164E-02  0.1186339E+00
        -11   -1    0    0    0    0  0.00000000000E+00  0.00000000000E+00  0.45593999997E+02  0.45594000000E+02  0.51100000000E-03 0. -1.
         11   -1    0    0    0    0 -0.00000000000E+00 -0.00000000000E+00 -0.45593999997E+02  0.45594000000E+02  0.51100000000E-03 0.  1.
    9900012    2    1    2    0    0  0.10034259945E+00 -0.59327224803E+00 -0.10153828856E+01  0.90007727573E+02  0.89999988777E+02 0.  0.
         12    1    1    2    0    0 -0.10034259945E+00  0.59327224803E+00  0.10153828856E+01  0.11802724270E+01  0.00000000000E+00 0. -1.
         11    1    3    3    0    0  0.37734845277E+02  0.10658876219E+02 -0.11438788635E+02  0.40845759585E+02  0.51100000000E-03 0. -1.
        -11    1    3    3    0    0 -0.13908613415E+01  0.32763584341E+01  0.94550529005E+01  0.10102823639E+02  0.51100000000E-03 0.  1.
        -12    1    3    3    0    0 -0.36243641336E+02 -0.14528506901E+02  0.96835284857E+00  0.39059144350E+02  0.00000000000E+00 0.  1.
</event>
<event>
 7    1  0.2148778E-015  0.9000771E+02  0.7816164E-02  0.1186339E+00
        -11   -1    0    0    0    0  0.00000000000E+00  0.00000000000E+00  0.45593999997E+02  0.45594000000E+02  0.51100000000E-03 0. -1.
         11   -1    0    0    0    0 -0.00000000000E+00 -0.00000000000E+00 -0.45593999997E+02  0.45594000000E+02  0.51100000000E-03 0.  1.
    9900012    2    1    2    0    0 -0.31447790288E+00 -0.63527469013E+00 -0.94372001337E+00  0.90007712854E+02  0.89999973864E+02 0.  0.
         12    1    1    2    0    0  0.31447790288E+00  0.63527469013E+00  0.94372001337E+00  0.11802871460E+01  0.00000000000E+00 0. -1.
         11    1    3    3    0    0 -0.15177465482E+02 -0.37794039746E+02 -0.13611074527E+01  0.40750429599E+02  0.51100000000E-03 0. -1.
        -11    1    3    3    0    0 -0.64121430771E+01  0.28629446540E+01 -0.48812651473E+01  0.85521214112E+01  0.51100000000E-03 0.  1.
        -12    1    3    3    0    0  0.21275130656E+02  0.34295820402E+02  0.52986525867E+01  0.40705161843E+02  0.00000000000E+00 0.  1.
</event>
<event>
 7    1  0.2148778E-015  0.9000777E+02  0.7816164E-02  0.1186339E+00
        -11   -1    0    0    0    0  0.00000000000E+00  0.00000000000E+00  0.45593999997E+02  0.45594000000E+02  0.51100000000E-03 0.  1.
         11   -1    0    0    0    0 -0.00000000000E+00 -0.00000000000E+00 -0.45593999997E+02  0.45594000000E+02  0.51100000000E-03 0. -1.
    9900012    2    1    2    0    0 -0.30139615549E+00  0.10918093311E+01 -0.33175748237E+00  0.90007766851E+02  0.90000028574E+02 0.  0.
         12    1    1    2    0    0  0.30139615549E+00 -0.10918093311E+01  0.33175748237E+00  0.11802331486E+01  0.00000000000E+00 0. -1.
         11    1    3    3    0    0  0.72532113655E+01 -0.64342989837E+01  0.13919783288E+01  0.97952479526E+01  0.51100000000E-03 0. -1.
        -11    1    3    3    0    0  0.17011907586E+02 -0.30499225050E+02 -0.87241447598E+00  0.34933777861E+02  0.51100000000E-03 0.  1.
         12    1    3    3    0    0 -0.24566515107E+02  0.38025333365E+02 -0.85132133522E+00  0.45278741038E+02  0.00000000000E+00 0. -1.
</event>
<event>
 7    1  0.2444298E-015  0.9000778E+02  0.7816164E-02  0.1186339E+00
        -11   -1    0    0    0    0  0.00000000000E+00  0.00000000000E+00  0.45593999997E+02  0.45594000000E+02  0.51100000000E-03 0. -1.
         11   -1    0    0    0    0 -0.00000000000E+00 -0.00000000000E+00 -0.45593999997E+02  0.45594000000E+02  0.51100000000E-03 0.  1.
    9900012    2    1    2    0    0  0.84971475911E+00 -0.78557774210E+00 -0.23189654721E+00  0.90007778169E+02  0.90000040041E+02 0.  0.
         12    1    1    2    0    0 -0.84971475911E+00  0.78557774210E+00  0.23189654721E+00  0.11802218306E+01  0.00000000000E+00 0. -1.
         11    1    3    3    0    0 -0.97107960430E+01  0.96409102900E+00  0.69054178785E+00  0.97829381846E+01  0.51100000000E-03 0. -1.
        -11    1    3    3    0    0  0.19770275419E+02  0.22636191536E+02 -0.29103673420E+02  0.41836404771E+02  0.51100000000E-03 0.  1.
         12    1    3    3    0    0 -0.92097646165E+01 -0.24385860307E+02  0.28181235085E+02  0.38388435213E+02  0.00000000000E+00 0. -1.
</event>
<event>
 7    1  0.2148778E-015  0.9000755E+02  0.7816164E-02  0.1186339E+00
        -11   -1    0    0    0    0  0.00000000000E+00  0.00000000000E+00  0.45593999997E+02  0.45594000000E+02  0.51100000000E-03 0. -1.
         11   -1    0    0    0    0 -0.00000000000E+00 -0.00000000000E+00 -0.45593999997E+02  0.45594000000E+02  0.51100000000E-03 0.  1.
    9900012    2    1    2    0    0  0.37042157198E+00  0.78027348728E+00 -0.80462673449E+00  0.90007549646E+02  0.89999808501E+02 0.  0.
         12    1    1    2    0    0 -0.37042157198E+00 -0.78027348728E+00  0.80462673449E+00  0.11804503538E+01  0.00000000000E+00 0. -1.
         11    1    3    3    0    0  0.13752638755E+01 -0.46486984539E-01  0.90207881340E+01  0.91251372914E+01  0.51100000000E-03 0. -1.
        -11    1    3    3    0    0  0.21152600827E+02 -0.31354964937E+02  0.67844919388E+01  0.38426497096E+02  0.51100000000E-03 0.  1.
         12    1    3    3    0    0 -0.22157443130E+02  0.32181725408E+02 -0.16609906807E+02  0.42455915259E+02  0.00000000000E+00 0. -1.
</event>
<event>
 7    1  0.2148778E-015  0.9000775E+02  0.7816164E-02  0.1186339E+00
        -11   -1    0    0    0    0  0.00000000000E+00  0.00000000000E+00  0.45593999997E+02  0.45594000000E+02  0.51100000000E-03 0.  1.
         11   -1    0    0    0    0 -0.00000000000E+00 -0.00000000000E+00 -0.45593999997E+02  0.45594000000E+02  0.51100000000E-03 0. -1.
    9900012    2    1    2    0    0 -0.10494491591E+01  0.46421273793E+00  0.27593833554E+00  0.90007754700E+02  0.90000016262E+02 0.  0.
         12    1    1    2    0    0  0.10494491591E+01 -0.46421273793E+00 -0.27593833554E+00  0.11802453002E+01  0.00000000000E+00 0. -1.
         11    1    3    3    0    0  0.93670523359E+01  0.11725702536E+01 -0.27433673862E+01  0.98306996363E+01  0.51100000000E-03 0. -1.
        -11    1    3    3    0    0  0.21993743857E+02  0.19277463500E+02  0.22971609859E+02  0.37189248818E+02  0.51100000000E-03 0.  1.
         12    1    3    3    0    0 -0.32410245352E+02 -0.19985821016E+02 -0.19952304138E+02  0.42987806246E+02  0.00000000000E+00 0. -1.
</event>
<event>
 7    1  0.2148778E-015  0.9000803E+02  0.7816164E-02  0.1186338E+00
        -11   -1    0    0    0    0  0.00000000000E+00  0.00000000000E+00  0.45593999997E+02  0.45594000000E+02  0.51100000000E-03 0. -1.
         11   -1    0    0    0    0 -0.00000000000E+00 -0.00000000000E+00 -0.45593999997E+02  0.45594000000E+02  0.51100000000E-03 0.  1.
    9900012    2    1    2    0    0  0.80866354228E+00 -0.65178872330E+00  0.55997333574E+00  0.90008027373E+02  0.90000292534E+02 0.  0.
         12    1    1    2    0    0 -0.80866354228E+00  0.65178872330E+00 -0.55997333574E+00  0.11799726273E+01  0.00000000000E+00 0. -1.
         11    1    3    3    0    0 -0.53472799335E+01 -0.33790901520E+01 -0.10493264169E+01  0.64119216412E+01  0.51100000000E-03 0. -1.
        -11    1    3    3    0    0  0.34438934815E+02 -0.11428665639E+02 -0.23484689780E+02  0.43222508995E+02  0.51100000000E-03 0.  1.
         12    1    3    3    0    0 -0.28282991340E+02  0.14155967068E+02  0.25093989533E+02  0.40373596736E+02  0.00000000000E+00 0. -1.
</event>
<event>
 7    1  0.2148778E-015  0.9000765E+02  0.7816164E-02  0.1186339E+00
        -11   -1    0    0    0    0  0.00000000000E+00  0.00000000000E+00  0.45593999997E+02  0.45594000000E+02  0.51100000000E-03 0.  1.
         11   -1    0    0    0    0 -0.00000000000E+00 -0.00000000000E+00 -0.45593999997E+02  0.45594000000E+02  0.51100000000E-03 0. -1.
    9900012    2    1    2    0    0  0.29272792718E+00 -0.97603834150E+00  0.59572712748E+00  0.90007647809E+02  0.89999907960E+02 0.  0.
         12    1    1    2    0    0 -0.29272792718E+00  0.97603834150E+00 -0.59572712748E+00  0.11803521906E+01  0.00000000000E+00 0. -1.
         11    1    3    3    0    0 -0.22024270939E+01  0.75312611721E+01  0.44794191571E+01  0.90352518610E+01  0.51100000000E-03 0. -1.
        -11    1    3    3    0    0 -0.37703827015E+02  0.55747141762E+01  0.79533321138E+00  0.38122022047E+02  0.51100000000E-03 0.  1.
         12    1    3    3    0    0  0.40198982036E+02 -0.14082013690E+02 -0.46790252410E+01  0.42850373902E+02  0.00000000000E+00 0. -1.
</event>
<event>
 7    1  0.2148778E-015  0.9000799E+02  0.7816164E-02  0.1186339E+00
        -11   -1    0    0    0    0  0.00000000000E+00  0.00000000000E+00  0.45593999997E+02  0.45594000000E+02  0.51100000000E-03 0. -1.
         11   -1    0    0    0    0 -0.00000000000E+00 -0.00000000000E+00 -0.45593999997E+02  0.45594000000E+02  0.51100000000E-03 0.  1.
    9900012    2    1    2    0    0 -0.35803021924E-01 -0.11539562965E+01  0.24399526888E+00  0.90007986999E+02  0.90000251627E+02 0.  0.
         12    1    1    2    0    0  0.35803021924E-01  0.11539562965E+01 -0.24399526888E+00  0.11800130007E+01  0.00000000000E+00 0. -1.
         11    1    3    3    0    0  0.36653147091E+02  0.13337913810E+02  0.54119691974E+01  0.39378198884E+02  0.51100000000E-03 0. -1.
        -11    1    3    3    0    0  0.27696459545E+01  0.19778375826E+00 -0.79626519673E+01  0.84329048223E+01  0.51100000000E-03 0.  1.
        -12    1    3    3    0    0 -0.39458596068E+02 -0.14689653865E+02  0.27946780387E+01  0.42196883293E+02  0.00000000000E+00 0.  1.
</event>
<event>
 7    1  0.2148778E-015  0.9000794E+02  0.7816164E-02  0.1186339E+00
        -11   -1    0    0    0    0  0.00000000000E+00  0.00000000000E+00  0.45593999997E+02  0.45594000000E+02  0.51100000000E-03 0.  1.
         11   -1    0    0    0    0 -0.00000000000E+00 -0.00000000000E+00 -0.45593999997E+02  0.45594000000E+02  0.51100000000E-03 0. -1.
    9900012    2    1    2    0    0 -0.21136449498E+00 -0.23163669172E+00  0.11376390604E+01  0.90007935113E+02  0.90000199056E+02 0.  0.
         12    1    1    2    0    0  0.21136449498E+00  0.23163669172E+00 -0.11376390604E+01  0.11800648874E+01  0.00000000000E+00 0. -1.
         11    1    3    3    0    0 -0.18138884370E+02 -0.11256225615E+01 -0.29861049975E+02  0.34956665433E+02  0.51100000000E-03 0. -1.
        -11    1    3    3    0    0 -0.79047126204E+01 -0.12819713145E+02  0.48581011246E+01  0.15825001533E+02  0.51100000000E-03 0.  1.
        -12    1    3    3    0    0  0.25832232495E+02  0.13713699015E+02  0.26140587911E+02  0.39226268146E+02  0.00000000000E+00 0.  1.
</event>
<event>
 7    1  0.2148778E-015  0.9000775E+02  0.7816164E-02  0.1186339E+00
        -11   -1    0    0    0    0  0.00000000000E+00  0.00000000000E+00  0.45593999997E+02  0.45594000000E+02  0.51100000000E-03 0.  1.
         11   -1    0    0    0    0 -0.00000000000E+00 -0.00000000000E+00 -0.45593999997E+02  0.45594000000E+02  0.51100000000E-03 0. -1.
    9900012    2    1    2    0    0 -0.13108540845E+00 -0.31242111855E+00  0.11305701553E+01  0.90007754595E+02  0.90000016156E+02 0.  0.
         12    1    1    2    0    0  0.13108540845E+00  0.31242111855E+00 -0.11305701553E+01  0.11802454049E+01  0.00000000000E+00 0. -1.
         11    1    3    3    0    0 -0.37931753961E+01  0.55947057466E+01 -0.61190859367E+01  0.91176819937E+01  0.51100000000E-03 0. -1.
        -11    1    3    3    0    0 -0.16158900972E+02  0.33065787967E+02  0.45499719890E+01  0.37083131743E+02  0.51100000000E-03 0.  1.
         12    1    3    3    0    0  0.19820990960E+02 -0.38972914832E+02  0.26996841030E+01  0.43806940859E+02  0.00000000000E+00 0. -1.
</event>
<event>
 7    1  0.2148778E-015  0.9000771E+02  0.7816164E-02  0.1186339E+00
        -11   -1    0    0    0    0  0.00000000000E+00  0.00000000000E+00  0.45593999997E+02  0.45594000000E+02  0.51100000000E-03 0.  1.
         11   -1    0    0    0    0 -0.00000000000E+00 -0.00000000000E+00 -0.45593999997E+02  0.45594000000E+02  0.51100000000E-03 0. -1.
    9900012    2    1    2    0    0  0.48970772829E+00 -0.51549808294E+00  0.94208427374E+00  0.90007714140E+02  0.89999975167E+02 0.  0.
         12    1    1    2    0    0 -0.48970772829E+00  0.51549808294E+00 -0.94208427374E+00  0.11802858601E+01  0.00000000000E+00 0. -1.
         11    1    3    3    0    0  0.19144301043E+02 -0.17789804731E+02 -0.29740701959E+02  0.39591549200E+02  0.51100000000E-03 0. -1.
        -11    1    3    3    0    0 -0.81731162484E+01 -0.43570180298E+01 -0.23576615388E+01  0.95573010581E+01  0.51100000000E-03 0.  1.
        -12    1    3    3    0    0 -0.10481477066E+02  0.21631324678E+02  0.33040447771E+02  0.40858863882E+02  0.00000000000E+00 0.  1.
</event>
<event>
 7    1  0.2148778E-015  0.9000856E+02  0.7816164E-02  0.1186337E+00
        -11   -1    0    0    0    0  0.00000000000E+00  0.00000000000E+00  0.45593999997E+02  0.45594000000E+02  0.51100000000E-03 0. -1.
         11   -1    0    0    0    0 -0.00000000000E+00 -0.00000000000E+00 -0.45593999997E+02  0.45594000000E+02  0.51100000000E-03 0.  1.
    9900012    2    1    2    0    0  0.56925813996E+00 -0.56477314383E+00 -0.86490814015E+00  0.90008555374E+02  0.90000827502E+02 0.  0.
         12    1    1    2    0    0 -0.56925813996E+00  0.56477314383E+00  0.86490814015E+00  0.11794446256E+01  0.00000000000E+00 0. -1.
         11    1    3    3    0    0 -0.55327932843E+01 -0.17144844770E+01  0.61261388130E+01  0.84309451170E+01  0.51100000000E-03 0. -1.
        -11    1    3    3    0    0 -0.27707024738E+02  0.22287334460E+02 -0.18491617013E+02  0.40079226504E+02  0.51100000000E-03 0.  1.
         12    1    3    3    0    0  0.33809076162E+02 -0.21137623127E+02  0.11500570060E+02  0.41498383753E+02  0.00000000000E+00 0. -1.
</event>
<event>
 7    1  0.2148778E-015  0.9000796E+02  0.7816164E-02  0.1186339E+00
        -11   -1    0    0    0    0  0.00000000000E+00  0.00000000000E+00  0.45593999997E+02  0.45594000000E+02  0.51100000000E-03 0.  1.
         11   -1    0    0    0    0 -0.00000000000E+00 -0.00000000000E+00 -0.45593999997E+02  0.45594000000E+02  0.51100000000E-03 0. -1.
    9900012    2    1    2    0    0  0.96199390606E+00  0.40101179469E+00  0.55339218232E+00  0.90007963711E+02  0.90000228032E+02 0.  0.
         12    1    1    2    0    0 -0.96199390606E+00 -0.40101179469E+00 -0.55339218232E+00  0.11800362885E+01  0.00000000000E+00 0. -1.
         11    1    3    3    0    0  0.75437569198E+01  0.56163152797E+00  0.12044870052E+01  0.76599273916E+01  0.51100000000E-03 0. -1.
        -11    1    3    3    0    0 -0.20380784738E+02  0.10012951212E+02  0.35612548988E+02  0.42236112797E+02  0.51100000000E-03 0.  1.
         12    1    3    3    0    0  0.13799021724E+02 -0.10173570945E+02 -0.36263643810E+02  0.40111923523E+02  0.00000000000E+00 0. -1.
</event>
<event>
 7    1  0.2148778E-015  0.9000775E+02  0.7816164E-02  0.1186339E+00
        -11   -1    0    0    0    0  0.00000000000E+00  0.00000000000E+00  0.45593999997E+02  0.45594000000E+02  0.51100000000E-03 0.  1.
         11   -1    0    0    0    0 -0.00000000000E+00 -0.00000000000E+00 -0.45593999997E+02  0.45594000000E+02  0.51100000000E-03 0. -1.
    9900012    2    1    2    0    0  0.98449273428E+00  0.54441190338E-01  0.64868434234E+00  0.90007753770E+02  0.90000015320E+02 0.  0.
         12    1    1    2    0    0 -0.98449273428E+00 -0.54441190338E-01 -0.64868434234E+00  0.11802462298E+01  0.00000000000E+00 0. -1.
         11    1    3    3    0    0  0.61455374652E+01 -0.24766970179E+01 -0.35590703348E+02  0.36202207446E+02  0.51100000000E-03 0. -1.
        -11    1    3    3    0    0  0.95321949653E+00 -0.68501038913E+01 -0.65800163929E+01  0.95461597893E+01  0.51100000000E-03 0.  1.
        -12    1    3    3    0    0 -0.61142642274E+01  0.93812420995E+01  0.42819404084E+02  0.44259386535E+02  0.00000000000E+00 0.  1.
</event>
<event>
 7    1  0.2148778E-015  0.9000774E+02  0.7816164E-02  0.1186339E+00
        -11   -1    0    0    0    0  0.00000000000E+00  0.00000000000E+00  0.45593999997E+02  0.45594000000E+02  0.51100000000E-03 0.  1.
         11   -1    0    0    0    0 -0.00000000000E+00 -0.00000000000E+00 -0.45593999997E+02  0.45594000000E+02  0.51100000000E-03 0. -1.
    9900012    2    1    2    0    0 -0.70284487555E+00 -0.64789167097E+00 -0.69228896286E+00  0.90007737934E+02  0.89999999275E+02 0.  0.
         12    1    1    2    0    0  0.70284487555E+00  0.64789167097E+00  0.69228896286E+00  0.11802620660E+01  0.00000000000E+00 0. -1.
         11    1    3    3    0    0 -0.18053760388E+02 -0.36559752110E+02  0.12544458960E+02  0.42660487448E+02  0.51100000000E-03 0. -1.
        -11    1    3    3    0    0 -0.42057052802E+01  0.13853054812E+02 -0.25164371539E+01  0.14694473136E+02  0.51100000000E-03 0.  1.
        -12    1    3    3    0    0  0.21556620792E+02  0.22058805627E+02 -0.10720310769E+02  0.32652777350E+02  0.00000000000E+00 0.  1.
</event>
<event>
 7    1  0.2148778E-015  0.9000775E+02  0.7816164E-02  0.1186339E+00
        -11   -1    0    0    0    0  0.00000000000E+00  0.00000000000E+00  0.45593999997E+02  0.45594000000E+02  0.51100000000E-03 0.  1.
         11   -1    0    0    0    0 -0.00000000000E+00 -0.00000000000E+00 -0.45593999997E+02  0.45594000000E+02  0.51100000000E-03 0. -1.
    9900012    2    1    2    0    0  0.15821780771E+00 -0.95484982897E+00 -0.67543176291E+00  0.90007754629E+02  0.90000016190E+02 0.  0.
         12    1    1    2    0    0 -0.15821780771E+00  0.95484982897E+00  0.67543176291E+00  0.11802453715E+01  0.00000000000E+00 0. -1.
         11    1    3    3    0    0 -0.30013087819E+01 -0.83613027983E+01 -0.14959310930E+01  0.90087207186E+01  0.51100000000E-03 0. -1.
        -11    1    3    3    0    0  0.99615231820E+01 -0.12956205378E+01  0.39508348969E+02  0.40765429167E+02  0.51100000000E-03 0.  1.
         12    1    3    3    0    0 -0.68019965924E+01  0.87020735071E+01 -0.38687849638E+02  0.40233604743E+02  0.00000000000E+00 0. -1.
</event>
<event>
 7    1  0.2148778E-015  0.9000769E+02  0.7816164E-02  0.1186339E+00
        -11   -1    0    0    0    0  0.00000000000E+00  0.00000000000E+00  0.45593999997E+02  0.45594000000E+02  0.51100000000E-03 0. -1.
         11   -1    0    0    0    0 -0.00000000000E+00 -0.00000000000E+00 -0.45593999997E+02  0.45594000000E+02  0.51100000000E-03 0.  1.
    9900012    2    1    2    0    0  0.60280107812E+00 -0.90413088244E+00 -0.46077509104E+00  0.90007688398E+02  0.89999949085E+02 0.  0.
         12    1    1    2    0    0 -0.60280107812E+00  0.90413088244E+00  0.46077509104E+00  0.11803116016E+01  0.00000000000E+00 0. -1.
         11    1    3    3    0    0  0.20788041490E+01 -0.59306164271E+01 -0.83020424376E+01  0.10412374695E+02  0.51100000000E-03 0. -1.
        -11    1    3    3    0    0 -0.24252115893E+02 -0.28438718555E+02  0.11086111094E+02  0.38984967587E+02  0.51100000000E-03 0.  1.
         12    1    3    3    0    0  0.22776112822E+02  0.33465204100E+02 -0.32448437477E+01  0.40610346116E+02  0.00000000000E+00 0. -1.
</event>
<event>
 7    1  0.2148778E-015  0.9000748E+02  0.7816164E-02  0.1186340E+00
        -11   -1    0    0    0    0  0.00000000000E+00  0.00000000000E+00  0.45593999997E+02  0.45594000000E+02  0.51100000000E-03 0.  1.
         11   -1    0    0    0    0 -0.00000000000E+00 -0.00000000000E+00 -0.45593999997E+02  0.45594000000E+02  0.51100000000E-03 0. -1.
    9900012    2    1    2    0    0  0.10204796269E+01 -0.19810854335E+00  0.55946190129E+00  0.90007481774E+02  0.89999739733E+02 0.  0.
         12    1    1    2    0    0 -0.10204796269E+01  0.19810854335E+00 -0.55946190129E+00  0.11805182264E+01  0.00000000000E+00 0. -1.
         11    1    3    3    0    0  0.16164257982E+02 -0.26203023928E+02  0.42056204640E+01  0.31073605243E+02  0.51100000000E-03 0. -1.
        -11    1    3    3    0    0  0.61849156185E+01 -0.12979404181E+02 -0.53601740445E+00  0.14387683240E+02  0.51100000000E-03 0.  1.
        -12    1    3    3    0    0 -0.21328693974E+02  0.38984319565E+02 -0.31101411583E+01  0.44546193290E+02  0.00000000000E+00 0.  1.
</event>
<event>
 7    1  0.2148778E-015  0.9000766E+02  0.7816164E-02  0.1186339E+00
        -11   -1    0    0    0    0  0.00000000000E+00  0.00000000000E+00  0.45593999997E+02  0.45594000000E+02  0.51100000000E-03 0. -1.
         11   -1    0    0    0    0 -0.00000000000E+00 -0.00000000000E+00 -0.45593999997E+02  0.45594000000E+02  0.51100000000E-03 0.  1.
    9900012    2    1    2    0    0 -0.44801152168E+00  0.49986634754E+00 -0.97088881253E+00  0.90007658619E+02  0.89999918913E+02 0.  0.
         12    1    1    2    0    0  0.44801152168E+00 -0.49986634754E+00  0.97088881253E+00  0.11803413808E+01  0.00000000000E+00 0. -1.
         11    1    3    3    0    0 -0.41943449332E+01 -0.69902236883E+01  0.38347479284E+01  0.90089426997E+01  0.51100000000E-03 0. -1.
        -11    1    3    3    0    0  0.25367047706E+01 -0.28304806226E+02  0.22266751404E+02  0.36102702737E+02  0.51100000000E-03 0.  1.
         12    1    3    3    0    0  0.12096286409E+01  0.35794896262E+02 -0.27072388145E+02  0.44896013183E+02  0.00000000000E+00 0. -1.
</event>
<event>
 7    1  0.2148778E-015  0.9000774E+02  0.7816164E-02  0.1186339E+00
        -11   -1    0    0    0    0  0.00000000000E+00  0.00000000000E+00  0.45593999997E+02  0.45594000000E+02  0.51100000000E-03 0. -1.
         11   -1    0    0    0    0 -0.00000000000E+00 -0.00000000000E+00 -0.45593999997E+02  0.45594000000E+02  0.51100000000E-03 0.  1.
    9900012    2    1    2    0    0  0.93006126524E+00 -0.54290025045E+00 -0.48296742634E+00  0.90007740633E+02  0.90000002009E+02 0.  0.
         12    1    1    2    0    0 -0.93006126524E+00  0.54290025045E+00  0.48296742634E+00  0.11802593672E+01  0.00000000000E+00 0. -1.
         11    1    3    3    0    0  0.18541252409E+02 -0.13918982365E+02  0.29264541618E+02  0.37335365370E+02  0.51100000000E-03 0. -1.
        -11    1    3    3    0    0  0.28458758091E+01  0.26929969204E+01  0.77257915318E+01  0.86625109864E+01  0.51100000000E-03 0.  1.
        -12    1    3    3    0    0 -0.20457066953E+02  0.10683085194E+02 -0.37473300576E+02  0.44009864276E+02  0.00000000000E+00 0.  1.
</event>
<event>
 7    1  0.2148778E-015  0.9000774E+02  0.7816164E-02  0.1186339E+00
        -11   -1    0    0    0    0  0.00000000000E+00  0.00000000000E+00  0.45593999997E+02  0.45594000000E+02  0.51100000000E-03 0.  1.
         11   -1    0    0    0    0 -0.00000000000E+00 -0.00000000000E+00 -0.45593999997E+02  0.45594000000E+02  0.51100000000E-03 0. -1.
    9900012    2    1    2    0    0  0.10376593383E+01  0.51252707236E+00 -0.23150455303E+00  0.90007739325E+02  0.90000000684E+02 0.  0.
         12    1    1    2    0    0 -0.10376593383E+01 -0.51252707236E+00  0.23150455303E+00  0.11802606748E+01  0.00000000000E+00 0. -1.
         11    1    3    3    0    0  0.23235952332E+02 -0.20312373084E+02 -0.19480727858E+02  0.36496585309E+02  0.51100000000E-03 0. -1.
        -11    1    3    3    0    0 -0.68085126438E+01 -0.56896769466E+01 -0.84066671782E+01  0.12222942423E+02  0.51100000000E-03 0.  1.
        -12    1    3    3    0    0 -0.15389780350E+02  0.26514577103E+02  0.27655890483E+02  0.41288211593E+02  0.00000000000E+00 0.  1.
</event>
<event>
 7    1  0.2148778E-015  0.9000773E+02  0.7816164E-02  0.1186339E+00
        -11   -1    0    0    0    0  0.00000000000E+00  0.00000000000E+00  0.45593999997E+02  0.45594000000E+02  0.51100000000E-03 0.  1.
         11   -1    0    0    0    0 -0.00000000000E+00 -0.00000000000E+00 -0.45593999997E+02  0.45594000000E+02  0.51100000000E-03 0. -1.
    9900012    2    1    2    0    0  0.78479912797E+00 -0.65216268675E+00  0.59313302512E+00  0.90007731968E+02  0.89999993230E+02 0.  0.
         12    1    1    2    0    0 -0.78479912797E+00  0.65216268675E+00 -0.59313302512E+00  0.11802680317E+01  0.00000000000E+00 0. -1.
         11    1    3    3    0    0 -0.82436818199E+00  0.10730769789E+02  0.10044905118E+01  0.10809162993E+02  0.51100000000E-03 0. -1.
        -11    1    3    3    0    0 -0.11350959298E+02 -0.15466260307E+02  0.35747905839E+02  0.40570460399E+02  0.51100000000E-03 0.  1.
         12    1    3    3    0    0  0.12960126608E+02  0.40833278315E+01 -0.36159263326E+02  0.38628108576E+02  0.00000000000E+00 0. -1.
</event>
<event>
 7    1  0.2148778E-015  0.9000797E+02  0.7816164E-02  0.1186339E+00
        -11   -1    0    0    0    0  0.00000000000E+00  0.00000000000E+00  0.45593999997E+02  0.45594000000E+02  0.51100000000E-03 0.  1.
         11   -1    0    0    0    0 -0.00000000000E+00 -0.00000000000E+00 -0.45593999997E+02  0.45594000000E+02  0.51100000000E-03 0. -1.
    9900012    2    1    2    0    0  0.49566241570E-01  0.98930545750E+00  0.64131074515E+00  0.90007973910E+02  0.90000238366E+02 0.  0.
         12    1    1    2    0    0 -0.49566241570E-01 -0.98930545750E+00 -0.64131074515E+00  0.11800260897E+01  0.00000000000E+00 0. -1.
         11    1    3    3    0    0  0.19218131285E+01  0.97341962753E+01 -0.66579473390E+00  0.99444067554E+01  0.51100000000E-03 0. -1.
        -11    1    3    3    0    0 -0.37375287374E+02  0.44814064877E+01  0.13917372703E+02  0.40133382285E+02  0.51100000000E-03 0.  1.
         12    1    3    3    0    0  0.35503040487E+02 -0.13226297306E+02 -0.12610267224E+02  0.39930184870E+02  0.00000000000E+00 0. -1.
</event>
<event>
 7    1  0.2148778E-015  0.9000773E+02  0.7816164E-02  0.1186339E+00
        -11   -1    0    0    0    0  0.00000000000E+00  0.00000000000E+00  0.45593999997E+02  0.45594000000E+02  0.51100000000E-03 0.  1.
         11   -1    0    0    0    0 -0.00000000000E+00 -0.00000000000E+00 -0.45593999997E+02  0.45594000000E+02  0.51100000000E-03 0. -1.
    9900012    2    1    2    0    0 -0.73471441023E+00  0.30316939721E+00  0.87253148878E+00  0.90007733866E+02  0.89999995153E+02 0.  0.
         12    1    1    2    0    0  0.73471441023E+00 -0.30316939721E+00 -0.87253148878E+00  0.11802661339E+01  0.00000000000E+00 0. -1.
         11    1    3    3    0    0  0.36692109583E+02  0.43477726334E+01 -0.31226237790E+01  0.37080517958E+02  0.51100000000E-03 0. -1.
        -11    1    3    3    0    0  0.40050088283E+01  0.29705513837E+01 -0.78215531181E+01  0.92758268999E+01  0.51100000000E-03 0.  1.
        -12    1    3    3    0    0 -0.41431832821E+02 -0.70151546199E+01  0.11816708386E+02  0.43651389008E+02  0.00000000000E+00 0.  1.
</event>
<event>
 7    1  0.2148778E-015  0.9000775E+02  0.7816164E-02  0.1186339E+00
        -11   -1    0    0    0    0  0.00000000000E+00  0.00000000000E+00  0.45593999997E+02  0.45594000000E+02  0.51100000000E-03 0.  1.
         11   -1    0    0    0    0 -0.00000000000E+00 -0.00000000000E+00 -0.45593999997E+02  0.45594000000E+02  0.51100000000E-03 0. -1.
    9900012    2    1    2    0    0 -0.12557189722E+00  0.84183494216E+00  0.81763527664E+00  0.90007753493E+02  0.90000015039E+02 0.  0.
         12    1    1    2    0    0  0.12557189722E+00 -0.84183494216E+00 -0.81763527664E+00  0.11802465068E+01  0.00000000000E+00 0. -1.
         11    1    3    3    0    0  0.20905490670E+02  0.32819302220E+02  0.64951059629E+01  0.39450380734E+02  0.51100000000E-03 0. -1.
        -11    1    3    3    0    0 -0.33508046391E+01  0.44199611326E+01 -0.83283605954E+01  0.10006274962E+02  0.51100000000E-03 0.  1.
        -12    1    3    3    0    0 -0.17680257928E+02 -0.36397428410E+02  0.26508899091E+01  0.40551097797E+02  0.00000000000E+00 0.  1.
</event>
<event>
 7    1  0.2148778E-015  0.9000747E+02  0.7816164E-02  0.1186340E+00
        -11   -1    0    0    0    0  0.00000000000E+00  0.00000000000E+00  0.45593999997E+02  0.45594000000E+02  0.51100000000E-03 0. -1.
         11   -1    0    0    0    0 -0.00000000000E+00 -0.00000000000E+00 -0.45593999997E+02  0.45594000000E+02  0.51100000000E-03 0.  1.
    9900012    2    1    2    0    0 -0.52491205910E+00  0.54842074003E+00 -0.90407975637E+00  0.90007466992E+02  0.89999724756E+02 0.  0.
         12    1    1    2    0    0  0.52491205910E+00 -0.54842074003E+00  0.90407975637E+00  0.11805330083E+01  0.00000000000E+00 0. -1.
         11    1    3    3    0    0  0.47187428116E+01  0.56768895983E+01  0.77300239269E+01  0.10688633187E+02  0.51100000000E-03 0. -1.
        -11    1    3    3    0    0  0.29846288188E+02  0.18284596288E+02 -0.11998040364E+02  0.37001085833E+02  0.51100000000E-03 0.  1.
         12    1    3    3    0    0 -0.35089943059E+02 -0.23413065146E+02  0.33639366804E+01  0.42317747972E+02  0.00000000000E+00 0. -1.
</event>
<event>
 7    1  0.2148778E-015  0.9000767E+02  0.7816164E-02  0.1186339E+00
        -11   -1    0    0    0    0  0.00000000000E+00  0.00000000000E+00  0.45593999997E+02  0.45594000000E+02  0.51100000000E-03 0.  1.
         11   -1    0    0    0    0 -0.00000000000E+00 -0.00000000000E+00 -0.45593999997E+02  0.45594000000E+02  0.51100000000E-03 0. -1.
    9900012    2    1    2    0    0 -0.55554915559E+00 -0.32435760824E+00  0.98961003708E+00  0.90007673457E+02  0.89999933947E+02 0.  0.
         12    1    1    2    0    0  0.55554915559E+00  0.32435760824E+00 -0.98961003708E+00  0.11803265429E+01  0.00000000000E+00 0. -1.
         11    1    3    3    0    0 -0.14405698085E+01 -0.42134426936E+01  0.92950263720E+01  0.10306592852E+02  0.51100000000E-03 0. -1.
        -11    1    3    3    0    0 -0.27913891475E+02 -0.25698009523E+02 -0.51863707036E+01  0.38294535799E+02  0.51100000000E-03 0.  1.
         12    1    3    3    0    0  0.28798912128E+02  0.29587094609E+02 -0.31190456313E+01  0.41406544806E+02  0.00000000000E+00 0. -1.
</event>
<event>
 7    1  0.2148778E-015  0.9000774E+02  0.7816164E-02  0.1186339E+00
        -11   -1    0    0    0    0  0.00000000000E+00  0.00000000000E+00  0.45593999997E+02  0.45594000000E+02  0.51100000000E-03 0.  1.
         11   -1    0    0    0    0 -0.00000000000E+00 -0.00000000000E+00 -0.45593999997E+02  0.45594000000E+02  0.51100000000E-03 0. -1.
    9900012    2    1    2    0    0 -0.32053913052E+00  0.57958929803E+00  0.97690866860E+00  0.90007737472E+02  0.89999998806E+02 0.  0.
         12    1    1    2    0    0  0.32053913052E+00 -0.57958929803E+00 -0.97690866860E+00  0.11802625282E+01  0.00000000000E+00 0. -1.
         11    1    3    3    0    0 -0.85810626780E+01 -0.21444802793E+01 -0.25673196119E+01  0.92100251141E+01  0.51100000000E-03 0. -1.
        -11    1    3    3    0    0 -0.31351165539E+01 -0.38151911084E+02  0.21163552685E+01  0.38338964971E+02  0.51100000000E-03 0.  1.
         12    1    3    3    0    0  0.11395640101E+02  0.40875980661E+02  0.14278730120E+01  0.42458747387E+02  0.00000000000E+00 0. -1.
</event>
<event>
 7    1  0.2148778E-015  0.9000781E+02  0.7816164E-02  0.1186339E+00
        -11   -1    0    0    0    0  0.00000000000E+00  0.00000000000E+00  0.45593999997E+02  0.45594000000E+02  0.51100000000E-03 0.  1.
         11   -1    0    0    0    0 -0.00000000000E+00 -0.00000000000E+00 -0.45593999997E+02  0.45594000000E+02  0.51100000000E-03 0. -1.
    9900012    2    1    2    0    0 -0.26452559749E+00  0.20903388943E+00  0.11310097525E+01  0.90007808482E+02  0.90000070754E+02 0.  0.
         12    1    1    2    0    0  0.26452559749E+00 -0.20903388943E+00 -0.11310097525E+01  0.11801915179E+01  0.00000000000E+00 0. -1.
         11    1    3    3    0    0 -0.20111714632E+02 -0.32612939883E+02  0.39942254799E+01  0.38523223525E+02  0.51100000000E-03 0. -1.
        -11    1    3    3    0    0 -0.72893339504E+01 -0.13525742249E+00  0.38879642291E+01  0.82625026547E+01  0.51100000000E-03 0.  1.
        -12    1    3    3    0    0  0.27136522985E+02  0.32957231195E+02 -0.67511799565E+01  0.43222082303E+02  0.00000000000E+00 0.  1.
</event>
<event>
 7    1  0.2148778E-015  0.9000761E+02  0.7816164E-02  0.1186339E+00
        -11   -1    0    0    0    0  0.00000000000E+00  0.00000000000E+00  0.45593999997E+02  0.45594000000E+02  0.51100000000E-03 0. -1.
         11   -1    0    0    0    0 -0.00000000000E+00 -0.00000000000E+00 -0.45593999997E+02  0.45594000000E+02  0.51100000000E-03 0.  1.
    9900012    2    1    2    0    0  0.98862332381E+00 -0.46676735458E+00 -0.44505015193E+00  0.90007611302E+02  0.89999870972E+02 0.  0.
         12    1    1    2    0    0 -0.98862332381E+00  0.46676735458E+00  0.44505015193E+00  0.11803886976E+01  0.00000000000E+00 0. -1.
         11    1    3    3    0    0  0.97549838681E+01 -0.19062586194E+02  0.31006451738E+02  0.37682117142E+02  0.51100000000E-03 0. -1.
        -11    1    3    3    0    0  0.43264829511E+01 -0.29174863167E+01  0.55169973531E+01  0.75939081631E+01  0.51100000000E-03 0.  1.
        -12    1    3    3    0    0 -0.13092843495E+02  0.21513305156E+02 -0.36968499243E+02  0.44731585997E+02  0.00000000000E+00 0.  1.
</event>
<event>
 7    1  0.2148778E-015  0.9000777E+02  0.7816164E-02  0.1186339E+00
        -11   -1    0    0    0    0  0.00000000000E+00  0.00000000000E+00  0.45593999997E+02  0.45594000000E+02  0.51100000000E-03 0.  1.
         11   -1    0    0    0    0 -0.00000000000E+00 -0.00000000000E+00 -0.45593999997E+02  0.45594000000E+02  0.51100000000E-03 0. -1.
    9900012    2    1    2    0    0 -0.13583670808E+00  0.50187002237E+00  0.10595410569E+01  0.90007765963E+02  0.90000027674E+02 0.  0.
         12    1    1    2    0    0  0.13583670808E+00 -0.50187002237E+00 -0.10595410569E+01  0.11802340369E+01  0.00000000000E+00 0. -1.
         11    1    3    3    0    0  0.79704678405E+01 -0.14606026653E+02  0.91099194994E+01  0.18969844641E+02  0.51100000000E-03 0. -1.
        -11    1    3    3    0    0 -0.16646574143E+02 -0.13026969178E+02  0.20935023748E+02  0.29750387834E+02  0.51100000000E-03 0.  1.
         12    1    3    3    0    0  0.85402695942E+01  0.28134865853E+02 -0.28985402191E+02  0.41287533488E+02  0.00000000000E+00 0. -1.
</event>
<event>
 7    1  0.2148778E-015  0.9000781E+02  0.7816164E-02  0.1186339E+00
        -11   -1    0    0    0    0  0.00000000000E+00  0.00000000000E+00  0.45593999997E+02  0.45594000000E+02  0.51100000000E-03 0.  1.
         11   -1    0    0    0    0 -0.00000000000E+00 -0.00000000000E+00 -0.45593999997E+02  0.45594000000E+02  0.51100000000E-03 0. -1.
    9900012    2    1    2    0    0  0.21727316396E+00 -0.90915770664E+00  0.72047122011E+00  0.90007807582E+02  0.90000069843E+02 0.  0.
         12    1    1    2    0    0 -0.21727316396E+00  0.90915770664E+00 -0.72047122011E+00  0.11801924175E+01  0.00000000000E+00 0. -1.
         11    1    3    3    0    0 -0.54026113013E+01  0.99232683389E+01 -0.35917469842E+02  0.37652677242E+02  0.51100000000E-03 0. -1.
        -11    1    3    3    0    0 -0.33652109592E+01  0.36083219973E+01 -0.52145259587E+01  0.71788518351E+01  0.51100000000E-03 0.  1.
        -12    1    3    3    0    0  0.89850954245E+01 -0.14440748043E+02  0.41852467021E+02  0.45176278505E+02  0.00000000000E+00 0.  1.
</event>
<event>
 7    1  0.2148778E-015  0.9000804E+02  0.7816164E-02  0.1186338E+00
        -11   -1    0    0    0    0  0.00000000000E+00  0.00000000000E+00  0.45593999997E+02  0.45594000000E+02  0.51100000000E-03 0. -1.
         11   -1    0    0    0    0 -0.00000000000E+00 -0.00000000000E+00 -0.45593999997E+02  0.45594000000E+02  0.51100000000E-03 0.  1.
    9900012    2    1    2    0    0  0.10661829658E+01  0.30099998901E-01  0.50462655226E+00  0.90008042338E+02  0.90000307696E+02 0.  0.
         12    1    1    2    0    0 -0.10661829658E+01 -0.30099998901E-01 -0.50462655226E+00  0.11799576619E+01  0.00000000000E+00 0. -1.
         11    1    3    3    0    0  0.19076359288E+01  0.23572321581E+01 -0.75696443384E+01  0.81544548534E+01  0.51100000000E-03 0. -1.
        -11    1    3    3    0    0  0.40243008084E+01  0.38836837536E+02  0.10178438702E+02  0.40349666188E+02  0.51100000000E-03 0.  1.
         12    1    3    3    0    0 -0.48657537713E+01 -0.41163969695E+02 -0.21041678114E+01  0.41503921297E+02  0.00000000000E+00 0. -1.
</event>
<event>
 7    1  0.2148778E-015  0.9000777E+02  0.7816164E-02  0.1186339E+00
        -11   -1    0    0    0    0  0.00000000000E+00  0.00000000000E+00  0.45593999997E+02  0.45594000000E+02  0.51100000000E-03 0. -1.
         11   -1    0    0    0    0 -0.00000000000E+00 -0.00000000000E+00 -0.45593999997E+02  0.45594000000E+02  0.51100000000E-03 0.  1.
    9900012    2    1    2    0    0  0.52260351338E+00  0.76499322876E+00 -0.73117051110E+00  0.90007771468E+02  0.90000033251E+02 0.  0.
         12    1    1    2    0    0 -0.52260351338E+00 -0.76499322876E+00  0.73117051110E+00  0.11802285323E+01  0.00000000000E+00 0. -1.
         11    1    3    3    0    0  0.67716210568E+01  0.78048332543E+01  0.37386882676E+02  0.38788519827E+02  0.51100000000E-03 0. -1.
        -11    1    3    3    0    0 -0.12452960706E+02 -0.74657484664E+01 -0.21025886727E+01  0.14670872840E+02  0.51100000000E-03 0.  1.
        -12    1    3    3    0    0  0.62039431626E+01  0.42590844085E+00 -0.36015464514E+02  0.36548378801E+02  0.00000000000E+00 0.  1.
</event>
<event>
 7    1  0.2148778E-015  0.9000773E+02  0.7816164E-02  0.1186339E+00
        -11   -1    0    0    0    0  0.00000000000E+00  0.00000000000E+00  0.45593999997E+02  0.45594000000E+02  0.51100000000E-03 0. -1.
         11   -1    0    0    0    0 -0.00000000000E+00 -0.00000000000E+00 -0.45593999997E+02  0.45594000000E+02  0.51100000000E-03 0.  1.
    9900012    2    1    2    0    0  0.85394284928E+00 -0.16081939008E+00 -0.79871632009E+00  0.90007733494E+02  0.89999994776E+02 0.  0.
         12    1    1    2    0    0 -0.85394284928E+00  0.16081939008E+00  0.79871632009E+00  0.11802665064E+01  0.00000000000E+00 0. -1.
         11    1    3    3    0    0  0.10142474337E+02 -0.40036519696E+02  0.71347702189E+01  0.41912977005E+02  0.51100000000E-03 0. -1.
        -11    1    3    3    0    0 -0.99658583012E+01  0.46953425318E+01 -0.66840699197E+01  0.12885703866E+02  0.51100000000E-03 0.  1.
        -12    1    3    3    0    0  0.67732681363E+00  0.35180357774E+02 -0.12494166193E+01  0.35209052623E+02  0.00000000000E+00 0.  1.
</event>
<event>
 7    1  0.2148778E-015  0.9000776E+02  0.7816164E-02  0.1186339E+00
        -11   -1    0    0    0    0  0.00000000000E+00  0.00000000000E+00  0.45593999997E+02  0.45594000000E+02  0.51100000000E-03 0. -1.
         11   -1    0    0    0    0 -0.00000000000E+00 -0.00000000000E+00 -0.45593999997E+02  0.45594000000E+02  0.51100000000E-03 0.  1.
    9900012    2    1    2    0    0 -0.69313071322E+00 -0.77452448101E+00 -0.55915618456E+00  0.90007756806E+02  0.90000018396E+02 0.  0.
         12    1    1    2    0    0  0.69313071322E+00  0.77452448101E+00  0.55915618456E+00  0.11802431936E+01  0.00000000000E+00 0. -1.
         11    1    3    3    0    0 -0.57441095263E+01 -0.12600566296E+02 -0.21694437972E+01  0.14016973706E+02  0.51100000000E-03 0. -1.
        -11    1    3    3    0    0  0.36863210690E+02 -0.21945255758E+01 -0.11741483940E+02  0.38750157293E+02  0.51100000000E-03 0.  1.
         12    1    3    3    0    0 -0.31812231877E+02  0.14020567391E+02  0.13351771553E+02  0.37240625807E+02  0.00000000000E+00 0. -1.
</event>
<event>
 8    1  0.2148778E-015  0.9000800E+02  0.7816164E-02  0.1186339E+00
        -11   -1    0    0    0    0  0.00000000000E+00  0.00000000000E+00  0.45593999997E+02  0.45594000000E+02  0.51100000000E-03 0.  1.
         11   -1    0    0    0    0 -0.00000000000E+00 -0.00000000000E+00 -0.45593999997E+02  0.45594000000E+02  0.51100000000E-03 0. -1.
    9900012    2    1    2    0    0  0.39537625479E+00 -0.10904085185E+01 -0.21697725534E+00  0.90008003284E+02  0.90000268127E+02 0.  0.
         23    2    3    3    0    0 -0.21649580670E+02 -0.12632102611E+02 -0.63557339190E+01  0.64378427366E+02  0.58956867258E+02 0.  0.
         12    1    1    2    0    0 -0.39537625479E+00  0.10904085185E+01  0.21697725534E+00  0.11799967159E+01  0.00000000000E+00 0. -1.
         11    1    4    4    0    0  0.81093357617E+00 -0.21740720914E+02  0.19301286410E+02  0.29083607349E+02  0.51100000000E-03 0. -1.
        -11    1    4    4    0    0 -0.22460514247E+02  0.91086183028E+01 -0.25657020329E+02  0.35294820017E+02  0.51100000000E-03 0.  1.
        -12    1    3    3    0    0  0.22044956925E+02  0.11541694093E+02  0.61387566637E+01  0.25629575918E+02  0.00000000000E+00 0.  1.
</event>
<event>
 7    1  0.2148778E-015  0.9000777E+02  0.7816164E-02  0.1186339E+00
        -11   -1    0    0    0    0  0.00000000000E+00  0.00000000000E+00  0.45593999997E+02  0.45594000000E+02  0.51100000000E-03 0. -1.
         11   -1    0    0    0    0 -0.00000000000E+00 -0.00000000000E+00 -0.45593999997E+02  0.45594000000E+02  0.51100000000E-03 0.  1.
    9900012    2    1    2    0    0 -0.30931726945E-01 -0.65528727362E+00 -0.98110995873E+00  0.90007773355E+02  0.90000035163E+02 0.  0.
         12    1    1    2    0    0  0.30931726945E-01  0.65528727362E+00  0.98110995873E+00  0.11802266451E+01  0.00000000000E+00 0. -1.
         11    1    3    3    0    0  0.99897434098E+01  0.51884650152E+01  0.29521890562E+01  0.11637463774E+02  0.51100000000E-03 0. -1.
        -11    1    3    3    0    0 -0.36963519133E+02  0.12535268247E+02  0.13611106403E+02  0.41336387294E+02  0.51100000000E-03 0.  1.
         12    1    3    3    0    0  0.26942843997E+02 -0.18379020536E+02 -0.17544405418E+02  0.37033922287E+02  0.00000000000E+00 0. -1.
</event>
<event>
 7    1  0.2148778E-015  0.9000774E+02  0.7816164E-02  0.1186339E+00
        -11   -1    0    0    0    0  0.00000000000E+00  0.00000000000E+00  0.45593999997E+02  0.45594000000E+02  0.51100000000E-03 0. -1.
         11   -1    0    0    0    0 -0.00000000000E+00 -0.00000000000E+00 -0.45593999997E+02  0.45594000000E+02  0.51100000000E-03 0.  1.
    9900012    2    1    2    0    0 -0.69519948380E+00  0.70076821216E+00 -0.64702867426E+00  0.90007735405E+02  0.89999996712E+02 0.  0.
         12    1    1    2    0    0  0.69519948380E+00 -0.70076821216E+00  0.64702867426E+00  0.11802645952E+01  0.00000000000E+00 0. -1.
         11    1    3    3    0    0 -0.36784167874E+01  0.10001443719E+02 -0.30136779255E+01  0.11074379505E+02  0.51100000000E-03 0. -1.
        -11    1    3    3    0    0 -0.31479778862E+02 -0.46620487532E+01 -0.20001326600E+02  0.37586756202E+02  0.51100000000E-03 0.  1.
         12    1    3    3    0    0  0.34462996165E+02 -0.46386267533E+01  0.22367975852E+02  0.41346599698E+02  0.00000000000E+00 0. -1.
</event>
<event>
 7    1  0.2148778E-015  0.9000777E+02  0.7816164E-02  0.1186339E+00
        -11   -1    0    0    0    0  0.00000000000E+00  0.00000000000E+00  0.45593999997E+02  0.45594000000E+02  0.51100000000E-03 0. -1.
         11   -1    0    0    0    0 -0.00000000000E+00 -0.00000000000E+00 -0.45593999997E+02  0.45594000000E+02  0.51100000000E-03 0.  1.
    9900012    2    1    2    0    0  0.23926705871E+00 -0.82686361805E+00 -0.80745398000E+00  0.90007773709E+02  0.90000035522E+02 0.  0.
         12    1    1    2    0    0 -0.23926705871E+00  0.82686361805E+00  0.80745398000E+00  0.11802262910E+01  0.00000000000E+00 0. -1.
         11    1    3    3    0    0  0.13758191049E+02  0.16914493336E+02  0.30034015302E+02  0.37113743831E+02  0.51100000000E-03 0. -1.
        -11    1    3    3    0    0  0.29362124546E+01  0.52941455683E+01  0.45501982532E+01  0.75732176306E+01  0.51100000000E-03 0.  1.
        -12    1    3    3    0    0 -0.16455136445E+02 -0.23035502522E+02 -0.35391667535E+02  0.45320812247E+02  0.00000000000E+00 0.  1.
</event>
<event>
 7    1  0.2150629E-015  0.9000771E+02  0.7816164E-02  0.1186339E+00
        -11   -1    0    0    0    0  0.00000000000E+00  0.00000000000E+00  0.45593999997E+02  0.45594000000E+02  0.51100000000E-03 0. -1.
         11   -1    0    0    0    0 -0.00000000000E+00 -0.00000000000E+00 -0.45593999997E+02  0.45594000000E+02  0.51100000000E-03 0.  1.
    9900012    2    1    2    0    0 -0.87004000916E+00 -0.46496754686E+00 -0.64802017352E+00  0.90007705722E+02  0.89999966638E+02 0.  0.
         12    1    1    2    0    0  0.87004000916E+00  0.46496754686E+00  0.64802017352E+00  0.11802942779E+01  0.00000000000E+00 0. -1.
         11    1    3    3    0    0  0.62031976301E+01 -0.72370236529E+01 -0.62924612107E+00  0.95524930323E+01  0.51100000000E-03 0. -1.
        -11    1    3    3    0    0  0.75268025336E+01 -0.35159795066E+02  0.19643191563E+01  0.36010033261E+02  0.51100000000E-03 0.  1.
         12    1    3    3    0    0 -0.14600040173E+02  0.41931851172E+02 -0.19830932087E+01  0.44445179429E+02  0.00000000000E+00 0. -1.
</event>
<event>
 7    1  0.2148778E-015  0.9000772E+02  0.7816164E-02  0.1186339E+00
        -11   -1    0    0    0    0  0.00000000000E+00  0.00000000000E+00  0.45593999997E+02  0.45594000000E+02  0.51100000000E-03 0.  1.
         11   -1    0    0    0    0 -0.00000000000E+00 -0.00000000000E+00 -0.45593999997E+02  0.45594000000E+02  0.51100000000E-03 0. -1.
    9900012    2    1    2    0    0 -0.82262630985E+00 -0.83101059026E+00  0.16050931903E+00  0.90007722114E+02  0.89999983246E+02 0.  0.
         12    1    1    2    0    0  0.82262630985E+00  0.83101059026E+00 -0.16050931903E+00  0.11802778860E+01  0.00000000000E+00 0. -1.
         11    1    3    3    0    0  0.24515315470E+02  0.23925198587E+02  0.21312165652E+02  0.40343825117E+02  0.51100000000E-03 0. -1.
        -11    1    3    3    0    0 -0.86172121696E+01  0.35834992994E+01  0.18532252874E+01  0.95148440361E+01  0.51100000000E-03 0.  1.
        -12    1    3    3    0    0 -0.16720729610E+02 -0.28339708477E+02 -0.23004881621E+02  0.40149052961E+02  0.00000000000E+00 0.  1.
</event>
<event>
 7    1  0.2148778E-015  0.9000786E+02  0.7816164E-02  0.1186339E+00
        -11   -1    0    0    0    0  0.00000000000E+00  0.00000000000E+00  0.45593999997E+02  0.45594000000E+02  0.51100000000E-03 0.  1.
         11   -1    0    0    0    0 -0.00000000000E+00 -0.00000000000E+00 -0.45593999997E+02  0.45594000000E+02  0.51100000000E-03 0. -1.
    9900012    2    1    2    0    0  0.59901742289E+00 -0.78287553012E+00  0.64885445967E+00  0.90007860992E+02  0.90000123957E+02 0.  0.
         12    1    1    2    0    0 -0.59901742289E+00  0.78287553012E+00 -0.64885445967E+00  0.11801390081E+01  0.00000000000E+00 0. -1.
         11    1    3    3    0    0 -0.60118488181E+01 -0.33644903995E+02  0.13303196771E+02  0.36675563194E+02  0.51100000000E-03 0. -1.
        -11    1    3    3    0    0  0.20412925742E+00 -0.60972541818E+01  0.69523332091E+01  0.92494926684E+01  0.51100000000E-03 0.  1.
        -12    1    3    3    0    0  0.64067369836E+01  0.38959282646E+02 -0.19606675521E+02  0.44082805129E+02  0.00000000000E+00 0.  1.
</event>
<event>
 7    1  0.2148778E-015  0.9000773E+02  0.7816164E-02  0.1186339E+00
        -11   -1    0    0    0    0  0.00000000000E+00  0.00000000000E+00  0.45593999997E+02  0.45594000000E+02  0.51100000000E-03 0. -1.
         11   -1    0    0    0    0 -0.00000000000E+00 -0.00000000000E+00 -0.45593999997E+02  0.45594000000E+02  0.51100000000E-03 0.  1.
    9900012    2    1    2    0    0 -0.51204812435E+00  0.83215416226E+00 -0.66208882158E+00  0.90007730777E+02  0.89999992023E+02 0.  0.
         12    1    1    2    0    0  0.51204812435E+00 -0.83215416226E+00  0.66208882158E+00  0.11802692231E+01  0.00000000000E+00 0. -1.
         11    1    3    3    0    0  0.56231532000E+01  0.27837737115E+01  0.52389866840E+01  0.81741195075E+01  0.51100000000E-03 0. -1.
        -11    1    3    3    0    0 -0.11852292491E+02  0.26131049019E+02 -0.32064504330E+02  0.43028374340E+02  0.51100000000E-03 0.  1.
         12    1    3    3    0    0  0.57170911664E+01 -0.28082668568E+02  0.26163428825E+02  0.38805236930E+02  0.00000000000E+00 0. -1.
</event>
<event>
 7    1  0.2148778E-015  0.9000770E+02  0.7816164E-02  0.1186339E+00
        -11   -1    0    0    0    0  0.00000000000E+00  0.00000000000E+00  0.45593999997E+02  0.45594000000E+02  0.51100000000E-03 0.  1.
         11   -1    0    0    0    0 -0.00000000000E+00 -0.00000000000E+00 -0.45593999997E+02  0.45594000000E+02  0.51100000000E-03 0. -1.
    9900012    2    1    2    0    0 -0.84749893104E+00 -0.65705332957E+00  0.49308236366E+00  0.90007701846E+02  0.89999962710E+02 0.  0.
         12    1    1    2    0    0  0.84749893104E+00  0.65705332957E+00 -0.49308236366E+00  0.11802981544E+01  0.00000000000E+00 0. -1.
         11    1    3    3    0    0 -0.40972204827E+02  0.85837379286E+00 -0.79143236403E+01  0.41738410282E+02  0.51100000000E-03 0. -1.
        -11    1    3    3    0    0  0.58914100058E+01  0.30227110551E+01 -0.77077133146E+01  0.10161414212E+02  0.51100000000E-03 0.  1.
        -12    1    3    3    0    0  0.34233295890E+02 -0.45381381775E+01  0.16115119319E+02  0.38107877352E+02  0.00000000000E+00 0.  1.
</event>
<event>
 7    1  0.2148778E-015  0.9000777E+02  0.7816164E-02  0.1186339E+00
        -11   -1    0    0    0    0  0.00000000000E+00  0.00000000000E+00  0.45593999997E+02  0.45594000000E+02  0.51100000000E-03 0. -1.
         11   -1    0    0    0    0 -0.00000000000E+00 -0.00000000000E+00 -0.45593999997E+02  0.45594000000E+02  0.51100000000E-03 0.  1.
    9900012    2    1    2    0    0  0.97745000953E+00  0.52781358851E+00  0.39866744323E+00  0.90007774837E+02  0.90000036665E+02 0.  0.
         12    1    1    2    0    0 -0.97745000953E+00 -0.52781358851E+00 -0.39866744323E+00  0.11802251631E+01  0.00000000000E+00 0. -1.
         11    1    3    3    0    0 -0.20403020334E+02 -0.16732761659E+02  0.12471761207E+02  0.29185842104E+02  0.51100000000E-03 0. -1.
        -11    1    3    3    0    0 -0.11353499027E+02 -0.49564261910E+01  0.96368411727E+01  0.15695120541E+02  0.51100000000E-03 0.  1.
        -12    1    3    3    0    0  0.32733969370E+02  0.22217001438E+02 -0.21709934936E+02  0.45126812192E+02  0.00000000000E+00 0.  1.
</event>
<event>
 7    1  0.2148778E-015  0.9000771E+02  0.7816164E-02  0.1186339E+00
        -11   -1    0    0    0    0  0.00000000000E+00  0.00000000000E+00  0.45593999997E+02  0.45594000000E+02  0.51100000000E-03 0. -1.
         11   -1    0    0    0    0 -0.00000000000E+00 -0.00000000000E+00 -0.45593999997E+02  0.45594000000E+02  0.51100000000E-03 0.  1.
    9900012    2    1    2    0    0  0.23034777444E+00 -0.72740137158E+00 -0.90050242543E+00  0.90007712971E+02  0.89999973982E+02 0.  0.
         12    1    1    2    0    0 -0.23034777444E+00  0.72740137158E+00  0.90050242543E+00  0.11802870290E+01  0.00000000000E+00 0. -1.
         11    1    3    3    0    0  0.73420693877E+01  0.56025272679E+01 -0.45161516026E+01  0.10280560308E+02  0.51100000000E-03 0. -1.
        -11    1    3    3    0    0  0.27074680608E+02  0.21631800222E+02  0.72754877501E+01  0.35410532800E+02  0.51100000000E-03 0.  1.
         12    1    3    3    0    0 -0.34186402222E+02 -0.27961728861E+02 -0.36598385730E+01  0.44316619864E+02  0.00000000000E+00 0. -1.
</event>
<event>
 7    1  0.2148778E-015  0.9000760E+02  0.7816164E-02  0.1186339E+00
        -11   -1    0    0    0    0  0.00000000000E+00  0.00000000000E+00  0.45593999997E+02  0.45594000000E+02  0.51100000000E-03 0. -1.
         11   -1    0    0    0    0 -0.00000000000E+00 -0.00000000000E+00 -0.45593999997E+02  0.45594000000E+02  0.51100000000E-03 0.  1.
    9900012    2    1    2    0    0 -0.10751905093E+01  0.11124743108E+00 -0.47427237017E+00  0.90007599685E+02  0.89999859201E+02 0.  0.
         12    1    1    2    0    0  0.10751905093E+01 -0.11124743108E+00  0.47427237017E+00  0.11804003149E+01  0.00000000000E+00 0. -1.
         11    1    3    3    0    0 -0.90277900606E+01  0.80764209184E+00  0.63503479222E+01  0.11067077217E+02  0.51100000000E-03 0. -1.
        -11    1    3    3    0    0 -0.34255879787E+02  0.21697966011E+01  0.57561767468E+01  0.34803834390E+02  0.51100000000E-03 0.  1.
         12    1    3    3    0    0  0.42208479338E+02 -0.28661912619E+01 -0.12580797039E+02  0.44136688078E+02  0.00000000000E+00 0. -1.
</event>
<event>
 7    1  0.2148778E-015  0.9000773E+02  0.7816164E-02  0.1186339E+00
        -11   -1    0    0    0    0  0.00000000000E+00  0.00000000000E+00  0.45593999997E+02  0.45594000000E+02  0.51100000000E-03 0.  1.
         11   -1    0    0    0    0 -0.00000000000E+00 -0.00000000000E+00 -0.45593999997E+02  0.45594000000E+02  0.51100000000E-03 0. -1.
    9900012    2    1    2    0    0 -0.23405516814E+00 -0.86781097211E+00  0.76495239351E+00  0.90007733136E+02  0.89999994414E+02 0.  0.
         12    1    1    2    0    0  0.23405516814E+00  0.86781097211E+00 -0.76495239351E+00  0.11802668636E+01  0.00000000000E+00 0. -1.
         11    1    3    3    0    0  0.76971123417E+01  0.19895075325E+01 -0.37114455480E+01  0.87737396211E+01  0.51100000000E-03 0. -1.
        -11    1    3    3    0    0  0.36495582000E+02  0.10640297337E+01  0.20200105105E+01  0.36566926416E+02  0.51100000000E-03 0.  1.
         12    1    3    3    0    0 -0.44426749510E+02 -0.39213482383E+01  0.24563874310E+01  0.44667067099E+02  0.00000000000E+00 0. -1.
</event>
<event>
 7    1  0.2148778E-015  0.9000772E+02  0.7816164E-02  0.1186339E+00
        -11   -1    0    0    0    0  0.00000000000E+00  0.00000000000E+00  0.45593999997E+02  0.45594000000E+02  0.51100000000E-03 0.  1.
         11   -1    0    0    0    0 -0.00000000000E+00 -0.00000000000E+00 -0.45593999997E+02  0.45594000000E+02  0.51100000000E-03 0. -1.
    9900012    2    1    2    0    0 -0.54507699813E-01  0.44072025812E+00  0.10935551775E+01  0.90007716830E+02  0.89999977892E+02 0.  0.
         12    1    1    2    0    0  0.54507699813E-01 -0.44072025812E+00 -0.10935551775E+01  0.11802831701E+01  0.00000000000E+00 0. -1.
         11    1    3    3    0    0  0.60990535237E+01  0.31079393626E+02 -0.20093040339E+02  0.37508098224E+02  0.51100000000E-03 0. -1.
        -11    1    3    3    0    0 -0.52726979836E+01  0.17991862353E+01 -0.73940059137E+01  0.92579554356E+01  0.51100000000E-03 0.  1.
        -12    1    3    3    0    0 -0.88086323987E+00 -0.32437859603E+02  0.28580601430E+02  0.43241663171E+02  0.00000000000E+00 0.  1.
</event>
<event>
 7    1  0.2148778E-015  0.9000775E+02  0.7816164E-02  0.1186339E+00
        -11   -1    0    0    0    0  0.00000000000E+00  0.00000000000E+00  0.45593999997E+02  0.45594000000E+02  0.51100000000E-03 0. -1.
         11   -1    0    0    0    0 -0.00000000000E+00 -0.00000000000E+00 -0.45593999997E+02  0.45594000000E+02  0.51100000000E-03 0.  1.
    9900012    2    1    2    0    0 -0.41186108822E+00  0.10673288182E+01 -0.29011972991E+00  0.90007750103E+02  0.90000011604E+02 0.  0.
         12    1    1    2    0    0  0.41186108822E+00 -0.10673288182E+01  0.29011972991E+00  0.11802498972E+01  0.00000000000E+00 0. -1.
         11    1    3    3    0    0 -0.80947233872E+01 -0.38273176540E+02 -0.80236653976E+01  0.39934193317E+02  0.51100000000E-03 0. -1.
        -11    1    3    3    0    0  0.85601744579E+01  0.56942926779E+00 -0.41260060144E+01  0.95197038995E+01  0.51100000000E-03 0.  1.
        -12    1    3    3    0    0 -0.87731215900E+00  0.38771076091E+02  0.11859551682E+02  0.40553852887E+02  0.00000000000E+00 0.  1.
</event>
<event>
 7    1  0.2148778E-015  0.9000749E+02  0.7816164E-02  0.1186340E+00
        -11   -1    0    0    0    0  0.00000000000E+00  0.00000000000E+00  0.45593999997E+02  0.45594000000E+02  0.51100000000E-03 0.  1.
         11   -1    0    0    0    0 -0.00000000000E+00 -0.00000000000E+00 -0.45593999997E+02  0.45594000000E+02  0.51100000000E-03 0. -1.
    9900012    2    1    2    0    0 -0.19158996197E+00 -0.63115978664E+00  0.97904502326E+00  0.90007492250E+02  0.89999750348E+02 0.  0.
         12    1    1    2    0    0  0.19158996197E+00  0.63115978664E+00 -0.97904502326E+00  0.11805077498E+01  0.00000000000E+00 0. -1.
         11    1    3    3    0    0  0.66910673540E+01  0.36701091672E+01  0.57166462233E+01  0.95352046616E+01  0.51100000000E-03 0. -1.
        -11    1    3    3    0    0  0.13618158980E+02  0.31844759833E+02  0.10532427270E+02  0.36200483522E+02  0.51100000000E-03 0.  1.
         12    1    3    3    0    0 -0.20500816296E+02 -0.36146028786E+02 -0.15270028470E+02  0.44271804066E+02  0.00000000000E+00 0. -1.
</event>
<event>
 7    1  0.2148778E-015  0.9000771E+02  0.7816164E-02  0.1186339E+00
        -11   -1    0    0    0    0  0.00000000000E+00  0.00000000000E+00  0.45593999997E+02  0.45594000000E+02  0.51100000000E-03 0.  1.
         11   -1    0    0    0    0 -0.00000000000E+00 -0.00000000000E+00 -0.45593999997E+02  0.45594000000E+02  0.51100000000E-03 0. -1.
    9900012    2    1    2    0    0  0.75791651716E+00  0.61798710779E+00  0.66086667781E+00  0.90007707545E+02  0.89999968485E+02 0.  0.
         12    1    1    2    0    0 -0.75791651716E+00 -0.61798710779E+00 -0.66086667781E+00  0.11802924545E+01  0.00000000000E+00 0. -1.
         11    1    3    3    0    0 -0.15155301036E+01  0.28089050137E+01 -0.86220204828E+01  0.91938031488E+01  0.51100000000E-03 0. -1.
        -11    1    3    3    0    0 -0.35204063303E+02 -0.92053086360E+01  0.19577915618E+02  0.41320195551E+02  0.51100000000E-03 0.  1.
         12    1    3    3    0    0  0.37477509924E+02  0.70143907301E+01 -0.10295028458E+02  0.39493708846E+02  0.00000000000E+00 0. -1.
</event>
<event>
 7    1  0.2148778E-015  0.9000774E+02  0.7816164E-02  0.1186339E+00
        -11   -1    0    0    0    0  0.00000000000E+00  0.00000000000E+00  0.45593999997E+02  0.45594000000E+02  0.51100000000E-03 0.  1.
         11   -1    0    0    0    0 -0.00000000000E+00 -0.00000000000E+00 -0.45593999997E+02  0.45594000000E+02  0.51100000000E-03 0. -1.
    9900012    2    1    2    0    0  0.58910418757E-01  0.87046084649E+00  0.79488175033E+00  0.90007741757E+02  0.90000003148E+02 0.  0.
         12    1    1    2    0    0 -0.58910418757E-01 -0.87046084649E+00 -0.79488175033E+00  0.11802582428E+01  0.00000000000E+00 0. -1.
         11    1    3    3    0    0 -0.20312512403E+02  0.30142312091E+02  0.25029414196E+02  0.44131946632E+02  0.51100000000E-03 0. -1.
        -11    1    3    3    0    0  0.56049879101E+01 -0.20626548096E+01 -0.10344144818E+02  0.11944528731E+02  0.51100000000E-03 0.  1.
        -12    1    3    3    0    0  0.14766434911E+02 -0.27209196435E+02 -0.13890387628E+02  0.33931266394E+02  0.00000000000E+00 0.  1.
</event>
<event>
 7    1  0.2148778E-015  0.9000778E+02  0.7816164E-02  0.1186339E+00
        -11   -1    0    0    0    0  0.00000000000E+00  0.00000000000E+00  0.45593999997E+02  0.45594000000E+02  0.51100000000E-03 0.  1.
         11   -1    0    0    0    0 -0.00000000000E+00 -0.00000000000E+00 -0.45593999997E+02  0.45594000000E+02  0.51100000000E-03 0. -1.
    9900012    2    1    2    0    0 -0.88064937082E+00 -0.54259954223E-01  0.78385815249E+00  0.90007779232E+02  0.90000041118E+02 0.  0.
         12    1    1    2    0    0  0.88064937082E+00  0.54259954223E-01 -0.78385815249E+00  0.11802207676E+01  0.00000000000E+00 0. -1.
         11    1    3    3    0    0  0.40358169189E+01 -0.37338554074E+02  0.98023084474E+01  0.38814181554E+02  0.51100000000E-03 0. -1.
        -11    1    3    3    0    0  0.38307620604E+01  0.61737278417E+00  0.87113198558E+01  0.95364029387E+01  0.51100000000E-03 0.  1.
        -12    1    3    3    0    0 -0.87472283501E+01  0.36666921335E+02 -0.17729770151E+02  0.41657194740E+02  0.00000000000E+00 0.  1.
</event>
<event>
 7    1  0.2148778E-015  0.9000779E+02  0.7816164E-02  0.1186339E+00
        -11   -1    0    0    0    0  0.00000000000E+00  0.00000000000E+00  0.45593999997E+02  0.45594000000E+02  0.51100000000E-03 0.  1.
         11   -1    0    0    0    0 -0.00000000000E+00 -0.00000000000E+00 -0.45593999997E+02  0.45594000000E+02  0.51100000000E-03 0. -1.
    9900012    2    1    2    0    0  0.67467939387E+00 -0.63002618938E+00  0.73537434824E+00  0.90007787851E+02  0.90000049851E+02 0.  0.
         12    1    1    2    0    0 -0.67467939387E+00  0.63002618938E+00 -0.73537434824E+00  0.11802121487E+01  0.00000000000E+00 0. -1.
         11    1    3    3    0    0 -0.10903646407E+01 -0.93853929775E+01 -0.17372744860E+01  0.96069047717E+01  0.51100000000E-03 0. -1.
        -11    1    3    3    0    0 -0.12560505940E+01 -0.33087819608E+02 -0.13159764235E+02  0.35630897610E+02  0.51100000000E-03 0.  1.
         12    1    3    3    0    0  0.30210946285E+01  0.41843186396E+02  0.15632413069E+02  0.44769985469E+02  0.00000000000E+00 0. -1.
</event>
<event>
 7    1  0.2148778E-015  0.9000766E+02  0.7816164E-02  0.1186339E+00
        -11   -1    0    0    0    0  0.00000000000E+00  0.00000000000E+00  0.45593999997E+02  0.45594000000E+02  0.51100000000E-03 0.  1.
         11   -1    0    0    0    0 -0.00000000000E+00 -0.00000000000E+00 -0.45593999997E+02  0.45594000000E+02  0.51100000000E-03 0. -1.
    9900012    2    1    2    0    0 -0.49815211618E+00  0.51883386678E+00 -0.93587122779E+00  0.90007661461E+02  0.89999921792E+02 0.  0.
         12    1    1    2    0    0  0.49815211618E+00 -0.51883386678E+00  0.93587122779E+00  0.11803385392E+01  0.00000000000E+00 0. -1.
         11    1    3    3    0    0 -0.17509327832E+02  0.27048799187E+02 -0.51292608698E+01  0.32627035047E+02  0.51100000000E-03 0. -1.
        -11    1    3    3    0    0 -0.68315402955E+01  0.10808320205E+02  0.26152731213E+01  0.13051029929E+02  0.51100000000E-03 0.  1.
        -12    1    3    3    0    0  0.23842716011E+02 -0.37338285525E+02  0.15781165207E+01  0.44329596485E+02  0.00000000000E+00 0.  1.
</event>
<event>
 7    1  0.2148778E-015  0.9000770E+02  0.7816164E-02  0.1186339E+00
        -11   -1    0    0    0    0  0.00000000000E+00  0.00000000000E+00  0.45593999997E+02  0.45594000000E+02  0.51100000000E-03 0. -1.
         11   -1    0    0    0    0 -0.00000000000E+00 -0.00000000000E+00 -0.45593999997E+02  0.45594000000E+02  0.51100000000E-03 0.  1.
    9900012    2    1    2    0    0  0.88115338336E+00 -0.71333380526E+00  0.32839199706E+00  0.90007695926E+02  0.89999956712E+02 0.  0.
         12    1    1    2    0    0 -0.88115338336E+00  0.71333380526E+00 -0.32839199706E+00  0.11803040737E+01  0.00000000000E+00 0. -1.
         11    1    3    3    0    0  0.40906629276E+02 -0.18021557463E+01  0.11155262202E+02  0.42438661137E+02  0.51100000000E-03 0. -1.
        -11    1    3    3    0    0 -0.11010041449E+02 -0.32440867833E+01  0.68024947800E+01  0.13342377871E+02  0.51100000000E-03 0.  1.
        -12    1    3    3    0    0 -0.29015434444E+02  0.43329087244E+01 -0.17629364985E+02  0.34226656918E+02  0.00000000000E+00 0.  1.
</event>
<event>
 7    1  0.2148778E-015  0.9000777E+02  0.7816164E-02  0.1186339E+00
        -11   -1    0    0    0    0  0.00000000000E+00  0.00000000000E+00  0.45593999997E+02  0.45594000000E+02  0.51100000000E-03 0.  1.
         11   -1    0    0    0    0 -0.00000000000E+00 -0.00000000000E+00 -0.45593999997E+02  0.45594000000E+02  0.51100000000E-03 0. -1.
    9900012    2    1    2    0    0  0.39570086174E+00  0.15824884373E+00  0.11006045442E+01  0.90007766027E+02  0.90000027738E+02 0.  0.
         12    1    1    2    0    0 -0.39570086174E+00 -0.15824884373E+00 -0.11006045442E+01  0.11802339731E+01  0.00000000000E+00 0. -1.
         11    1    3    3    0    0  0.16083002924E+02  0.34594997092E+02  0.17101939292E+02  0.41808529449E+02  0.51100000000E-03 0. -1.
        -11    1    3    3    0    0 -0.42542529557E+01 -0.67887223109E+01  0.68589609220E+01  0.10546599642E+02  0.51100000000E-03 0.  1.
        -12    1    3    3    0    0 -0.11433049107E+02 -0.27648025937E+02 -0.22860295670E+02  0.37652636936E+02  0.00000000000E+00 0.  1.
</event>
<event>
 7    1  0.2148778E-015  0.9000770E+02  0.7816164E-02  0.1186339E+00
        -11   -1    0    0    0    0  0.00000000000E+00  0.00000000000E+00  0.45593999997E+02  0.45594000000E+02  0.51100000000E-03 0.  1.
         11   -1    0    0    0    0 -0.00000000000E+00 -0.00000000000E+00 -0.45593999997E+02  0.45594000000E+02  0.51100000000E-03 0. -1.
    9900012    2    1    2    0    0  0.19690501418E+00 -0.39560826497E+00  0.10944535610E+01  0.90007700851E+02  0.89999961702E+02 0.  0.
         12    1    1    2    0    0 -0.19690501418E+00  0.39560826497E+00 -0.10944535610E+01  0.11802991490E+01  0.00000000000E+00 0. -1.
         11    1    3    3    0    0 -0.63050621667E+01  0.25779115597E+02 -0.27504248011E+02  0.38220416910E+02  0.51100000000E-03 0. -1.
        -11    1    3    3    0    0 -0.16256898553E+01 -0.56242348479E+01 -0.74675321864E+01  0.94888841465E+01  0.51100000000E-03 0.  1.
        -12    1    3    3    0    0  0.81276570361E+01 -0.20550489015E+02  0.36066233758E+02  0.42298399794E+02  0.00000000000E+00 0.  1.
</event>
<event>
 7    1  0.2148778E-015  0.9000774E+02  0.7816164E-02  0.1186339E+00
        -11   -1    0    0    0    0  0.00000000000E+00  0.00000000000E+00  0.45593999997E+02  0.45594000000E+02  0.51100000000E-03 0.  1.
         11   -1    0    0    0    0 -0.00000000000E+00 -0.00000000000E+00 -0.45593999997E+02  0.45594000000E+02  0.51100000000E-03 0. -1.
    9900012    2    1    2    0    0  0.11599434895E+01  0.19397069557E+00  0.99577240064E-01  0.90007741911E+02  0.90000003304E+02 0.  0.
         12    1    1    2    0    0 -0.11599434895E+01 -0.19397069557E+00 -0.99577240064E-01  0.11802580889E+01  0.00000000000E+00 0. -1.
         11    1    3    3    0    0  0.35150580388E+01 -0.21408564015E+01 -0.90954190784E+01  0.99832633753E+01  0.51100000000E-03 0. -1.
        -11    1    3    3    0    0  0.11388531724E+02  0.38089865399E+02  0.12241676238E+02  0.41598018442E+02  0.51100000000E-03 0.  1.
         12    1    3    3    0    0 -0.13743646273E+02 -0.35755038302E+02 -0.30466799192E+01  0.38426460094E+02  0.00000000000E+00 0. -1.
</event>
<event>
 7    1  0.2148778E-015  0.9000773E+02  0.7816164E-02  0.1186339E+00
        -11   -1    0    0    0    0  0.00000000000E+00  0.00000000000E+00  0.45593999997E+02  0.45594000000E+02  0.51100000000E-03 0. -1.
         11   -1    0    0    0    0 -0.00000000000E+00 -0.00000000000E+00 -0.45593999997E+02  0.45594000000E+02  0.51100000000E-03 0.  1.
    9900012    2    1    2    0    0  0.84838575882E-02  0.11229693261E+01 -0.36320075310E+00  0.90007725934E+02  0.89999987117E+02 0.  0.
         12    1    1    2    0    0 -0.84838575882E-02 -0.11229693261E+01  0.36320075310E+00  0.11802740657E+01  0.00000000000E+00 0. -1.
         11    1    3    3    0    0 -0.67678761262E+01  0.63868017387E+01 -0.29806576890E+01  0.97713716657E+01  0.51100000000E-03 0. -1.
        -11    1    3    3    0    0  0.12936612446E+00  0.33004667823E+02  0.18997940651E+02  0.38082103185E+02  0.51100000000E-03 0.  1.
         12    1    3    3    0    0  0.66469938593E+01 -0.38268500236E+02 -0.16380483715E+02  0.42154251084E+02  0.00000000000E+00 0. -1.
</event>
<event>
 7    1  0.2148778E-015  0.9000766E+02  0.7816164E-02  0.1186339E+00
        -11   -1    0    0    0    0  0.00000000000E+00  0.00000000000E+00  0.45593999997E+02  0.45594000000E+02  0.51100000000E-03 0. -1.
         11   -1    0    0    0    0 -0.00000000000E+00 -0.00000000000E+00 -0.45593999997E+02  0.45594000000E+02  0.51100000000E-03 0.  1.
    9900012    2    1    2    0    0  0.20206076460E+00 -0.88707531802E+00 -0.75197738019E+00  0.90007660577E+02  0.89999920897E+02 0.  0.
         12    1    1    2    0    0 -0.20206076460E+00  0.88707531802E+00  0.75197738019E+00  0.11803394227E+01  0.00000000000E+00 0. -1.
         11    1    3    3    0    0 -0.37058776880E+02 -0.46948222578E+01  0.12610845517E+02  0.39426231430E+02  0.51100000000E-03 0. -1.
        -11    1    3    3    0    0 -0.13914666844E+01 -0.67093498255E+01 -0.73953291875E+01  0.10081787970E+02  0.51100000000E-03 0.  1.
        -12    1    3    3    0    0  0.38652304329E+02  0.10517096765E+02 -0.59674937101E+01  0.40499641177E+02  0.00000000000E+00 0.  1.
</event>
<event>
 7    1  0.2148778E-015  0.9000780E+02  0.7816164E-02  0.1186339E+00
        -11   -1    0    0    0    0  0.00000000000E+00  0.00000000000E+00  0.45593999997E+02  0.45594000000E+02  0.51100000000E-03 0. -1.
         11   -1    0    0    0    0 -0.00000000000E+00 -0.00000000000E+00 -0.45593999997E+02  0.45594000000E+02  0.51100000000E-03 0.  1.
    9900012    2    1    2    0    0 -0.60537683524E+00  0.10026916117E+01  0.14492795558E+00  0.90007798452E+02  0.90000060592E+02 0.  0.
         12    1    1    2    0    0  0.60537683524E+00 -0.10026916117E+01 -0.14492795558E+00  0.11802015477E+01  0.00000000000E+00 0. -1.
         11    1    3    3    0    0  0.39707334382E+02  0.76453213538E+01  0.15100559925E+01  0.40464844145E+02  0.51100000000E-03 0. -1.
        -11    1    3    3    0    0 -0.26291685974E+01  0.23078688164E+00  0.93920951366E+01  0.97558824006E+01  0.51100000000E-03 0.  1.
        -12    1    3    3    0    0 -0.37683542620E+02 -0.68734166237E+01 -0.10757223174E+02  0.39787071906E+02  0.00000000000E+00 0.  1.
</event>
<event>
 7    1  0.2148778E-015  0.9000774E+02  0.7816164E-02  0.1186339E+00
        -11   -1    0    0    0    0  0.00000000000E+00  0.00000000000E+00  0.45593999997E+02  0.45594000000E+02  0.51100000000E-03 0.  1.
         11   -1    0    0    0    0 -0.00000000000E+00 -0.00000000000E+00 -0.45593999997E+02  0.45594000000E+02  0.51100000000E-03 0. -1.
    9900012    2    1    2    0    0 -0.60189102128E+00 -0.92782874741E+00  0.41215392482E+00  0.90007741620E+02  0.90000003009E+02 0.  0.
         12    1    1    2    0    0  0.60189102128E+00  0.92782874741E+00 -0.41215392482E+00  0.11802583801E+01  0.00000000000E+00 0. -1.
         11    1    3    3    0    0  0.12085841985E+02  0.74219273601E+01 -0.47437424024E+01  0.14955122015E+02  0.51100000000E-03 0. -1.
        -11    1    3    3    0    0 -0.58592959863E+01 -0.27259151397E+02  0.31400386782E+02  0.41992582376E+02  0.51100000000E-03 0.  1.
         12    1    3    3    0    0 -0.68284370201E+01  0.18909395289E+02 -0.26244490455E+02  0.33060037229E+02  0.00000000000E+00 0. -1.
</event>
<event>
 7    1  0.2730562E-015  0.9000772E+02  0.7816164E-02  0.1186339E+00
        -11   -1    0    0    0    0  0.00000000000E+00  0.00000000000E+00  0.45593999997E+02  0.45594000000E+02  0.51100000000E-03 0. -1.
         11   -1    0    0    0    0 -0.00000000000E+00 -0.00000000000E+00 -0.45593999997E+02  0.45594000000E+02  0.51100000000E-03 0.  1.
    9900012    2    1    2    0    0  0.69881631069E+00 -0.25359812684E+00 -0.91673252442E+00  0.90007722589E+02  0.89999983727E+02 0.  0.
         12    1    1    2    0    0 -0.69881631069E+00  0.25359812684E+00  0.91673252442E+00  0.11802774112E+01  0.00000000000E+00 0. -1.
         11    1    3    3    0    0  0.88701508903E+01 -0.15929948657E+00 -0.25131505273E+01  0.92206767092E+01  0.51100000000E-03 0. -1.
        -11    1    3    3    0    0 -0.24446156774E+02 -0.21049827049E+02 -0.26788209680E+02  0.41932302321E+02  0.51100000000E-03 0.  1.
         12    1    3    3    0    0  0.16274822195E+02  0.20955528409E+02  0.28384627683E+02  0.38854743559E+02  0.00000000000E+00 0. -1.
</event>
<event>
 7    1  0.2148778E-015  0.9000775E+02  0.7816164E-02  0.1186339E+00
        -11   -1    0    0    0    0  0.00000000000E+00  0.00000000000E+00  0.45593999997E+02  0.45594000000E+02  0.51100000000E-03 0. -1.
         11   -1    0    0    0    0 -0.00000000000E+00 -0.00000000000E+00 -0.45593999997E+02  0.45594000000E+02  0.51100000000E-03 0.  1.
    9900012    2    1    2    0    0  0.73753387402E+00  0.88137072292E+00 -0.26875109413E+00  0.90007746757E+02  0.90000008214E+02 0.  0.
         12    1    1    2    0    0 -0.73753387402E+00 -0.88137072292E+00  0.26875109413E+00  0.11802532428E+01  0.00000000000E+00 0. -1.
         11    1    3    3    0    0 -0.75878750718E+01 -0.78740945612E+00 -0.83525508380E+01  0.11311983359E+02  0.51100000000E-03 0. -1.
        -11    1    3    3    0    0  0.17389992032E+02 -0.35569694295E+02  0.33557172067E+00  0.39594539822E+02  0.51100000000E-03 0.  1.
         12    1    3    3    0    0 -0.90645830860E+01  0.37238474474E+02  0.77482280232E+01  0.39101223576E+02  0.00000000000E+00 0. -1.
</event>
<event>
 7    1  0.2148778E-015  0.9000776E+02  0.7816164E-02  0.1186339E+00
        -11   -1    0    0    0    0  0.00000000000E+00  0.00000000000E+00  0.45593999997E+02  0.45594000000E+02  0.51100000000E-03 0. -1.
         11   -1    0    0    0    0 -0.00000000000E+00 -0.00000000000E+00 -0.45593999997E+02  0.45594000000E+02  0.51100000000E-03 0.  1.
    9900012    2    1    2    0    0  0.43062573145E+00  0.70914929207E+00 -0.83943017009E+00  0.90007756699E+02  0.90000018287E+02 0.  0.
         12    1    1    2    0    0 -0.43062573145E+00 -0.70914929207E+00  0.83943017009E+00  0.11802433010E+01  0.00000000000E+00 0. -1.
         11    1    3    3    0    0 -0.42501727359E+01  0.70747940158E+01  0.25677705904E+01  0.86435018781E+01  0.51100000000E-03 0. -1.
        -11    1    3    3    0    0 -0.31968115135E+02  0.14356167271E+02 -0.14343552327E+02  0.37865517527E+02  0.51100000000E-03 0.  1.
         12    1    3    3    0    0  0.36648913603E+02 -0.20721811994E+02  0.10936351566E+02  0.43498737294E+02  0.00000000000E+00 0. -1.
</event>
<event>
 7    1  0.2148778E-015  0.9000773E+02  0.7816164E-02  0.1186339E+00
        -11   -1    0    0    0    0  0.00000000000E+00  0.00000000000E+00  0.45593999997E+02  0.45594000000E+02  0.51100000000E-03 0.  1.
         11   -1    0    0    0    0 -0.00000000000E+00 -0.00000000000E+00 -0.45593999997E+02  0.45594000000E+02  0.51100000000E-03 0. -1.
    9900012    2    1    2    0    0  0.50479026919E+00 -0.41645735598E-01  0.10660590205E+01  0.90007733327E+02  0.89999994607E+02 0.  0.
         12    1    1    2    0    0 -0.50479026919E+00  0.41645735598E-01 -0.10660590205E+01  0.11802666725E+01  0.00000000000E+00 0. -1.
         11    1    3    3    0    0  0.11045061295E+02 -0.30777208068E+02  0.94858863563E+01  0.34047201877E+02  0.51100000000E-03 0. -1.
        -11    1    3    3    0    0  0.28069282048E+01 -0.10954807389E+02  0.35777575321E+00  0.11314356129E+02  0.51100000000E-03 0.  1.
        -12    1    3    3    0    0 -0.13347199231E+02  0.41690369721E+02 -0.87776030890E+01  0.44646175321E+02  0.00000000000E+00 0.  1.
</event>
<event>
 7    1  0.2148778E-015  0.9000776E+02  0.7816164E-02  0.1186339E+00
        -11   -1    0    0    0    0  0.00000000000E+00  0.00000000000E+00  0.45593999997E+02  0.45594000000E+02  0.51100000000E-03 0.  1.
         11   -1    0    0    0    0 -0.00000000000E+00 -0.00000000000E+00 -0.45593999997E+02  0.45594000000E+02  0.51100000000E-03 0. -1.
    9900012    2    1    2    0    0  0.51492816452E+00  0.99634823724E+00  0.36757998099E+00  0.90007756014E+02  0.90000017593E+02 0.  0.
         12    1    1    2    0    0 -0.51492816452E+00 -0.99634823724E+00 -0.36757998099E+00  0.11802439862E+01  0.00000000000E+00 0. -1.
         11    1    3    3    0    0 -0.53316173492E+01  0.31407250979E+01 -0.38739315803E+02  0.39230407681E+02  0.51100000000E-03 0. -1.
        -11    1    3    3    0    0 -0.77285335698E+01 -0.70129915728E+00 -0.15291304149E+01  0.79095064153E+01  0.51100000000E-03 0.  1.
        -12    1    3    3    0    0  0.13575079084E+02 -0.14430777033E+01  0.40636026199E+02  0.42867841917E+02  0.00000000000E+00 0.  1.
</event>
<event>
 7    1  0.2148778E-015  0.9000778E+02  0.7816164E-02  0.1186339E+00
        -11   -1    0    0    0    0  0.00000000000E+00  0.00000000000E+00  0.45593999997E+02  0.45594000000E+02  0.51100000000E-03 0.  1.
         11   -1    0    0    0    0 -0.00000000000E+00 -0.00000000000E+00 -0.45593999997E+02  0.45594000000E+02  0.51100000000E-03 0. -1.
    9900012    2    1    2    0    0  0.80860275651E+00 -0.65285222103E+00  0.55934494308E+00  0.90007779171E+02  0.90000041056E+02 0.  0.
         12    1    1    2    0    0 -0.80860275651E+00  0.65285222103E+00 -0.55934494308E+00  0.11802208292E+01  0.00000000000E+00 0. -1.
         11    1    3    3    0    0 -0.47572041670E+01 -0.86890261616E+01  0.16816034339E+01  0.10047783711E+02  0.51100000000E-03 0. -1.
        -11    1    3    3    0    0 -0.22901216936E+02  0.22522786386E+02  0.23358891793E+02  0.39716236854E+02  0.51100000000E-03 0.  1.
         12    1    3    3    0    0  0.28467023860E+02 -0.14486612446E+02 -0.24481150284E+02  0.40243758607E+02  0.00000000000E+00 0. -1.
</event>
<event>
 7    1  0.2148778E-015  0.9000752E+02  0.7816164E-02  0.1186339E+00
        -11   -1    0    0    0    0  0.00000000000E+00  0.00000000000E+00  0.45593999997E+02  0.45594000000E+02  0.51100000000E-03 0.  1.
         11   -1    0    0    0    0 -0.00000000000E+00 -0.00000000000E+00 -0.45593999997E+02  0.45594000000E+02  0.51100000000E-03 0. -1.
    9900012    2    1    2    0    0 -0.17583348964E+00  0.18239526792E+00  0.11529705613E+01  0.90007522738E+02  0.89999781238E+02 0.  0.
         12    1    1    2    0    0  0.17583348964E+00 -0.18239526792E+00 -0.11529705613E+01  0.11804772615E+01  0.00000000000E+00 0. -1.
         11    1    3    3    0    0  0.29322911794E+00  0.79812514863E+01  0.58494413918E+01  0.98996122884E+01  0.51100000000E-03 0. -1.
        -11    1    3    3    0    0 -0.33408872737E+02  0.17354599455E+02  0.36715020038E+01  0.37826113031E+02  0.51100000000E-03 0.  1.
         12    1    3    3    0    0  0.32939810129E+02 -0.25153455673E+02 -0.83679728344E+01  0.42281797419E+02  0.00000000000E+00 0. -1.
</event>
<event>
 7    1  0.2391583E-015  0.9000775E+02  0.7816164E-02  0.1186339E+00
        -11   -1    0    0    0    0  0.00000000000E+00  0.00000000000E+00  0.45593999997E+02  0.45594000000E+02  0.51100000000E-03 0. -1.
         11   -1    0    0    0    0 -0.00000000000E+00 -0.00000000000E+00 -0.45593999997E+02  0.45594000000E+02  0.51100000000E-03 0.  1.
    9900012    2    1    2    0    0  0.73604848078E+00  0.58480722572E+00 -0.71360664683E+00  0.90007745238E+02  0.90000006675E+02 0.  0.
         12    1    1    2    0    0 -0.73604848078E+00 -0.58480722572E+00  0.71360664683E+00  0.11802547622E+01  0.00000000000E+00 0. -1.
         11    1    3    3    0    0 -0.17788071862E+01 -0.19900748386E+00  0.89856672549E+01  0.91622036247E+01  0.51100000000E-03 0. -1.
        -11    1    3    3    0    0  0.81603526142E+01 -0.35979270213E+02 -0.20380598645E+02  0.42148167709E+02  0.51100000000E-03 0.  1.
         12    1    3    3    0    0 -0.56454969472E+01  0.36763084923E+02  0.10681324743E+02  0.38697373904E+02  0.00000000000E+00 0. -1.
</event>
<event>
 7    1  0.2148778E-015  0.9000768E+02  0.7816164E-02  0.1186339E+00
        -11   -1    0    0    0    0  0.00000000000E+00  0.00000000000E+00  0.45593999997E+02  0.45594000000E+02  0.51100000000E-03 0.  1.
         11   -1    0    0    0    0 -0.00000000000E+00 -0.00000000000E+00 -0.45593999997E+02  0.45594000000E+02  0.51100000000E-03 0. -1.
    9900012    2    1    2    0    0 -0.89630352164E-01 -0.55440670376E-01  0.11756096468E+01  0.90007675761E+02  0.89999936281E+02 0.  0.
         12    1    1    2    0    0  0.89630352164E-01  0.55440670376E-01 -0.11756096468E+01  0.11803242392E+01  0.00000000000E+00 0. -1.
         11    1    3    3    0    0  0.76415644590E+00 -0.31358721277E+02 -0.15381057662E+02  0.34936088365E+02  0.51100000000E-03 0. -1.
        -11    1    3    3    0    0  0.62192296874E+00 -0.10163638316E+02 -0.53366095607E+00  0.10196623278E+02  0.51100000000E-03 0.  1.
        -12    1    3    3    0    0 -0.14757097668E+01  0.41466918923E+02  0.17090328265E+02  0.44874964117E+02  0.00000000000E+00 0.  1.
</event>
<event>
 7    1  0.2148778E-015  0.9000773E+02  0.7816164E-02  0.1186339E+00
        -11   -1    0    0    0    0  0.00000000000E+00  0.00000000000E+00  0.45593999997E+02  0.45594000000E+02  0.51100000000E-03 0.  1.
         11   -1    0    0    0    0 -0.00000000000E+00 -0.00000000000E+00 -0.45593999997E+02  0.45594000000E+02  0.51100000000E-03 0. -1.
    9900012    2    1    2    0    0  0.85879386388E+00 -0.87167126148E-01  0.80492599667E+00  0.90007732713E+02  0.89999993985E+02 0.  0.
         12    1    1    2    0    0 -0.85879386388E+00  0.87167126148E-01 -0.80492599667E+00  0.11802672869E+01  0.00000000000E+00 0. -1.
         11    1    3    3    0    0 -0.19975778590E+02 -0.11445705970E+02 -0.32751813904E+02  0.40033950963E+02  0.51100000000E-03 0. -1.
        -11    1    3    3    0    0 -0.46519100166E+01 -0.47830144387E+01  0.42275891790E+01  0.78987343576E+01  0.51100000000E-03 0.  1.
        -12    1    3    3    0    0  0.25486482470E+02  0.16141553283E+02  0.29329150722E+02  0.42075047393E+02  0.00000000000E+00 0.  1.
</event>
<event>
 7    1  0.2148778E-015  0.9000772E+02  0.7816164E-02  0.1186339E+00
        -11   -1    0    0    0    0  0.00000000000E+00  0.00000000000E+00  0.45593999997E+02  0.45594000000E+02  0.51100000000E-03 0. -1.
         11   -1    0    0    0    0 -0.00000000000E+00 -0.00000000000E+00 -0.45593999997E+02  0.45594000000E+02  0.51100000000E-03 0.  1.
    9900012    2    1    2    0    0  0.11274389694E-01  0.11243095147E+01 -0.35896025951E+00  0.90007723988E+02  0.89999985145E+02 0.  0.
         12    1    1    2    0    0 -0.11274389694E-01 -0.11243095147E+01  0.35896025951E+00  0.11802760120E+01  0.00000000000E+00 0. -1.
         11    1    3    3    0    0  0.23356841635E+02 -0.28555052670E+01 -0.13955014221E+02  0.27357601936E+02  0.51100000000E-03 0. -1.
        -11    1    3    3    0    0  0.12760115483E+02  0.31136177181E+01 -0.12469158869E+02  0.18110634600E+02  0.51100000000E-03 0.  1.
        -12    1    3    3    0    0 -0.36105682728E+02  0.86619706363E+00  0.26065212831E+02  0.44539487453E+02  0.00000000000E+00 0.  1.
</event>
<event>
 7    1  0.2148778E-015  0.9000769E+02  0.7816164E-02  0.1186339E+00
        -11   -1    0    0    0    0  0.00000000000E+00  0.00000000000E+00  0.45593999997E+02  0.45594000000E+02  0.51100000000E-03 0.  1.
         11   -1    0    0    0    0 -0.00000000000E+00 -0.00000000000E+00 -0.45593999997E+02  0.45594000000E+02  0.51100000000E-03 0. -1.
    9900012    2    1    2    0    0  0.69079237421E-01  0.98974006052E+00  0.63935692344E+00  0.90007688768E+02  0.89999949460E+02 0.  0.
         12    1    1    2    0    0 -0.69079237421E-01 -0.98974006052E+00 -0.63935692344E+00  0.11803112318E+01  0.00000000000E+00 0. -1.
         11    1    3    3    0    0 -0.13983303526E+02 -0.10193788567E+02 -0.28509966194E+02  0.33350626313E+02  0.51100000000E-03 0. -1.
        -11    1    3    3    0    0  0.27558153348E+01  0.11786857589E+02 -0.10128076793E+02  0.15782980383E+02  0.51100000000E-03 0.  1.
        -12    1    3    3    0    0  0.11296567428E+02 -0.60332896189E+00  0.39277399910E+02  0.40874082072E+02  0.00000000000E+00 0.  1.
</event>
<event>
 7    1  0.2148778E-015  0.9000764E+02  0.7816164E-02  0.1186339E+00
        -11   -1    0    0    0    0  0.00000000000E+00  0.00000000000E+00  0.45593999997E+02  0.45594000000E+02  0.51100000000E-03 0.  1.
         11   -1    0    0    0    0 -0.00000000000E+00 -0.00000000000E+00 -0.45593999997E+02  0.45594000000E+02  0.51100000000E-03 0. -1.
    9900012    2    1    2    0    0  0.75340456201E-01 -0.62545830910E+00  0.99818274784E+00  0.90007642817E+02  0.89999902902E+02 0.  0.
         12    1    1    2    0    0 -0.75340456201E-01  0.62545830910E+00 -0.99818274784E+00  0.11803571827E+01  0.00000000000E+00 0. -1.
         11    1    3    3    0    0 -0.50600100179E+01 -0.70696946441E+01 -0.29380759808E+01  0.91769588902E+01  0.51100000000E-03 0. -1.
        -11    1    3    3    0    0  0.15903863873E+02 -0.33917282589E+02 -0.58798998749E+01  0.37919495871E+02  0.51100000000E-03 0.  1.
         12    1    3    3    0    0 -0.10768513398E+02  0.40361518924E+02  0.98161586035E+01  0.42911188056E+02  0.00000000000E+00 0. -1.
</event>
<event>
 7    1  0.2148778E-015  0.9000735E+02  0.7816164E-02  0.1186340E+00
        -11   -1    0    0    0    0  0.00000000000E+00  0.00000000000E+00  0.45593999997E+02  0.45594000000E+02  0.51100000000E-03 0.  1.
         11   -1    0    0    0    0 -0.00000000000E+00 -0.00000000000E+00 -0.45593999997E+02  0.45594000000E+02  0.51100000000E-03 0. -1.
    9900012    2    1    2    0    0  0.92377773422E+00 -0.73521175374E+00 -0.65694959893E-02  0.90007345612E+02  0.89999601773E+02 0.  0.
         12    1    1    2    0    0 -0.92377773422E+00  0.73521175374E+00  0.65694959893E-02  0.11806543878E+01  0.00000000000E+00 0. -1.
         11    1    3    3    0    0  0.56781034987E+01  0.79486880926E+01 -0.79050305121E+00  0.98003773943E+01  0.51100000000E-03 0. -1.
        -11    1    3    3    0    0  0.40044278521E+01  0.32115512695E+02 -0.14898094252E+02  0.35628567340E+02  0.51100000000E-03 0.  1.
         12    1    3    3    0    0 -0.87587536166E+01 -0.40799412542E+02  0.15682027808E+02  0.44578400878E+02  0.00000000000E+00 0. -1.
</event>
<event>
 7    1  0.2148778E-015  0.9000779E+02  0.7816164E-02  0.1186339E+00
        -11   -1    0    0    0    0  0.00000000000E+00  0.00000000000E+00  0.45593999997E+02  0.45594000000E+02  0.51100000000E-03 0. -1.
         11   -1    0    0    0    0 -0.00000000000E+00 -0.00000000000E+00 -0.45593999997E+02  0.45594000000E+02  0.51100000000E-03 0.  1.
    9900012    2    1    2    0    0 -0.11797771260E+00  0.11576878909E+01  0.19682947327E+00  0.90007787377E+02  0.90000049371E+02 0.  0.
         12    1    1    2    0    0  0.11797771260E+00 -0.11576878909E+01 -0.19682947327E+00  0.11802126227E+01  0.00000000000E+00 0. -1.
         11    1    3    3    0    0  0.26924111528E+02  0.28342306540E+01  0.31560102307E+02  0.41581013731E+02  0.51100000000E-03 0. -1.
        -11    1    3    3    0    0 -0.14971712873E+00 -0.80300438132E+01 -0.23682364202E+01  0.83733244809E+01  0.51100000000E-03 0.  1.
        -12    1    3    3    0    0 -0.26892372112E+02  0.63535010501E+01 -0.28995036414E+02  0.40053449165E+02  0.00000000000E+00 0.  1.
</event>
<event>
 7    1  0.2148778E-015  0.9000771E+02  0.7816164E-02  0.1186339E+00
        -11   -1    0    0    0    0  0.00000000000E+00  0.00000000000E+00  0.45593999997E+02  0.45594000000E+02  0.51100000000E-03 0.  1.
         11   -1    0    0    0    0 -0.00000000000E+00 -0.00000000000E+00 -0.45593999997E+02  0.45594000000E+02  0.51100000000E-03 0. -1.
    9900012    2    1    2    0    0  0.11060419245E+01  0.19520559896E+00  0.36282242556E+00  0.90007714409E+02  0.89999975439E+02 0.  0.
         12    1    1    2    0    0 -0.11060419245E+01 -0.19520559896E+00 -0.36282242556E+00  0.11802855913E+01  0.00000000000E+00 0. -1.
         11    1    3    3    0    0  0.34243341632E+02 -0.29444137335E+01 -0.20619528172E+02  0.40080431144E+02  0.51100000000E-03 0. -1.
        -11    1    3    3    0    0  0.84750879153E+00 -0.84089487107E+01  0.20511742677E+00  0.84540382653E+01  0.51100000000E-03 0.  1.
        -12    1    3    3    0    0 -0.33984808499E+02  0.11548568043E+02  0.20777233171E+02  0.41473245000E+02  0.00000000000E+00 0.  1.
</event>
<event>
 7    1  0.2148778E-015  0.9000773E+02  0.7816164E-02  0.1186339E+00
        -11   -1    0    0    0    0  0.00000000000E+00  0.00000000000E+00  0.45593999997E+02  0.45594000000E+02  0.51100000000E-03 0. -1.
         11   -1    0    0    0    0 -0.00000000000E+00 -0.00000000000E+00 -0.45593999997E+02  0.45594000000E+02  0.51100000000E-03 0.  1.
    9900012    2    1    2    0    0  0.48563248260E+00  0.53437356447E+00 -0.93362376840E+00  0.90007725729E+02  0.89999986908E+02 0.  0.
         12    1    1    2    0    0 -0.48563248260E+00 -0.53437356447E+00  0.93362376840E+00  0.11802742713E+01  0.00000000000E+00 0. -1.
         11    1    3    3    0    0 -0.28846176230E+02  0.26697534564E+02 -0.86753728929E+01  0.40250743223E+02  0.51100000000E-03 0. -1.
        -11    1    3    3    0    0  0.14357510690E+00 -0.49156611566E+01 -0.87721818732E+01  0.10056615410E+02  0.51100000000E-03 0.  1.
        -12    1    3    3    0    0  0.29188233606E+02 -0.21247499843E+02  0.16513930998E+02  0.39700367096E+02  0.00000000000E+00 0.  1.
</event>
<event>
 7    1  0.2148778E-015  0.9000749E+02  0.7816164E-02  0.1186340E+00
        -11   -1    0    0    0    0  0.00000000000E+00  0.00000000000E+00  0.45593999997E+02  0.45594000000E+02  0.51100000000E-03 0. -1.
         11   -1    0    0    0    0 -0.00000000000E+00 -0.00000000000E+00 -0.45593999997E+02  0.45594000000E+02  0.51100000000E-03 0.  1.
    9900012    2    1    2    0    0 -0.47540728053E+00 -0.77917469185E+00 -0.74865000618E+00  0.90007490739E+02  0.89999748817E+02 0.  0.
         12    1    1    2    0    0  0.47540728053E+00  0.77917469185E+00  0.74865000618E+00  0.11805092607E+01  0.00000000000E+00 0. -1.
         11    1    3    3    0    0 -0.13586888802E+01  0.28909951605E+01 -0.99884344569E+01  0.10486787480E+02  0.51100000000E-03 0. -1.
        -11    1    3    3    0    0  0.76210255316E+01  0.36616321018E+02 -0.98641823960E+00  0.37414008289E+02  0.51100000000E-03 0.  1.
         12    1    3    3    0    0 -0.67377439319E+01 -0.40286490870E+02  0.10226202690E+02  0.42106694971E+02  0.00000000000E+00 0. -1.
</event>
<event>
 7    1  0.2148778E-015  0.9000769E+02  0.7816164E-02  0.1186339E+00
        -11   -1    0    0    0    0  0.00000000000E+00  0.00000000000E+00  0.45593999997E+02  0.45594000000E+02  0.51100000000E-03 0.  1.
         11   -1    0    0    0    0 -0.00000000000E+00 -0.00000000000E+00 -0.45593999997E+02  0.45594000000E+02  0.51100000000E-03 0. -1.
    9900012    2    1    2    0    0 -0.62959030715E+00 -0.61470752321E+00  0.78669153784E+00  0.90007689503E+02  0.89999950204E+02 0.  0.
         12    1    1    2    0    0  0.62959030715E+00  0.61470752321E+00 -0.78669153784E+00  0.11803104971E+01  0.00000000000E+00 0. -1.
         11    1    3    3    0    0  0.18907854126E+02  0.51406790323E+01 -0.34579146147E+02  0.39744822016E+02  0.51100000000E-03 0. -1.
        -11    1    3    3    0    0 -0.10741586120E+02 -0.36834454274E+01 -0.22503889897E+01  0.11576428355E+02  0.51100000000E-03 0.  1.
        -12    1    3    3    0    0 -0.87958583135E+01 -0.20719411282E+01  0.37616226675E+02  0.38686439132E+02  0.00000000000E+00 0.  1.
</event>
<event>
 7    1  0.2148778E-015  0.9000774E+02  0.7816164E-02  0.1186339E+00
        -11   -1    0    0    0    0  0.00000000000E+00  0.00000000000E+00  0.45593999997E+02  0.45594000000E+02  0.51100000000E-03 0.  1.
         11   -1    0    0    0    0 -0.00000000000E+00 -0.00000000000E+00 -0.45593999997E+02  0.45594000000E+02  0.51100000000E-03 0. -1.
    9900012    2    1    2    0    0  0.11276346320E+01  0.25473563476E+00 -0.23785283999E+00  0.90007735589E+02  0.89999996899E+02 0.  0.
         12    1    1    2    0    0 -0.11276346320E+01 -0.25473563476E+00  0.23785283999E+00  0.11802644113E+01  0.00000000000E+00 0. -1.
         11    1    3    3    0    0 -0.79046207190E+01  0.34254906715E+02 -0.21883678378E+02  0.41409866486E+02  0.51100000000E-03 0. -1.
        -11    1    3    3    0    0 -0.76451127798E+01 -0.58093780242E+01  0.50866058658E+00  0.96153709391E+01  0.51100000000E-03 0.  1.
        -12    1    3    3    0    0  0.16677368131E+02 -0.28190793056E+02  0.21137164952E+02  0.38982498164E+02  0.00000000000E+00 0.  1.
</event>
<event>
 7    1  0.2148778E-015  0.9000776E+02  0.7816164E-02  0.1186339E+00
        -11   -1    0    0    0    0  0.00000000000E+00  0.00000000000E+00  0.45593999997E+02  0.45594000000E+02  0.51100000000E-03 0.  1.
         11   -1    0    0    0    0 -0.00000000000E+00 -0.00000000000E+00 -0.45593999997E+02  0.45594000000E+02  0.51100000000E-03 0. -1.
    9900012    2    1    2    0    0 -0.45632265704E+00 -0.83836829383E+00  0.69417706919E+00  0.90007756988E+02  0.90000018580E+02 0.  0.
         12    1    1    2    0    0  0.45632265704E+00  0.83836829383E+00 -0.69417706919E+00  0.11802430118E+01  0.00000000000E+00 0. -1.
         11    1    3    3    0    0 -0.58381747677E+01  0.66926946591E+01  0.67022889411E+00  0.89064950149E+01  0.51100000000E-03 0. -1.
        -11    1    3    3    0    0 -0.29687889017E+01  0.20113689819E+02  0.32064404531E+02  0.37967094488E+02  0.51100000000E-03 0.  1.
         12    1    3    3    0    0  0.83506410124E+01 -0.27644752772E+02 -0.32040456356E+02  0.43134167485E+02  0.00000000000E+00 0. -1.
</event>
<event>
 7    1  0.2148778E-015  0.9000769E+02  0.7816164E-02  0.1186339E+00
        -11   -1    0    0    0    0  0.00000000000E+00  0.00000000000E+00  0.45593999997E+02  0.45594000000E+02  0.51100000000E-03 0.  1.
         11   -1    0    0    0    0 -0.00000000000E+00 -0.00000000000E+00 -0.45593999997E+02  0.45594000000E+02  0.51100000000E-03 0. -1.
    9900012    2    1    2    0    0  0.26892497319E+00  0.71960046981E+00  0.89609669293E+00  0.90007688702E+02  0.89999949393E+02 0.  0.
         12    1    1    2    0    0 -0.26892497319E+00 -0.71960046981E+00 -0.89609669293E+00  0.11803112981E+01  0.00000000000E+00 0. -1.
         11    1    3    3    0    0  0.17477414636E+02  0.31605097968E+02  0.19857740342E+00  0.36116224514E+02  0.51100000000E-03 0. -1.
        -11    1    3    3    0    0  0.34335556435E+01  0.82485311810E+01  0.34118126975E+01  0.95638923638E+01  0.51100000000E-03 0.  1.
        -12    1    3    3    0    0 -0.20642045307E+02 -0.39134028679E+02 -0.27142934080E+01  0.44327571824E+02  0.00000000000E+00 0.  1.
</event>
<event>
 7    1  0.2148778E-015  0.9000770E+02  0.7816164E-02  0.1186339E+00
        -11   -1    0    0    0    0  0.00000000000E+00  0.00000000000E+00  0.45593999997E+02  0.45594000000E+02  0.51100000000E-03 0.  1.
         11   -1    0    0    0    0 -0.00000000000E+00 -0.00000000000E+00 -0.45593999997E+02  0.45594000000E+02  0.51100000000E-03 0. -1.
    9900012    2    1    2    0    0  0.88095426877E+00  0.68849500055E-01  0.78248209936E+00  0.90007703888E+02  0.89999964779E+02 0.  0.
         12    1    1    2    0    0 -0.88095426877E+00 -0.68849500055E-01 -0.78248209936E+00  0.11802961125E+01  0.00000000000E+00 0. -1.
         11    1    3    3    0    0  0.83283014508E+00  0.77009622126E+01  0.58378617611E+01  0.96994358214E+01  0.51100000000E-03 0. -1.
        -11    1    3    3    0    0 -0.20055083003E+02 -0.31713302226E+02  0.17765862706E+02  0.41515849627E+02  0.51100000000E-03 0.  1.
         12    1    3    3    0    0  0.20103207127E+02  0.24081189513E+02 -0.22821242367E+02  0.38792418439E+02  0.00000000000E+00 0. -1.
</event>
<event>
 7    1  0.2476062E-015  0.9000777E+02  0.7816164E-02  0.1186339E+00
        -11   -1    0    0    0    0  0.00000000000E+00  0.00000000000E+00  0.45593999997E+02  0.45594000000E+02  0.51100000000E-03 0.  1.
         11   -1    0    0    0    0 -0.00000000000E+00 -0.00000000000E+00 -0.45593999997E+02  0.45594000000E+02  0.51100000000E-03 0. -1.
    9900012    2    1    2    0    0 -0.34258807604E+00  0.11255450749E+01  0.93403716425E-01  0.90007770124E+02  0.90000031890E+02 0.  0.
         12    1    1    2    0    0  0.34258807604E+00 -0.11255450749E+01 -0.93403716425E-01  0.11802298758E+01  0.00000000000E+00 0. -1.
         11    1    3    3    0    0 -0.76341625886E+01  0.53971458820E+01 -0.20980504551E+01  0.95818285350E+01  0.51100000000E-03 0. -1.
        -11    1    3    3    0    0 -0.30254450888E+02  0.18391583147E+01  0.22080525299E+02  0.37500185327E+02  0.51100000000E-03 0.  1.
         12    1    3    3    0    0  0.37546025400E+02 -0.61107591218E+01 -0.19889071127E+02  0.42925756262E+02  0.00000000000E+00 0. -1.
</event>
<event>
 8    1  0.2148778E-015  0.9000776E+02  0.7816164E-02  0.1186339E+00
        -11   -1    0    0    0    0  0.00000000000E+00  0.00000000000E+00  0.45593999997E+02  0.45594000000E+02  0.51100000000E-03 0.  1.
         11   -1    0    0    0    0 -0.00000000000E+00 -0.00000000000E+00 -0.45593999997E+02  0.45594000000E+02  0.51100000000E-03 0. -1.
    9900012    2    1    2    0    0  0.95221524340E+00 -0.69534398621E+00  0.52501665248E-01  0.90007756994E+02  0.90000018586E+02 0.  0.
         23    2    3    3    0    0 -0.21562652740E+02  0.10407550026E+02  0.13272628379E+02  0.61635846835E+02  0.55222729562E+02 0.  0.
         12    1    1    2    0    0 -0.95221524340E+00  0.69534398621E+00 -0.52501665248E-01  0.11802430062E+01  0.00000000000E+00 0. -1.
         11    1    4    4    0    0  0.18387969327E+02  0.83240113283E+01  0.45801216820E+01  0.20697441761E+02  0.51100000000E-03 0. -1.
        -11    1    4    4    0    0 -0.39950622067E+02  0.20835386975E+01  0.86925066971E+01  0.40938405074E+02  0.51100000000E-03 0.  1.
         12    1    3    3    0    0  0.22514867983E+02 -0.11102894012E+02 -0.13220126714E+02  0.28371910159E+02  0.00000000000E+00 0. -1.
</event>
<event>
 7    1  0.2148778E-015  0.9000735E+02  0.7816164E-02  0.1186340E+00
        -11   -1    0    0    0    0  0.00000000000E+00  0.00000000000E+00  0.45593999997E+02  0.45594000000E+02  0.51100000000E-03 0. -1.
         11   -1    0    0    0    0 -0.00000000000E+00 -0.00000000000E+00 -0.45593999997E+02  0.45594000000E+02  0.51100000000E-03 0.  1.
    9900012    2    1    2    0    0 -0.10893592866E+00 -0.39897023230E+00 -0.11058429920E+01  0.90007350600E+02  0.89999606827E+02 0.  0.
         12    1    1    2    0    0  0.10893592866E+00  0.39897023230E+00  0.11058429920E+01  0.11806494000E+01  0.00000000000E+00 0. -1.
         11    1    3    3    0    0  0.27743354654E+02  0.34025256153E+01 -0.20132586793E+02  0.34446944121E+02  0.51100000000E-03 0. -1.
        -11    1    3    3    0    0 -0.14322095882E+02 -0.14941915274E+02 -0.89480296649E+01  0.22548846925E+02  0.51100000000E-03 0.  1.
        -12    1    3    3    0    0 -0.13530194701E+02  0.11140419427E+02  0.27974773466E+02  0.33011559553E+02  0.00000000000E+00 0.  1.
</event>
<event>
 7    1  0.2148778E-015  0.9000777E+02  0.7816164E-02  0.1186339E+00
        -11   -1    0    0    0    0  0.00000000000E+00  0.00000000000E+00  0.45593999997E+02  0.45594000000E+02  0.51100000000E-03 0. -1.
         11   -1    0    0    0    0 -0.00000000000E+00 -0.00000000000E+00 -0.45593999997E+02  0.45594000000E+02  0.51100000000E-03 0.  1.
    9900012    2    1    2    0    0 -0.10038592572E+01 -0.53244740398E+00 -0.31890889932E+00  0.90007772678E+02  0.90000034477E+02 0.  0.
         12    1    1    2    0    0  0.10038592572E+01  0.53244740398E+00  0.31890889932E+00  0.11802273223E+01  0.00000000000E+00 0. -1.
         11    1    3    3    0    0 -0.22545379193E+02  0.10814269143E+02 -0.31731624365E+02  0.40399734222E+02  0.51100000000E-03 0. -1.
        -11    1    3    3    0    0 -0.73648982727E+01 -0.84388649788E+00  0.40764108161E+01  0.84599643257E+01  0.51100000000E-03 0.  1.
        -12    1    3    3    0    0  0.28906418209E+02 -0.10502830049E+02  0.27336304650E+02  0.41148074130E+02  0.00000000000E+00 0.  1.
</event>
<event>
 7    1  0.2148778E-015  0.9000776E+02  0.7816164E-02  0.1186339E+00
        -11   -1    0    0    0    0  0.00000000000E+00  0.00000000000E+00  0.45593999997E+02  0.45594000000E+02  0.51100000000E-03 0.  1.
         11   -1    0    0    0    0 -0.00000000000E+00 -0.00000000000E+00 -0.45593999997E+02  0.45594000000E+02  0.51100000000E-03 0. -1.
    9900012    2    1    2    0    0 -0.35679137193E+00 -0.50787477242E+00  0.10038546655E+01  0.90007762288E+02  0.90000023950E+02 0.  0.
         12    1    1    2    0    0  0.35679137193E+00  0.50787477242E+00 -0.10038546655E+01  0.11802377120E+01  0.00000000000E+00 0. -1.
         11    1    3    3    0    0 -0.24995261145E+02 -0.29763064849E+02  0.18550407759E+02  0.43066468827E+02  0.51100000000E-03 0. -1.
        -11    1    3    3    0    0  0.50484533710E+00  0.72225842758E+01  0.35308208189E+01  0.80552646357E+01  0.51100000000E-03 0.  1.
        -12    1    3    3    0    0  0.24133624436E+02  0.22032605801E+02 -0.21077373913E+02  0.38886028826E+02  0.00000000000E+00 0.  1.
</event>
<event>
 7    1  0.2148778E-015  0.9000775E+02  0.7816164E-02  0.1186339E+00
        -11   -1    0    0    0    0  0.00000000000E+00  0.00000000000E+00  0.45593999997E+02  0.45594000000E+02  0.51100000000E-03 0.  1.
         11   -1    0    0    0    0 -0.00000000000E+00 -0.00000000000E+00 -0.45593999997E+02  0.45594000000E+02  0.51100000000E-03 0. -1.
    9900012    2    1    2    0    0  0.44671972891E+00  0.10028701369E+01  0.43323056995E+00  0.90007747589E+02  0.90000009057E+02 0.  0.
         12    1    1    2    0    0 -0.44671972891E+00 -0.10028701369E+01 -0.43323056995E+00  0.11802524113E+01  0.00000000000E+00 0. -1.
         11    1    3    3    0    0 -0.76595787668E+01  0.46835981971E+01  0.25345982076E+01  0.93289563881E+01  0.51100000000E-03 0. -1.
        -11    1    3    3    0    0 -0.22913862795E+02 -0.29448434959E+02 -0.11926523653E+02  0.39172661339E+02  0.51100000000E-03 0.  1.
         12    1    3    3    0    0  0.31020161291E+02  0.25767706898E+02  0.98251560154E+01  0.41506129861E+02  0.00000000000E+00 0. -1.
</event>
<event>
 7    1  0.2148778E-015  0.9000774E+02  0.7816164E-02  0.1186339E+00
        -11   -1    0    0    0    0  0.00000000000E+00  0.00000000000E+00  0.45593999997E+02  0.45594000000E+02  0.51100000000E-03 0. -1.
         11   -1    0    0    0    0 -0.00000000000E+00 -0.00000000000E+00 -0.45593999997E+02  0.45594000000E+02  0.51100000000E-03 0.  1.
    9900012    2    1    2    0    0 -0.75766360422E+00  0.84729525103E+00 -0.31788380958E+00  0.90007740073E+02  0.90000001442E+02 0.  0.
         12    1    1    2    0    0  0.75766360422E+00 -0.84729525103E+00  0.31788380958E+00  0.11802599273E+01  0.00000000000E+00 0. -1.
         11    1    3    3    0    0 -0.10314632922E+01 -0.10060361658E+02  0.20832587733E+01  0.10325442392E+02  0.51100000000E-03 0. -1.
        -11    1    3    3    0    0 -0.18448835443E+02 -0.92976102230E+01  0.30458595302E+02  0.36803955128E+02  0.51100000000E-03 0.  1.
         12    1    3    3    0    0  0.18722635131E+02  0.20205267132E+02 -0.32859737885E+02  0.42878342552E+02  0.00000000000E+00 0. -1.
</event>
<event>
 7    1  0.2148778E-015  0.9000769E+02  0.7816164E-02  0.1186339E+00
        -11   -1    0    0    0    0  0.00000000000E+00  0.00000000000E+00  0.45593999997E+02  0.45594000000E+02  0.51100000000E-03 0. -1.
         11   -1    0    0    0    0 -0.00000000000E+00 -0.00000000000E+00 -0.45593999997E+02  0.45594000000E+02  0.51100000000E-03 0.  1.
    9900012    2    1    2    0    0 -0.10581902700E+01 -0.39830028369E+00 -0.33870083579E+00  0.90007691557E+02  0.89999952286E+02 0.  0.
         12    1    1    2    0    0  0.10581902700E+01  0.39830028369E+00  0.33870083579E+00  0.11803084426E+01  0.00000000000E+00 0. -1.
         11    1    3    3    0    0 -0.19789814561E+01  0.29059499693E+01  0.59488733058E+00  0.35657823860E+01  0.51100000000E-03 0. -1.
        -11    1    3    3    0    0 -0.36181563217E+02  0.14772601319E+02 -0.16379146802E+02  0.42374658899E+02  0.51100000000E-03 0.  1.
         12    1    3    3    0    0  0.37102354403E+02 -0.18076851572E+02  0.15445558636E+02  0.44067250273E+02  0.00000000000E+00 0. -1.
</event>
<event>
 7    1  0.2148778E-015  0.9000771E+02  0.7816164E-02  0.1186339E+00
        -11   -1    0    0    0    0  0.00000000000E+00  0.00000000000E+00  0.45593999997E+02  0.45594000000E+02  0.51100000000E-03 0. -1.
         11   -1    0    0    0    0 -0.00000000000E+00 -0.00000000000E+00 -0.45593999997E+02  0.45594000000E+02  0.51100000000E-03 0.  1.
    9900012    2    1    2    0    0 -0.67242108507E+00  0.94215360059E+00 -0.23081321504E+00  0.90007712635E+02  0.89999973642E+02 0.  0.
         12    1    1    2    0    0  0.67242108507E+00 -0.94215360059E+00  0.23081321504E+00  0.11802873646E+01  0.00000000000E+00 0. -1.
         11    1    3    3    0    0  0.14793304920E+02  0.33151726388E+02  0.10039784413E+02  0.37665316994E+02  0.51100000000E-03 0. -1.
        -11    1    3    3    0    0 -0.52089064223E+01  0.65738534618E+01  0.45905323235E+01  0.95614456401E+01  0.51100000000E-03 0.  1.
        -12    1    3    3    0    0 -0.10256819583E+02 -0.38783426249E+02 -0.14861129952E+02  0.42780950001E+02  0.00000000000E+00 0.  1.
</event>
<event>
 7    1  0.2148778E-015  0.9000772E+02  0.7816164E-02  0.1186339E+00
        -11   -1    0    0    0    0  0.00000000000E+00  0.00000000000E+00  0.45593999997E+02  0.45594000000E+02  0.51100000000E-03 0.  1.
         11   -1    0    0    0    0 -0.00000000000E+00 -0.00000000000E+00 -0.45593999997E+02  0.45594000000E+02  0.51100000000E-03 0. -1.
    9900012    2    1    2    0    0  0.73792484082E+00 -0.63877104323E+00  0.66370389569E+00  0.90007718518E+02  0.89999979602E+02 0.  0.
         12    1    1    2    0    0 -0.73792484082E+00  0.63877104323E+00 -0.66370389569E+00  0.11802814823E+01  0.00000000000E+00 0. -1.
         11    1    3    3    0    0 -0.82395136252E+01  0.14785581087E+02 -0.36233297014E+02  0.39991934257E+02  0.51100000000E-03 0. -1.
        -11    1    3    3    0    0 -0.75564614998E+01 -0.71711449917E+01  0.21157305581E+01  0.10630227982E+02  0.51100000000E-03 0.  1.
        -12    1    3    3    0    0  0.16533899966E+02 -0.82532071387E+01  0.34781270351E+02  0.39385556279E+02  0.00000000000E+00 0.  1.
</event>
<event>
 7    1  0.2148778E-015  0.9000776E+02  0.7816164E-02  0.1186339E+00
        -11   -1    0    0    0    0  0.00000000000E+00  0.00000000000E+00  0.45593999997E+02  0.45594000000E+02  0.51100000000E-03 0.  1.
         11   -1    0    0    0    0 -0.00000000000E+00 -0.00000000000E+00 -0.45593999997E+02  0.45594000000E+02  0.51100000000E-03 0. -1.
    9900012    2    1    2    0    0  0.74951894786E+00 -0.36933077511E+00  0.83353831670E+00  0.90007758499E+02  0.90000020111E+02 0.  0.
         12    1    1    2    0    0 -0.74951894786E+00  0.36933077511E+00 -0.83353831670E+00  0.11802415007E+01  0.00000000000E+00 0. -1.
         11    1    3    3    0    0  0.73408417247E+01 -0.11369468923E+02  0.94106376989E+01  0.16483715691E+02  0.51100000000E-03 0. -1.
        -11    1    3    3    0    0 -0.16687512491E+02  0.34636406250E+02  0.12347902255E+02  0.40380990595E+02  0.51100000000E-03 0.  1.
         12    1    3    3    0    0  0.10096189714E+02 -0.23636268102E+02 -0.20925001637E+02  0.33143052214E+02  0.00000000000E+00 0. -1.
</event>
<event>
 7    1  0.2148778E-015  0.9000755E+02  0.7816164E-02  0.1186339E+00
        -11   -1    0    0    0    0  0.00000000000E+00  0.00000000000E+00  0.45593999997E+02  0.45594000000E+02  0.51100000000E-03 0. -1.
         11   -1    0    0    0    0 -0.00000000000E+00 -0.00000000000E+00 -0.45593999997E+02  0.45594000000E+02  0.51100000000E-03 0.  1.
    9900012    2    1    2    0    0  0.92460946672E+00 -0.70129135319E+00  0.21619160534E+00  0.90007554729E+02  0.89999813651E+02 0.  0.
         12    1    1    2    0    0 -0.92460946672E+00  0.70129135319E+00 -0.21619160534E+00  0.11804452712E+01  0.00000000000E+00 0. -1.
         11    1    3    3    0    0 -0.27229513572E+02 -0.63101077568E+01  0.32163567796E+02  0.42611723303E+02  0.51100000000E-03 0. -1.
        -11    1    3    3    0    0  0.84872409868E+01  0.86981002733E+00  0.11467212631E+01  0.86084144282E+01  0.51100000000E-03 0.  1.
        -12    1    3    3    0    0  0.19666882052E+02  0.47390063763E+01 -0.33094097453E+02  0.38787416997E+02  0.00000000000E+00 0.  1.
</event>
<event>
 7    1  0.2148778E-015  0.9000762E+02  0.7816164E-02  0.1186339E+00
        -11   -1    0    0    0    0  0.00000000000E+00  0.00000000000E+00  0.45593999997E+02  0.45594000000E+02  0.51100000000E-03 0.  1.
         11   -1    0    0    0    0 -0.00000000000E+00 -0.00000000000E+00 -0.45593999997E+02  0.45594000000E+02  0.51100000000E-03 0. -1.
    9900012    2    1    2    0    0  0.29454074185E-01  0.43538946021E+00  0.10967525466E+01  0.90007619691E+02  0.89999879471E+02 0.  0.
         12    1    1    2    0    0 -0.29454074185E-01 -0.43538946021E+00 -0.10967525466E+01  0.11803803086E+01  0.00000000000E+00 0. -1.
         11    1    3    3    0    0  0.19826043725E+02  0.24668764989E+02  0.23094613908E+02  0.39178835712E+02  0.51100000000E-03 0. -1.
        -11    1    3    3    0    0  0.63264389099E+01  0.34429887858E+01 -0.66161132894E+01  0.97801306934E+01  0.51100000000E-03 0.  1.
        -12    1    3    3    0    0 -0.26123028561E+02 -0.27676364315E+02 -0.15381748072E+02  0.41048653287E+02  0.00000000000E+00 0.  1.
</event>
<event>
 7    1  0.2148778E-015  0.9000766E+02  0.7816164E-02  0.1186339E+00
        -11   -1    0    0    0    0  0.00000000000E+00  0.00000000000E+00  0.45593999997E+02  0.45594000000E+02  0.51100000000E-03 0. -1.
         11   -1    0    0    0    0 -0.00000000000E+00 -0.00000000000E+00 -0.45593999997E+02  0.45594000000E+02  0.51100000000E-03 0.  1.
    9900012    2    1    2    0    0 -0.11739228784E+01  0.81632037271E-01  0.91846065405E-01  0.90007663432E+02  0.89999923789E+02 0.  0.
         12    1    1    2    0    0  0.11739228784E+01 -0.81632037271E-01 -0.91846065405E-01  0.11803365679E+01  0.00000000000E+00 0. -1.
         11    1    3    3    0    0  0.31426583617E-01  0.11091854277E+02 -0.74201884184E+01  0.13345014625E+02  0.51100000000E-03 0. -1.
        -11    1    3    3    0    0  0.34195415237E+01  0.17101101935E+02 -0.26856148645E+02  0.32021768719E+02  0.51100000000E-03 0.  1.
         12    1    3    3    0    0 -0.46248909857E+01 -0.28111324174E+02  0.34368183129E+02  0.44640880088E+02  0.00000000000E+00 0. -1.
</event>
<event>
 7    1  0.2148778E-015  0.9000774E+02  0.7816164E-02  0.1186339E+00
        -11   -1    0    0    0    0  0.00000000000E+00  0.00000000000E+00  0.45593999997E+02  0.45594000000E+02  0.51100000000E-03 0. -1.
         11   -1    0    0    0    0 -0.00000000000E+00 -0.00000000000E+00 -0.45593999997E+02  0.45594000000E+02  0.51100000000E-03 0.  1.
    9900012    2    1    2    0    0  0.10703972190E+01  0.15567687826E+00 -0.47226597646E+00  0.90007737042E+02  0.89999998371E+02 0.  0.
         12    1    1    2    0    0 -0.10703972190E+01 -0.15567687826E+00  0.47226597646E+00  0.11802629577E+01  0.00000000000E+00 0. -1.
         11    1    3    3    0    0 -0.11584557002E+01 -0.17676877901E+01 -0.52992221527E+01  0.57051288695E+01  0.51100000000E-03 0. -1.
        -11    1    3    3    0    0 -0.39946621044E+02 -0.67409196071E+01 -0.26669246361E+01  0.40599076557E+02  0.51100000000E-03 0.  1.
         12    1    3    3    0    0  0.42175473964E+02  0.86642842755E+01  0.74938808124E+01  0.43703531616E+02  0.00000000000E+00 0. -1.
</event>
<event>
 7    1  0.2148778E-015  0.9000772E+02  0.7816164E-02  0.1186339E+00
        -11   -1    0    0    0    0  0.00000000000E+00  0.00000000000E+00  0.45593999997E+02  0.45594000000E+02  0.51100000000E-03 0.  1.
         11   -1    0    0    0    0 -0.00000000000E+00 -0.00000000000E+00 -0.45593999997E+02  0.45594000000E+02  0.51100000000E-03 0. -1.
    9900012    2    1    2    0    0  0.70608697265E-01  0.35518231179E+00  0.11233550054E+01  0.90007717605E+02  0.89999978678E+02 0.  0.
         12    1    1    2    0    0 -0.70608697265E-01 -0.35518231179E+00 -0.11233550054E+01  0.11802823946E+01  0.00000000000E+00 0. -1.
         11    1    3    3    0    0 -0.28569490992E+02  0.20633678328E+02 -0.12631681652E+02  0.37436932013E+02  0.51100000000E-03 0. -1.
        -11    1    3    3    0    0 -0.47085512161E+01  0.52702446436E+01  0.71339311242E+01  0.10041857732E+02  0.51100000000E-03 0.  1.
        -12    1    3    3    0    0  0.33348650906E+02 -0.25548740660E+02  0.66211055327E+01  0.42528927861E+02  0.00000000000E+00 0.  1.
</event>
<event>
 7    1  0.2148778E-015  0.9000779E+02  0.7816164E-02  0.1186339E+00
        -11   -1    0    0    0    0  0.00000000000E+00  0.00000000000E+00  0.45593999997E+02  0.45594000000E+02  0.51100000000E-03 0.  1.
         11   -1    0    0    0    0 -0.00000000000E+00 -0.00000000000E+00 -0.45593999997E+02  0.45594000000E+02  0.51100000000E-03 0. -1.
    9900012    2    1    2    0    0  0.91857315271E+00 -0.72607173654E+00  0.14811688024E+00  0.90007790098E+02  0.90000052127E+02 0.  0.
         12    1    1    2    0    0 -0.91857315271E+00  0.72607173654E+00 -0.14811688024E+00  0.11802099024E+01  0.00000000000E+00 0. -1.
         11    1    3    3    0    0  0.67513861355E+01 -0.14801364890E+02  0.23191705658E+02  0.28328727979E+02  0.51100000000E-03 0. -1.
        -11    1    3    3    0    0  0.54571388977E+01 -0.19773639201E+02 -0.29373804308E+01  0.20722098741E+02  0.51100000000E-03 0.  1.
         12    1    3    3    0    0 -0.11289951880E+02  0.33848932354E+02 -0.20106208347E+02  0.40956963377E+02  0.00000000000E+00 0. -1.
</event>
<event>
 7    1  0.2148778E-015  0.9000780E+02  0.7816164E-02  0.1186339E+00
        -11   -1    0    0    0    0  0.00000000000E+00  0.00000000000E+00  0.45593999997E+02  0.45594000000E+02  0.51100000000E-03 0.  1.
         11   -1    0    0    0    0 -0.00000000000E+00 -0.00000000000E+00 -0.45593999997E+02  0.45594000000E+02  0.51100000000E-03 0. -1.
    9900012    2    1    2    0    0  0.45474042403E-01 -0.94618048069E+00  0.70395363384E+00  0.90007798276E+02  0.90000060413E+02 0.  0.
         12    1    1    2    0    0 -0.45474042403E-01  0.94618048069E+00 -0.70395363384E+00  0.11802017239E+01  0.00000000000E+00 0. -1.
         11    1    3    3    0    0  0.27174813142E+02  0.28569117122E+02  0.78442407680E+01  0.40201953136E+02  0.51100000000E-03 0. -1.
        -11    1    3    3    0    0  0.33003103045E+01 -0.49460715617E+01  0.60967899197E+01  0.85162503243E+01  0.51100000000E-03 0.  1.
        -12    1    3    3    0    0 -0.30429649404E+02 -0.24569226041E+02 -0.13237077054E+02  0.41289594816E+02  0.00000000000E+00 0.  1.
</event>
<event>
 7    1  0.2148778E-015  0.9000762E+02  0.7816164E-02  0.1186339E+00
        -11   -1    0    0    0    0  0.00000000000E+00  0.00000000000E+00  0.45593999997E+02  0.45594000000E+02  0.51100000000E-03 0.  1.
         11   -1    0    0    0    0 -0.00000000000E+00 -0.00000000000E+00 -0.45593999997E+02  0.45594000000E+02  0.51100000000E-03 0. -1.
    9900012    2    1    2    0    0 -0.10489732211E+01  0.48706377540E+00 -0.23604145615E+00  0.90007622302E+02  0.89999882117E+02 0.  0.
         12    1    1    2    0    0  0.10489732211E+01 -0.48706377540E+00  0.23604145615E+00  0.11803776976E+01  0.00000000000E+00 0. -1.
         11    1    3    3    0    0  0.42397074244E+02 -0.24203273556E+01  0.56280173767E+01  0.42837419026E+02  0.51100000000E-03 0. -1.
        -11    1    3    3    0    0 -0.65171259657E+01  0.70967542278E+01 -0.14341339872E+01  0.97413341990E+01  0.51100000000E-03 0.  1.
        -12    1    3    3    0    0 -0.36928921499E+02 -0.41893630968E+01 -0.44299248456E+01  0.37428869077E+02  0.00000000000E+00 0.  1.
</event>
<event>
 7    1  0.2148778E-015  0.9000709E+02  0.7816164E-02  0.1186340E+00
        -11   -1    0    0    0    0  0.00000000000E+00  0.00000000000E+00  0.45593999997E+02  0.45594000000E+02  0.51100000000E-03 0.  1.
         11   -1    0    0    0    0 -0.00000000000E+00 -0.00000000000E+00 -0.45593999997E+02  0.45594000000E+02  0.51100000000E-03 0. -1.
    9900012    2    1    2    0    0  0.12983500859E+00  0.19687561155E-01  0.11735860772E+01  0.90007089754E+02  0.89999342536E+02 0.  0.
         12    1    1    2    0    0 -0.12983500859E+00 -0.19687561155E-01 -0.11735860772E+01  0.11809102464E+01  0.00000000000E+00 0. -1.
         11    1    3    3    0    0  0.19446891542E+02  0.27982911636E+02  0.20413176364E+01  0.34137836959E+02  0.51100000000E-03 0. -1.
        -11    1    3    3    0    0  0.24914145039E+01  0.10292717337E+02  0.45027274404E+01  0.11507464146E+02  0.51100000000E-03 0.  1.
        -12    1    3    3    0    0 -0.21808471037E+02 -0.38255941412E+02 -0.53704589995E+01  0.44361788649E+02  0.00000000000E+00 0.  1.
</event>
<event>
 7    1  0.2148778E-015  0.9000783E+02  0.7816164E-02  0.1186339E+00
        -11   -1    0    0    0    0  0.00000000000E+00  0.00000000000E+00  0.45593999997E+02  0.45594000000E+02  0.51100000000E-03 0.  1.
         11   -1    0    0    0    0 -0.00000000000E+00 -0.00000000000E+00 -0.45593999997E+02  0.45594000000E+02  0.51100000000E-03 0. -1.
    9900012    2    1    2    0    0 -0.51804122249E+00  0.34677899074E-01  0.10598227590E+01  0.90007833255E+02  0.90000095854E+02 0.  0.
         12    1    1    2    0    0  0.51804122249E+00 -0.34677899074E-01 -0.10598227590E+01  0.11801667447E+01  0.00000000000E+00 0. -1.
         11    1    3    3    0    0 -0.25388757734E+02  0.28634178579E+02 -0.90982289862E+01  0.39335517959E+02  0.51100000000E-03 0. -1.
        -11    1    3    3    0    0 -0.77958589870E+01 -0.43922321396E+01  0.25936164979E+01  0.93163279951E+01  0.51100000000E-03 0.  1.
        -12    1    3    3    0    0  0.32666575499E+02 -0.24207268541E+02  0.75644352473E+01  0.41355987301E+02  0.00000000000E+00 0.  1.
</event>
<event>
 7    1  0.2148778E-015  0.9000771E+02  0.7816164E-02  0.1186339E+00
        -11   -1    0    0    0    0  0.00000000000E+00  0.00000000000E+00  0.45593999997E+02  0.45594000000E+02  0.51100000000E-03 0.  1.
         11   -1    0    0    0    0 -0.00000000000E+00 -0.00000000000E+00 -0.45593999997E+02  0.45594000000E+02  0.51100000000E-03 0. -1.
    9900012    2    1    2    0    0 -0.38134894052E+00 -0.85557419147E+00  0.71808314728E+00  0.90007712909E+02  0.89999973919E+02 0.  0.
         12    1    1    2    0    0  0.38134894052E+00  0.85557419147E+00 -0.71808314728E+00  0.11802870913E+01  0.00000000000E+00 0. -1.
         11    1    3    3    0    0  0.44180858745E+01 -0.45837977247E+01 -0.74664012413E+01  0.98121267895E+01  0.51100000000E-03 0. -1.
        -11    1    3    3    0    0  0.14551130752E+02 -0.16620825421E+02  0.34986661523E+02  0.41376970994E+02  0.51100000000E-03 0.  1.
         12    1    3    3    0    0 -0.19350565567E+02  0.20349048954E+02 -0.26802177135E+02  0.38818615125E+02  0.00000000000E+00 0. -1.
</event>
<event>
 7    1  0.2282376E-015  0.9000775E+02  0.7816164E-02  0.1186339E+00
        -11   -1    0    0    0    0  0.00000000000E+00  0.00000000000E+00  0.45593999997E+02  0.45594000000E+02  0.51100000000E-03 0.  1.
         11   -1    0    0    0    0 -0.00000000000E+00 -0.00000000000E+00 -0.45593999997E+02  0.45594000000E+02  0.51100000000E-03 0. -1.
    9900012    2    1    2    0    0  0.28071803307E+00 -0.11225902956E+01 -0.23232799338E+00  0.90007750924E+02  0.90000012436E+02 0.  0.
         12    1    1    2    0    0 -0.28071803307E+00  0.11225902956E+01  0.23232799338E+00  0.11802490764E+01  0.00000000000E+00 0. -1.
         11    1    3    3    0    0  0.76067616672E+01 -0.43600193984E+01  0.29802649183E+01  0.92603764211E+01  0.51100000000E-03 0. -1.
        -11    1    3    3    0    0 -0.70697974809E+01  0.15857194816E+02  0.35776117538E+02  0.39766358272E+02  0.51100000000E-03 0.  1.
         12    1    3    3    0    0 -0.25624615316E+00 -0.12619765713E+02 -0.38988710450E+02  0.40981016231E+02  0.00000000000E+00 0. -1.
</event>
<event>
 7    1  0.2148778E-015  0.9000773E+02  0.7816164E-02  0.1186339E+00
        -11   -1    0    0    0    0  0.00000000000E+00  0.00000000000E+00  0.45593999997E+02  0.45594000000E+02  0.51100000000E-03 0. -1.
         11   -1    0    0    0    0 -0.00000000000E+00 -0.00000000000E+00 -0.45593999997E+02  0.45594000000E+02  0.51100000000E-03 0.  1.
    9900012    2    1    2    0    0  0.23751151601E+00  0.34747518985E+00 -0.11026746720E+01  0.90007727930E+02  0.89999989138E+02 0.  0.
         12    1    1    2    0    0 -0.23751151601E+00 -0.34747518985E+00  0.11026746720E+01  0.11802720703E+01  0.00000000000E+00 0. -1.
         11    1    3    3    0    0 -0.83724326543E+01 -0.35661923950E+01  0.20273686494E+01  0.93233889038E+01  0.51100000000E-03 0. -1.
        -11    1    3    3    0    0  0.48267363041E+01 -0.38016060488E+02 -0.43447556916E+01  0.38566762123E+02  0.51100000000E-03 0.  1.
         12    1    3    3    0    0  0.37832078662E+01  0.41929728073E+02  0.12147123703E+01  0.42117576903E+02  0.00000000000E+00 0. -1.
</event>
<event>
 7    1  0.2148778E-015  0.9000773E+02  0.7816164E-02  0.1186339E+00
        -11   -1    0    0    0    0  0.00000000000E+00  0.00000000000E+00  0.45593999997E+02  0.45594000000E+02  0.51100000000E-03 0.  1.
         11   -1    0    0    0    0 -0.00000000000E+00 -0.00000000000E+00 -0.45593999997E+02  0.45594000000E+02  0.51100000000E-03 0. -1.
    9900012    2    1    2    0    0  0.24714059266E+00 -0.71848997257E+00  0.90317819213E+00  0.90007730048E+02  0.89999991284E+02 0.  0.
         12    1    1    2    0    0 -0.24714059266E+00  0.71848997257E+00 -0.90317819213E+00  0.11802699522E+01  0.00000000000E+00 0. -1.
         11    1    3    3    0    0 -0.88328781737E+01 -0.37625168842E+01  0.68100082060E+01  0.11770831838E+02  0.51100000000E-03 0. -1.
        -11    1    3    3    0    0  0.45469770542E+01  0.17023218964E+02  0.32580179255E+02  0.37039614803E+02  0.51100000000E-03 0.  1.
         12    1    3    3    0    0  0.45330417121E+01 -0.13979192052E+02 -0.38487009269E+02  0.41197283406E+02  0.00000000000E+00 0. -1.
</event>
<event>
 7    1  0.2148778E-015  0.9000777E+02  0.7816164E-02  0.1186339E+00
        -11   -1    0    0    0    0  0.00000000000E+00  0.00000000000E+00  0.45593999997E+02  0.45594000000E+02  0.51100000000E-03 0.  1.
         11   -1    0    0    0    0 -0.00000000000E+00 -0.00000000000E+00 -0.45593999997E+02  0.45594000000E+02  0.51100000000E-03 0. -1.
    9900012    2    1    2    0    0  0.81087377321E-01 -0.73843666158E+00  0.91710945870E+00  0.90007765436E+02  0.90000027140E+02 0.  0.
         12    1    1    2    0    0 -0.81087377321E-01  0.73843666158E+00 -0.91710945870E+00  0.11802345636E+01  0.00000000000E+00 0. -1.
         11    1    3    3    0    0 -0.13948418301E+02 -0.77568303694E+00 -0.29771175639E+02  0.32885908175E+02  0.51100000000E-03 0. -1.
        -11    1    3    3    0    0 -0.24669067549E+01 -0.16092200077E+01 -0.11458896713E+02  0.11831379130E+02  0.51100000000E-03 0.  1.
        -12    1    3    3    0    0  0.16496412434E+02  0.16464663831E+01  0.42147181811E+02  0.45290478131E+02  0.00000000000E+00 0.  1.
</event>
<event>
 7    1  0.2148778E-015  0.9000777E+02  0.7816164E-02  0.1186339E+00
        -11   -1    0    0    0    0  0.00000000000E+00  0.00000000000E+00  0.45593999997E+02  0.45594000000E+02  0.51100000000E-03 0.  1.
         11   -1    0    0    0    0 -0.00000000000E+00 -0.00000000000E+00 -0.45593999997E+02  0.45594000000E+02  0.51100000000E-03 0. -1.
    9900012    2    1    2    0    0  0.93771508148E+00  0.50290394992E+00  0.51061025800E+00  0.90007769178E+02  0.90000030931E+02 0.  0.
         12    1    1    2    0    0 -0.93771508148E+00 -0.50290394992E+00 -0.51061025800E+00  0.11802308217E+01  0.00000000000E+00 0. -1.
         11    1    3    3    0    0 -0.34726376285E+00  0.35491843292E+01 -0.71973447213E+01  0.80323765363E+01  0.51100000000E-03 0. -1.
        -11    1    3    3    0    0 -0.13020746405E+02 -0.33344993738E+02 -0.17691540118E+02  0.39930177013E+02  0.51100000000E-03 0.  1.
         12    1    3    3    0    0  0.14305725249E+02  0.30298713358E+02  0.25399495097E+02  0.42045215629E+02  0.00000000000E+00 0. -1.
</event>
<event>
 7    1  0.2148778E-015  0.9000777E+02  0.7816164E-02  0.1186339E+00
        -11   -1    0    0    0    0  0.00000000000E+00  0.00000000000E+00  0.45593999997E+02  0.45594000000E+02  0.51100000000E-03 0.  1.
         11   -1    0    0    0    0 -0.00000000000E+00 -0.00000000000E+00 -0.45593999997E+02  0.45594000000E+02  0.51100000000E-03 0. -1.
    9900012    2    1    2    0    0  0.11173587795E+00  0.98962003304E+00 -0.63333524032E+00  0.90007768564E+02  0.90000030309E+02 0.  0.
         12    1    1    2    0    0 -0.11173587795E+00 -0.98962003304E+00  0.63333524032E+00  0.11802314361E+01  0.00000000000E+00 0. -1.
         11    1    3    3    0    0  0.33757871033E+02  0.14276289001E+02  0.24147786874E+01  0.36731967558E+02  0.51100000000E-03 0. -1.
        -11    1    3    3    0    0  0.86975000640E+01  0.30042237317E+00 -0.20260892953E-01  0.87027105968E+01  0.51100000000E-03 0.  1.
        -12    1    3    3    0    0 -0.42343635219E+02 -0.13587091341E+02 -0.30278530347E+01  0.44573090409E+02  0.00000000000E+00 0.  1.
</event>
<event>
 7    1  0.2609796E-015  0.9000771E+02  0.7816164E-02  0.1186339E+00
        -11   -1    0    0    0    0  0.00000000000E+00  0.00000000000E+00  0.45593999997E+02  0.45594000000E+02  0.51100000000E-03 0.  1.
         11   -1    0    0    0    0 -0.00000000000E+00 -0.00000000000E+00 -0.45593999997E+02  0.45594000000E+02  0.51100000000E-03 0. -1.
    9900012    2    1    2    0    0  0.83842000929E+00  0.64133540937E+00  0.52804477135E+00  0.90007707452E+02  0.89999968390E+02 0.  0.
         12    1    1    2    0    0 -0.83842000929E+00 -0.64133540937E+00 -0.52804477135E+00  0.11802925484E+01  0.00000000000E+00 0. -1.
         11    1    3    3    0    0  0.46100218925E+01 -0.85603756142E+01  0.62242518662E+00  0.97426765255E+01  0.51100000000E-03 0. -1.
        -11    1    3    3    0    0 -0.35395606770E+01 -0.12675716331E+02  0.35847949568E+02  0.38187403195E+02  0.51100000000E-03 0.  1.
         12    1    3    3    0    0 -0.23204120627E+00  0.21877427355E+02 -0.35942329984E+02  0.42077627731E+02  0.00000000000E+00 0. -1.
</event>
<event>
 7    1  0.2148778E-015  0.9000775E+02  0.7816164E-02  0.1186339E+00
        -11   -1    0    0    0    0  0.00000000000E+00  0.00000000000E+00  0.45593999997E+02  0.45594000000E+02  0.51100000000E-03 0.  1.
         11   -1    0    0    0    0 -0.00000000000E+00 -0.00000000000E+00 -0.45593999997E+02  0.45594000000E+02  0.51100000000E-03 0. -1.
    9900012    2    1    2    0    0  0.68303679892E+00 -0.84713299116E+00 -0.45695617448E+00  0.90007753196E+02  0.90000014738E+02 0.  0.
         12    1    1    2    0    0 -0.68303679892E+00  0.84713299116E+00  0.45695617448E+00  0.11802468042E+01  0.00000000000E+00 0. -1.
         11    1    3    3    0    0 -0.24010683994E+01  0.88574526229E+01  0.16002812839E+01  0.93156050192E+01  0.51100000000E-03 0. -1.
        -11    1    3    3    0    0  0.82906932769E+01 -0.51103849060E+01  0.38414095858E+02  0.39629463657E+02  0.51100000000E-03 0.  1.
         12    1    3    3    0    0 -0.52065880786E+01 -0.45942007080E+01 -0.40471333316E+02  0.41062684520E+02  0.00000000000E+00 0. -1.
</event>
<event>
 7    1  0.2148778E-015  0.9000784E+02  0.7816164E-02  0.1186339E+00
        -11   -1    0    0    0    0  0.00000000000E+00  0.00000000000E+00  0.45593999997E+02  0.45594000000E+02  0.51100000000E-03 0.  1.
         11   -1    0    0    0    0 -0.00000000000E+00 -0.00000000000E+00 -0.45593999997E+02  0.45594000000E+02  0.51100000000E-03 0. -1.
    9900012    2    1    2    0    0  0.48134379386E+00  0.89644647187E-01  0.10738010383E+01  0.90007840400E+02  0.90000103094E+02 0.  0.
         12    1    1    2    0    0 -0.48134379386E+00 -0.89644647187E-01 -0.10738010383E+01  0.11801595996E+01  0.00000000000E+00 0. -1.
         11    1    3    3    0    0  0.68911232780E+01  0.63391537310E+01  0.60459287558E+01  0.11145658565E+02  0.51100000000E-03 0. -1.
        -11    1    3    3    0    0 -0.59958797684E+01  0.25060341401E+02  0.24721652762E+02  0.35708982076E+02  0.51100000000E-03 0.  1.
         12    1    3    3    0    0 -0.41389971576E+00 -0.31309850485E+02 -0.29693780479E+02  0.43153199760E+02  0.00000000000E+00 0. -1.
</event>
<event>
 7    1  0.2148778E-015  0.9000758E+02  0.7816164E-02  0.1186339E+00
        -11   -1    0    0    0    0  0.00000000000E+00  0.00000000000E+00  0.45593999997E+02  0.45594000000E+02  0.51100000000E-03 0. -1.
         11   -1    0    0    0    0 -0.00000000000E+00 -0.00000000000E+00 -0.45593999997E+02  0.45594000000E+02  0.51100000000E-03 0.  1.
    9900012    2    1    2    0    0  0.57358817434E+00 -0.10316734002E+01  0.58436537921E-02  0.90007581622E+02  0.89999840899E+02 0.  0.
         12    1    1    2    0    0 -0.57358817434E+00  0.10316734002E+01 -0.58436537921E-02  0.11804183778E+01  0.00000000000E+00 0. -1.
         11    1    3    3    0    0 -0.12173618248E+02  0.16429475089E+02 -0.94747970523E+01  0.22536557244E+02  0.51100000000E-03 0. -1.
        -11    1    3    3    0    0 -0.13527267300E+02  0.14324595082E+02 -0.97332370636E+01  0.21975370051E+02  0.51100000000E-03 0.  1.
         12    1    3    3    0    0  0.26274473723E+02 -0.31785743571E+02  0.19213877770E+02  0.45495654328E+02  0.00000000000E+00 0. -1.
</event>
<event>
 7    1  0.2148778E-015  0.9000778E+02  0.7816164E-02  0.1186339E+00
        -11   -1    0    0    0    0  0.00000000000E+00  0.00000000000E+00  0.45593999997E+02  0.45594000000E+02  0.51100000000E-03 0.  1.
         11   -1    0    0    0    0 -0.00000000000E+00 -0.00000000000E+00 -0.45593999997E+02  0.45594000000E+02  0.51100000000E-03 0. -1.
    9900012    2    1    2    0    0 -0.96736963813E+00  0.28125257905E+00  0.61483483327E+00  0.90007775910E+02  0.90000037752E+02 0.  0.
         12    1    1    2    0    0  0.96736963813E+00 -0.28125257905E+00 -0.61483483327E+00  0.11802240898E+01  0.00000000000E+00 0. -1.
         11    1    3    3    0    0 -0.87189461984E+00 -0.74049859299E+01 -0.69068331848E+00  0.74880612015E+01  0.51100000000E-03 0. -1.
        -11    1    3    3    0    0  0.13564130824E+02 -0.35080293657E+02  0.24179703364E+00  0.37612113928E+02  0.51100000000E-03 0.  1.
         12    1    3    3    0    0 -0.13659605842E+02  0.42766532166E+02  0.10637211181E+01  0.44907600781E+02  0.00000000000E+00 0. -1.
</event>
<event>
 7    1  0.2148778E-015  0.9000773E+02  0.7816164E-02  0.1186339E+00
        -11   -1    0    0    0    0  0.00000000000E+00  0.00000000000E+00  0.45593999997E+02  0.45594000000E+02  0.51100000000E-03 0. -1.
         11   -1    0    0    0    0 -0.00000000000E+00 -0.00000000000E+00 -0.45593999997E+02  0.45594000000E+02  0.51100000000E-03 0.  1.
    9900012    2    1    2    0    0 -0.89813389577E+00  0.58551415522E+00  0.49353155802E+00  0.90007726845E+02  0.89999988040E+02 0.  0.
         12    1    1    2    0    0  0.89813389577E+00 -0.58551415522E+00 -0.49353155802E+00  0.11802731546E+01  0.00000000000E+00 0. -1.
         11    1    3    3    0    0  0.62295211000E+01 -0.19315202993E+02  0.32567545492E+02  0.38373545828E+02  0.51100000000E-03 0. -1.
        -11    1    3    3    0    0  0.91362690136E+01  0.12552083320E+01  0.20860068996E+01  0.94550718925E+01  0.51100000000E-03 0.  1.
        -12    1    3    3    0    0 -0.16263924009E+02  0.18645508816E+02 -0.34160020834E+02  0.42179109125E+02  0.00000000000E+00 0.  1.
</event>
<event>
 7    1  0.2148778E-015  0.9000776E+02  0.7816164E-02  0.1186339E+00
        -11   -1    0    0    0    0  0.00000000000E+00  0.00000000000E+00  0.45593999997E+02  0.45594000000E+02  0.51100000000E-03 0. -1.
         11   -1    0    0    0    0 -0.00000000000E+00 -0.00000000000E+00 -0.45593999997E+02  0.45594000000E+02  0.51100000000E-03 0.  1.
    9900012    2    1    2    0    0 -0.53574417274E+00  0.66596989316E+00 -0.81390080276E+00  0.90007757553E+02  0.90000019153E+02 0.  0.
         12    1    1    2    0    0  0.53574417274E+00 -0.66596989316E+00  0.81390080276E+00  0.11802424471E+01  0.00000000000E+00 0. -1.
         11    1    3    3    0    0 -0.31787712724E+01  0.40116049139E+01 -0.60802508741E+01  0.79477677206E+01  0.51100000000E-03 0. -1.
        -11    1    3    3    0    0 -0.25284605019E+02 -0.22309153487E+02 -0.20615721439E+02  0.39522367730E+02  0.51100000000E-03 0.  1.
         12    1    3    3    0    0  0.27927632119E+02  0.18963518467E+02  0.25882071511E+02  0.42537622102E+02  0.00000000000E+00 0. -1.
</event>
<event>
 7    1  0.2148778E-015  0.9000746E+02  0.7816164E-02  0.1186340E+00
        -11   -1    0    0    0    0  0.00000000000E+00  0.00000000000E+00  0.45593999997E+02  0.45594000000E+02  0.51100000000E-03 0. -1.
         11   -1    0    0    0    0 -0.00000000000E+00 -0.00000000000E+00 -0.45593999997E+02  0.45594000000E+02  0.51100000000E-03 0.  1.
    9900012    2    1    2    0    0 -0.53404240240E+00  0.95536180644E+00 -0.44244070082E+00  0.90007461461E+02  0.89999719152E+02 0.  0.
         12    1    1    2    0    0  0.53404240240E+00 -0.95536180644E+00  0.44244070082E+00  0.11805385392E+01  0.00000000000E+00 0. -1.
         11    1    3    3    0    0  0.75299399612E+01  0.33114046944E+02 -0.11891217793E+02  0.35981122296E+02  0.51100000000E-03 0. -1.
        -11    1    3    3    0    0 -0.25007649720E+01  0.92652872126E+01 -0.25822761764E+01  0.99381851004E+01  0.51100000000E-03 0.  1.
        -12    1    3    3    0    0 -0.55632173917E+01 -0.41423972350E+02  0.14031053268E+02  0.44088154065E+02  0.00000000000E+00 0.  1.
</event>
<event>
 7    1  0.2148778E-015  0.9000777E+02  0.7816164E-02  0.1186339E+00
        -11   -1    0    0    0    0  0.00000000000E+00  0.00000000000E+00  0.45593999997E+02  0.45594000000E+02  0.51100000000E-03 0.  1.
         11   -1    0    0    0    0 -0.00000000000E+00 -0.00000000000E+00 -0.45593999997E+02  0.45594000000E+02  0.51100000000E-03 0. -1.
    9900012    2    1    2    0    0 -0.75693262673E+00  0.86291663002E+00 -0.27451786696E+00  0.90007774525E+02  0.90000036349E+02 0.  0.
         12    1    1    2    0    0  0.75693262673E+00 -0.86291663002E+00  0.27451786696E+00  0.11802254747E+01  0.00000000000E+00 0. -1.
         11    1    3    3    0    0  0.67683638516E+01  0.80156453631E+01  0.18692187577E+01  0.10656232863E+02  0.51100000000E-03 0. -1.
        -11    1    3    3    0    0 -0.30119778634E+02  0.24776018771E+02  0.58254361203E+01  0.39433334596E+02  0.51100000000E-03 0.  1.
         12    1    3    3    0    0  0.22594482156E+02 -0.31928747504E+02 -0.79691727449E+01  0.39918207066E+02  0.00000000000E+00 0. -1.
</event>
<event>
 7    1  0.2148778E-015  0.9000778E+02  0.7816164E-02  0.1186339E+00
        -11   -1    0    0    0    0  0.00000000000E+00  0.00000000000E+00  0.45593999997E+02  0.45594000000E+02  0.51100000000E-03 0.  1.
         11   -1    0    0    0    0 -0.00000000000E+00 -0.00000000000E+00 -0.45593999997E+02  0.45594000000E+02  0.51100000000E-03 0. -1.
    9900012    2    1    2    0    0 -0.78044966028E+00 -0.18204067003E+00  0.86641474966E+00  0.90007781801E+02  0.90000043721E+02 0.  0.
         12    1    1    2    0    0  0.78044966028E+00  0.18204067003E+00 -0.86641474966E+00  0.11802181986E+01  0.00000000000E+00 0. -1.
         11    1    3    3    0    0 -0.24844909267E+02 -0.31244880480E+02 -0.17774271126E+02  0.43697102730E+02  0.51100000000E-03 0. -1.
        -11    1    3    3    0    0  0.57234599489E+01  0.10568745120E+01  0.73496484886E+01  0.93750899030E+01  0.51100000000E-03 0.  1.
        -12    1    3    3    0    0  0.18340999658E+02  0.30005965298E+02  0.11291037387E+02  0.36935589168E+02  0.00000000000E+00 0.  1.
</event>
<event>
 7    1  0.2148778E-015  0.9000784E+02  0.7816164E-02  0.1186339E+00
        -11   -1    0    0    0    0  0.00000000000E+00  0.00000000000E+00  0.45593999997E+02  0.45594000000E+02  0.51100000000E-03 0.  1.
         11   -1    0    0    0    0 -0.00000000000E+00 -0.00000000000E+00 -0.45593999997E+02  0.45594000000E+02  0.51100000000E-03 0. -1.
    9900012    2    1    2    0    0 -0.38861127378E+00 -0.13776407794E+00  0.11057944593E+01  0.90007839397E+02  0.90000102077E+02 0.  0.
         12    1    1    2    0    0  0.38861127378E+00  0.13776407794E+00 -0.11057944593E+01  0.11801606032E+01  0.00000000000E+00 0. -1.
         11    1    3    3    0    0 -0.82123487543E+01 -0.18525361293E+01 -0.18654622550E+01  0.86229062304E+01  0.51100000000E-03 0. -1.
        -11    1    3    3    0    0  0.23759289117E+02 -0.33485314830E+02  0.96396009069E+01  0.42174542494E+02  0.51100000000E-03 0.  1.
         12    1    3    3    0    0 -0.15935551637E+02  0.35200086882E+02 -0.66683441926E+01  0.39210390673E+02  0.00000000000E+00 0. -1.
</event>
<event>
 7    1  0.2148778E-015  0.9000680E+02  0.7816164E-02  0.1186341E+00
        -11   -1    0    0    0    0  0.00000000000E+00  0.00000000000E+00  0.45593999997E+02  0.45594000000E+02  0.51100000000E-03 0.  1.
         11   -1    0    0    0    0 -0.00000000000E+00 -0.00000000000E+00 -0.45593999997E+02  0.45594000000E+02  0.51100000000E-03 0. -1.
    9900012    2    1    2    0    0  0.49417009228E+00 -0.69464508513E+00  0.81761599474E+00  0.90006800699E+02  0.89999049663E+02 0.  0.
         12    1    1    2    0    0 -0.49417009228E+00  0.69464508513E+00 -0.81761599474E+00  0.11811993012E+01  0.00000000000E+00 0. -1.
         11    1    3    3    0    0 -0.10428782884E+02  0.39290945345E+01 -0.41400186494E+01  0.11888526023E+02  0.51100000000E-03 0. -1.
        -11    1    3    3    0    0 -0.26795556604E+02 -0.14652284868E+02  0.19761651200E+02  0.36376010831E+02  0.51100000000E-03 0.  1.
         12    1    3    3    0    0  0.37718509580E+02  0.10028545248E+02 -0.14804016556E+02  0.41742263845E+02  0.00000000000E+00 0. -1.
</event>
<event>
 7    1  0.2148778E-015  0.9000783E+02  0.7816164E-02  0.1186339E+00
        -11   -1    0    0    0    0  0.00000000000E+00  0.00000000000E+00  0.45593999997E+02  0.45594000000E+02  0.51100000000E-03 0. -1.
         11   -1    0    0    0    0 -0.00000000000E+00 -0.00000000000E+00 -0.45593999997E+02  0.45594000000E+02  0.51100000000E-03 0.  1.
    9900012    2    1    2    0    0  0.47545979778E+00 -0.96646520515E+00 -0.48237755127E+00  0.90007828354E+02  0.90000090888E+02 0.  0.
         12    1    1    2    0    0 -0.47545979778E+00  0.96646520515E+00  0.48237755127E+00  0.11801716460E+01  0.00000000000E+00 0. -1.
         11    1    3    3    0    0  0.26757734476E+02  0.23772870916E+02  0.12844235803E+02  0.38027623375E+02  0.51100000000E-03 0. -1.
        -11    1    3    3    0    0 -0.32951549480E+01  0.89043162037E+01 -0.26789803770E+01  0.98651826799E+01  0.51100000000E-03 0.  1.
        -12    1    3    3    0    0 -0.22987119730E+02 -0.33643652325E+02 -0.10647632977E+02  0.42115022300E+02  0.00000000000E+00 0.  1.
</event>
<event>
 7    1  0.2148778E-015  0.9000791E+02  0.7816164E-02  0.1186339E+00
        -11   -1    0    0    0    0  0.00000000000E+00  0.00000000000E+00  0.45593999997E+02  0.45594000000E+02  0.51100000000E-03 0.  1.
         11   -1    0    0    0    0 -0.00000000000E+00 -0.00000000000E+00 -0.45593999997E+02  0.45594000000E+02  0.51100000000E-03 0. -1.
    9900012    2    1    2    0    0 -0.10340800293E+01  0.42519843124E+00 -0.37749996427E+00  0.90007906175E+02  0.90000169736E+02 0.  0.
         12    1    1    2    0    0  0.10340800293E+01 -0.42519843124E+00  0.37749996427E+00  0.11800938251E+01  0.00000000000E+00 0. -1.
         11    1    3    3    0    0 -0.21274857829E+02  0.24220169835E+02  0.36460157050E-02  0.32237186851E+02  0.51100000000E-03 0. -1.
        -11    1    3    3    0    0 -0.58221754900E+01  0.12077378375E+02  0.57246249043E+00  0.13419706010E+02  0.51100000000E-03 0.  1.
        -12    1    3    3    0    0  0.26062953290E+02 -0.35872349779E+02 -0.95360847041E+00  0.44351013314E+02  0.00000000000E+00 0.  1.
</event>
<event>
 7    1  0.2148778E-015  0.9000772E+02  0.7816164E-02  0.1186339E+00
        -11   -1    0    0    0    0  0.00000000000E+00  0.00000000000E+00  0.45593999997E+02  0.45594000000E+02  0.51100000000E-03 0.  1.
         11   -1    0    0    0    0 -0.00000000000E+00 -0.00000000000E+00 -0.45593999997E+02  0.45594000000E+02  0.51100000000E-03 0. -1.
    9900012    2    1    2    0    0 -0.11709796504E+01  0.73200793981E-01  0.12846393226E+00  0.90007722626E+02  0.89999983765E+02 0.  0.
         12    1    1    2    0    0  0.11709796504E+01 -0.73200793981E-01 -0.12846393226E+00  0.11802773740E+01  0.00000000000E+00 0. -1.
         11    1    3    3    0    0  0.33535405564E+02  0.39342736780E+01 -0.21429518373E+02  0.39991576534E+02  0.51100000000E-03 0. -1.
        -11    1    3    3    0    0  0.36248038315E+01 -0.55773041295E+01  0.44655728210E+01  0.80116705531E+01  0.51100000000E-03 0.  1.
        -12    1    3    3    0    0 -0.38331189046E+02  0.17162312455E+01  0.17092409484E+02  0.42004475539E+02  0.00000000000E+00 0.  1.
</event>
<event>
 7    1  0.2148778E-015  0.9000772E+02  0.7816164E-02  0.1186339E+00
        -11   -1    0    0    0    0  0.00000000000E+00  0.00000000000E+00  0.45593999997E+02  0.45594000000E+02  0.51100000000E-03 0. -1.
         11   -1    0    0    0    0 -0.00000000000E+00 -0.00000000000E+00 -0.45593999997E+02  0.45594000000E+02  0.51100000000E-03 0.  1.
    9900012    2    1    2    0    0 -0.69942313878E+00 -0.73456133818E+00 -0.60355724772E+00  0.90007722728E+02  0.89999983868E+02 0.  0.
         12    1    1    2    0    0  0.69942313878E+00  0.73456133818E+00  0.60355724772E+00  0.11802772716E+01  0.00000000000E+00 0. -1.
         11    1    3    3    0    0 -0.17179950696E+02 -0.58420064607E+01  0.29806799628E+02  0.34895917379E+02  0.51100000000E-03 0. -1.
        -11    1    3    3    0    0 -0.33231945924E+01 -0.24881412791E-01  0.96085005685E+01  0.10166982090E+02  0.51100000000E-03 0.  1.
        -12    1    3    3    0    0  0.19803722150E+02  0.51323265354E+01 -0.40018857444E+02  0.44944823259E+02  0.00000000000E+00 0.  1.
</event>
<event>
 7    1  0.2148778E-015  0.9000782E+02  0.7816164E-02  0.1186339E+00
        -11   -1    0    0    0    0  0.00000000000E+00  0.00000000000E+00  0.45593999997E+02  0.45594000000E+02  0.51100000000E-03 0.  1.
         11   -1    0    0    0    0 -0.00000000000E+00 -0.00000000000E+00 -0.45593999997E+02  0.45594000000E+02  0.51100000000E-03 0. -1.
    9900012    2    1    2    0    0  0.68525530698E+00  0.49371619640E+00  0.82431386897E+00  0.90007820407E+02  0.90000082836E+02 0.  0.
         12    1    1    2    0    0 -0.68525530698E+00 -0.49371619640E+00 -0.82431386897E+00  0.11801795935E+01  0.00000000000E+00 0. -1.
         11    1    3    3    0    0 -0.28170405187E+02  0.41302467098E+01 -0.19384721717E+02  0.34444130162E+02  0.51100000000E-03 0. -1.
        -11    1    3    3    0    0 -0.60663899403E+01  0.41493485801E+01 -0.73551027807E+01  0.10397870826E+02  0.51100000000E-03 0.  1.
        -12    1    3    3    0    0  0.34922050435E+02 -0.77858790935E+01  0.27564138366E+02  0.45165819418E+02  0.00000000000E+00 0.  1.
</event>
<event>
 7    1  0.2148778E-015  0.9000771E+02  0.7816164E-02  0.1186339E+00
        -11   -1    0    0    0    0  0.00000000000E+00  0.00000000000E+00  0.45593999997E+02  0.45594000000E+02  0.51100000000E-03 0. -1.
         11   -1    0    0    0    0 -0.00000000000E+00 -0.00000000000E+00 -0.45593999997E+02  0.45594000000E+02  0.51100000000E-03 0.  1.
    9900012    2    1    2    0    0 -0.43649988302E+00  0.46492681458E+00 -0.99317604748E+00  0.90007708616E+02  0.89999969569E+02 0.  0.
         12    1    1    2    0    0  0.43649988302E+00 -0.46492681458E+00  0.99317604748E+00  0.11802913844E+01  0.00000000000E+00 0. -1.
         11    1    3    3    0    0 -0.33281801062E+02 -0.11061099385E+02  0.46726606358E+01  0.35381633077E+02  0.51100000000E-03 0. -1.
        -11    1    3    3    0    0 -0.72703733070E+01  0.23255216111E+01  0.81933027904E+01  0.11198061871E+02  0.51100000000E-03 0.  1.
        -12    1    3    3    0    0  0.40115674486E+02  0.92005045890E+01 -0.13859139474E+02  0.43428013667E+02  0.00000000000E+00 0.  1.
</event>
<event>
 7    1  0.2148778E-015  0.9000772E+02  0.7816164E-02  0.1186339E+00
        -11   -1    0    0    0    0  0.00000000000E+00  0.00000000000E+00  0.45593999997E+02  0.45594000000E+02  0.51100000000E-03 0.  1.
         11   -1    0    0    0    0 -0.00000000000E+00 -0.00000000000E+00 -0.45593999997E+02  0.45594000000E+02  0.51100000000E-03 0. -1.
    9900012    2    1    2    0    0 -0.66648674974E+00  0.60355114358E+00  0.76458264705E+00  0.90007718172E+02  0.89999979251E+02 0.  0.
         12    1    1    2    0    0  0.66648674974E+00 -0.60355114358E+00 -0.76458264705E+00  0.11802818285E+01  0.00000000000E+00 0. -1.
         11    1    3    3    0    0 -0.12810254575E+02  0.14061288334E+01  0.42293565165E+02  0.44213408319E+02  0.51100000000E-03 0. -1.
        -11    1    3    3    0    0 -0.31177832189E+01 -0.22600475700E+01 -0.10516121077E+02  0.11198981650E+02  0.51100000000E-03 0.  1.
        -12    1    3    3    0    0  0.15261551044E+02  0.14574698802E+01 -0.31012861440E+02  0.34595328203E+02  0.00000000000E+00 0.  1.
</event>
<event>
 7    1  0.2220848E-015  0.9000775E+02  0.7816164E-02  0.1186339E+00
        -11   -1    0    0    0    0  0.00000000000E+00  0.00000000000E+00  0.45593999997E+02  0.45594000000E+02  0.51100000000E-03 0.  1.
         11   -1    0    0    0    0 -0.00000000000E+00 -0.00000000000E+00 -0.45593999997E+02  0.45594000000E+02  0.51100000000E-03 0. -1.
    9900012    2    1    2    0    0  0.10977880735E+01 -0.28727332359E+00  0.32454432287E+00  0.90007748487E+02  0.90000009967E+02 0.  0.
         12    1    1    2    0    0 -0.10977880735E+01  0.28727332359E+00 -0.32454432287E+00  0.11802515131E+01  0.00000000000E+00 0. -1.
         11    1    3    3    0    0 -0.77144262898E+01  0.42429356601E+01  0.42473975276E+01  0.97752371846E+01  0.51100000000E-03 0. -1.
        -11    1    3    3    0    0 -0.20818900123E+02  0.46315157986E+01  0.28347065206E+02  0.35474408339E+02  0.51100000000E-03 0.  1.
         12    1    3    3    0    0  0.29631114487E+02 -0.91617247824E+01 -0.32269918410E+02  0.44758102964E+02  0.00000000000E+00 0. -1.
</event>
<event>
 7    1  0.2458720E-015  0.9000770E+02  0.7816164E-02  0.1186339E+00
        -11   -1    0    0    0    0  0.00000000000E+00  0.00000000000E+00  0.45593999997E+02  0.45594000000E+02  0.51100000000E-03 0. -1.
         11   -1    0    0    0    0 -0.00000000000E+00 -0.00000000000E+00 -0.45593999997E+02  0.45594000000E+02  0.51100000000E-03 0.  1.
    9900012    2    1    2    0    0  0.78960110057E+00  0.33600062093E+00 -0.81039062945E+00  0.90007703729E+02  0.89999964618E+02 0.  0.
         12    1    1    2    0    0 -0.78960110057E+00 -0.33600062093E+00  0.81039062945E+00  0.11802962711E+01  0.00000000000E+00 0. -1.
         11    1    3    3    0    0 -0.72591214338E+01  0.41276623693E+01 -0.30116015283E+01  0.88770594597E+01  0.51100000000E-03 0. -1.
        -11    1    3    3    0    0 -0.28080999339E+01  0.12455216822E+02 -0.36013510922E+02  0.38209826229E+02  0.51100000000E-03 0.  1.
         12    1    3    3    0    0  0.10856822468E+02 -0.16246878570E+02  0.38214721821E+02  0.42920818040E+02  0.00000000000E+00 0. -1.
</event>
<event>
 7    1  0.2148778E-015  0.9000772E+02  0.7816164E-02  0.1186339E+00
        -11   -1    0    0    0    0  0.00000000000E+00  0.00000000000E+00  0.45593999997E+02  0.45594000000E+02  0.51100000000E-03 0. -1.
         11   -1    0    0    0    0 -0.00000000000E+00 -0.00000000000E+00 -0.45593999997E+02  0.45594000000E+02  0.51100000000E-03 0.  1.
    9900012    2    1    2    0    0  0.11284726276E+01 -0.13323696351E+00 -0.31915796818E+00  0.90007718522E+02  0.89999979606E+02 0.  0.
         12    1    1    2    0    0 -0.11284726276E+01  0.13323696351E+00  0.31915796818E+00  0.11802814784E+01  0.00000000000E+00 0. -1.
         11    1    3    3    0    0 -0.29871354548E+02 -0.85533598502E+01  0.16412186835E+02  0.35139972456E+02  0.51100000000E-03 0. -1.
        -11    1    3    3    0    0 -0.56781549324E+01 -0.70786856472E+01  0.40676971504E+01  0.99446163474E+01  0.51100000000E-03 0.  1.
        -12    1    3    3    0    0  0.36677982108E+02  0.15498808534E+02 -0.20799041954E+02  0.44923129718E+02  0.00000000000E+00 0.  1.
</event>
<event>
 7    1  0.2148778E-015  0.9000772E+02  0.7816164E-02  0.1186339E+00
        -11   -1    0    0    0    0  0.00000000000E+00  0.00000000000E+00  0.45593999997E+02  0.45594000000E+02  0.51100000000E-03 0.  1.
         11   -1    0    0    0    0 -0.00000000000E+00 -0.00000000000E+00 -0.45593999997E+02  0.45594000000E+02  0.51100000000E-03 0. -1.
    9900012    2    1    2    0    0 -0.68262523460E+00  0.94683424525E+00  0.17486751648E+00  0.90007724207E+02  0.89999985367E+02 0.  0.
         12    1    1    2    0    0  0.68262523460E+00 -0.94683424525E+00 -0.17486751648E+00  0.11802757929E+01  0.00000000000E+00 0. -1.
         11    1    3    3    0    0  0.18855176153E+02  0.29398831756E+02 -0.72205826711E+01  0.35664349016E+02  0.51100000000E-03 0. -1.
        -11    1    3    3    0    0  0.41105750312E+01  0.39486059053E+01 -0.92895148274E+01  0.10898779825E+02  0.51100000000E-03 0.  1.
        -12    1    3    3    0    0 -0.23648376419E+02 -0.32400603416E+02  0.16684965015E+02  0.43444595366E+02  0.00000000000E+00 0.  1.
</event>
<event>
 7    1  0.2148778E-015  0.9000722E+02  0.7816164E-02  0.1186340E+00
        -11   -1    0    0    0    0  0.00000000000E+00  0.00000000000E+00  0.45593999997E+02  0.45594000000E+02  0.51100000000E-03 0.  1.
         11   -1    0    0    0    0 -0.00000000000E+00 -0.00000000000E+00 -0.45593999997E+02  0.45594000000E+02  0.51100000000E-03 0. -1.
    9900012    2    1    2    0    0 -0.17326480216E+00  0.18447439566E+00  0.11533408330E+01  0.90007217814E+02  0.89999472287E+02 0.  0.
         12    1    1    2    0    0  0.17326480216E+00 -0.18447439566E+00 -0.11533408330E+01  0.11807821863E+01  0.00000000000E+00 0. -1.
         11    1    3    3    0    0 -0.56748891159E+01  0.27473579656E+00  0.14378605538E+02  0.15460405677E+02  0.51100000000E-03 0. -1.
        -11    1    3    3    0    0 -0.18654733905E+02  0.25314292688E+02  0.94040148327E+01  0.32821456497E+02  0.51100000000E-03 0.  1.
         12    1    3    3    0    0  0.24156358218E+02 -0.25404554089E+02 -0.22629279537E+02  0.41725355639E+02  0.00000000000E+00 0. -1.
</event>
<event>
 7    1  0.2148778E-015  0.9000778E+02  0.7816164E-02  0.1186339E+00
        -11   -1    0    0    0    0  0.00000000000E+00  0.00000000000E+00  0.45593999997E+02  0.45594000000E+02  0.51100000000E-03 0. -1.
         11   -1    0    0    0    0 -0.00000000000E+00 -0.00000000000E+00 -0.45593999997E+02  0.45594000000E+02  0.51100000000E-03 0.  1.
    9900012    2    1    2    0    0  0.72266018754E+00 -0.41699501580E+00 -0.83474034806E+00  0.90007782207E+02  0.90000044132E+02 0.  0.
         12    1    1    2    0    0 -0.72266018754E+00  0.41699501580E+00  0.83474034806E+00  0.11802177928E+01  0.00000000000E+00 0. -1.
         11    1    3    3    0    0 -0.52317603350E+00  0.14355723691E+02  0.35041995226E+02  0.37872179044E+02  0.51100000000E-03 0. -1.
        -11    1    3    3    0    0 -0.57696143530E+01  0.71008698997E+01  0.44432852423E+00  0.91601436241E+01  0.51100000000E-03 0.  1.
        -12    1    3    3    0    0  0.70154505740E+01 -0.21873588607E+02 -0.36321064099E+02  0.42975459539E+02  0.00000000000E+00 0.  1.
</event>
<event>
 7    1  0.2148778E-015  0.9000777E+02  0.7816164E-02  0.1186339E+00
        -11   -1    0    0    0    0  0.00000000000E+00  0.00000000000E+00  0.45593999997E+02  0.45594000000E+02  0.51100000000E-03 0. -1.
         11   -1    0    0    0    0 -0.00000000000E+00 -0.00000000000E+00 -0.45593999997E+02  0.45594000000E+02  0.51100000000E-03 0.  1.
    9900012    2    1    2    0    0  0.98205141692E+00 -0.57562080830E+00 -0.31175103264E+00  0.90007765698E+02  0.90000027406E+02 0.  0.
         12    1    1    2    0    0 -0.98205141692E+00  0.57562080830E+00  0.31175103264E+00  0.11802343016E+01  0.00000000000E+00 0. -1.
         11    1    3    3    0    0  0.44007691176E+01  0.14581798860E+02 -0.51621624508E+01  0.16082398709E+02  0.51100000000E-03 0. -1.
        -11    1    3    3    0    0 -0.93938711573E+01  0.27187777942E+02  0.10847380429E+02  0.30742246944E+02  0.51100000000E-03 0.  1.
         12    1    3    3    0    0  0.59751534566E+01 -0.42345197610E+02 -0.59969690113E+01  0.43183120045E+02  0.00000000000E+00 0. -1.
</event>
<event>
 7    1  0.2148778E-015  0.9000776E+02  0.7816164E-02  0.1186339E+00
        -11   -1    0    0    0    0  0.00000000000E+00  0.00000000000E+00  0.45593999997E+02  0.45594000000E+02  0.51100000000E-03 0. -1.
         11   -1    0    0    0    0 -0.00000000000E+00 -0.00000000000E+00 -0.45593999997E+02  0.45594000000E+02  0.51100000000E-03 0.  1.
    9900012    2    1    2    0    0  0.77251883221E+00  0.15540193593E+00 -0.87865477435E+00  0.90007758787E+02  0.90000020403E+02 0.  0.
         12    1    1    2    0    0 -0.77251883221E+00 -0.15540193593E+00  0.87865477435E+00  0.11802412128E+01  0.00000000000E+00 0. -1.
         11    1    3    3    0    0 -0.40955852778E+01 -0.13338783896E+02  0.31293316961E+02  0.34263226078E+02  0.51100000000E-03 0. -1.
        -11    1    3    3    0    0  0.35337732333E+01 -0.12514770765E+02  0.15945874511E+01  0.13101517086E+02  0.51100000000E-03 0.  1.
        -12    1    3    3    0    0  0.13343308767E+01  0.26008956596E+02 -0.33766559187E+02  0.42643015623E+02  0.00000000000E+00 0.  1.
</event>
<event>
 7    1  0.2148778E-015  0.9000775E+02  0.7816164E-02  0.1186339E+00
        -11   -1    0    0    0    0  0.00000000000E+00  0.00000000000E+00  0.45593999997E+02  0.45594000000E+02  0.51100000000E-03 0.  1.
         11   -1    0    0    0    0 -0.00000000000E+00 -0.00000000000E+00 -0.45593999997E+02  0.45594000000E+02  0.51100000000E-03 0. -1.
    9900012    2    1    2    0    0  0.25738602036E+00 -0.96929600830E+00  0.62225473474E+00  0.90007752878E+02  0.90000014416E+02 0.  0.
         12    1    1    2    0    0 -0.25738602036E+00  0.96929600830E+00 -0.62225473474E+00  0.11802471225E+01  0.00000000000E+00 0. -1.
         11    1    3    3    0    0  0.13571181694E+01 -0.22476004317E+01 -0.10255450483E+02  0.10586205283E+02  0.51100000000E-03 0. -1.
        -11    1    3    3    0    0 -0.45328385423E+01 -0.33406994781E+02  0.24838152674E+02  0.41874906019E+02  0.51100000000E-03 0.  1.
         12    1    3    3    0    0  0.34331063933E+01  0.34685299205E+02 -0.13960447456E+02  0.37546641575E+02  0.00000000000E+00 0. -1.
</event>
<event>
 7    1  0.2148778E-015  0.9000766E+02  0.7816164E-02  0.1186339E+00
        -11   -1    0    0    0    0  0.00000000000E+00  0.00000000000E+00  0.45593999997E+02  0.45594000000E+02  0.51100000000E-03 0.  1.
         11   -1    0    0    0    0 -0.00000000000E+00 -0.00000000000E+00 -0.45593999997E+02  0.45594000000E+02  0.51100000000E-03 0. -1.
    9900012    2    1    2    0    0 -0.41980695459E+00 -0.98364052948E+00  0.49942030892E+00  0.90007658009E+02  0.89999918295E+02 0.  0.
         12    1    1    2    0    0  0.41980695459E+00  0.98364052948E+00 -0.49942030892E+00  0.11803419908E+01  0.00000000000E+00 0. -1.
         11    1    3    3    0    0  0.88022530160E+01  0.27066314157E+02 -0.26344381408E+02  0.38782617914E+02  0.51100000000E-03 0. -1.
        -11    1    3    3    0    0 -0.68637191933E+01  0.59547236221E+01  0.27874877371E+01  0.95047073982E+01  0.51100000000E-03 0.  1.
        -12    1    3    3    0    0 -0.23583407773E+01 -0.34004678308E+02  0.24056313980E+02  0.41720332697E+02  0.00000000000E+00 0.  1.
</event>
<event>
 7    1  0.2148778E-015  0.9000767E+02  0.7816164E-02  0.1186339E+00
        -11   -1    0    0    0    0  0.00000000000E+00  0.00000000000E+00  0.45593999997E+02  0.45594000000E+02  0.51100000000E-03 0.  1.
         11   -1    0    0    0    0 -0.00000000000E+00 -0.00000000000E+00 -0.45593999997E+02  0.45594000000E+02  0.51100000000E-03 0. -1.
    9900012    2    1    2    0    0 -0.41734150856E+00  0.10998159271E+01 -0.96987736668E-01  0.90007671389E+02  0.89999931852E+02 0.  0.
         12    1    1    2    0    0  0.41734150856E+00 -0.10998159271E+01  0.96987736668E-01  0.11803286107E+01  0.00000000000E+00 0. -1.
         11    1    3    3    0    0 -0.37818733393E+01 -0.77275181616E+01  0.78559381875E+01  0.11650444968E+02  0.51100000000E-03 0. -1.
        -11    1    3    3    0    0 -0.30635251853E+02 -0.12631692062E+02 -0.16855811115E+02  0.37177905657E+02  0.51100000000E-03 0.  1.
         12    1    3    3    0    0  0.33999783684E+02  0.21459026150E+02  0.89028851909E+01  0.41179320764E+02  0.00000000000E+00 0. -1.
</event>
<event>
 7    1  0.2148778E-015  0.9000770E+02  0.7816164E-02  0.1186339E+00
        -11   -1    0    0    0    0  0.00000000000E+00  0.00000000000E+00  0.45593999997E+02  0.45594000000E+02  0.51100000000E-03 0.  1.
         11   -1    0    0    0    0 -0.00000000000E+00 -0.00000000000E+00 -0.45593999997E+02  0.45594000000E+02  0.51100000000E-03 0. -1.
    9900012    2    1    2    0    0  0.87597513642E+00 -0.66096586917E+00  0.43463208992E+00  0.90007697762E+02  0.89999958572E+02 0.  0.
         12    1    1    2    0    0 -0.87597513642E+00  0.66096586917E+00 -0.43463208992E+00  0.11803022382E+01  0.00000000000E+00 0. -1.
         11    1    3    3    0    0  0.30178605468E+02  0.12014389131E+02 -0.13068950484E+02  0.35012729702E+02  0.51100000000E-03 0. -1.
        -11    1    3    3    0    0  0.33734701110E+01  0.10746567945E+02 -0.28083081380E+01  0.11608428750E+02  0.51100000000E-03 0.  1.
        -12    1    3    3    0    0 -0.32676100443E+02 -0.23421922946E+02  0.16311890712E+02  0.43386539309E+02  0.00000000000E+00 0.  1.
</event>
<event>
 7    1  0.2148778E-015  0.9000777E+02  0.7816164E-02  0.1186339E+00
        -11   -1    0    0    0    0  0.00000000000E+00  0.00000000000E+00  0.45593999997E+02  0.45594000000E+02  0.51100000000E-03 0.  1.
         11   -1    0    0    0    0 -0.00000000000E+00 -0.00000000000E+00 -0.45593999997E+02  0.45594000000E+02  0.51100000000E-03 0. -1.
    9900012    2    1    2    0    0 -0.63824929233E+00 -0.66317158059E+00  0.73877255455E+00  0.90007769687E+02  0.90000031447E+02 0.  0.
         12    1    1    2    0    0  0.63824929233E+00  0.66317158059E+00 -0.73877255455E+00  0.11802303130E+01  0.00000000000E+00 0. -1.
         11    1    3    3    0    0  0.31454219624E+01 -0.61628116750E+01  0.47904126636E+01  0.84155796480E+01  0.51100000000E-03 0. -1.
        -11    1    3    3    0    0  0.10029870962E+02 -0.35881917907E+02  0.30900661165E+01  0.37385275885E+02  0.51100000000E-03 0.  1.
         12    1    3    3    0    0 -0.13813542216E+02  0.41381558001E+02 -0.71417062256E+01  0.44206914153E+02  0.00000000000E+00 0. -1.
</event>
<event>
 7    1  0.2148778E-015  0.9000774E+02  0.7816164E-02  0.1186339E+00
        -11   -1    0    0    0    0  0.00000000000E+00  0.00000000000E+00  0.45593999997E+02  0.45594000000E+02  0.51100000000E-03 0. -1.
         11   -1    0    0    0    0 -0.00000000000E+00 -0.00000000000E+00 -0.45593999997E+02  0.45594000000E+02  0.51100000000E-03 0.  1.
    9900012    2    1    2    0    0  0.93645341953E+00 -0.18838986953E-01 -0.71812418862E+00  0.90007744831E+02  0.90000006262E+02 0.  0.
         12    1    1    2    0    0 -0.93645341953E+00  0.18838986953E-01  0.71812418862E+00  0.11802551693E+01  0.00000000000E+00 0. -1.
         11    1    3    3    0    0 -0.11368169480E+02 -0.41144280911E+02  0.42352505768E+01  0.42895506486E+02  0.51100000000E-03 0. -1.
        -11    1    3    3    0    0 -0.93213844652E+00  0.44284624590E+01  0.51080261128E+01  0.68243749065E+01  0.51100000000E-03 0.  1.
        -12    1    3    3    0    0  0.13236761346E+02  0.36696979465E+02 -0.10061400878E+02  0.40287863438E+02  0.00000000000E+00 0.  1.
</event>
<event>
 7    1  0.2148778E-015  0.9000793E+02  0.7816164E-02  0.1186339E+00
        -11   -1    0    0    0    0  0.00000000000E+00  0.00000000000E+00  0.45593999997E+02  0.45594000000E+02  0.51100000000E-03 0.  1.
         11   -1    0    0    0    0 -0.00000000000E+00 -0.00000000000E+00 -0.45593999997E+02  0.45594000000E+02  0.51100000000E-03 0. -1.
    9900012    2    1    2    0    0  0.12870225064E-01 -0.36592980194E-01  0.11794361294E+01  0.90007926158E+02  0.90000189983E+02 0.  0.
         12    1    1    2    0    0 -0.12870225064E-01  0.36592980194E-01 -0.11794361294E+01  0.11800738419E+01  0.00000000000E+00 0. -1.
         11    1    3    3    0    0  0.20274781401E+02  0.31682485877E+02 -0.12840852764E+02  0.39745869876E+02  0.51100000000E-03 0. -1.
        -11    1    3    3    0    0  0.43270374474E+01  0.33024059359E+01  0.10083521452E+01  0.55358750298E+01  0.51100000000E-03 0.  1.
        -12    1    3    3    0    0 -0.24588948623E+02 -0.35021484793E+02  0.13011936748E+02  0.44726181253E+02  0.00000000000E+00 0.  1.
</event>
<event>
 7    1  0.2148778E-015  0.9000776E+02  0.7816164E-02  0.1186339E+00
        -11   -1    0    0    0    0  0.00000000000E+00  0.00000000000E+00  0.45593999997E+02  0.45594000000E+02  0.51100000000E-03 0.  1.
         11   -1    0    0    0    0 -0.00000000000E+00 -0.00000000000E+00 -0.45593999997E+02  0.45594000000E+02  0.51100000000E-03 0. -1.
    9900012    2    1    2    0    0 -0.48526962711E+00 -0.83600432800E-01  0.10726078826E+01  0.90007761332E+02  0.90000022982E+02 0.  0.
         12    1    1    2    0    0  0.48526962711E+00  0.83600432800E-01 -0.10726078826E+01  0.11802386679E+01  0.00000000000E+00 0. -1.
         11    1    3    3    0    0  0.80910592085E+01  0.74368045101E+01  0.15244831834E+01  0.11094834369E+02  0.51100000000E-03 0. -1.
        -11    1    3    3    0    0 -0.41033442747E+02  0.80848911161E+01 -0.67169274408E+01  0.42358305000E+02  0.51100000000E-03 0.  1.
         12    1    3    3    0    0  0.32457113911E+02 -0.15605296059E+02  0.62650521399E+01  0.36554621963E+02  0.00000000000E+00 0. -1.
</event>
<event>
 7    1  0.2148778E-015  0.9000669E+02  0.7816164E-02  0.1186341E+00
        -11   -1    0    0    0    0  0.00000000000E+00  0.00000000000E+00  0.45593999997E+02  0.45594000000E+02  0.51100000000E-03 0.  1.
         11   -1    0    0    0    0 -0.00000000000E+00 -0.00000000000E+00 -0.45593999997E+02  0.45594000000E+02  0.51100000000E-03 0. -1.
    9900012    2    1    2    0    0  0.65532840509E+00 -0.79856884379E+00 -0.57299947409E+00  0.90006688900E+02  0.89998936388E+02 0.  0.
         12    1    1    2    0    0 -0.65532840509E+00  0.79856884379E+00  0.57299947409E+00  0.11813110996E+01  0.00000000000E+00 0. -1.
         11    1    3    3    0    0 -0.59317227362E+01  0.84018286915E+01  0.23240672556E+01  0.10544066998E+02  0.51100000000E-03 0. -1.
        -11    1    3    3    0    0  0.16093240550E+02  0.16498228595E+02  0.29239354761E+02  0.37230683653E+02  0.51100000000E-03 0.  1.
        -12    1    3    3    0    0 -0.95061894085E+01 -0.25698626130E+02 -0.32136421491E+02  0.42231938250E+02  0.00000000000E+00 0.  1.
</event>
<event>
 7    1  0.2148778E-015  0.9000766E+02  0.7816164E-02  0.1186339E+00
        -11   -1    0    0    0    0  0.00000000000E+00  0.00000000000E+00  0.45593999997E+02  0.45594000000E+02  0.51100000000E-03 0.  1.
         11   -1    0    0    0    0 -0.00000000000E+00 -0.00000000000E+00 -0.45593999997E+02  0.45594000000E+02  0.51100000000E-03 0. -1.
    9900012    2    1    2    0    0 -0.32056251365E+00  0.28199800162E+00  0.11004148238E+01  0.90007662767E+02  0.89999923116E+02 0.  0.
         12    1    1    2    0    0  0.32056251365E+00 -0.28199800162E+00 -0.11004148238E+01  0.11803372325E+01  0.00000000000E+00 0. -1.
         11    1    3    3    0    0 -0.54650385978E+01 -0.72447140609E+01 -0.29119576074E+01  0.95305837212E+01  0.51100000000E-03 0. -1.
        -11    1    3    3    0    0  0.31982072836E+02  0.23845857365E+02 -0.16274818259E+02  0.43085352569E+02  0.51100000000E-03 0.  1.
         12    1    3    3    0    0 -0.26837596752E+02 -0.16319145303E+02  0.20287190690E+02  0.37391726477E+02  0.00000000000E+00 0. -1.
</event>
<event>
 7    1  0.2148778E-015  0.9000774E+02  0.7816164E-02  0.1186339E+00
        -11   -1    0    0    0    0  0.00000000000E+00  0.00000000000E+00  0.45593999997E+02  0.45594000000E+02  0.51100000000E-03 0.  1.
         11   -1    0    0    0    0 -0.00000000000E+00 -0.00000000000E+00 -0.45593999997E+02  0.45594000000E+02  0.51100000000E-03 0. -1.
    9900012    2    1    2    0    0 -0.92516901887E+00  0.22780527791E+00  0.69654204821E+00  0.90007744187E+02  0.90000005611E+02 0.  0.
         12    1    1    2    0    0  0.92516901887E+00 -0.22780527791E+00 -0.69654204821E+00  0.11802558125E+01  0.00000000000E+00 0. -1.
         11    1    3    3    0    0  0.90765854318E+00  0.81725191240E+01 -0.19323580114E+01  0.84467698328E+01  0.51100000000E-03 0. -1.
        -11    1    3    3    0    0  0.34920614414E+02 -0.57240900979E+01 -0.17629957319E+02  0.39535173123E+02  0.51100000000E-03 0.  1.
         12    1    3    3    0    0 -0.36753441976E+02 -0.22206237482E+01  0.20258857378E+02  0.42025801232E+02  0.00000000000E+00 0. -1.
</event>
<event>
 7    1  0.2148778E-015  0.9000767E+02  0.7816164E-02  0.1186339E+00
        -11   -1    0    0    0    0  0.00000000000E+00  0.00000000000E+00  0.45593999997E+02  0.45594000000E+02  0.51100000000E-03 0.  1.
         11   -1    0    0    0    0 -0.00000000000E+00 -0.00000000000E+00 -0.45593999997E+02  0.45594000000E+02  0.51100000000E-03 0. -1.
    9900012    2    1    2    0    0 -0.76847841371E+00  0.80864097826E+00  0.38563168602E+00  0.90007673307E+02  0.89999933795E+02 0.  0.
         12    1    1    2    0    0  0.76847841371E+00 -0.80864097826E+00 -0.38563168602E+00  0.11803266926E+01  0.00000000000E+00 0. -1.
         11    1    3    3    0    0  0.12102965995E+02 -0.21202391801E+02 -0.23926156112E+02  0.34183097439E+02  0.51100000000E-03 0. -1.
        -11    1    3    3    0    0  0.21821425588E+01 -0.64883138275E+01 -0.77653768933E+01  0.10351861718E+02  0.51100000000E-03 0.  1.
        -12    1    3    3    0    0 -0.15053586968E+02  0.28499346607E+02  0.32077164691E+02  0.45472714151E+02  0.00000000000E+00 0.  1.
</event>
<event>
 7    1  0.2148778E-015  0.9000770E+02  0.7816164E-02  0.1186339E+00
        -11   -1    0    0    0    0  0.00000000000E+00  0.00000000000E+00  0.45593999997E+02  0.45594000000E+02  0.51100000000E-03 0.  1.
         11   -1    0    0    0    0 -0.00000000000E+00 -0.00000000000E+00 -0.45593999997E+02  0.45594000000E+02  0.51100000000E-03 0. -1.
    9900012    2    1    2    0    0 -0.11508913445E+01  0.23263896738E-01  0.26080150813E+00  0.90007699393E+02  0.89999960225E+02 0.  0.
         12    1    1    2    0    0  0.11508913445E+01 -0.23263896738E-01 -0.26080150813E+00  0.11803006068E+01  0.00000000000E+00 0. -1.
         11    1    3    3    0    0 -0.58263290862E+01 -0.78454852736E+01  0.38267583596E+01  0.10494847765E+02  0.51100000000E-03 0. -1.
        -11    1    3    3    0    0 -0.63416344133E+01  0.18468204507E+02  0.33858799583E+02  0.39085920921E+02  0.51100000000E-03 0.  1.
         12    1    3    3    0    0  0.11017072155E+02 -0.10599455337E+02 -0.37424756434E+02  0.40426930708E+02  0.00000000000E+00 0. -1.
</event>
<event>
 7    1  0.2148778E-015  0.9000769E+02  0.7816164E-02  0.1186339E+00
        -11   -1    0    0    0    0  0.00000000000E+00  0.00000000000E+00  0.45593999997E+02  0.45594000000E+02  0.51100000000E-03 0.  1.
         11   -1    0    0    0    0 -0.00000000000E+00 -0.00000000000E+00 -0.45593999997E+02  0.45594000000E+02  0.51100000000E-03 0. -1.
    9900012    2    1    2    0    0  0.11653552282E+01 -0.98803187725E-01 -0.15911583118E+00  0.90007689564E+02  0.89999950266E+02 0.  0.
         12    1    1    2    0    0 -0.11653552282E+01  0.98803187725E-01  0.15911583118E+00  0.11803104361E+01  0.00000000000E+00 0. -1.
         11    1    3    3    0    0 -0.23915921511E+01  0.64676201709E+01 -0.74256248683E+01  0.10133594063E+02  0.51100000000E-03 0. -1.
        -11    1    3    3    0    0 -0.17128134837E+02 -0.35304974774E+02  0.17573397458E+02  0.42995796833E+02  0.51100000000E-03 0.  1.
         12    1    3    3    0    0  0.20685082216E+02  0.28738551416E+02 -0.10306888421E+02  0.36878298668E+02  0.00000000000E+00 0. -1.
</event>
<event>
 7    1  0.2148778E-015  0.9000774E+02  0.7816164E-02  0.1186339E+00
        -11   -1    0    0    0    0  0.00000000000E+00  0.00000000000E+00  0.45593999997E+02  0.45594000000E+02  0.51100000000E-03 0.  1.
         11   -1    0    0    0    0 -0.00000000000E+00 -0.00000000000E+00 -0.45593999997E+02  0.45594000000E+02  0.51100000000E-03 0. -1.
    9900012    2    1    2    0    0 -0.10453686665E+01  0.89170613093E-01 -0.54061611838E+00  0.90007740353E+02  0.90000001726E+02 0.  0.
         12    1    1    2    0    0  0.10453686665E+01 -0.89170613093E-01  0.54061611838E+00  0.11802596471E+01  0.00000000000E+00 0. -1.
         11    1    3    3    0    0 -0.97876188585E+01  0.22525138579E+01  0.98914670739E+00  0.10092061884E+02  0.51100000000E-03 0. -1.
        -11    1    3    3    0    0 -0.16853431606E+02 -0.11087994587E+01  0.32911224702E+02  0.36992111386E+02  0.51100000000E-03 0.  1.
         12    1    3    3    0    0  0.25595681798E+02 -0.10545437861E+01 -0.34440987528E+02  0.42923567083E+02  0.00000000000E+00 0. -1.
</event>
<event>
 7    1  0.2148778E-015  0.9000773E+02  0.7816164E-02  0.1186339E+00
        -11   -1    0    0    0    0  0.00000000000E+00  0.00000000000E+00  0.45593999997E+02  0.45594000000E+02  0.51100000000E-03 0.  1.
         11   -1    0    0    0    0 -0.00000000000E+00 -0.00000000000E+00 -0.45593999997E+02  0.45594000000E+02  0.51100000000E-03 0. -1.
    9900012    2    1    2    0    0 -0.11420160147E+01  0.79120916274E-01  0.28737833059E+00  0.90007725878E+02  0.89999987060E+02 0.  0.
         12    1    1    2    0    0  0.11420160147E+01 -0.79120916274E-01 -0.28737833059E+00  0.11802741216E+01  0.00000000000E+00 0. -1.
         11    1    3    3    0    0  0.14842603850E+02  0.33930606663E+02 -0.30476627885E+01  0.37160156167E+02  0.51100000000E-03 0. -1.
        -11    1    3    3    0    0  0.39377783938E+01  0.65404405329E+01 -0.47299462794E+00  0.76489989686E+01  0.51100000000E-03 0.  1.
        -12    1    3    3    0    0 -0.19922398258E+02 -0.40391926280E+02  0.38080357470E+01  0.45198570743E+02  0.00000000000E+00 0.  1.
</event>
<event>
 7    1  0.2148778E-015  0.9000758E+02  0.7816164E-02  0.1186339E+00
        -11   -1    0    0    0    0  0.00000000000E+00  0.00000000000E+00  0.45593999997E+02  0.45594000000E+02  0.51100000000E-03 0. -1.
         11   -1    0    0    0    0 -0.00000000000E+00 -0.00000000000E+00 -0.45593999997E+02  0.45594000000E+02  0.51100000000E-03 0.  1.
    9900012    2    1    2    0    0 -0.11236808553E+01  0.14210382512E+00 -0.33246132041E+00  0.90007583679E+02  0.89999842983E+02 0.  0.
         12    1    1    2    0    0  0.11236808553E+01 -0.14210382512E+00  0.33246132041E+00  0.11804163212E+01  0.00000000000E+00 0. -1.
         11    1    3    3    0    0  0.33760780767E+02 -0.38366819819E+01  0.24028626245E+02  0.41615926351E+02  0.51100000000E-03 0. -1.
        -11    1    3    3    0    0  0.45693319374E+00 -0.20420371776E+01 -0.92547520648E+01  0.94883686596E+01  0.51100000000E-03 0.  1.
        -12    1    3    3    0    0 -0.35341394816E+02  0.60208229845E+01 -0.15106335500E+02  0.38903288668E+02  0.00000000000E+00 0.  1.
</event>
<event>
 7    1  0.2148778E-015  0.9000777E+02  0.7816164E-02  0.1186339E+00
        -11   -1    0    0    0    0  0.00000000000E+00  0.00000000000E+00  0.45593999997E+02  0.45594000000E+02  0.51100000000E-03 0.  1.
         11   -1    0    0    0    0 -0.00000000000E+00 -0.00000000000E+00 -0.45593999997E+02  0.45594000000E+02  0.51100000000E-03 0. -1.
    9900012    2    1    2    0    0  0.47409402883E+00  0.17561334683E+00  0.10664560624E+01  0.90007773865E+02  0.90000035680E+02 0.  0.
         12    1    1    2    0    0 -0.47409402883E+00 -0.17561334683E+00 -0.10664560624E+01  0.11802261346E+01  0.00000000000E+00 0. -1.
         11    1    3    3    0    0  0.15735179586E+02  0.18789198783E+02 -0.31713140440E+02  0.40079335627E+02  0.51100000000E-03 0. -1.
        -11    1    3    3    0    0 -0.69502925949E+01 -0.27692612230E+01 -0.43916720696E+01  0.86753765742E+01  0.51100000000E-03 0.  1.
        -12    1    3    3    0    0 -0.83107929627E+01 -0.15844324213E+02  0.37171268572E+02  0.41253061664E+02  0.00000000000E+00 0.  1.
</event>
<event>
 7    1  0.2148778E-015  0.9000772E+02  0.7816164E-02  0.1186339E+00
        -11   -1    0    0    0    0  0.00000000000E+00  0.00000000000E+00  0.45593999997E+02  0.45594000000E+02  0.51100000000E-03 0. -1.
         11   -1    0    0    0    0 -0.00000000000E+00 -0.00000000000E+00 -0.45593999997E+02  0.45594000000E+02  0.51100000000E-03 0.  1.
    9900012    2    1    2    0    0 -0.86906717617E+00  0.77384237528E+00 -0.19737498190E+00  0.90007717550E+02  0.89999978622E+02 0.  0.
         12    1    1    2    0    0  0.86906717617E+00 -0.77384237528E+00  0.19737498190E+00  0.11802824501E+01  0.00000000000E+00 0. -1.
         11    1    3    3    0    0 -0.37176439677E+02  0.22752469009E+02 -0.35948048534E+01  0.43734255855E+02  0.51100000000E-03 0. -1.
        -11    1    3    3    0    0  0.66358283590E+01 -0.28294000973E+01 -0.63803561584E+01  0.96306109821E+01  0.51100000000E-03 0.  1.
        -12    1    3    3    0    0  0.29671544142E+02 -0.19149226536E+02  0.97777860298E+01  0.36642850712E+02  0.00000000000E+00 0.  1.
</event>
<event>
 7    1  0.2148778E-015  0.9000761E+02  0.7816164E-02  0.1186339E+00
        -11   -1    0    0    0    0  0.00000000000E+00  0.00000000000E+00  0.45593999997E+02  0.45594000000E+02  0.51100000000E-03 0.  1.
         11   -1    0    0    0    0 -0.00000000000E+00 -0.00000000000E+00 -0.45593999997E+02  0.45594000000E+02  0.51100000000E-03 0. -1.
    9900012    2    1    2    0    0 -0.90662858878E+00  0.37120390646E+00  0.65845002746E+00  0.90007608465E+02  0.89999868096E+02 0.  0.
         12    1    1    2    0    0  0.90662858878E+00 -0.37120390646E+00 -0.65845002746E+00  0.11803915354E+01  0.00000000000E+00 0. -1.
         11    1    3    3    0    0  0.91214746251E+01  0.33409841678E+02 -0.77872066421E+01  0.35497315502E+02  0.51100000000E-03 0. -1.
        -11    1    3    3    0    0  0.33320459031E+01  0.82082977135E+01 -0.35203354410E+01  0.95326514220E+01  0.51100000000E-03 0.  1.
        -12    1    3    3    0    0 -0.13360149117E+02 -0.41246935485E+02  0.11965992111E+02  0.44977641541E+02  0.00000000000E+00 0.  1.
</event>
<event>
 7    1  0.2148778E-015  0.9000770E+02  0.7816164E-02  0.1186339E+00
        -11   -1    0    0    0    0  0.00000000000E+00  0.00000000000E+00  0.45593999997E+02  0.45594000000E+02  0.51100000000E-03 0. -1.
         11   -1    0    0    0    0 -0.00000000000E+00 -0.00000000000E+00 -0.45593999997E+02  0.45594000000E+02  0.51100000000E-03 0.  1.
    9900012    2    1    2    0    0 -0.34510533209E+00  0.11149588148E+01 -0.17569015060E+00  0.90007704326E+02  0.89999965223E+02 0.  0.
         12    1    1    2    0    0  0.34510533209E+00 -0.11149588148E+01  0.17569015060E+00  0.11802956740E+01  0.00000000000E+00 0. -1.
         11    1    3    3    0    0 -0.77213765680E+01  0.44054112134E+00  0.91926107402E+01  0.12013235412E+02  0.51100000000E-03 0. -1.
        -11    1    3    3    0    0  0.36861487799E+02  0.19276910215E+02  0.10406788818E+01  0.41610714521E+02  0.51100000000E-03 0.  1.
         12    1    3    3    0    0 -0.29485216563E+02 -0.18602492521E+02 -0.10408979773E+02  0.36383754392E+02  0.00000000000E+00 0. -1.
</event>
<event>
 7    1  0.2148778E-015  0.9000777E+02  0.7816164E-02  0.1186339E+00
        -11   -1    0    0    0    0  0.00000000000E+00  0.00000000000E+00  0.45593999997E+02  0.45594000000E+02  0.51100000000E-03 0. -1.
         11   -1    0    0    0    0 -0.00000000000E+00 -0.00000000000E+00 -0.45593999997E+02  0.45594000000E+02  0.51100000000E-03 0.  1.
    9900012    2    1    2    0    0 -0.76009961143E+00 -0.39293773838E+00 -0.81288378458E+00  0.90007774796E+02  0.90000036623E+02 0.  0.
         12    1    1    2    0    0  0.76009961143E+00  0.39293773838E+00  0.81288378458E+00  0.11802252043E+01  0.00000000000E+00 0. -1.
         11    1    3    3    0    0  0.31604525183E+01 -0.21121349279E+02  0.29682442758E+02  0.36567024268E+02  0.51100000000E-03 0. -1.
        -11    1    3    3    0    0 -0.19744361114E+02  0.82540719635E+01 -0.70612068881E+01  0.22535086926E+02  0.51100000000E-03 0.  1.
        -12    1    3    3    0    0  0.15823808985E+02  0.12474339577E+02 -0.23434119654E+02  0.30905663601E+02  0.00000000000E+00 0.  1.
</event>
<event>
 7    1  0.2148778E-015  0.9000773E+02  0.7816164E-02  0.1186339E+00
        -11   -1    0    0    0    0  0.00000000000E+00  0.00000000000E+00  0.45593999997E+02  0.45594000000E+02  0.51100000000E-03 0. -1.
         11   -1    0    0    0    0 -0.00000000000E+00 -0.00000000000E+00 -0.45593999997E+02  0.45594000000E+02  0.51100000000E-03 0.  1.
    9900012    2    1    2    0    0  0.22568460113E-01  0.11772562954E+01  0.81217124389E-01  0.90007729717E+02  0.89999990949E+02 0.  0.
         12    1    1    2    0    0 -0.22568460113E-01 -0.11772562954E+01 -0.81217124389E-01  0.11802702833E+01  0.00000000000E+00 0. -1.
         11    1    3    3    0    0 -0.27175393150E+02  0.11182106975E+02  0.19177058834E+02  0.35089900185E+02  0.51100000000E-03 0. -1.
        -11    1    3    3    0    0 -0.95042029155E+01  0.32723537775E+01  0.24357716119E+01  0.10342686107E+02  0.51100000000E-03 0.  1.
        -12    1    3    3    0    0  0.36702164526E+02 -0.13277204457E+02 -0.21531613321E+02  0.44575143424E+02  0.00000000000E+00 0.  1.
</event>
<event>
 7    1  0.2148778E-015  0.9000774E+02  0.7816164E-02  0.1186339E+00
        -11   -1    0    0    0    0  0.00000000000E+00  0.00000000000E+00  0.45593999997E+02  0.45594000000E+02  0.51100000000E-03 0.  1.
         11   -1    0    0    0    0 -0.00000000000E+00 -0.00000000000E+00 -0.45593999997E+02  0.45594000000E+02  0.51100000000E-03 0. -1.
    9900012    2    1    2    0    0  0.71313682460E+00 -0.71539891294E-01  0.93773099632E+00  0.90007736678E+02  0.89999998003E+02 0.  0.
         12    1    1    2    0    0 -0.71313682460E+00  0.71539891294E-01 -0.93773099632E+00  0.11802633215E+01  0.00000000000E+00 0. -1.
         11    1    3    3    0    0  0.71288964229E+01 -0.90462172016E+01  0.17641780901E+00  0.11518955394E+02  0.51100000000E-03 0. -1.
        -11    1    3    3    0    0  0.30204925325E+02  0.15894901092E+02  0.16647586917E+02  0.37975354443E+02  0.51100000000E-03 0.  1.
         12    1    3    3    0    0 -0.36620684924E+02 -0.69202237813E+01 -0.15886273729E+02  0.40513426842E+02  0.00000000000E+00 0. -1.
</event>
<event>
 7    1  0.2148778E-015  0.9000778E+02  0.7816164E-02  0.1186339E+00
        -11   -1    0    0    0    0  0.00000000000E+00  0.00000000000E+00  0.45593999997E+02  0.45594000000E+02  0.51100000000E-03 0. -1.
         11   -1    0    0    0    0 -0.00000000000E+00 -0.00000000000E+00 -0.45593999997E+02  0.45594000000E+02  0.51100000000E-03 0.  1.
    9900012    2    1    2    0    0  0.72156222794E+00 -0.73452137699E+00 -0.57684868238E+00  0.90007776248E+02  0.90000038095E+02 0.  0.
         12    1    1    2    0    0 -0.72156222794E+00  0.73452137699E+00  0.57684868238E+00  0.11802237518E+01  0.00000000000E+00 0. -1.
         11    1    3    3    0    0 -0.37656370488E+00 -0.50077984558E+01  0.11442388697E+02  0.12495923533E+02  0.51100000000E-03 0. -1.
        -11    1    3    3    0    0  0.34815947531E+02  0.96689134109E+01  0.92292556181E+01  0.37293662311E+02  0.51100000000E-03 0.  1.
         12    1    3    3    0    0 -0.33717821598E+02 -0.53956363322E+01 -0.21248492997E+02  0.40218190404E+02  0.00000000000E+00 0. -1.
</event>
<event>
 7    1  0.2148778E-015  0.9000773E+02  0.7816164E-02  0.1186339E+00
        -11   -1    0    0    0    0  0.00000000000E+00  0.00000000000E+00  0.45593999997E+02  0.45594000000E+02  0.51100000000E-03 0.  1.
         11   -1    0    0    0    0 -0.00000000000E+00 -0.00000000000E+00 -0.45593999997E+02  0.45594000000E+02  0.51100000000E-03 0. -1.
    9900012    2    1    2    0    0 -0.44113419322E+00 -0.29831096046E+00  0.10533040625E+01  0.90007729585E+02  0.89999990815E+02 0.  0.
         12    1    1    2    0    0  0.44113419322E+00  0.29831096046E+00 -0.10533040625E+01  0.11802704155E+01  0.00000000000E+00 0. -1.
         11    1    3    3    0    0  0.12257439513E+02 -0.88489988529E+01  0.32723844878E+01  0.15467970281E+02  0.51100000000E-03 0. -1.
        -11    1    3    3    0    0  0.97053106211E+01 -0.17119794013E+01  0.31369440952E+02  0.32881085043E+02  0.51100000000E-03 0.  1.
         12    1    3    3    0    0 -0.22403884327E+02  0.10262667294E+02 -0.33588521377E+02  0.41658674261E+02  0.00000000000E+00 0. -1.
</event>
<event>
 7    1  0.2148778E-015  0.9000770E+02  0.7816164E-02  0.1186339E+00
        -11   -1    0    0    0    0  0.00000000000E+00  0.00000000000E+00  0.45593999997E+02  0.45594000000E+02  0.51100000000E-03 0. -1.
         11   -1    0    0    0    0 -0.00000000000E+00 -0.00000000000E+00 -0.45593999997E+02  0.45594000000E+02  0.51100000000E-03 0.  1.
    9900012    2    1    2    0    0 -0.40335513823E+00  0.68488047505E+00 -0.87254864221E+00  0.90007704374E+02  0.89999965271E+02 0.  0.
         12    1    1    2    0    0  0.40335513823E+00 -0.68488047505E+00  0.87254864221E+00  0.11802956264E+01  0.00000000000E+00 0. -1.
         11    1    3    3    0    0 -0.21483391167E+02  0.28978246497E+02 -0.26564387896E+01  0.36170865809E+02  0.51100000000E-03 0. -1.
        -11    1    3    3    0    0 -0.43737423404E+01  0.75662275225E+01 -0.37595553047E+01  0.95137625224E+01  0.51100000000E-03 0.  1.
        -12    1    3    3    0    0  0.25453778369E+02 -0.35859593544E+02  0.55434454521E+01  0.44323076043E+02  0.00000000000E+00 0.  1.
</event>
<event>
 7    1  0.2148778E-015  0.9000775E+02  0.7816164E-02  0.1186339E+00
        -11   -1    0    0    0    0  0.00000000000E+00  0.00000000000E+00  0.45593999997E+02  0.45594000000E+02  0.51100000000E-03 0.  1.
         11   -1    0    0    0    0 -0.00000000000E+00 -0.00000000000E+00 -0.45593999997E+02  0.45594000000E+02  0.51100000000E-03 0. -1.
    9900012    2    1    2    0    0 -0.11430795188E+01  0.26839710006E+00 -0.11971883950E+00  0.90007745625E+02  0.90000007067E+02 0.  0.
         12    1    1    2    0    0  0.11430795188E+01 -0.26839710006E+00  0.11971883950E+00  0.11802543751E+01  0.00000000000E+00 0. -1.
         11    1    3    3    0    0 -0.28909072977E+01  0.69929613981E+01 -0.14378096671E+01  0.77023471111E+01  0.51100000000E-03 0. -1.
        -11    1    3    3    0    0 -0.31008306391E+01  0.50491653282E+01  0.40590337301E+02  0.41020540021E+02  0.51100000000E-03 0.  1.
         12    1    3    3    0    0  0.48486584180E+01 -0.11773729626E+02 -0.39272246473E+02  0.41284858493E+02  0.00000000000E+00 0. -1.
</event>
<event>
 8    1  0.2148778E-015  0.9000745E+02  0.7816164E-02  0.1186340E+00
        -11   -1    0    0    0    0  0.00000000000E+00  0.00000000000E+00  0.45593999997E+02  0.45594000000E+02  0.51100000000E-03 0.  1.
         11   -1    0    0    0    0 -0.00000000000E+00 -0.00000000000E+00 -0.45593999997E+02  0.45594000000E+02  0.51100000000E-03 0. -1.
    9900012    2    1    2    0    0  0.10746477344E+01  0.41787945329E+00 -0.25340587392E+00  0.90007446940E+02  0.89999704439E+02 0.  0.
         23    2    3    3    0    0  0.17234947913E+02 -0.30482989227E+01  0.26228423580E+01  0.73231198900E+02  0.71060492782E+02 0.  0.
         12    1    1    2    0    0 -0.10746477344E+01 -0.41787945329E+00  0.25340587392E+00  0.11805530600E+01  0.00000000000E+00 0. -1.
         11    1    4    4    0    0 -0.30861030037E+01  0.29830830089E+02 -0.11443505307E+02  0.32099163066E+02  0.51100000000E-03 0. -1.
        -11    1    4    4    0    0  0.20321050917E+02 -0.32879129012E+02  0.14066347665E+02  0.41132035834E+02  0.51100000000E-03 0.  1.
         12    1    3    3    0    0 -0.16160300179E+02  0.34661783760E+01 -0.28762482319E+01  0.16776248040E+02  0.00000000000E+00 0. -1.
</event>
<event>
 7    1  0.2148778E-015  0.9000768E+02  0.7816164E-02  0.1186339E+00
        -11   -1    0    0    0    0  0.00000000000E+00  0.00000000000E+00  0.45593999997E+02  0.45594000000E+02  0.51100000000E-03 0. -1.
         11   -1    0    0    0    0 -0.00000000000E+00 -0.00000000000E+00 -0.45593999997E+02  0.45594000000E+02  0.51100000000E-03 0.  1.
    9900012    2    1    2    0    0  0.36922440167E+00 -0.36591824985E+00 -0.10596812295E+01  0.90007683461E+02  0.89999944083E+02 0.  0.
         12    1    1    2    0    0 -0.36922440167E+00  0.36591824985E+00  0.10596812295E+01  0.11803165391E+01  0.00000000000E+00 0. -1.
         11    1    3    3    0    0 -0.33956742171E+01 -0.17410849711E+02  0.28455953254E+02  0.33532216851E+02  0.51100000000E-03 0. -1.
        -11    1    3    3    0    0 -0.31583743121E+01 -0.82294736770E+01  0.71900094878E+01  0.11375227558E+02  0.51100000000E-03 0.  1.
        -12    1    3    3    0    0  0.69232729309E+01  0.25274405138E+02 -0.36705643972E+02  0.45100239052E+02  0.00000000000E+00 0.  1.
</event>
<event>
 7    1  0.2148778E-015  0.9000778E+02  0.7816164E-02  0.1186339E+00
        -11   -1    0    0    0    0  0.00000000000E+00  0.00000000000E+00  0.45593999997E+02  0.45594000000E+02  0.51100000000E-03 0.  1.
         11   -1    0    0    0    0 -0.00000000000E+00 -0.00000000000E+00 -0.45593999997E+02  0.45594000000E+02  0.51100000000E-03 0. -1.
    9900012    2    1    2    0    0 -0.80761518861E-01 -0.11653750558E+01  0.16818879831E+00  0.90007784378E+02  0.90000046331E+02 0.  0.
         12    1    1    2    0    0  0.80761518861E-01  0.11653750558E+01 -0.16818879831E+00  0.11802156224E+01  0.00000000000E+00 0. -1.
         11    1    3    3    0    0  0.49153344658E+01 -0.10850317240E+01  0.10224928607E+02  0.11396796569E+02  0.51100000000E-03 0. -1.
        -11    1    3    3    0    0  0.19289557165E+02 -0.12178738482E+02  0.25285273559E+02  0.34055157404E+02  0.51100000000E-03 0.  1.
         12    1    3    3    0    0 -0.24285653149E+02  0.12098395150E+02 -0.35342013368E+02  0.44555830404E+02  0.00000000000E+00 0. -1.
</event>
<event>
 7    1  0.2148778E-015  0.9000773E+02  0.7816164E-02  0.1186339E+00
        -11   -1    0    0    0    0  0.00000000000E+00  0.00000000000E+00  0.45593999997E+02  0.45594000000E+02  0.51100000000E-03 0.  1.
         11   -1    0    0    0    0 -0.00000000000E+00 -0.00000000000E+00 -0.45593999997E+02  0.45594000000E+02  0.51100000000E-03 0. -1.
    9900012    2    1    2    0    0  0.11644909855E+01  0.15321039327E+00 -0.11630103721E+00  0.90007729433E+02  0.89999990662E+02 0.  0.
         12    1    1    2    0    0 -0.11644909855E+01 -0.15321039327E+00  0.11630103721E+00  0.11802705670E+01  0.00000000000E+00 0. -1.
         11    1    3    3    0    0 -0.22171566867E+02  0.21054289384E+01 -0.32744640505E+02  0.39600791538E+02  0.51100000000E-03 0. -1.
        -11    1    3    3    0    0  0.35240316794E+01 -0.12539381546E+02  0.32497806410E+01  0.13424453930E+02  0.51100000000E-03 0.  1.
        -12    1    3    3    0    0  0.19812026173E+02  0.10587163001E+02  0.29378558827E+02  0.36982483965E+02  0.00000000000E+00 0.  1.
</event>
<event>
 7    1  0.2148778E-015  0.9000774E+02  0.7816164E-02  0.1186339E+00
        -11   -1    0    0    0    0  0.00000000000E+00  0.00000000000E+00  0.45593999997E+02  0.45594000000E+02  0.51100000000E-03 0. -1.
         11   -1    0    0    0    0 -0.00000000000E+00 -0.00000000000E+00 -0.45593999997E+02  0.45594000000E+02  0.51100000000E-03 0.  1.
    9900012    2    1    2    0    0  0.11413152371E+01 -0.27888005652E+00 -0.11246175716E+00  0.90007736384E+02  0.89999997704E+02 0.  0.
         12    1    1    2    0    0 -0.11413152371E+01  0.27888005652E+00  0.11246175716E+00  0.11802636160E+01  0.00000000000E+00 0. -1.
         11    1    3    3    0    0  0.19962307428E+01  0.71687160941E+01 -0.52047708538E+01  0.90810278888E+01  0.51100000000E-03 0. -1.
        -11    1    3    3    0    0 -0.36404655386E+02  0.13613907930E+02  0.73038047871E+01  0.39547224776E+02  0.51100000000E-03 0.  1.
         12    1    3    3    0    0  0.35549739880E+02 -0.21061504080E+02 -0.22114956904E+01  0.41379483719E+02  0.00000000000E+00 0. -1.
</event>
<event>
 7    1  0.2148778E-015  0.9000768E+02  0.7816164E-02  0.1186339E+00
        -11   -1    0    0    0    0  0.00000000000E+00  0.00000000000E+00  0.45593999997E+02  0.45594000000E+02  0.51100000000E-03 0. -1.
         11   -1    0    0    0    0 -0.00000000000E+00 -0.00000000000E+00 -0.45593999997E+02  0.45594000000E+02  0.51100000000E-03 0.  1.
    9900012    2    1    2    0    0 -0.96236740878E+00  0.38428307690E+00 -0.56509102015E+00  0.90007681241E+02  0.89999941833E+02 0.  0.
         12    1    1    2    0    0  0.96236740878E+00 -0.38428307690E+00  0.56509102015E+00  0.11803187594E+01  0.00000000000E+00 0. -1.
         11    1    3    3    0    0 -0.24544851727E+00 -0.39206090087E+02 -0.19687063096E+01  0.39256254911E+02  0.51100000000E-03 0. -1.
        -11    1    3    3    0    0  0.65122686647E+01 -0.10599007976E+01 -0.58656552287E+01  0.88283035961E+01  0.51100000000E-03 0.  1.
        -12    1    3    3    0    0 -0.72291875562E+01  0.40650273961E+02  0.72692705181E+01  0.41923122733E+02  0.00000000000E+00 0.  1.
</event>
<event>
 7    1  0.2148778E-015  0.9000776E+02  0.7816164E-02  0.1186339E+00
        -11   -1    0    0    0    0  0.00000000000E+00  0.00000000000E+00  0.45593999997E+02  0.45594000000E+02  0.51100000000E-03 0.  1.
         11   -1    0    0    0    0 -0.00000000000E+00 -0.00000000000E+00 -0.45593999997E+02  0.45594000000E+02  0.51100000000E-03 0. -1.
    9900012    2    1    2    0    0  0.56691298630E+00 -0.93803991672E+00  0.43777697815E+00  0.90007763625E+02  0.90000025304E+02 0.  0.
         12    1    1    2    0    0 -0.56691298630E+00  0.93803991672E+00 -0.43777697815E+00  0.11802363755E+01  0.00000000000E+00 0. -1.
         11    1    3    3    0    0 -0.33153977349E+02  0.21299621004E+02  0.52242686691E+01  0.39751139007E+02  0.51100000000E-03 0. -1.
        -11    1    3    3    0    0  0.54684180672E+01  0.67156745017E+01  0.27916409677E+01  0.90992933640E+01  0.51100000000E-03 0.  1.
        -12    1    3    3    0    0  0.28252472268E+02 -0.28953335422E+02 -0.75781326586E+01  0.41157331254E+02  0.00000000000E+00 0.  1.
</event>
<event>
 7    1  0.2148778E-015  0.9000775E+02  0.7816164E-02  0.1186339E+00
        -11   -1    0    0    0    0  0.00000000000E+00  0.00000000000E+00  0.45593999997E+02  0.45594000000E+02  0.51100000000E-03 0.  1.
         11   -1    0    0    0    0 -0.00000000000E+00 -0.00000000000E+00 -0.45593999997E+02  0.45594000000E+02  0.51100000000E-03 0. -1.
    9900012    2    1    2    0    0  0.98026799921E+00 -0.47629049999E+00 -0.45300999346E+00  0.90007747466E+02  0.90000008932E+02 0.  0.
         12    1    1    2    0    0 -0.98026799921E+00  0.47629049999E+00  0.45300999346E+00  0.11802525344E+01  0.00000000000E+00 0. -1.
         11    1    3    3    0    0 -0.42275165888E+00  0.21504565856E+02 -0.15376312941E+02  0.26439668522E+02  0.51100000000E-03 0. -1.
        -11    1    3    3    0    0  0.21799957462E+01  0.32738410739E+01 -0.20044648708E+02  0.20426902823E+02  0.51100000000E-03 0.  1.
        -12    1    3    3    0    0 -0.77697608809E+00 -0.25254697430E+02  0.34967951656E+02  0.43141176121E+02  0.00000000000E+00 0.  1.
</event>
<event>
 7    1  0.2148778E-015  0.9000843E+02  0.7816164E-02  0.1186338E+00
        -11   -1    0    0    0    0  0.00000000000E+00  0.00000000000E+00  0.45593999997E+02  0.45594000000E+02  0.51100000000E-03 0.  1.
         11   -1    0    0    0    0 -0.00000000000E+00 -0.00000000000E+00 -0.45593999997E+02  0.45594000000E+02  0.51100000000E-03 0. -1.
    9900012    2    1    2    0    0 -0.67765380730E-01 -0.43680915953E+00  0.10936190556E+01  0.90008425065E+02  0.90000695473E+02 0.  0.
         12    1    1    2    0    0  0.67765380730E-01  0.43680915953E+00 -0.10936190556E+01  0.11795749351E+01  0.00000000000E+00 0. -1.
         11    1    3    3    0    0 -0.17291570913E+02 -0.13020959176E+02 -0.30529121735E+02  0.37424204422E+02  0.51100000000E-03 0. -1.
        -11    1    3    3    0    0 -0.97579701417E+01  0.91206298952E+00  0.56120127801E+00  0.98165567954E+01  0.51100000000E-03 0.  1.
        -12    1    3    3    0    0  0.26981775674E+02  0.11672087027E+02  0.31061539512E+02  0.42767663847E+02  0.00000000000E+00 0.  1.
</event>
<event>
 7    1  0.2148778E-015  0.9000773E+02  0.7816164E-02  0.1186339E+00
        -11   -1    0    0    0    0  0.00000000000E+00  0.00000000000E+00  0.45593999997E+02  0.45594000000E+02  0.51100000000E-03 0. -1.
         11   -1    0    0    0    0 -0.00000000000E+00 -0.00000000000E+00 -0.45593999997E+02  0.45594000000E+02  0.51100000000E-03 0.  1.
    9900012    2    1    2    0    0  0.40896451141E+00 -0.70953485267E+00 -0.84991279460E+00  0.90007727389E+02  0.89999988590E+02 0.  0.
         12    1    1    2    0    0 -0.40896451141E+00  0.70953485267E+00  0.84991279460E+00  0.11802726114E+01  0.00000000000E+00 0. -1.
         11    1    3    3    0    0  0.10623566161E+01  0.21764215563E+01 -0.15169750643E+02  0.15361860148E+02  0.51100000000E-03 0. -1.
        -11    1    3    3    0    0  0.89351480191E+01  0.31414432175E+02 -0.66288308723E+01  0.33326338202E+02  0.51100000000E-03 0.  1.
         12    1    3    3    0    0 -0.95885401238E+01 -0.34300388584E+02  0.20948668721E+02  0.41319529038E+02  0.00000000000E+00 0. -1.
</event>
<event>
 7    1  0.2148778E-015  0.9000772E+02  0.7816164E-02  0.1186339E+00
        -11   -1    0    0    0    0  0.00000000000E+00  0.00000000000E+00  0.45593999997E+02  0.45594000000E+02  0.51100000000E-03 0. -1.
         11   -1    0    0    0    0 -0.00000000000E+00 -0.00000000000E+00 -0.45593999997E+02  0.45594000000E+02  0.51100000000E-03 0.  1.
    9900012    2    1    2    0    0  0.35441071163E+00  0.10751330747E+01 -0.33396866773E+00  0.90007723273E+02  0.89999984420E+02 0.  0.
         12    1    1    2    0    0 -0.35441071163E+00 -0.10751330747E+01  0.33396866773E+00  0.11802767268E+01  0.00000000000E+00 0. -1.
         11    1    3    3    0    0 -0.95256729698E+01  0.39789013497E+02  0.42539779352E+01  0.41133932089E+02  0.51100000000E-03 0. -1.
        -11    1    3    3    0    0  0.17796782902E+01  0.23818691559E+01 -0.62851285998E+01  0.69529416270E+01  0.51100000000E-03 0.  1.
        -12    1    3    3    0    0  0.81004053913E+01 -0.41095749578E+02  0.16971819968E+01  0.41920849557E+02  0.00000000000E+00 0.  1.
</event>
<event>
 7    1  0.2148778E-015  0.9000760E+02  0.7816164E-02  0.1186339E+00
        -11   -1    0    0    0    0  0.00000000000E+00  0.00000000000E+00  0.45593999997E+02  0.45594000000E+02  0.51100000000E-03 0.  1.
         11   -1    0    0    0    0 -0.00000000000E+00 -0.00000000000E+00 -0.45593999997E+02  0.45594000000E+02  0.51100000000E-03 0. -1.
    9900012    2    1    2    0    0  0.69491212239E-01 -0.10977280378E+01  0.42837223425E+00  0.90007602336E+02  0.89999861887E+02 0.  0.
         12    1    1    2    0    0 -0.69491212239E-01  0.10977280378E+01 -0.42837223425E+00  0.11803976638E+01  0.00000000000E+00 0. -1.
         11    1    3    3    0    0 -0.22663640052E+01 -0.86436428029E+01  0.46288915823E+01  0.10063578104E+02  0.51100000000E-03 0. -1.
        -11    1    3    3    0    0 -0.12329420392E+02 -0.23497367029E+02  0.23796529548E+02  0.35642891063E+02  0.51100000000E-03 0.  1.
         12    1    3    3    0    0  0.14665275610E+02  0.31043281794E+02 -0.27997048896E+02  0.44301133170E+02  0.00000000000E+00 0. -1.
</event>
<event>
 7    1  0.2148778E-015  0.9000769E+02  0.7816164E-02  0.1186339E+00
        -11   -1    0    0    0    0  0.00000000000E+00  0.00000000000E+00  0.45593999997E+02  0.45594000000E+02  0.51100000000E-03 0. -1.
         11   -1    0    0    0    0 -0.00000000000E+00 -0.00000000000E+00 -0.45593999997E+02  0.45594000000E+02  0.51100000000E-03 0.  1.
    9900012    2    1    2    0    0 -0.47892837642E+00  0.10188981943E+01  0.35440179381E+00  0.90007692179E+02  0.89999952916E+02 0.  0.
         12    1    1    2    0    0  0.47892837642E+00 -0.10188981943E+01 -0.35440179381E+00  0.11803078207E+01  0.00000000000E+00 0. -1.
         11    1    3    3    0    0 -0.23083675411E+02  0.15342223251E+02 -0.22266093844E+02  0.35553042346E+02  0.51100000000E-03 0. -1.
        -11    1    3    3    0    0 -0.53160253494E+01  0.82339851736E+01 -0.31191356809E+01  0.10285312101E+02  0.51100000000E-03 0.  1.
        -12    1    3    3    0    0  0.27920772384E+02 -0.22557310230E+02  0.25739631318E+02  0.44169337732E+02  0.00000000000E+00 0.  1.
</event>
<event>
 7    1  0.2148778E-015  0.9000767E+02  0.7816164E-02  0.1186339E+00
        -11   -1    0    0    0    0  0.00000000000E+00  0.00000000000E+00  0.45593999997E+02  0.45594000000E+02  0.51100000000E-03 0.  1.
         11   -1    0    0    0    0 -0.00000000000E+00 -0.00000000000E+00 -0.45593999997E+02  0.45594000000E+02  0.51100000000E-03 0. -1.
    9900012    2    1    2    0    0 -0.97753638327E+00  0.47364302472E+00  0.46180862499E+00  0.90007668563E+02  0.89999928988E+02 0.  0.
         12    1    1    2    0    0  0.97753638327E+00 -0.47364302472E+00 -0.46180862499E+00  0.11803314372E+01  0.00000000000E+00 0. -1.
         11    1    3    3    0    0  0.28890411023E+01 -0.15881151593E+02 -0.27809397983E+02  0.32154628762E+02  0.51100000000E-03 0. -1.
        -11    1    3    3    0    0  0.18273741005E+02 -0.52339588098E+01  0.14945767946E+02  0.24180568953E+02  0.51100000000E-03 0.  1.
         12    1    3    3    0    0 -0.22140318490E+02  0.21588753428E+02  0.13325438662E+02  0.33672470847E+02  0.00000000000E+00 0. -1.
</event>
<event>
 7    1  0.2148778E-015  0.9000774E+02  0.7816164E-02  0.1186339E+00
        -11   -1    0    0    0    0  0.00000000000E+00  0.00000000000E+00  0.45593999997E+02  0.45594000000E+02  0.51100000000E-03 0.  1.
         11   -1    0    0    0    0 -0.00000000000E+00 -0.00000000000E+00 -0.45593999997E+02  0.45594000000E+02  0.51100000000E-03 0. -1.
    9900012    2    1    2    0    0 -0.28115222339E+00 -0.11297290593E+01  0.19413184497E+00  0.90007736685E+02  0.89999998009E+02 0.  0.
         12    1    1    2    0    0  0.28115222339E+00  0.11297290593E+01 -0.19413184497E+00  0.11802633153E+01  0.00000000000E+00 0. -1.
         11    1    3    3    0    0  0.96002239822E+01 -0.70618553094E+01  0.36224121151E+01  0.12456161957E+02  0.51100000000E-03 0. -1.
        -11    1    3    3    0    0  0.75711684568E+01 -0.26597502939E+02 -0.22818793632E+02  0.35853132325E+02  0.51100000000E-03 0.  1.
         12    1    3    3    0    0 -0.17452544662E+02  0.32529629189E+02  0.19390513362E+02  0.41698442403E+02  0.00000000000E+00 0. -1.
</event>
<event>
 7    1  0.2148778E-015  0.9000777E+02  0.7816164E-02  0.1186339E+00
        -11   -1    0    0    0    0  0.00000000000E+00  0.00000000000E+00  0.45593999997E+02  0.45594000000E+02  0.51100000000E-03 0. -1.
         11   -1    0    0    0    0 -0.00000000000E+00 -0.00000000000E+00 -0.45593999997E+02  0.45594000000E+02  0.51100000000E-03 0.  1.
    9900012    2    1    2    0    0 -0.49428714123E+00  0.12241975257E+00 -0.10647282790E+01  0.90007765836E+02  0.90000027545E+02 0.  0.
         12    1    1    2    0    0  0.49428714123E+00 -0.12241975257E+00  0.10647282790E+01  0.11802341641E+01  0.00000000000E+00 0. -1.
         11    1    3    3    0    0  0.44714781413E+00 -0.79102016721E+01 -0.73370137098E+00  0.79567298322E+01  0.51100000000E-03 0. -1.
        -11    1    3    3    0    0  0.10018069326E+02 -0.35262927722E+02 -0.55871325544E+01  0.37081691372E+02  0.51100000000E-03 0.  1.
         12    1    3    3    0    0 -0.10959504281E+02  0.43295549147E+02  0.52561056464E+01  0.44969344632E+02  0.00000000000E+00 0. -1.
</event>
<event>
 7    1  0.2148778E-015  0.9000776E+02  0.7816164E-02  0.1186339E+00
        -11   -1    0    0    0    0  0.00000000000E+00  0.00000000000E+00  0.45593999997E+02  0.45594000000E+02  0.51100000000E-03 0. -1.
         11   -1    0    0    0    0 -0.00000000000E+00 -0.00000000000E+00 -0.45593999997E+02  0.45594000000E+02  0.51100000000E-03 0.  1.
    9900012    2    1    2    0    0 -0.69725963757E+00 -0.60213236673E+00 -0.73771493446E+00  0.90007763704E+02  0.90000025385E+02 0.  0.
         12    1    1    2    0    0  0.69725963757E+00  0.60213236673E+00  0.73771493446E+00  0.11802362957E+01  0.00000000000E+00 0. -1.
         11    1    3    3    0    0  0.26880978611E+02  0.15206273012E+02  0.19700655385E+02  0.36632411508E+02  0.51100000000E-03 0. -1.
        -11    1    3    3    0    0  0.92331626828E+00  0.10072370041E+02 -0.77111949843E+00  0.10143952716E+02  0.51100000000E-03 0.  1.
        -12    1    3    3    0    0 -0.28501554517E+02 -0.25880775419E+02 -0.19667250821E+02  0.43231399480E+02  0.00000000000E+00 0.  1.
</event>
<event>
 8    1  0.2148778E-015  0.9000768E+02  0.7816164E-02  0.1186339E+00
        -11   -1    0    0    0    0  0.00000000000E+00  0.00000000000E+00  0.45593999997E+02  0.45594000000E+02  0.51100000000E-03 0. -1.
         11   -1    0    0    0    0 -0.00000000000E+00 -0.00000000000E+00 -0.45593999997E+02  0.45594000000E+02  0.51100000000E-03 0.  1.
    9900012    2    1    2    0    0  0.95214182592E+00  0.12719443820E+00 -0.68585139321E+00  0.90007684527E+02  0.89999945163E+02 0.  0.
         23    2    3    3    0    0 -0.13450723939E+02  0.18439919660E+02  0.99411872250E+01  0.64400412180E+02  0.59393882463E+02 0.  0.
         12    1    1    2    0    0 -0.95214182592E+00 -0.12719443820E+00  0.68585139321E+00  0.11803154728E+01  0.00000000000E+00 0. -1.
         11    1    4    4    0    0 -0.33478648134E+02  0.23176998908E+02  0.14675515379E+02  0.43282374139E+02  0.51100000000E-03 0. -1.
        -11    1    4    4    0    0  0.20027924195E+02 -0.47370792486E+01 -0.47343281540E+01  0.21118038041E+02  0.51100000000E-03 0.  1.
        -12    1    3    3    0    0  0.14402865765E+02 -0.18312725221E+02 -0.10627038618E+02  0.25607272347E+02  0.00000000000E+00 0.  1.
</event>
<event>
 7    1  0.2148778E-015  0.9000773E+02  0.7816164E-02  0.1186339E+00
        -11   -1    0    0    0    0  0.00000000000E+00  0.00000000000E+00  0.45593999997E+02  0.45594000000E+02  0.51100000000E-03 0. -1.
         11   -1    0    0    0    0 -0.00000000000E+00 -0.00000000000E+00 -0.45593999997E+02  0.45594000000E+02  0.51100000000E-03 0.  1.
    9900012    2    1    2    0    0 -0.43835695845E+00  0.10958433189E+01  0.35784426728E-02  0.90007727909E+02  0.89999989118E+02 0.  0.
         12    1    1    2    0    0  0.43835695845E+00 -0.10958433189E+01 -0.35784426728E-02  0.11802720906E+01  0.00000000000E+00 0. -1.
         11    1    3    3    0    0  0.30669046462E+02  0.10057964157E+02 -0.29942824056E+02  0.44026421233E+02  0.51100000000E-03 0. -1.
        -11    1    3    3    0    0 -0.39032211078E+01  0.23888091661E+01  0.80552277391E+01  0.92643531041E+01  0.51100000000E-03 0.  1.
        -12    1    3    3    0    0 -0.27204182313E+02 -0.11350930004E+02  0.21891174760E+02  0.36716953572E+02  0.00000000000E+00 0.  1.
</event>
<event>
 7    1  0.2148778E-015  0.9000773E+02  0.7816164E-02  0.1186339E+00
        -11   -1    0    0    0    0  0.00000000000E+00  0.00000000000E+00  0.45593999997E+02  0.45594000000E+02  0.51100000000E-03 0.  1.
         11   -1    0    0    0    0 -0.00000000000E+00 -0.00000000000E+00 -0.45593999997E+02  0.45594000000E+02  0.51100000000E-03 0. -1.
    9900012    2    1    2    0    0 -0.11212758965E+01  0.25380170910E+00  0.26715439539E+00  0.90007726127E+02  0.89999987312E+02 0.  0.
         12    1    1    2    0    0  0.11212758965E+01 -0.25380170910E+00 -0.26715439539E+00  0.11802738727E+01  0.00000000000E+00 0. -1.
         11    1    3    3    0    0  0.24485993097E+02 -0.35421457486E+02 -0.99729358174E+00  0.43072475006E+02  0.51100000000E-03 0. -1.
        -11    1    3    3    0    0 -0.13556266772E+00  0.86773979496E+01  0.43165699869E+01  0.96926977217E+01  0.51100000000E-03 0.  1.
        -12    1    3    3    0    0 -0.25471706326E+02  0.26997861246E+02 -0.30521220097E+01  0.37242553400E+02  0.00000000000E+00 0.  1.
</event>
<event>
 7    1  0.2148778E-015  0.9000774E+02  0.7816164E-02  0.1186339E+00
        -11   -1    0    0    0    0  0.00000000000E+00  0.00000000000E+00  0.45593999997E+02  0.45594000000E+02  0.51100000000E-03 0. -1.
         11   -1    0    0    0    0 -0.00000000000E+00 -0.00000000000E+00 -0.45593999997E+02  0.45594000000E+02  0.51100000000E-03 0.  1.
    9900012    2    1    2    0    0 -0.18972097355E+00  0.11456948116E+00 -0.11592668675E+01  0.90007737367E+02  0.89999998700E+02 0.  0.
         12    1    1    2    0    0  0.18972097355E+00 -0.11456948116E+00  0.11592668675E+01  0.11802626334E+01  0.00000000000E+00 0. -1.
         11    1    3    3    0    0 -0.31522926253E+02  0.37465452347E+01 -0.15073439561E+02  0.35141713977E+02  0.51100000000E-03 0. -1.
        -11    1    3    3    0    0 -0.91330366207E+01  0.12040767317E+01 -0.43725786419E+01  0.10197136997E+02  0.51100000000E-03 0.  1.
        -12    1    3    3    0    0  0.40466241900E+02 -0.48360524853E+01  0.18286751335E+02  0.44668886393E+02  0.00000000000E+00 0.  1.
</event>
<event>
 7    1  0.2148778E-015  0.9000762E+02  0.7816164E-02  0.1186339E+00
        -11   -1    0    0    0    0  0.00000000000E+00  0.00000000000E+00  0.45593999997E+02  0.45594000000E+02  0.51100000000E-03 0. -1.
         11   -1    0    0    0    0 -0.00000000000E+00 -0.00000000000E+00 -0.45593999997E+02  0.45594000000E+02  0.51100000000E-03 0.  1.
    9900012    2    1    2    0    0  0.42618777930E+00  0.44155918671E+00 -0.10083099030E+01  0.90007618960E+02  0.89999878730E+02 0.  0.
         12    1    1    2    0    0 -0.42618777930E+00 -0.44155918671E+00  0.10083099030E+01  0.11803810398E+01  0.00000000000E+00 0. -1.
         11    1    3    3    0    0 -0.93197961383E+01 -0.27059455437E+02  0.13848470990E+02  0.31793912587E+02  0.51100000000E-03 0. -1.
        -11    1    3    3    0    0 -0.45120064581E+01 -0.12318788657E+02  0.72554611235E+00  0.13139146611E+02  0.51100000000E-03 0.  1.
        -12    1    3    3    0    0  0.14257990376E+02  0.39819803280E+02 -0.15582327005E+02  0.45074559762E+02  0.00000000000E+00 0.  1.
</event>
<event>
 7    1  0.2148778E-015  0.9000772E+02  0.7816164E-02  0.1186339E+00
        -11   -1    0    0    0    0  0.00000000000E+00  0.00000000000E+00  0.45593999997E+02  0.45594000000E+02  0.51100000000E-03 0. -1.
         11   -1    0    0    0    0 -0.00000000000E+00 -0.00000000000E+00 -0.45593999997E+02  0.45594000000E+02  0.51100000000E-03 0.  1.
    9900012    2    1    2    0    0 -0.10748773603E+01  0.35968864576E-01  0.48622718749E+00  0.90007715298E+02  0.89999976340E+02 0.  0.
         12    1    1    2    0    0  0.10748773603E+01 -0.35968864576E-01 -0.48622718749E+00  0.11802847016E+01  0.00000000000E+00 0. -1.
         11    1    3    3    0    0  0.72253724920E+01 -0.31173289926E+01 -0.31402276836E+00  0.78754274968E+01  0.51100000000E-03 0. -1.
        -11    1    3    3    0    0  0.33976271411E+02 -0.67513824468E+01 -0.12329487221E+02  0.36769341024E+02  0.51100000000E-03 0.  1.
         12    1    3    3    0    0 -0.42276521263E+02  0.99046803040E+01  0.13129737177E+02  0.45362946778E+02  0.00000000000E+00 0. -1.
</event>
<event>
 7    1  0.2148778E-015  0.9000763E+02  0.7816164E-02  0.1186339E+00
        -11   -1    0    0    0    0  0.00000000000E+00  0.00000000000E+00  0.45593999997E+02  0.45594000000E+02  0.51100000000E-03 0. -1.
         11   -1    0    0    0    0 -0.00000000000E+00 -0.00000000000E+00 -0.45593999997E+02  0.45594000000E+02  0.51100000000E-03 0.  1.
    9900012    2    1    2    0    0 -0.26545859143E+00 -0.95041480019E+00 -0.64770206379E+00  0.90007629499E+02  0.89999889408E+02 0.  0.
         12    1    1    2    0    0  0.26545859143E+00  0.95041480019E+00  0.64770206379E+00  0.11803705010E+01  0.00000000000E+00 0. -1.
         11    1    3    3    0    0  0.17330045984E+02  0.74759952139E+01  0.16391863482E+01  0.18944865542E+02  0.51100000000E-03 0. -1.
        -11    1    3    3    0    0 -0.10498941622E+02  0.27187810373E+02 -0.14756143938E+02  0.32667240352E+02  0.51100000000E-03 0.  1.
         12    1    3    3    0    0 -0.70965629537E+01 -0.35614220387E+02  0.12469255526E+02  0.38395523605E+02  0.00000000000E+00 0. -1.
</event>
<event>
 7    1  0.2148778E-015  0.9000768E+02  0.7816164E-02  0.1186339E+00
        -11   -1    0    0    0    0  0.00000000000E+00  0.00000000000E+00  0.45593999997E+02  0.45594000000E+02  0.51100000000E-03 0.  1.
         11   -1    0    0    0    0 -0.00000000000E+00 -0.00000000000E+00 -0.45593999997E+02  0.45594000000E+02  0.51100000000E-03 0. -1.
    9900012    2    1    2    0    0 -0.44803327611E+00  0.20696182320E+00  0.10721864190E+01  0.90007681937E+02  0.89999942539E+02 0.  0.
         12    1    1    2    0    0  0.44803327611E+00 -0.20696182320E+00 -0.10721864190E+01  0.11803180630E+01  0.00000000000E+00 0. -1.
         11    1    3    3    0    0  0.87734894799E+01 -0.61858430442E+01  0.53571101875E+01  0.11997391452E+02  0.51100000000E-03 0. -1.
        -11    1    3    3    0    0  0.16587832975E+02 -0.26340548834E+02  0.11856086593E+02  0.33309870988E+02  0.51100000000E-03 0.  1.
         12    1    3    3    0    0 -0.25809355731E+02  0.32733353702E+02 -0.16141010361E+02  0.44700419498E+02  0.00000000000E+00 0. -1.
</event>
<event>
 7    1  0.2148778E-015  0.9000775E+02  0.7816164E-02  0.1186339E+00
        -11   -1    0    0    0    0  0.00000000000E+00  0.00000000000E+00  0.45593999997E+02  0.45594000000E+02  0.51100000000E-03 0. -1.
         11   -1    0    0    0    0 -0.00000000000E+00 -0.00000000000E+00 -0.45593999997E+02  0.45594000000E+02  0.51100000000E-03 0.  1.
    9900012    2    1    2    0    0  0.16801488121E+00  0.88321274100E+00  0.76465152840E+00  0.90007751846E+02  0.90000013370E+02 0.  0.
         12    1    1    2    0    0 -0.16801488121E+00 -0.88321274100E+00 -0.76465152840E+00  0.11802481544E+01  0.00000000000E+00 0. -1.
         11    1    3    3    0    0 -0.18159136357E+02 -0.26939412622E+02  0.15683079367E+02  0.36075548012E+02  0.51100000000E-03 0. -1.
        -11    1    3    3    0    0 -0.23982063497E+01 -0.47739790491E+01  0.75472487089E+01  0.92467958230E+01  0.51100000000E-03 0.  1.
        -12    1    3    3    0    0  0.20725357588E+02  0.32596604412E+02 -0.22465676548E+02  0.44685408011E+02  0.00000000000E+00 0.  1.
</event>
<event>
 7    1  0.2897788E-015  0.9000767E+02  0.7816164E-02  0.1186339E+00
        -11   -1    0    0    0    0  0.00000000000E+00  0.00000000000E+00  0.45593999997E+02  0.45594000000E+02  0.51100000000E-03 0. -1.
         11   -1    0    0    0    0 -0.00000000000E+00 -0.00000000000E+00 -0.45593999997E+02  0.45594000000E+02  0.51100000000E-03 0.  1.
    9900012    2    1    2    0    0  0.18422624427E-01  0.75635201670E-01 -0.11777580831E+01  0.90007672004E+02  0.89999932474E+02 0.  0.
         12    1    1    2    0    0 -0.18422624427E-01 -0.75635201670E-01  0.11777580831E+01  0.11803279964E+01  0.00000000000E+00 0. -1.
         11    1    3    3    0    0  0.91390890742E+01 -0.31327036263E+01 -0.11677108029E+01  0.97314094507E+01  0.51100000000E-03 0. -1.
        -11    1    3    3    0    0  0.13509423064E+02 -0.33480226896E+02 -0.65012854293E+01  0.36683740499E+02  0.51100000000E-03 0.  1.
         12    1    3    3    0    0 -0.22630089514E+02  0.36688565724E+02  0.64912381491E+01  0.43592522054E+02  0.00000000000E+00 0. -1.
</event>
<event>
 7    1  0.2148778E-015  0.9000780E+02  0.7816164E-02  0.1186339E+00
        -11   -1    0    0    0    0  0.00000000000E+00  0.00000000000E+00  0.45593999997E+02  0.45594000000E+02  0.51100000000E-03 0.  1.
         11   -1    0    0    0    0 -0.00000000000E+00 -0.00000000000E+00 -0.45593999997E+02  0.45594000000E+02  0.51100000000E-03 0. -1.
    9900012    2    1    2    0    0  0.39677817448E+00  0.48657244414E+00  0.99933764439E+00  0.90007804512E+02  0.90000066731E+02 0.  0.
         12    1    1    2    0    0 -0.39677817448E+00 -0.48657244414E+00 -0.99933764439E+00  0.11801954883E+01  0.00000000000E+00 0. -1.
         11    1    3    3    0    0  0.96179644885E+01 -0.18624237163E+02 -0.37146799251E+02  0.42652692127E+02  0.51100000000E-03 0. -1.
        -11    1    3    3    0    0 -0.76609984874E+01  0.21650403574E+00  0.49405681927E+01  0.91184969238E+01  0.51100000000E-03 0.  1.
        -12    1    3    3    0    0 -0.15601878266E+01  0.18894305572E+02  0.33205568702E+02  0.38236615461E+02  0.00000000000E+00 0.  1.
</event>
<event>
 7    1  0.2148778E-015  0.9000779E+02  0.7816164E-02  0.1186339E+00
        -11   -1    0    0    0    0  0.00000000000E+00  0.00000000000E+00  0.45593999997E+02  0.45594000000E+02  0.51100000000E-03 0.  1.
         11   -1    0    0    0    0 -0.00000000000E+00 -0.00000000000E+00 -0.45593999997E+02  0.45594000000E+02  0.51100000000E-03 0. -1.
    9900012    2    1    2    0    0  0.50368170769E+00 -0.10185408017E+01  0.31901140104E+00  0.90007792857E+02  0.90000054922E+02 0.  0.
         12    1    1    2    0    0 -0.50368170769E+00  0.10185408017E+01 -0.31901140104E+00  0.11802071434E+01  0.00000000000E+00 0. -1.
         11    1    3    3    0    0 -0.57620458370E+01  0.55070396504E+01  0.78911230834E+01  0.11215992231E+02  0.51100000000E-03 0. -1.
        -11    1    3    3    0    0 -0.11995227752E+02  0.12013739346E+02  0.29180283355E+02  0.33759507681E+02  0.51100000000E-03 0.  1.
         12    1    3    3    0    0  0.18260955296E+02 -0.18539319798E+02 -0.36752395038E+02  0.45032292945E+02  0.00000000000E+00 0. -1.
</event>
<event>
 7    1  0.2148778E-015  0.9000774E+02  0.7816164E-02  0.1186339E+00
        -11   -1    0    0    0    0  0.00000000000E+00  0.00000000000E+00  0.45593999997E+02  0.45594000000E+02  0.51100000000E-03 0. -1.
         11   -1    0    0    0    0 -0.00000000000E+00 -0.00000000000E+00 -0.45593999997E+02  0.45594000000E+02  0.51100000000E-03 0.  1.
    9900012    2    1    2    0    0 -0.85231751399E+00  0.80589714623E+00 -0.13078207862E+00  0.90007737611E+02  0.89999998947E+02 0.  0.
         12    1    1    2    0    0  0.85231751399E+00 -0.80589714623E+00  0.13078207862E+00  0.11802623891E+01  0.00000000000E+00 0. -1.
         11    1    3    3    0    0 -0.92330552959E+00  0.10216618932E+02  0.23284126226E+01  0.10519187283E+02  0.51100000000E-03 0. -1.
        -11    1    3    3    0    0  0.18442856134E+02 -0.34170704165E+02  0.17676552890E+02  0.42664229606E+02  0.51100000000E-03 0.  1.
         12    1    3    3    0    0 -0.18371868118E+02  0.24759982379E+02 -0.20135747591E+02  0.36824320722E+02  0.00000000000E+00 0. -1.
</event>
<event>
 7    1  0.2148778E-015  0.9000776E+02  0.7816164E-02  0.1186339E+00
        -11   -1    0    0    0    0  0.00000000000E+00  0.00000000000E+00  0.45593999997E+02  0.45594000000E+02  0.51100000000E-03 0. -1.
         11   -1    0    0    0    0 -0.00000000000E+00 -0.00000000000E+00 -0.45593999997E+02  0.45594000000E+02  0.51100000000E-03 0.  1.
    9900012    2    1    2    0    0 -0.85431753221E+00  0.78537089999E+00 -0.21518927737E+00  0.90007757516E+02  0.90000019115E+02 0.  0.
         12    1    1    2    0    0  0.85431753221E+00 -0.78537089999E+00  0.21518927737E+00  0.11802424842E+01  0.00000000000E+00 0. -1.
         11    1    3    3    0    0 -0.17881941088E+02 -0.37330083576E+01  0.36098042066E+02  0.40456987156E+02  0.51100000000E-03 0. -1.
        -11    1    3    3    0    0 -0.43410040257E+01  0.10619474632E+02 -0.11584274327E+02  0.16303771630E+02  0.51100000000E-03 0.  1.
        -12    1    3    3    0    0  0.21368627581E+02 -0.61010953741E+01 -0.24728957016E+02  0.33246998730E+02  0.00000000000E+00 0.  1.
</event>
<event>
 7    1  0.2148778E-015  0.9000776E+02  0.7816164E-02  0.1186339E+00
        -11   -1    0    0    0    0  0.00000000000E+00  0.00000000000E+00  0.45593999997E+02  0.45594000000E+02  0.51100000000E-03 0. -1.
         11   -1    0    0    0    0 -0.00000000000E+00 -0.00000000000E+00 -0.45593999997E+02  0.45594000000E+02  0.51100000000E-03 0.  1.
    9900012    2    1    2    0    0  0.11199513512E+01  0.55884563721E-01  0.36817874368E+00  0.90007758626E+02  0.90000020240E+02 0.  0.
         12    1    1    2    0    0 -0.11199513512E+01 -0.55884563721E-01 -0.36817874368E+00  0.11802413740E+01  0.00000000000E+00 0. -1.
         11    1    3    3    0    0 -0.84630942701E+01  0.32154953132E+01 -0.32837760128E+01  0.96305015392E+01  0.51100000000E-03 0. -1.
        -11    1    3    3    0    0 -0.48911380059E+01  0.26261505481E-01 -0.36889186288E+02  0.37212040872E+02  0.51100000000E-03 0.  1.
         12    1    3    3    0    0  0.14474183627E+02 -0.31858722549E+01  0.40541141044E+02  0.43165216215E+02  0.00000000000E+00 0. -1.
</event>
<event>
 7    1  0.2148778E-015  0.9000785E+02  0.7816164E-02  0.1186339E+00
        -11   -1    0    0    0    0  0.00000000000E+00  0.00000000000E+00  0.45593999997E+02  0.45594000000E+02  0.51100000000E-03 0.  1.
         11   -1    0    0    0    0 -0.00000000000E+00 -0.00000000000E+00 -0.45593999997E+02  0.45594000000E+02  0.51100000000E-03 0. -1.
    9900012    2    1    2    0    0 -0.10052948942E+01 -0.61792757419E+00  0.17611472780E-01  0.90007846419E+02  0.90000109191E+02 0.  0.
         12    1    1    2    0    0  0.10052948942E+01  0.61792757419E+00 -0.17611472780E-01  0.11801535812E+01  0.00000000000E+00 0. -1.
         11    1    3    3    0    0  0.50316078400E+01  0.23211944955E+02 -0.29663312809E+02  0.38000310434E+02  0.51100000000E-03 0. -1.
        -11    1    3    3    0    0  0.36789661738E+01  0.82072341945E+01  0.86073839210E+01  0.12449118180E+02  0.51100000000E-03 0.  1.
        -12    1    3    3    0    0 -0.97158689081E+01 -0.32037106724E+02  0.21073540361E+02  0.39558417804E+02  0.00000000000E+00 0.  1.
</event>
<event>
 7    1  0.2148778E-015  0.9000768E+02  0.7816164E-02  0.1186339E+00
        -11   -1    0    0    0    0  0.00000000000E+00  0.00000000000E+00  0.45593999997E+02  0.45594000000E+02  0.51100000000E-03 0. -1.
         11   -1    0    0    0    0 -0.00000000000E+00 -0.00000000000E+00 -0.45593999997E+02  0.45594000000E+02  0.51100000000E-03 0.  1.
    9900012    2    1    2    0    0 -0.27348047224E+00  0.10443934385E+01  0.47708387586E+00  0.90007678752E+02  0.89999939312E+02 0.  0.
         12    1    1    2    0    0  0.27348047224E+00 -0.10443934385E+01 -0.47708387586E+00  0.11803212477E+01  0.00000000000E+00 0. -1.
         11    1    3    3    0    0 -0.13969650085E+02 -0.32827672624E+02  0.15332890702E+02  0.38831749265E+02  0.51100000000E-03 0. -1.
        -11    1    3    3    0    0 -0.11317772900E+01 -0.57520551036E+01 -0.50715398622E+01  0.77516175463E+01  0.51100000000E-03 0.  1.
        -12    1    3    3    0    0  0.14827946903E+02  0.39624121166E+02 -0.97842669642E+01  0.43424311941E+02  0.00000000000E+00 0.  1.
</event>
<event>
 7    1  0.2148778E-015  0.9000763E+02  0.7816164E-02  0.1186339E+00
        -11   -1    0    0    0    0  0.00000000000E+00  0.00000000000E+00  0.45593999997E+02  0.45594000000E+02  0.51100000000E-03 0. -1.
         11   -1    0    0    0    0 -0.00000000000E+00 -0.00000000000E+00 -0.45593999997E+02  0.45594000000E+02  0.51100000000E-03 0.  1.
    9900012    2    1    2    0    0 -0.93899549675E+00 -0.62988406571E+00 -0.33882638873E+00  0.90007631498E+02  0.89999891434E+02 0.  0.
         12    1    1    2    0    0  0.93899549675E+00  0.62988406571E+00  0.33882638873E+00  0.11803685021E+01  0.00000000000E+00 0. -1.
         11    1    3    3    0    0  0.38642525343E+01 -0.43435343166E+00 -0.70932532834E+01  0.80892121345E+01  0.51100000000E-03 0. -1.
        -11    1    3    3    0    0  0.30658952088E+02  0.39101966616E+01 -0.20428323788E+02  0.37048311623E+02  0.51100000000E-03 0.  1.
         12    1    3    3    0    0 -0.35462200119E+02 -0.41057272957E+01  0.27182750683E+02  0.44870107740E+02  0.00000000000E+00 0. -1.
</event>
<event>
 7    1  0.2148778E-015  0.9000768E+02  0.7816164E-02  0.1186339E+00
        -11   -1    0    0    0    0  0.00000000000E+00  0.00000000000E+00  0.45593999997E+02  0.45594000000E+02  0.51100000000E-03 0.  1.
         11   -1    0    0    0    0 -0.00000000000E+00 -0.00000000000E+00 -0.45593999997E+02  0.45594000000E+02  0.51100000000E-03 0. -1.
    9900012    2    1    2    0    0 -0.11522478351E+01  0.17249911551E+00  0.18903640842E+00  0.90007675561E+02  0.89999936078E+02 0.  0.
         12    1    1    2    0    0  0.11522478351E+01 -0.17249911551E+00 -0.18903640842E+00  0.11803244393E+01  0.00000000000E+00 0. -1.
         11    1    3    3    0    0 -0.12540303269E+02 -0.39975223702E+01 -0.27570314838E+01  0.13447699210E+02  0.51100000000E-03 0. -1.
        -11    1    3    3    0    0 -0.27398973242E+02  0.32549986204E+01  0.20102527689E+02  0.34138107307E+02  0.51100000000E-03 0.  1.
         12    1    3    3    0    0  0.38787028677E+02  0.91502286533E+00 -0.17156459796E+02  0.42421869044E+02  0.00000000000E+00 0. -1.
</event>
<event>
 7    1  0.2148778E-015  0.9000766E+02  0.7816164E-02  0.1186339E+00
        -11   -1    0    0    0    0  0.00000000000E+00  0.00000000000E+00  0.45593999997E+02  0.45594000000E+02  0.51100000000E-03 0.  1.
         11   -1    0    0    0    0 -0.00000000000E+00 -0.00000000000E+00 -0.45593999997E+02  0.45594000000E+02  0.51100000000E-03 0. -1.
    9900012    2    1    2    0    0 -0.35191957305E-01  0.10403540878E+01  0.55643311806E+00  0.90007664066E+02  0.89999924432E+02 0.  0.
         12    1    1    2    0    0  0.35191957305E-01 -0.10403540878E+01 -0.55643311806E+00  0.11803359338E+01  0.00000000000E+00 0. -1.
         11    1    3    3    0    0  0.29933636897E+01  0.11336739992E+01  0.97717457962E+01  0.10282628997E+02  0.51100000000E-03 0. -1.
        -11    1    3    3    0    0 -0.19274472947E+02 -0.20225241835E+02  0.24547670716E+02  0.37190776443E+02  0.51100000000E-03 0.  1.
         12    1    3    3    0    0  0.16245917300E+02  0.20131921923E+02 -0.33762983394E+02  0.42534258626E+02  0.00000000000E+00 0. -1.
</event>
<event>
 7    1  0.2148778E-015  0.9000768E+02  0.7816164E-02  0.1186339E+00
        -11   -1    0    0    0    0  0.00000000000E+00  0.00000000000E+00  0.45593999997E+02  0.45594000000E+02  0.51100000000E-03 0.  1.
         11   -1    0    0    0    0 -0.00000000000E+00 -0.00000000000E+00 -0.45593999997E+02  0.45594000000E+02  0.51100000000E-03 0. -1.
    9900012    2    1    2    0    0 -0.29845367639E-01  0.94878532914E+00  0.70147601604E+00  0.90007680997E+02  0.89999941587E+02 0.  0.
         12    1    1    2    0    0  0.29845367639E-01 -0.94878532914E+00 -0.70147601604E+00  0.11803190026E+01  0.00000000000E+00 0. -1.
         11    1    3    3    0    0  0.27487778647E+02  0.84831479933E+01  0.24328565693E+02  0.37675202505E+02  0.51100000000E-03 0. -1.
        -11    1    3    3    0    0 -0.12447131265E+02 -0.16706358883E+01  0.93143721841E+01  0.15635844411E+02  0.51100000000E-03 0.  1.
        -12    1    3    3    0    0 -0.15070492750E+02 -0.58637267758E+01 -0.32941461861E+02  0.36696634082E+02  0.00000000000E+00 0.  1.
</event>
<event>
 7    1  0.2148778E-015  0.9000769E+02  0.7816164E-02  0.1186339E+00
        -11   -1    0    0    0    0  0.00000000000E+00  0.00000000000E+00  0.45593999997E+02  0.45594000000E+02  0.51100000000E-03 0.  1.
         11   -1    0    0    0    0 -0.00000000000E+00 -0.00000000000E+00 -0.45593999997E+02  0.45594000000E+02  0.51100000000E-03 0. -1.
    9900012    2    1    2    0    0 -0.11766224299E+01 -0.77668581227E-01  0.51670890830E-01  0.90007685367E+02  0.89999946014E+02 0.  0.
         12    1    1    2    0    0  0.11766224299E+01  0.77668581227E-01 -0.51670890830E-01  0.11803146327E+01  0.00000000000E+00 0. -1.
         11    1    3    3    0    0 -0.14110306392E+02 -0.59641855853E+01 -0.61806007041E+01  0.16518840198E+02  0.51100000000E-03 0. -1.
        -11    1    3    3    0    0  0.22434889474E+01  0.17575433758E+02  0.35800473054E+02  0.39944999507E+02  0.51100000000E-03 0.  1.
         12    1    3    3    0    0  0.10690195014E+02 -0.11688916754E+02 -0.29568201459E+02  0.33543845663E+02  0.00000000000E+00 0. -1.
</event>
<event>
 7    1  0.2148778E-015  0.9000773E+02  0.7816164E-02  0.1186339E+00
        -11   -1    0    0    0    0  0.00000000000E+00  0.00000000000E+00  0.45593999997E+02  0.45594000000E+02  0.51100000000E-03 0. -1.
         11   -1    0    0    0    0 -0.00000000000E+00 -0.00000000000E+00 -0.45593999997E+02  0.45594000000E+02  0.51100000000E-03 0.  1.
    9900012    2    1    2    0    0  0.33012677925E+00 -0.10257911289E+01  0.48145065714E+00  0.90007734832E+02  0.89999996132E+02 0.  0.
         12    1    1    2    0    0 -0.33012677925E+00  0.10257911289E+01 -0.48145065714E+00  0.11802651676E+01  0.00000000000E+00 0. -1.
         11    1    3    3    0    0  0.57868008448E+01  0.10458379530E+02  0.13439494146E+02  0.17985682349E+02  0.51100000000E-03 0. -1.
        -11    1    3    3    0    0 -0.19618949096E-01  0.16025250454E+02  0.21993155526E+02  0.27212275305E+02  0.51100000000E-03 0.  1.
         12    1    3    3    0    0 -0.54370551165E+01 -0.27509421112E+02 -0.34951199015E+02  0.44809777179E+02  0.00000000000E+00 0. -1.
</event>
<event>
 7    1  0.2148778E-015  0.9000772E+02  0.7816164E-02  0.1186339E+00
        -11   -1    0    0    0    0  0.00000000000E+00  0.00000000000E+00  0.45593999997E+02  0.45594000000E+02  0.51100000000E-03 0. -1.
         11   -1    0    0    0    0 -0.00000000000E+00 -0.00000000000E+00 -0.45593999997E+02  0.45594000000E+02  0.51100000000E-03 0.  1.
    9900012    2    1    2    0    0  0.29461289745E-01  0.87857013070E+00 -0.78760294598E+00  0.90007715355E+02  0.89999976398E+02 0.  0.
         12    1    1    2    0    0 -0.29461289745E-01 -0.87857013070E+00  0.78760294598E+00  0.11802846448E+01  0.00000000000E+00 0. -1.
         11    1    3    3    0    0 -0.11619800220E+02 -0.21396775807E+02 -0.12281287695E+01  0.24379295983E+02  0.51100000000E-03 0. -1.
        -11    1    3    3    0    0 -0.20660902982E+02  0.41584876235E+01 -0.14610833197E+02  0.25644538957E+02  0.51100000000E-03 0.  1.
         12    1    3    3    0    0  0.32310164492E+02  0.18116858314E+02  0.15051359021E+02  0.39983880415E+02  0.00000000000E+00 0. -1.
</event>
<event>
 7    1  0.2148778E-015  0.9000749E+02  0.7816164E-02  0.1186340E+00
        -11   -1    0    0    0    0  0.00000000000E+00  0.00000000000E+00  0.45593999997E+02  0.45594000000E+02  0.51100000000E-03 0.  1.
         11   -1    0    0    0    0 -0.00000000000E+00 -0.00000000000E+00 -0.45593999997E+02  0.45594000000E+02  0.51100000000E-03 0. -1.
    9900012    2    1    2    0    0 -0.78819436313E-01  0.94402058784E+00 -0.70443447385E+00  0.90007485154E+02  0.89999743158E+02 0.  0.
         12    1    1    2    0    0  0.78819436313E-01 -0.94402058784E+00  0.70443447385E+00  0.11805148461E+01  0.00000000000E+00 0. -1.
         11    1    3    3    0    0  0.14011061892E+02 -0.76291621723E+01 -0.34801872171E+02  0.38284256264E+02  0.51100000000E-03 0. -1.
        -11    1    3    3    0    0  0.71168448800E+01 -0.57333027466E+01  0.53236881835E-01  0.91390960087E+01  0.51100000000E-03 0.  1.
        -12    1    3    3    0    0 -0.21206726209E+02  0.14306485507E+02  0.34044200816E+02  0.42584132881E+02  0.00000000000E+00 0.  1.
</event>
<event>
 7    1  0.2148778E-015  0.9000844E+02  0.7816164E-02  0.1186338E+00
        -11   -1    0    0    0    0  0.00000000000E+00  0.00000000000E+00  0.45593999997E+02  0.45594000000E+02  0.51100000000E-03 0.  1.
         11   -1    0    0    0    0 -0.00000000000E+00 -0.00000000000E+00 -0.45593999997E+02  0.45594000000E+02  0.51100000000E-03 0. -1.
    9900012    2    1    2    0    0 -0.85200602713E+00  0.61999336382E+00  0.53014152376E+00  0.90008442423E+02  0.90000713061E+02 0.  0.
         12    1    1    2    0    0  0.85200602713E+00 -0.61999336382E+00 -0.53014152376E+00  0.11795575767E+01  0.00000000000E+00 0. -1.
         11    1    3    3    0    0 -0.77224720912E+01  0.24405122819E+02 -0.27133888785E+02  0.37302741399E+02  0.51100000000E-03 0. -1.
        -11    1    3    3    0    0 -0.58612658929E+01  0.64656907595E+01 -0.14332575540E+01  0.88438578880E+01  0.51100000000E-03 0.  1.
        -12    1    3    3    0    0  0.12731731957E+02 -0.30250820215E+02  0.29097287863E+02  0.43861843136E+02  0.00000000000E+00 0.  1.
</event>
<event>
 7    1  0.2148778E-015  0.9000771E+02  0.7816164E-02  0.1186339E+00
        -11   -1    0    0    0    0  0.00000000000E+00  0.00000000000E+00  0.45593999997E+02  0.45594000000E+02  0.51100000000E-03 0.  1.
         11   -1    0    0    0    0 -0.00000000000E+00 -0.00000000000E+00 -0.45593999997E+02  0.45594000000E+02  0.51100000000E-03 0. -1.
    9900012    2    1    2    0    0  0.68447889859E+00 -0.64398290630E+00  0.71403754678E+00  0.90007714033E+02  0.89999975058E+02 0.  0.
         12    1    1    2    0    0 -0.68447889859E+00  0.64398290630E+00 -0.71403754678E+00  0.11802859672E+01  0.00000000000E+00 0. -1.
         11    1    3    3    0    0 -0.13344520551E+02  0.32441873394E+02 -0.53931965726E+01  0.35491378496E+02  0.51100000000E-03 0. -1.
        -11    1    3    3    0    0 -0.40338436272E+01  0.69815588204E+01 -0.45961628087E+01  0.92810974995E+01  0.51100000000E-03 0.  1.
        -12    1    3    3    0    0  0.18062843076E+02 -0.40067415121E+02  0.10703396928E+02  0.45235238037E+02  0.00000000000E+00 0.  1.
</event>
<event>
 7    1  0.2148778E-015  0.9000788E+02  0.7816164E-02  0.1186339E+00
        -11   -1    0    0    0    0  0.00000000000E+00  0.00000000000E+00  0.45593999997E+02  0.45594000000E+02  0.51100000000E-03 0. -1.
         11   -1    0    0    0    0 -0.00000000000E+00 -0.00000000000E+00 -0.45593999997E+02  0.45594000000E+02  0.51100000000E-03 0.  1.
    9900012    2    1    2    0    0  0.78548268220E+00 -0.47098329509E+00 -0.74422689815E+00  0.90007880521E+02  0.90000143744E+02 0.  0.
         12    1    1    2    0    0 -0.78548268220E+00  0.47098329509E+00  0.74422689815E+00  0.11801194788E+01  0.00000000000E+00 0. -1.
         11    1    3    3    0    0 -0.16376956621E+02 -0.25526811855E+02  0.12764779858E+02  0.32905355745E+02  0.51100000000E-03 0. -1.
        -11    1    3    3    0    0  0.42004376908E+01 -0.13631427223E+02 -0.48078164362E+00  0.14272022849E+02  0.51100000000E-03 0.  1.
        -12    1    3    3    0    0  0.12962001612E+02  0.38687255783E+02 -0.13028225112E+02  0.42830501928E+02  0.00000000000E+00 0.  1.
</event>
<event>
 7    1  0.2539774E-015  0.9000788E+02  0.7816164E-02  0.1186339E+00
        -11   -1    0    0    0    0  0.00000000000E+00  0.00000000000E+00  0.45593999997E+02  0.45594000000E+02  0.51100000000E-03 0. -1.
         11   -1    0    0    0    0 -0.00000000000E+00 -0.00000000000E+00 -0.45593999997E+02  0.45594000000E+02  0.51100000000E-03 0.  1.
    9900012    2    1    2    0    0 -0.57614954639E+00 -0.38115148776E+00 -0.95679282067E+00  0.90007882524E+02  0.90000145773E+02 0.  0.
         12    1    1    2    0    0  0.57614954639E+00  0.38115148776E+00  0.95679282067E+00  0.11801174764E+01  0.00000000000E+00 0. -1.
         11    1    3    3    0    0 -0.84064821553E+01  0.25098557725E+01 -0.76146744380E+00  0.88061428080E+01  0.51100000000E-03 0. -1.
        -11    1    3    3    0    0 -0.16001081424E+02  0.13704389644E+02 -0.31886146862E+02  0.38217420952E+02  0.51100000000E-03 0.  1.
         12    1    3    3    0    0  0.23831414033E+02 -0.16595396904E+02  0.31690821485E+02  0.42984318764E+02  0.00000000000E+00 0. -1.
</event>
<event>
 7    1  0.2148778E-015  0.9000773E+02  0.7816164E-02  0.1186339E+00
        -11   -1    0    0    0    0  0.00000000000E+00  0.00000000000E+00  0.45593999997E+02  0.45594000000E+02  0.51100000000E-03 0. -1.
         11   -1    0    0    0    0 -0.00000000000E+00 -0.00000000000E+00 -0.45593999997E+02  0.45594000000E+02  0.51100000000E-03 0.  1.
    9900012    2    1    2    0    0 -0.10943294958E+01 -0.11873161283E+00  0.42588008632E+00  0.90007733890E+02  0.89999995178E+02 0.  0.
         12    1    1    2    0    0  0.10943294958E+01  0.11873161283E+00 -0.42588008632E+00  0.11802661095E+01  0.00000000000E+00 0. -1.
         11    1    3    3    0    0 -0.17772872511E+02  0.25095004392E+02 -0.27136863925E+02  0.41012725179E+02  0.51100000000E-03 0. -1.
        -11    1    3    3    0    0  0.38193260801E+01  0.49207012288E+01  0.10105133402E+02  0.11870731806E+02  0.51100000000E-03 0.  1.
        -12    1    3    3    0    0  0.12859216935E+02 -0.30134437233E+02  0.17457610609E+02  0.37124276905E+02  0.00000000000E+00 0.  1.
</event>
<event>
 7    1  0.2148778E-015  0.9000773E+02  0.7816164E-02  0.1186339E+00
        -11   -1    0    0    0    0  0.00000000000E+00  0.00000000000E+00  0.45593999997E+02  0.45594000000E+02  0.51100000000E-03 0. -1.
         11   -1    0    0    0    0 -0.00000000000E+00 -0.00000000000E+00 -0.45593999997E+02  0.45594000000E+02  0.51100000000E-03 0.  1.
    9900012    2    1    2    0    0 -0.98192611412E+00 -0.64589507740E+00  0.10803776937E+00  0.90007732444E+02  0.89999993712E+02 0.  0.
         12    1    1    2    0    0  0.98192611412E+00  0.64589507740E+00 -0.10803776937E+00  0.11802675562E+01  0.00000000000E+00 0. -1.
         11    1    3    3    0    0  0.35507226032E+00  0.99529545580E+01  0.35876245358E+01  0.10585765481E+02  0.51100000000E-03 0. -1.
        -11    1    3    3    0    0 -0.38511199942E+02 -0.15769918721E+02  0.97534413263E+00  0.41626363688E+02  0.51100000000E-03 0.  1.
         12    1    3    3    0    0  0.37174201567E+02  0.51710690857E+01 -0.44549308991E+01  0.37795603275E+02  0.00000000000E+00 0. -1.
</event>
<event>
 7    1  0.2148778E-015  0.9000770E+02  0.7816164E-02  0.1186339E+00
        -11   -1    0    0    0    0  0.00000000000E+00  0.00000000000E+00  0.45593999997E+02  0.45594000000E+02  0.51100000000E-03 0.  1.
         11   -1    0    0    0    0 -0.00000000000E+00 -0.00000000000E+00 -0.45593999997E+02  0.45594000000E+02  0.51100000000E-03 0. -1.
    9900012    2    1    2    0    0 -0.91263333559E+00 -0.23260470550E+00  0.71140195180E+00  0.90007704575E+02  0.89999965475E+02 0.  0.
         12    1    1    2    0    0  0.91263333559E+00  0.23260470550E+00 -0.71140195180E+00  0.11802954254E+01  0.00000000000E+00 0. -1.
         11    1    3    3    0    0 -0.65160562996E+01 -0.56940833904E+01 -0.25561924922E+01  0.90230646498E+01  0.51100000000E-03 0. -1.
        -11    1    3    3    0    0 -0.25751643572E+02  0.19932510568E+02  0.24227299862E+02  0.40588350337E+02  0.51100000000E-03 0.  1.
         12    1    3    3    0    0  0.31355066536E+02 -0.14471031883E+02 -0.20959705418E+02  0.40396289588E+02  0.00000000000E+00 0. -1.
</event>
<event>
 7    1  0.2148778E-015  0.9000771E+02  0.7816164E-02  0.1186339E+00
        -11   -1    0    0    0    0  0.00000000000E+00  0.00000000000E+00  0.45593999997E+02  0.45594000000E+02  0.51100000000E-03 0.  1.
         11   -1    0    0    0    0 -0.00000000000E+00 -0.00000000000E+00 -0.45593999997E+02  0.45594000000E+02  0.51100000000E-03 0. -1.
    9900012    2    1    2    0    0  0.67346023546E+00 -0.34446421370E+00  0.90601939377E+00  0.90007713838E+02  0.89999974860E+02 0.  0.
         12    1    1    2    0    0 -0.67346023546E+00  0.34446421370E+00 -0.90601939377E+00  0.11802861624E+01  0.00000000000E+00 0. -1.
         11    1    3    3    0    0  0.13204624582E+01  0.23853801045E+02 -0.29595670288E+02  0.38034867496E+02  0.51100000000E-03 0. -1.
        -11    1    3    3    0    0  0.39046207957E+01  0.83157377352E+01  0.55161252139E+01  0.10715651883E+02  0.51100000000E-03 0.  1.
        -12    1    3    3    0    0 -0.45516230184E+01 -0.32514002994E+02  0.24985564468E+02  0.41257194458E+02  0.00000000000E+00 0.  1.
</event>
<event>
 7    1  0.2148778E-015  0.9000765E+02  0.7816164E-02  0.1186339E+00
        -11   -1    0    0    0    0  0.00000000000E+00  0.00000000000E+00  0.45593999997E+02  0.45594000000E+02  0.51100000000E-03 0.  1.
         11   -1    0    0    0    0 -0.00000000000E+00 -0.00000000000E+00 -0.45593999997E+02  0.45594000000E+02  0.51100000000E-03 0. -1.
    9900012    2    1    2    0    0 -0.25781375129E+00 -0.10391880773E+01  0.49683846867E+00  0.90007649097E+02  0.89999909265E+02 0.  0.
         12    1    1    2    0    0  0.25781375129E+00  0.10391880773E+01 -0.49683846867E+00  0.11803509031E+01  0.00000000000E+00 0. -1.
         11    1    3    3    0    0 -0.82247158459E+01  0.37890931717E+01 -0.40891360101E+01  0.99360058062E+01  0.51100000000E-03 0. -1.
        -11    1    3    3    0    0 -0.20469671894E+02 -0.32997826849E+02  0.88230971778E+01  0.39820988038E+02  0.51100000000E-03 0.  1.
         12    1    3    3    0    0  0.28436573989E+02  0.28169545600E+02 -0.42371226990E+01  0.40250655253E+02  0.00000000000E+00 0. -1.
</event>
<event>
 7    1  0.2148778E-015  0.9000773E+02  0.7816164E-02  0.1186339E+00
        -11   -1    0    0    0    0  0.00000000000E+00  0.00000000000E+00  0.45593999997E+02  0.45594000000E+02  0.51100000000E-03 0.  1.
         11   -1    0    0    0    0 -0.00000000000E+00 -0.00000000000E+00 -0.45593999997E+02  0.45594000000E+02  0.51100000000E-03 0. -1.
    9900012    2    1    2    0    0 -0.35950165059E+00 -0.14082109979E+00  0.11153298953E+01  0.90007731897E+02  0.89999993158E+02 0.  0.
         12    1    1    2    0    0  0.35950165059E+00  0.14082109979E+00 -0.11153298953E+01  0.11802681027E+01  0.00000000000E+00 0. -1.
         11    1    3    3    0    0  0.25393298644E+02  0.15150573143E+02  0.20820049632E+02  0.36163986915E+02  0.51100000000E-03 0. -1.
        -11    1    3    3    0    0  0.84814894532E+01  0.35412338212E+01  0.16170677623E+01  0.93322510002E+01  0.51100000000E-03 0.  1.
        -12    1    3    3    0    0 -0.34234289748E+02 -0.18832628064E+02 -0.21321787499E+02  0.44511493982E+02  0.00000000000E+00 0.  1.
</event>
<event>
 7    1  0.2148778E-015  0.9000785E+02  0.7816164E-02  0.1186339E+00
        -11   -1    0    0    0    0  0.00000000000E+00  0.00000000000E+00  0.45593999997E+02  0.45594000000E+02  0.51100000000E-03 0. -1.
         11   -1    0    0    0    0 -0.00000000000E+00 -0.00000000000E+00 -0.45593999997E+02  0.45594000000E+02  0.51100000000E-03 0.  1.
    9900012    2    1    2    0    0  0.90051673306E+00  0.62028435563E+00 -0.44391520039E+00  0.90007854342E+02  0.90000117219E+02 0.  0.
         12    1    1    2    0    0 -0.90051673306E+00 -0.62028435563E+00  0.44391520039E+00  0.11801456577E+01  0.00000000000E+00 0. -1.
         11    1    3    3    0    0 -0.29113174688E+02 -0.63291393984E+01 -0.19518194048E+02  0.35617339107E+02  0.51100000000E-03 0. -1.
        -11    1    3    3    0    0 -0.66818764286E+01  0.11854525423E+02  0.78242157221E+01  0.15696993264E+02  0.51100000000E-03 0.  1.
         12    1    3    3    0    0  0.36695567850E+02 -0.49051016687E+01  0.11250063125E+02  0.38693521971E+02  0.00000000000E+00 0. -1.
</event>
<event>
 7    1  0.2148778E-015  0.9000770E+02  0.7816164E-02  0.1186339E+00
        -11   -1    0    0    0    0  0.00000000000E+00  0.00000000000E+00  0.45593999997E+02  0.45594000000E+02  0.51100000000E-03 0.  1.
         11   -1    0    0    0    0 -0.00000000000E+00 -0.00000000000E+00 -0.45593999997E+02  0.45594000000E+02  0.51100000000E-03 0. -1.
    9900012    2    1    2    0    0 -0.11305991823E+00  0.11707927393E+01 -0.97799600454E-01  0.90007702179E+02  0.89999963048E+02 0.  0.
         12    1    1    2    0    0  0.11305991823E+00 -0.11707927393E+01  0.97799600454E-01  0.11802978206E+01  0.00000000000E+00 0. -1.
         11    1    3    3    0    0  0.25620645965E+02 -0.19367899526E+02 -0.18215609141E+02  0.36923453906E+02  0.51100000000E-03 0. -1.
        -11    1    3    3    0    0  0.63148157863E+00 -0.95340731425E+01  0.10913729606E+01  0.96170897298E+01  0.51100000000E-03 0.  1.
        -12    1    3    3    0    0 -0.26365187462E+02  0.30072765408E+02  0.17026436580E+02  0.43467158543E+02  0.00000000000E+00 0.  1.
</event>
<event>
 7    1  0.2148778E-015  0.9000772E+02  0.7816164E-02  0.1186339E+00
        -11   -1    0    0    0    0  0.00000000000E+00  0.00000000000E+00  0.45593999997E+02  0.45594000000E+02  0.51100000000E-03 0.  1.
         11   -1    0    0    0    0 -0.00000000000E+00 -0.00000000000E+00 -0.45593999997E+02  0.45594000000E+02  0.51100000000E-03 0. -1.
    9900012    2    1    2    0    0 -0.33318500024E+00 -0.19999018249E+00  0.11144771695E+01  0.90007717119E+02  0.89999978185E+02 0.  0.
         12    1    1    2    0    0  0.33318500024E+00  0.19999018249E+00 -0.11144771695E+01  0.11802828809E+01  0.00000000000E+00 0. -1.
         11    1    3    3    0    0  0.14042382721E+02 -0.25657668108E+02 -0.27081225927E+02  0.39860973937E+02  0.51100000000E-03 0. -1.
        -11    1    3    3    0    0  0.77446113413E+01  0.50264706476E+01  0.51855426506E+00  0.92473407413E+01  0.51100000000E-03 0.  1.
        -12    1    3    3    0    0 -0.22120179063E+02  0.20431207278E+02  0.27677148831E+02  0.40899402441E+02  0.00000000000E+00 0.  1.
</event>
<event>
 7    1  0.2148778E-015  0.9000773E+02  0.7816164E-02  0.1186339E+00
        -11   -1    0    0    0    0  0.00000000000E+00  0.00000000000E+00  0.45593999997E+02  0.45594000000E+02  0.51100000000E-03 0.  1.
         11   -1    0    0    0    0 -0.00000000000E+00 -0.00000000000E+00 -0.45593999997E+02  0.45594000000E+02  0.51100000000E-03 0. -1.
    9900012    2    1    2    0    0  0.10927037786E+01 -0.13359894999E+00  0.42566831172E+00  0.90007727261E+02  0.89999988461E+02 0.  0.
         12    1    1    2    0    0 -0.10927037786E+01  0.13359894999E+00 -0.42566831172E+00  0.11802727391E+01  0.00000000000E+00 0. -1.
         11    1    3    3    0    0  0.45091205875E+01 -0.84868411461E+01  0.51198529022E+01  0.10889055749E+02  0.51100000000E-03 0. -1.
        -11    1    3    3    0    0  0.26937034453E+02 -0.20981617805E+02  0.79419896012E+01  0.35055774274E+02  0.51100000000E-03 0.  1.
         12    1    3    3    0    0 -0.30353451262E+02  0.29334860001E+02 -0.12636174192E+02  0.44062897238E+02  0.00000000000E+00 0. -1.
</event>
<event>
 7    1  0.2148778E-015  0.9000786E+02  0.7816164E-02  0.1186339E+00
        -11   -1    0    0    0    0  0.00000000000E+00  0.00000000000E+00  0.45593999997E+02  0.45594000000E+02  0.51100000000E-03 0. -1.
         11   -1    0    0    0    0 -0.00000000000E+00 -0.00000000000E+00 -0.45593999997E+02  0.45594000000E+02  0.51100000000E-03 0.  1.
    9900012    2    1    2    0    0  0.11410791773E+00 -0.95676432037E+00 -0.68140807753E+00  0.90007857826E+02  0.90000120750E+02 0.  0.
         12    1    1    2    0    0 -0.11410791773E+00  0.95676432037E+00  0.68140807753E+00  0.11801421735E+01  0.00000000000E+00 0. -1.
         11    1    3    3    0    0 -0.34818469681E+02 -0.13533024304E+02  0.19079449897E+02  0.41946322680E+02  0.51100000000E-03 0. -1.
        -11    1    3    3    0    0  0.66133781252E+01  0.96615948122E+01  0.24397454515E+01  0.11959746765E+02  0.51100000000E-03 0.  1.
        -12    1    3    3    0    0  0.28319199473E+02  0.29146651717E+01 -0.22200603427E+02  0.36101788382E+02  0.00000000000E+00 0.  1.
</event>
<event>
 7    1  0.2148778E-015  0.9000713E+02  0.7816164E-02  0.1186340E+00
        -11   -1    0    0    0    0  0.00000000000E+00  0.00000000000E+00  0.45593999997E+02  0.45594000000E+02  0.51100000000E-03 0. -1.
         11   -1    0    0    0    0 -0.00000000000E+00 -0.00000000000E+00 -0.45593999997E+02  0.45594000000E+02  0.51100000000E-03 0.  1.
    9900012    2    1    2    0    0 -0.66380603387E+00 -0.71356657465E+00 -0.66680344566E+00  0.90007134833E+02  0.89999388211E+02 0.  0.
         12    1    1    2    0    0  0.66380603387E+00  0.71356657465E+00  0.66680344566E+00  0.11808651668E+01  0.00000000000E+00 0. -1.
         11    1    3    3    0    0 -0.59904956006E+01  0.38497199313E+01 -0.70657798644E+01  0.10031531610E+02  0.51100000000E-03 0. -1.
        -11    1    3    3    0    0 -0.26799460575E+02  0.17060333353E+02 -0.15648345654E+02  0.35413793685E+02  0.51100000000E-03 0.  1.
         12    1    3    3    0    0  0.32126150141E+02 -0.21623619859E+02  0.22047322073E+02  0.44561809538E+02  0.00000000000E+00 0. -1.
</event>
<event>
 7    1  0.2148778E-015  0.9000774E+02  0.7816164E-02  0.1186339E+00
        -11   -1    0    0    0    0  0.00000000000E+00  0.00000000000E+00  0.45593999997E+02  0.45594000000E+02  0.51100000000E-03 0.  1.
         11   -1    0    0    0    0 -0.00000000000E+00 -0.00000000000E+00 -0.45593999997E+02  0.45594000000E+02  0.51100000000E-03 0. -1.
    9900012    2    1    2    0    0  0.66765273774E+00 -0.91679074897E+00  0.32670603501E+00  0.90007744820E+02  0.90000006252E+02 0.  0.
         12    1    1    2    0    0 -0.66765273774E+00  0.91679074897E+00 -0.32670603501E+00  0.11802551796E+01  0.00000000000E+00 0. -1.
         11    1    3    3    0    0 -0.16494678418E+02  0.10183128588E+01  0.62908839465E+01  0.17682946538E+02  0.51100000000E-03 0. -1.
        -11    1    3    3    0    0  0.12087933989E+02  0.17425266331E+00  0.31874029100E+02  0.34089620758E+02  0.51100000000E-03 0.  1.
         12    1    3    3    0    0  0.50743971662E+01 -0.21093562710E+01 -0.37838207011E+02  0.38235177524E+02  0.00000000000E+00 0. -1.
</event>
<event>
 7    1  0.2148778E-015  0.9000774E+02  0.7816164E-02  0.1186339E+00
        -11   -1    0    0    0    0  0.00000000000E+00  0.00000000000E+00  0.45593999997E+02  0.45594000000E+02  0.51100000000E-03 0.  1.
         11   -1    0    0    0    0 -0.00000000000E+00 -0.00000000000E+00 -0.45593999997E+02  0.45594000000E+02  0.51100000000E-03 0. -1.
    9900012    2    1    2    0    0  0.81803343062E+00 -0.71126734631E+00  0.46684397973E+00  0.90007735948E+02  0.89999997262E+02 0.  0.
         12    1    1    2    0    0 -0.81803343062E+00  0.71126734631E+00 -0.46684397973E+00  0.11802640522E+01  0.00000000000E+00 0. -1.
         11    1    3    3    0    0  0.34552239996E+02 -0.59103308343E+01  0.12084859371E+02  0.37078742233E+02  0.51100000000E-03 0. -1.
        -11    1    3    3    0    0  0.64290979923E+01 -0.35767853572E+01 -0.91543831502E+01  0.11744335895E+02  0.51100000000E-03 0.  1.
        -12    1    3    3    0    0 -0.40163304558E+02  0.87758488452E+01 -0.24636322407E+01  0.41184657820E+02  0.00000000000E+00 0.  1.
</event>
<event>
 7    1  0.2148778E-015  0.9000772E+02  0.7816164E-02  0.1186339E+00
        -11   -1    0    0    0    0  0.00000000000E+00  0.00000000000E+00  0.45593999997E+02  0.45594000000E+02  0.51100000000E-03 0. -1.
         11   -1    0    0    0    0 -0.00000000000E+00 -0.00000000000E+00 -0.45593999997E+02  0.45594000000E+02  0.51100000000E-03 0.  1.
    9900012    2    1    2    0    0  0.39279545137E+00  0.39208881599E+00 -0.10416491011E+01  0.90007722594E+02  0.89999983732E+02 0.  0.
         12    1    1    2    0    0 -0.39279545137E+00 -0.39208881599E+00  0.10416491011E+01  0.11802774064E+01  0.00000000000E+00 0. -1.
         11    1    3    3    0    0  0.10201595638E+02 -0.89673445887E+01 -0.33635889666E+01  0.13992839367E+02  0.51100000000E-03 0. -1.
        -11    1    3    3    0    0 -0.24153242549E+02 -0.15863053098E+02 -0.23443438233E+02  0.37210353071E+02  0.51100000000E-03 0.  1.
         12    1    3    3    0    0  0.14344442362E+02  0.25222486503E+02  0.25765378098E+02  0.38804530156E+02  0.00000000000E+00 0. -1.
</event>
<event>
 7    1  0.2148778E-015  0.9000772E+02  0.7816164E-02  0.1186339E+00
        -11   -1    0    0    0    0  0.00000000000E+00  0.00000000000E+00  0.45593999997E+02  0.45594000000E+02  0.51100000000E-03 0.  1.
         11   -1    0    0    0    0 -0.00000000000E+00 -0.00000000000E+00 -0.45593999997E+02  0.45594000000E+02  0.51100000000E-03 0. -1.
    9900012    2    1    2    0    0 -0.10408503757E+01  0.13084345394E+00  0.54090497271E+00  0.90007717109E+02  0.89999978175E+02 0.  0.
         12    1    1    2    0    0  0.10408503757E+01 -0.13084345394E+00 -0.54090497271E+00  0.11802828913E+01  0.00000000000E+00 0. -1.
         11    1    3    3    0    0  0.32059117180E+02  0.11901529571E+02  0.36689011658E+01  0.34393229516E+02  0.51100000000E-03 0. -1.
        -11    1    3    3    0    0  0.99155735991E+01  0.23231590082E+01  0.55585928545E+00  0.10199247393E+02  0.51100000000E-03 0.  1.
        -12    1    3    3    0    0 -0.43015541155E+02 -0.14093845125E+02 -0.36838554785E+01  0.45415240200E+02  0.00000000000E+00 0.  1.
</event>
<event>
 7    1  0.2148778E-015  0.9000784E+02  0.7816164E-02  0.1186339E+00
        -11   -1    0    0    0    0  0.00000000000E+00  0.00000000000E+00  0.45593999997E+02  0.45594000000E+02  0.51100000000E-03 0.  1.
         11   -1    0    0    0    0 -0.00000000000E+00 -0.00000000000E+00 -0.45593999997E+02  0.45594000000E+02  0.51100000000E-03 0. -1.
    9900012    2    1    2    0    0 -0.16298293841E+00 -0.10968743579E+01  0.40384470279E+00  0.90007835885E+02  0.90000098518E+02 0.  0.
         12    1    1    2    0    0  0.16298293841E+00  0.10968743579E+01 -0.40384470279E+00  0.11801641154E+01  0.00000000000E+00 0. -1.
         11    1    3    3    0    0  0.21245484136E+02 -0.23370944927E+02 -0.22272982151E+02  0.38647864069E+02  0.51100000000E-03 0. -1.
        -11    1    3    3    0    0  0.43447360504E+01  0.45259256399E+01 -0.61788394177E+01  0.88056113392E+01  0.51100000000E-03 0.  1.
        -12    1    3    3    0    0 -0.25753203125E+02  0.17748144929E+02  0.28855666272E+02  0.42554360477E+02  0.00000000000E+00 0.  1.
</event>
<event>
 7    1  0.2148778E-015  0.9000772E+02  0.7816164E-02  0.1186339E+00
        -11   -1    0    0    0    0  0.00000000000E+00  0.00000000000E+00  0.45593999997E+02  0.45594000000E+02  0.51100000000E-03 0. -1.
         11   -1    0    0    0    0 -0.00000000000E+00 -0.00000000000E+00 -0.45593999997E+02  0.45594000000E+02  0.51100000000E-03 0.  1.
    9900012    2    1    2    0    0 -0.59320517374E+00 -0.59996759446E+00 -0.82534946337E+00  0.90007722393E+02  0.89999983529E+02 0.  0.
         12    1    1    2    0    0  0.59320517374E+00  0.59996759446E+00  0.82534946337E+00  0.11802776069E+01  0.00000000000E+00 0. -1.
         11    1    3    3    0    0 -0.17464504956E+02  0.23628333525E+02  0.21236618387E+02  0.36253290048E+02  0.51100000000E-03 0. -1.
        -11    1    3    3    0    0  0.27681804115E+00  0.68393398172E+01  0.56995319609E+01  0.89071803730E+01  0.51100000000E-03 0.  1.
        -12    1    3    3    0    0  0.16594481741E+02 -0.31067640937E+02 -0.27761499812E+02  0.44847251972E+02  0.00000000000E+00 0.  1.
</event>
<event>
 7    1  0.2148778E-015  0.9000783E+02  0.7816164E-02  0.1186339E+00
        -11   -1    0    0    0    0  0.00000000000E+00  0.00000000000E+00  0.45593999997E+02  0.45594000000E+02  0.51100000000E-03 0. -1.
         11   -1    0    0    0    0 -0.00000000000E+00 -0.00000000000E+00 -0.45593999997E+02  0.45594000000E+02  0.51100000000E-03 0.  1.
    9900012    2    1    2    0    0  0.26877947321E+00 -0.72726690266E+00 -0.88974595512E+00  0.90007827378E+02  0.90000089899E+02 0.  0.
         12    1    1    2    0    0 -0.26877947321E+00  0.72726690266E+00  0.88974595512E+00  0.11801726219E+01  0.00000000000E+00 0. -1.
         11    1    3    3    0    0  0.37786831414E+01  0.39830868233E+02 -0.91587643346E+01  0.41044603481E+02  0.51100000000E-03 0. -1.
        -11    1    3    3    0    0 -0.11058664246E+00 -0.43129692048E+01 -0.79998808700E+01  0.90891158516E+01  0.51100000000E-03 0.  1.
        -12    1    3    3    0    0 -0.33993170258E+01 -0.36245165931E+02  0.16268899250E+02  0.39874108045E+02  0.00000000000E+00 0.  1.
</event>
<event>
 7    1  0.2148778E-015  0.9000682E+02  0.7816164E-02  0.1186341E+00
        -11   -1    0    0    0    0  0.00000000000E+00  0.00000000000E+00  0.45593999997E+02  0.45594000000E+02  0.51100000000E-03 0. -1.
         11   -1    0    0    0    0 -0.00000000000E+00 -0.00000000000E+00 -0.45593999997E+02  0.45594000000E+02  0.51100000000E-03 0.  1.
    9900012    2    1    2    0    0 -0.16463715515E+00  0.79961474535E+00 -0.85364407294E+00  0.90006815282E+02  0.89999064439E+02 0.  0.
         12    1    1    2    0    0  0.16463715515E+00 -0.79961474535E+00  0.85364407294E+00  0.11811847176E+01  0.00000000000E+00 0. -1.
         11    1    3    3    0    0 -0.15785780666E+02 -0.89557633095E+00  0.89146664640E+01  0.18151148906E+02  0.51100000000E-03 0. -1.
        -11    1    3    3    0    0 -0.22282813645E+02  0.96906382507E+01  0.12340153916E+02  0.27252736607E+02  0.51100000000E-03 0.  1.
         12    1    3    3    0    0  0.37903957155E+02 -0.79954471744E+01 -0.22108464453E+02  0.44602929769E+02  0.00000000000E+00 0. -1.
</event>
<event>
 7    1  0.2148778E-015  0.9000772E+02  0.7816164E-02  0.1186339E+00
        -11   -1    0    0    0    0  0.00000000000E+00  0.00000000000E+00  0.45593999997E+02  0.45594000000E+02  0.51100000000E-03 0.  1.
         11   -1    0    0    0    0 -0.00000000000E+00 -0.00000000000E+00 -0.45593999997E+02  0.45594000000E+02  0.51100000000E-03 0. -1.
    9900012    2    1    2    0    0 -0.94773224927E+00 -0.59236706719E+00 -0.37943049668E+00  0.90007719245E+02  0.89999980339E+02 0.  0.
         12    1    1    2    0    0  0.94773224927E+00  0.59236706719E+00  0.37943049668E+00  0.11802807549E+01  0.00000000000E+00 0. -1.
         11    1    3    3    0    0 -0.51703643429E+01  0.47801036956E+01 -0.77319368747E+01  0.10457767777E+02  0.51100000000E-03 0. -1.
        -11    1    3    3    0    0  0.27416686346E+02  0.27544057365E+02  0.18372277143E+01  0.38906621445E+02  0.51100000000E-03 0.  1.
         12    1    3    3    0    0 -0.23194054252E+02 -0.32916528128E+02  0.55152786638E+01  0.40643330023E+02  0.00000000000E+00 0. -1.
</event>
<event>
 7    1  0.2148778E-015  0.9000769E+02  0.7816164E-02  0.1186339E+00
        -11   -1    0    0    0    0  0.00000000000E+00  0.00000000000E+00  0.45593999997E+02  0.45594000000E+02  0.51100000000E-03 0. -1.
         11   -1    0    0    0    0 -0.00000000000E+00 -0.00000000000E+00 -0.45593999997E+02  0.45594000000E+02  0.51100000000E-03 0.  1.
    9900012    2    1    2    0    0  0.87589691075E+00  0.77605709469E+00  0.15381816318E+00  0.90007694938E+02  0.89999955711E+02 0.  0.
         12    1    1    2    0    0 -0.87589691075E+00 -0.77605709469E+00 -0.15381816318E+00  0.11803050622E+01  0.00000000000E+00 0. -1.
         11    1    3    3    0    0  0.68016903599E+01  0.19945742659E+02  0.36890503593E+02  0.42485349210E+02  0.51100000000E-03 0. -1.
        -11    1    3    3    0    0 -0.90351980524E+01 -0.65898110405E+00 -0.42580520157E+01  0.10009998360E+02  0.51100000000E-03 0.  1.
        -12    1    3    3    0    0  0.31094046033E+01 -0.18510704460E+02 -0.32478633414E+02  0.37512347367E+02  0.00000000000E+00 0.  1.
</event>
<event>
 7    1  0.2148778E-015  0.9000700E+02  0.7816164E-02  0.1186341E+00
        -11   -1    0    0    0    0  0.00000000000E+00  0.00000000000E+00  0.45593999997E+02  0.45594000000E+02  0.51100000000E-03 0.  1.
         11   -1    0    0    0    0 -0.00000000000E+00 -0.00000000000E+00 -0.45593999997E+02  0.45594000000E+02  0.51100000000E-03 0. -1.
    9900012    2    1    2    0    0 -0.11267563807E+01 -0.30828259029E+00  0.17362917222E+00  0.90006998228E+02  0.89999249801E+02 0.  0.
         12    1    1    2    0    0  0.11267563807E+01  0.30828259029E+00 -0.17362917222E+00  0.11810017724E+01  0.00000000000E+00 0. -1.
         11    1    3    3    0    0  0.10017225789E+02  0.21938297907E+02 -0.28033791527E+02  0.36980091876E+02  0.51100000000E-03 0. -1.
        -11    1    3    3    0    0 -0.63979613334E+01  0.70928813769E+01 -0.29207212807E+01  0.99886680049E+01  0.51100000000E-03 0.  1.
        -12    1    3    3    0    0 -0.47460208364E+01 -0.29339461874E+02  0.31128141980E+02  0.43038238346E+02  0.00000000000E+00 0.  1.
</event>
<event>
 7    1  0.2148778E-015  0.9000782E+02  0.7816164E-02  0.1186339E+00
        -11   -1    0    0    0    0  0.00000000000E+00  0.00000000000E+00  0.45593999997E+02  0.45594000000E+02  0.51100000000E-03 0. -1.
         11   -1    0    0    0    0 -0.00000000000E+00 -0.00000000000E+00 -0.45593999997E+02  0.45594000000E+02  0.51100000000E-03 0.  1.
    9900012    2    1    2    0    0 -0.11202682636E+01  0.11514472881E+00 -0.35292359056E+00  0.90007824440E+02  0.90000086923E+02 0.  0.
         12    1    1    2    0    0  0.11202682636E+01 -0.11514472881E+00  0.35292359056E+00  0.11801755597E+01  0.00000000000E+00 0. -1.
         11    1    3    3    0    0  0.95234242475E+01 -0.50606996459E+01 -0.38922525675E+01  0.11465422828E+02  0.51100000000E-03 0. -1.
        -11    1    3    3    0    0  0.21172488448E+02  0.30070564697E+01 -0.26962654765E+02  0.34413680535E+02  0.51100000000E-03 0.  1.
         12    1    3    3    0    0 -0.31816180959E+02  0.21687879051E+01  0.30501983742E+02  0.44128721078E+02  0.00000000000E+00 0. -1.
</event>
<event>
 7    1  0.2148778E-015  0.9000784E+02  0.7816164E-02  0.1186339E+00
        -11   -1    0    0    0    0  0.00000000000E+00  0.00000000000E+00  0.45593999997E+02  0.45594000000E+02  0.51100000000E-03 0.  1.
         11   -1    0    0    0    0 -0.00000000000E+00 -0.00000000000E+00 -0.45593999997E+02  0.45594000000E+02  0.51100000000E-03 0. -1.
    9900012    2    1    2    0    0  0.66851343105E+00 -0.43311379665E-01  0.97158998788E+00  0.90007841880E+02  0.90000104593E+02 0.  0.
         12    1    1    2    0    0 -0.66851343105E+00  0.43311379665E-01 -0.97158998788E+00  0.11801581198E+01  0.00000000000E+00 0. -1.
         11    1    3    3    0    0 -0.51680125089E+01  0.44520396645E+01  0.66327066928E+01  0.95142949713E+01  0.51100000000E-03 0. -1.
        -11    1    3    3    0    0  0.96937465013E+01  0.31148285530E+02 -0.23735924325E+02  0.40343258626E+02  0.51100000000E-03 0.  1.
         12    1    3    3    0    0 -0.38572205614E+01 -0.35643636575E+02  0.18074807620E+02  0.40150288283E+02  0.00000000000E+00 0. -1.
</event>
<event>
 7    1  0.2148778E-015  0.9000768E+02  0.7816164E-02  0.1186339E+00
        -11   -1    0    0    0    0  0.00000000000E+00  0.00000000000E+00  0.45593999997E+02  0.45594000000E+02  0.51100000000E-03 0. -1.
         11   -1    0    0    0    0 -0.00000000000E+00 -0.00000000000E+00 -0.45593999997E+02  0.45594000000E+02  0.51100000000E-03 0.  1.
    9900012    2    1    2    0    0  0.34817574552E-01  0.95010449944E+00 -0.69946176339E+00  0.90007679034E+02  0.89999939598E+02 0.  0.
         12    1    1    2    0    0 -0.34817574552E-01 -0.95010449944E+00  0.69946176339E+00  0.11803209656E+01  0.00000000000E+00 0. -1.
         11    1    3    3    0    0 -0.25938139609E+02 -0.31125967200E+01 -0.59672766208E+01  0.26797084454E+02  0.51100000000E-03 0. -1.
        -11    1    3    3    0    0 -0.47860686700E+01  0.18852585944E+02 -0.14048549106E+02  0.23993502919E+02  0.51100000000E-03 0.  1.
         12    1    3    3    0    0  0.30759025853E+02 -0.14789884724E+02  0.19316363963E+02  0.39217091661E+02  0.00000000000E+00 0. -1.
</event>
<event>
 7    1  0.2148778E-015  0.9000776E+02  0.7816164E-02  0.1186339E+00
        -11   -1    0    0    0    0  0.00000000000E+00  0.00000000000E+00  0.45593999997E+02  0.45594000000E+02  0.51100000000E-03 0.  1.
         11   -1    0    0    0    0 -0.00000000000E+00 -0.00000000000E+00 -0.45593999997E+02  0.45594000000E+02  0.51100000000E-03 0. -1.
    9900012    2    1    2    0    0 -0.37277737769E+00  0.63507639536E+00  0.92232909541E+00  0.90007755974E+02  0.90000017553E+02 0.  0.
         12    1    1    2    0    0  0.37277737769E+00 -0.63507639536E+00 -0.92232909541E+00  0.11802440262E+01  0.00000000000E+00 0. -1.
         11    1    3    3    0    0  0.11284974923E+02 -0.38413441845E+01  0.87158205940E+01  0.14767264914E+02  0.51100000000E-03 0. -1.
        -11    1    3    3    0    0  0.89464527556E+01  0.31024029076E+02 -0.21666854609E+02  0.38884212553E+02  0.51100000000E-03 0.  1.
         12    1    3    3    0    0 -0.20604205056E+02 -0.26547608496E+02  0.13873363110E+02  0.36356278506E+02  0.00000000000E+00 0. -1.
</event>
<event>
 7    1  0.2148778E-015  0.9000769E+02  0.7816164E-02  0.1186339E+00
        -11   -1    0    0    0    0  0.00000000000E+00  0.00000000000E+00  0.45593999997E+02  0.45594000000E+02  0.51100000000E-03 0. -1.
         11   -1    0    0    0    0 -0.00000000000E+00 -0.00000000000E+00 -0.45593999997E+02  0.45594000000E+02  0.51100000000E-03 0.  1.
    9900012    2    1    2    0    0  0.41400229098E+00 -0.33515673679E+00 -0.10532775424E+01  0.90007694312E+02  0.89999955077E+02 0.  0.
         12    1    1    2    0    0 -0.41400229098E+00  0.33515673679E+00  0.10532775424E+01  0.11803056877E+01  0.00000000000E+00 0. -1.
         11    1    3    3    0    0  0.26048682750E+02  0.28341700365E+02 -0.16917060610E+02  0.42047268550E+02  0.51100000000E-03 0. -1.
        -11    1    3    3    0    0 -0.86781446822E+01  0.27446762181E+01  0.57514259655E+00  0.91199907859E+01  0.51100000000E-03 0.  1.
        -12    1    3    3    0    0 -0.16956535777E+02 -0.31421533320E+02  0.15288640471E+02  0.38840434976E+02  0.00000000000E+00 0.  1.
</event>
<event>
 7    1  0.2148778E-015  0.9000778E+02  0.7816164E-02  0.1186339E+00
        -11   -1    0    0    0    0  0.00000000000E+00  0.00000000000E+00  0.45593999997E+02  0.45594000000E+02  0.51100000000E-03 0. -1.
         11   -1    0    0    0    0 -0.00000000000E+00 -0.00000000000E+00 -0.45593999997E+02  0.45594000000E+02  0.51100000000E-03 0.  1.
    9900012    2    1    2    0    0 -0.21766317820E+00  0.30514989716E+00 -0.11191191528E+01  0.90007779090E+02  0.90000040974E+02 0.  0.
         12    1    1    2    0    0  0.21766317820E+00 -0.30514989716E+00  0.11191191528E+01  0.11802209103E+01  0.00000000000E+00 0. -1.
         11    1    3    3    0    0  0.23921250639E+02 -0.65703720759E+01  0.29816612984E+02  0.38786936350E+02  0.51100000000E-03 0. -1.
        -11    1    3    3    0    0 -0.20865303359E+01  0.82685176816E+01  0.43610856929E+01  0.95781554684E+01  0.51100000000E-03 0.  1.
        -12    1    3    3    0    0 -0.22052383481E+02 -0.13929957085E+01 -0.35296817830E+02  0.41642687271E+02  0.00000000000E+00 0.  1.
</event>
<event>
 7    1  0.2148778E-015  0.9000678E+02  0.7816164E-02  0.1186341E+00
        -11   -1    0    0    0    0  0.00000000000E+00  0.00000000000E+00  0.45593999997E+02  0.45594000000E+02  0.51100000000E-03 0.  1.
         11   -1    0    0    0    0 -0.00000000000E+00 -0.00000000000E+00 -0.45593999997E+02  0.45594000000E+02  0.51100000000E-03 0. -1.
    9900012    2    1    2    0    0  0.33561706547E+00  0.38042275635E+00  0.10667315628E+01  0.90006781766E+02  0.89999030481E+02 0.  0.
         12    1    1    2    0    0 -0.33561706547E+00 -0.38042275635E+00 -0.10667315628E+01  0.11812182335E+01  0.00000000000E+00 0. -1.
         11    1    3    3    0    0 -0.28390126473E+02  0.14212523590E+02 -0.28403997959E+02  0.42600260659E+02  0.51100000000E-03 0. -1.
        -11    1    3    3    0    0 -0.10977395309E+01 -0.31939960372E+01  0.92237072167E+01  0.98225973064E+01  0.51100000000E-03 0.  1.
        -12    1    3    3    0    0  0.29823483069E+02 -0.10638104797E+02  0.20247022305E+02  0.37583923801E+02  0.00000000000E+00 0.  1.
</event>
<event>
 7    1  0.2148778E-015  0.9000774E+02  0.7816164E-02  0.1186339E+00
        -11   -1    0    0    0    0  0.00000000000E+00  0.00000000000E+00  0.45593999997E+02  0.45594000000E+02  0.51100000000E-03 0.  1.
         11   -1    0    0    0    0 -0.00000000000E+00 -0.00000000000E+00 -0.45593999997E+02  0.45594000000E+02  0.51100000000E-03 0. -1.
    9900012    2    1    2    0    0  0.11252256480E+01 -0.34594663926E+00 -0.84883799050E-01  0.90007738548E+02  0.89999999897E+02 0.  0.
         12    1    1    2    0    0 -0.11252256480E+01  0.34594663926E+00  0.84883799050E-01  0.11802614522E+01  0.00000000000E+00 0. -1.
         11    1    3    3    0    0  0.25081580745E+02 -0.11430668916E+01 -0.30696997650E+02  0.39657256078E+02  0.51100000000E-03 0. -1.
        -11    1    3    3    0    0  0.69150994946E+01  0.33110626916E+01  0.14380994339E+01  0.78006325006E+01  0.51100000000E-03 0.  1.
        -12    1    3    3    0    0 -0.30871454592E+02 -0.25139424393E+01  0.29174014417E+02  0.42549849970E+02  0.00000000000E+00 0.  1.
</event>
<event>
 7    1  0.2148778E-015  0.9000776E+02  0.7816164E-02  0.1186339E+00
        -11   -1    0    0    0    0  0.00000000000E+00  0.00000000000E+00  0.45593999997E+02  0.45594000000E+02  0.51100000000E-03 0.  1.
         11   -1    0    0    0    0 -0.00000000000E+00 -0.00000000000E+00 -0.45593999997E+02  0.45594000000E+02  0.51100000000E-03 0. -1.
    9900012    2    1    2    0    0  0.69407565788E+00  0.85263771764E-01  0.95076754058E+00  0.90007758565E+02  0.90000020178E+02 0.  0.
         12    1    1    2    0    0 -0.69407565788E+00 -0.85263771764E-01 -0.95076754058E+00  0.11802414354E+01  0.00000000000E+00 0. -1.
         11    1    3    3    0    0  0.54841361002E+01  0.63212201138E+01  0.33819386864E+01  0.90261332824E+01  0.51100000000E-03 0. -1.
        -11    1    3    3    0    0  0.11155404220E+02  0.34924667752E+02  0.12736809940E+01  0.36685115843E+02  0.51100000000E-03 0.  1.
         12    1    3    3    0    0 -0.15945464662E+02 -0.41160624094E+02 -0.37048521398E+01  0.44296509439E+02  0.00000000000E+00 0. -1.
</event>
<event>
 7    1  0.2148778E-015  0.9000774E+02  0.7816164E-02  0.1186339E+00
        -11   -1    0    0    0    0  0.00000000000E+00  0.00000000000E+00  0.45593999997E+02  0.45594000000E+02  0.51100000000E-03 0.  1.
         11   -1    0    0    0    0 -0.00000000000E+00 -0.00000000000E+00 -0.45593999997E+02  0.45594000000E+02  0.51100000000E-03 0. -1.
    9900012    2    1    2    0    0 -0.26368494512E-02 -0.91360764468E+00 -0.74721358835E+00  0.90007739847E+02  0.90000001213E+02 0.  0.
         12    1    1    2    0    0  0.26368494512E-02  0.91360764468E+00  0.74721358835E+00  0.11802601527E+01  0.00000000000E+00 0. -1.
         11    1    3    3    0    0  0.10936433290E+02  0.34588646661E+01  0.10069212443E+01  0.11514478214E+02  0.51100000000E-03 0. -1.
        -11    1    3    3    0    0  0.17565062077E+02 -0.29525459231E+02  0.14318840236E+02  0.37219797616E+02  0.51100000000E-03 0.  1.
         12    1    3    3    0    0 -0.28504132217E+02  0.25152986921E+02 -0.16072975068E+02  0.41273464018E+02  0.00000000000E+00 0. -1.
</event>
<event>
 7    1  0.2148778E-015  0.9000766E+02  0.7816164E-02  0.1186339E+00
        -11   -1    0    0    0    0  0.00000000000E+00  0.00000000000E+00  0.45593999997E+02  0.45594000000E+02  0.51100000000E-03 0. -1.
         11   -1    0    0    0    0 -0.00000000000E+00 -0.00000000000E+00 -0.45593999997E+02  0.45594000000E+02  0.51100000000E-03 0.  1.
    9900012    2    1    2    0    0 -0.82928228437E+00 -0.55075374242E+00 -0.63415669275E+00  0.90007663818E+02  0.89999924180E+02 0.  0.
         12    1    1    2    0    0  0.82928228437E+00  0.55075374242E+00  0.63415669275E+00  0.11803361822E+01  0.00000000000E+00 0. -1.
         11    1    3    3    0    0 -0.47700743609E+01 -0.99041131088E+01  0.72129372494E+00  0.11016593429E+02  0.51100000000E-03 0. -1.
        -11    1    3    3    0    0 -0.19982012607E+02  0.36473487650E+02 -0.76433387669E+01  0.42284947167E+02  0.51100000000E-03 0.  1.
         12    1    3    3    0    0  0.23922804684E+02 -0.27120128283E+02  0.62878883492E+01  0.36706123221E+02  0.00000000000E+00 0. -1.
</event>
<event>
 7    1  0.2148778E-015  0.9000776E+02  0.7816164E-02  0.1186339E+00
        -11   -1    0    0    0    0  0.00000000000E+00  0.00000000000E+00  0.45593999997E+02  0.45594000000E+02  0.51100000000E-03 0.  1.
         11   -1    0    0    0    0 -0.00000000000E+00 -0.00000000000E+00 -0.45593999997E+02  0.45594000000E+02  0.51100000000E-03 0. -1.
    9900012    2    1    2    0    0 -0.62449178612E+00 -0.73686943999E-01 -0.99877204064E+00  0.90007760471E+02  0.90000022109E+02 0.  0.
         12    1    1    2    0    0  0.62449178612E+00  0.73686943999E-01  0.99877204064E+00  0.11802395290E+01  0.00000000000E+00 0. -1.
         11    1    3    3    0    0  0.21375874627E+01  0.32510547052E+02  0.21580180859E+02  0.39079523487E+02  0.51100000000E-03 0. -1.
        -11    1    3    3    0    0  0.42355234392E+01  0.53831396479E+01 -0.51491537671E+01  0.85692261058E+01  0.51100000000E-03 0.  1.
        -12    1    3    3    0    0 -0.69976026880E+01 -0.37967373644E+02 -0.17429799132E+02  0.42359010878E+02  0.00000000000E+00 0.  1.
</event>
<event>
 7    1  0.3611777E-015  0.9000767E+02  0.7816164E-02  0.1186339E+00
        -11   -1    0    0    0    0  0.00000000000E+00  0.00000000000E+00  0.45593999997E+02  0.45594000000E+02  0.51100000000E-03 0. -1.
         11   -1    0    0    0    0 -0.00000000000E+00 -0.00000000000E+00 -0.45593999997E+02  0.45594000000E+02  0.51100000000E-03 0.  1.
    9900012    2    1    2    0    0  0.20142463364E+00  0.11367544251E+00 -0.11574452057E+01  0.90007672336E+02  0.89999932811E+02 0.  0.
         12    1    1    2    0    0 -0.20142463364E+00 -0.11367544251E+00  0.11574452057E+01  0.11803276636E+01  0.00000000000E+00 0. -1.
         11    1    3    3    0    0  0.96602180299E+01 -0.23737533195E+01 -0.15213631029E+01  0.10063253110E+02  0.51100000000E-03 0. -1.
        -11    1    3    3    0    0  0.85606969702E+01 -0.14395355436E+02 -0.33840456730E+02  0.37758287868E+02  0.51100000000E-03 0.  1.
         12    1    3    3    0    0 -0.18019490366E+02  0.16882784198E+02  0.34204374627E+02  0.42186131358E+02  0.00000000000E+00 0. -1.
</event>
<event>
 7    1  0.2148778E-015  0.9000765E+02  0.7816164E-02  0.1186339E+00
        -11   -1    0    0    0    0  0.00000000000E+00  0.00000000000E+00  0.45593999997E+02  0.45594000000E+02  0.51100000000E-03 0.  1.
         11   -1    0    0    0    0 -0.00000000000E+00 -0.00000000000E+00 -0.45593999997E+02  0.45594000000E+02  0.51100000000E-03 0. -1.
    9900012    2    1    2    0    0 -0.12915763046E+00  0.46080616455E+00  0.10789868045E+01  0.90007645588E+02  0.89999905709E+02 0.  0.
         12    1    1    2    0    0  0.12915763046E+00 -0.46080616455E+00 -0.10789868045E+01  0.11803544125E+01  0.00000000000E+00 0. -1.
         11    1    3    3    0    0 -0.35066613971E+01  0.86867964645E+01 -0.82210452425E+01  0.12463654846E+02  0.51100000000E-03 0. -1.
        -11    1    3    3    0    0  0.37261302186E+02  0.59863538481E+01  0.14510589825E+02  0.40432638923E+02  0.51100000000E-03 0.  1.
         12    1    3    3    0    0 -0.33883798419E+02 -0.14212344148E+02 -0.52105577778E+01  0.37111351819E+02  0.00000000000E+00 0. -1.
</event>
<event>
 7    1  0.2148778E-015  0.9000756E+02  0.7816164E-02  0.1186339E+00
        -11   -1    0    0    0    0  0.00000000000E+00  0.00000000000E+00  0.45593999997E+02  0.45594000000E+02  0.51100000000E-03 0.  1.
         11   -1    0    0    0    0 -0.00000000000E+00 -0.00000000000E+00 -0.45593999997E+02  0.45594000000E+02  0.51100000000E-03 0. -1.
    9900012    2    1    2    0    0  0.11209330228E+01  0.36044115739E+00  0.83806847376E-01  0.90007562684E+02  0.89999821711E+02 0.  0.
         12    1    1    2    0    0 -0.11209330228E+01 -0.36044115739E+00 -0.83806847376E-01  0.11804373161E+01  0.00000000000E+00 0. -1.
         11    1    3    3    0    0 -0.70829599596E+01 -0.10398660906E+02  0.26390336129E+01  0.12855542349E+02  0.51100000000E-03 0. -1.
        -11    1    3    3    0    0 -0.31657972991E+02  0.17164714873E+02  0.40613914377E+01  0.36240165442E+02  0.51100000000E-03 0.  1.
         12    1    3    3    0    0  0.39861865973E+02 -0.64056128097E+01 -0.66166182032E+01  0.40911854893E+02  0.00000000000E+00 0. -1.
</event>
<event>
 7    1  0.2148778E-015  0.9000776E+02  0.7816164E-02  0.1186339E+00
        -11   -1    0    0    0    0  0.00000000000E+00  0.00000000000E+00  0.45593999997E+02  0.45594000000E+02  0.51100000000E-03 0.  1.
         11   -1    0    0    0    0 -0.00000000000E+00 -0.00000000000E+00 -0.45593999997E+02  0.45594000000E+02  0.51100000000E-03 0. -1.
    9900012    2    1    2    0    0 -0.28640168046E+00 -0.11221409881E+01  0.22746345907E+00  0.90007760217E+02  0.90000021852E+02 0.  0.
         12    1    1    2    0    0  0.28640168046E+00  0.11221409881E+01 -0.22746345907E+00  0.11802397828E+01  0.00000000000E+00 0. -1.
         11    1    3    3    0    0  0.78429291808E+01 -0.32298547806E+01  0.29286809993E+01  0.89733311928E+01  0.51100000000E-03 0. -1.
        -11    1    3    3    0    0 -0.25391687736E+02 -0.32670681503E+02  0.42315390347E+01  0.41593474955E+02  0.51100000000E-03 0.  1.
         12    1    3    3    0    0  0.17262356875E+02  0.34778395295E+02 -0.69327565749E+01  0.39440954070E+02  0.00000000000E+00 0. -1.
</event>
<event>
 7    1  0.2148778E-015  0.9000777E+02  0.7816164E-02  0.1186339E+00
        -11   -1    0    0    0    0  0.00000000000E+00  0.00000000000E+00  0.45593999997E+02  0.45594000000E+02  0.51100000000E-03 0. -1.
         11   -1    0    0    0    0 -0.00000000000E+00 -0.00000000000E+00 -0.45593999997E+02  0.45594000000E+02  0.51100000000E-03 0.  1.
    9900012    2    1    2    0    0  0.21612408550E+00 -0.11585305801E+01 -0.63572886485E-01  0.90007769413E+02  0.90000031170E+02 0.  0.
         12    1    1    2    0    0 -0.21612408550E+00  0.11585305801E+01  0.63572886485E-01  0.11802305865E+01  0.00000000000E+00 0. -1.
         11    1    3    3    0    0  0.33970543269E+01  0.33393388166E+01 -0.72559741410E+01  0.86798803465E+01  0.51100000000E-03 0. -1.
        -11    1    3    3    0    0  0.26348294453E+02  0.90511555056E+01 -0.23639751631E+02  0.36537568255E+02  0.51100000000E-03 0.  1.
         12    1    3    3    0    0 -0.29529224695E+02 -0.13549024902E+02  0.30832152886E+02  0.44790320812E+02  0.00000000000E+00 0. -1.
</event>
<event>
 7    1  0.2148778E-015  0.9000784E+02  0.7816164E-02  0.1186339E+00
        -11   -1    0    0    0    0  0.00000000000E+00  0.00000000000E+00  0.45593999997E+02  0.45594000000E+02  0.51100000000E-03 0. -1.
         11   -1    0    0    0    0 -0.00000000000E+00 -0.00000000000E+00 -0.45593999997E+02  0.45594000000E+02  0.51100000000E-03 0.  1.
    9900012    2    1    2    0    0 -0.39830203721E+00  0.10717364542E+01  0.29242269751E+00  0.90007841293E+02  0.90000103998E+02 0.  0.
         12    1    1    2    0    0  0.39830203721E+00 -0.10717364542E+01 -0.29242269751E+00  0.11801587072E+01  0.00000000000E+00 0. -1.
         11    1    3    3    0    0  0.35065032325E+01  0.77218641446E+01  0.70182780739E+01  0.11008132365E+02  0.51100000000E-03 0. -1.
        -11    1    3    3    0    0 -0.37699160881E+02 -0.18573800839E+02  0.21479598759E+01  0.42081189867E+02  0.51100000000E-03 0.  1.
         12    1    3    3    0    0  0.33794355611E+02  0.11923673148E+02 -0.88738152523E+01  0.36918519061E+02  0.00000000000E+00 0. -1.
</event>
<event>
 7    1  0.2148778E-015  0.9000783E+02  0.7816164E-02  0.1186339E+00
        -11   -1    0    0    0    0  0.00000000000E+00  0.00000000000E+00  0.45593999997E+02  0.45594000000E+02  0.51100000000E-03 0.  1.
         11   -1    0    0    0    0 -0.00000000000E+00 -0.00000000000E+00 -0.45593999997E+02  0.45594000000E+02  0.51100000000E-03 0. -1.
    9900012    2    1    2    0    0 -0.45638226553E+00  0.28668756761E+00  0.10499197072E+01  0.90007828010E+02  0.90000090540E+02 0.  0.
         12    1    1    2    0    0  0.45638226553E+00 -0.28668756761E+00 -0.10499197072E+01  0.11801719897E+01  0.00000000000E+00 0. -1.
         11    1    3    3    0    0 -0.14620693037E+02 -0.31151248698E+02  0.26138281611E+02  0.43213131409E+02  0.51100000000E-03 0. -1.
        -11    1    3    3    0    0 -0.22677363988E+01  0.10262086712E+02 -0.66162790228E+00  0.10530470255E+02  0.51100000000E-03 0.  1.
        -12    1    3    3    0    0  0.16432047170E+02  0.21175849553E+02 -0.24426734001E+02  0.36264226346E+02  0.00000000000E+00 0.  1.
</event>
<event>
 8    1  0.2148778E-015  0.9000780E+02  0.7816164E-02  0.1186339E+00
        -11   -1    0    0    0    0  0.00000000000E+00  0.00000000000E+00  0.45593999997E+02  0.45594000000E+02  0.51100000000E-03 0. -1.
         11   -1    0    0    0    0 -0.00000000000E+00 -0.00000000000E+00 -0.45593999997E+02  0.45594000000E+02  0.51100000000E-03 0.  1.
    9900012    2    1    2    0    0 -0.56763104350E+00 -0.18788104947E+00 -0.10175354981E+01  0.90007795450E+02  0.90000057550E+02 0.  0.
         23    2    3    3    0    0 -0.23386584907E+02  0.12104566784E+02  0.16296636018E+01  0.63953686518E+02  0.58257749057E+02 0.  0.
         12    1    1    2    0    0  0.56763104350E+00  0.18788104947E+00  0.10175354981E+01  0.11802045501E+01  0.00000000000E+00 0. -1.
         11    1    4    4    0    0 -0.30287315740E+02 -0.10115585493E+02  0.16894904674E+02  0.36125951459E+02  0.51100000000E-03 0. -1.
        -11    1    4    4    0    0  0.69007308331E+01  0.22220152277E+02 -0.15265241073E+02  0.27827735059E+02  0.51100000000E-03 0.  1.
        -12    1    3    3    0    0  0.22818953863E+02 -0.12292447833E+02 -0.26471990998E+01  0.26054108932E+02  0.00000000000E+00 0.  1.
</event>
<event>
 7    1  0.2148778E-015  0.9000775E+02  0.7816164E-02  0.1186339E+00
        -11   -1    0    0    0    0  0.00000000000E+00  0.00000000000E+00  0.45593999997E+02  0.45594000000E+02  0.51100000000E-03 0.  1.
         11   -1    0    0    0    0 -0.00000000000E+00 -0.00000000000E+00 -0.45593999997E+02  0.45594000000E+02  0.51100000000E-03 0. -1.
    9900012    2    1    2    0    0 -0.87024632058E+00 -0.33721921026E+00  0.72246087624E+00  0.90007747835E+02  0.90000009307E+02 0.  0.
         12    1    1    2    0    0  0.87024632058E+00  0.33721921026E+00 -0.72246087624E+00  0.11802521646E+01  0.00000000000E+00 0. -1.
         11    1    3    3    0    0  0.19405464558E+02  0.27882794809E+02 -0.13691671073E+01  0.33998484082E+02  0.51100000000E-03 0. -1.
        -11    1    3    3    0    0  0.35678201594E+01  0.93251941431E+01 -0.46685395759E+01  0.11021971173E+02  0.51100000000E-03 0.  1.
        -12    1    3    3    0    0 -0.23843531038E+02 -0.37545208162E+02  0.67601675594E+01  0.44987292581E+02  0.00000000000E+00 0.  1.
</event>
<event>
 7    1  0.2148778E-015  0.9000738E+02  0.7816164E-02  0.1186340E+00
        -11   -1    0    0    0    0  0.00000000000E+00  0.00000000000E+00  0.45593999997E+02  0.45594000000E+02  0.51100000000E-03 0.  1.
         11   -1    0    0    0    0 -0.00000000000E+00 -0.00000000000E+00 -0.45593999997E+02  0.45594000000E+02  0.51100000000E-03 0. -1.
    9900012    2    1    2    0    0  0.98769293382E+00 -0.27202313895E-01  0.64621025836E+00  0.90007379402E+02  0.89999636010E+02 0.  0.
         12    1    1    2    0    0 -0.98769293382E+00  0.27202313895E-01 -0.64621025836E+00  0.11806205976E+01  0.00000000000E+00 0. -1.
         11    1    3    3    0    0 -0.11913826734E+02  0.79339230949E+01 -0.21239465769E+01  0.14470575402E+02  0.51100000000E-03 0. -1.
        -11    1    3    3    0    0  0.37998560748E+01  0.31618414384E+02 -0.92866499116E+01  0.33172351457E+02  0.51100000000E-03 0.  1.
         12    1    3    3    0    0  0.91016635933E+01 -0.39579539793E+02  0.12056806747E+02  0.42364452544E+02  0.00000000000E+00 0. -1.
</event>
<event>
 7    1  0.2148778E-015  0.9000770E+02  0.7816164E-02  0.1186339E+00
        -11   -1    0    0    0    0  0.00000000000E+00  0.00000000000E+00  0.45593999997E+02  0.45594000000E+02  0.51100000000E-03 0.  1.
         11   -1    0    0    0    0 -0.00000000000E+00 -0.00000000000E+00 -0.45593999997E+02  0.45594000000E+02  0.51100000000E-03 0. -1.
    9900012    2    1    2    0    0  0.71888118198E+00 -0.90731141227E+00 -0.23045850777E+00  0.90007696956E+02  0.89999957755E+02 0.  0.
         12    1    1    2    0    0 -0.71888118198E+00  0.90731141227E+00  0.23045850777E+00  0.11803030443E+01  0.00000000000E+00 0. -1.
         11    1    3    3    0    0  0.74959235253E+01  0.38750993726E+01  0.24841999477E+01  0.87963921176E+01  0.51100000000E-03 0. -1.
        -11    1    3    3    0    0  0.17246360677E+02  0.30016252004E+02  0.11691508534E+02  0.36539071047E+02  0.51100000000E-03 0.  1.
         12    1    3    3    0    0 -0.24023403020E+02 -0.34798662788E+02 -0.14406166990E+02  0.44672233791E+02  0.00000000000E+00 0. -1.
</event>
<event>
 7    1  0.2148778E-015  0.9000767E+02  0.7816164E-02  0.1186339E+00
        -11   -1    0    0    0    0  0.00000000000E+00  0.00000000000E+00  0.45593999997E+02  0.45594000000E+02  0.51100000000E-03 0. -1.
         11   -1    0    0    0    0 -0.00000000000E+00 -0.00000000000E+00 -0.45593999997E+02  0.45594000000E+02  0.51100000000E-03 0.  1.
    9900012    2    1    2    0    0  0.13067384912E+00 -0.19622254905E+00 -0.11565445629E+01  0.90007671965E+02  0.89999932435E+02 0.  0.
         12    1    1    2    0    0 -0.13067384912E+00  0.19622254905E+00  0.11565445629E+01  0.11803280347E+01  0.00000000000E+00 0. -1.
         11    1    3    3    0    0 -0.26063766507E+02 -0.11292810127E+01  0.23871084547E+02  0.35361333089E+02  0.51100000000E-03 0. -1.
        -11    1    3    3    0    0 -0.99167367173E+01  0.66544806357E+01 -0.48815065633E+01  0.12901662150E+02  0.51100000000E-03 0.  1.
        -12    1    3    3    0    0  0.36111177073E+02 -0.57214221721E+01 -0.20146122547E+02  0.41744676726E+02  0.00000000000E+00 0.  1.
</event>
<event>
 7    1  0.2148778E-015  0.9000771E+02  0.7816164E-02  0.1186339E+00
        -11   -1    0    0    0    0  0.00000000000E+00  0.00000000000E+00  0.45593999997E+02  0.45594000000E+02  0.51100000000E-03 0.  1.
         11   -1    0    0    0    0 -0.00000000000E+00 -0.00000000000E+00 -0.45593999997E+02  0.45594000000E+02  0.51100000000E-03 0. -1.
    9900012    2    1    2    0    0 -0.10353848597E+01 -0.31415920085E+00  0.47156913130E+00  0.90007705436E+02  0.89999966348E+02 0.  0.
         12    1    1    2    0    0  0.10353848597E+01  0.31415920085E+00 -0.47156913130E+00  0.11802945636E+01  0.00000000000E+00 0. -1.
         11    1    3    3    0    0 -0.49160788243E+01 -0.91348737325E+01  0.75910304995E+00  0.10401441574E+02  0.51100000000E-03 0. -1.
        -11    1    3    3    0    0 -0.23338572367E+02  0.14327770054E+02  0.28556926666E+02  0.39566046248E+02  0.51100000000E-03 0.  1.
         12    1    3    3    0    0  0.27219266331E+02 -0.55070555221E+01 -0.28844460585E+02  0.40040217614E+02  0.00000000000E+00 0. -1.
</event>
<event>
 7    1  0.2148778E-015  0.9000779E+02  0.7816164E-02  0.1186339E+00
        -11   -1    0    0    0    0  0.00000000000E+00  0.00000000000E+00  0.45593999997E+02  0.45594000000E+02  0.51100000000E-03 0.  1.
         11   -1    0    0    0    0 -0.00000000000E+00 -0.00000000000E+00 -0.45593999997E+02  0.45594000000E+02  0.51100000000E-03 0. -1.
    9900012    2    1    2    0    0 -0.40273202434E+00 -0.10881179301E+01  0.21613294211E+00  0.90007785120E+02  0.90000047084E+02 0.  0.
         12    1    1    2    0    0  0.40273202434E+00  0.10881179301E+01 -0.21613294211E+00  0.11802148796E+01  0.00000000000E+00 0. -1.
         11    1    3    3    0    0 -0.20011260305E+01 -0.22804452328E+02 -0.36067570820E+02  0.42719049808E+02  0.51100000000E-03 0. -1.
        -11    1    3    3    0    0 -0.73876732158E+01  0.26044373416E+01  0.42280982536E+01  0.89015518036E+01  0.51100000000E-03 0.  1.
        -12    1    3    3    0    0  0.89860672219E+01  0.19111897057E+02  0.32055605508E+02  0.38387183509E+02  0.00000000000E+00 0.  1.
</event>
<event>
 7    1  0.2148778E-015  0.9000769E+02  0.7816164E-02  0.1186339E+00
        -11   -1    0    0    0    0  0.00000000000E+00  0.00000000000E+00  0.45593999997E+02  0.45594000000E+02  0.51100000000E-03 0. -1.
         11   -1    0    0    0    0 -0.00000000000E+00 -0.00000000000E+00 -0.45593999997E+02  0.45594000000E+02  0.51100000000E-03 0.  1.
    9900012    2    1    2    0    0  0.63059438223E+00 -0.44528096896E+00 -0.89287009027E+00  0.90007685883E+02  0.89999946537E+02 0.  0.
         12    1    1    2    0    0 -0.63059438223E+00  0.44528096896E+00  0.89287009027E+00  0.11803141168E+01  0.00000000000E+00 0. -1.
         11    1    3    3    0    0 -0.18184474126E+01 -0.18610135676E+02  0.98972292079E+01  0.21156536747E+02  0.51100000000E-03 0. -1.
        -11    1    3    3    0    0  0.24601431039E+02 -0.14353034062E+02 -0.69487000232E+01  0.29317647045E+02  0.51100000000E-03 0.  1.
         12    1    3    3    0    0 -0.22152389244E+02  0.32517888769E+02 -0.38413992750E+01  0.39533502091E+02  0.00000000000E+00 0. -1.
</event>
<event>
 7    1  0.2148778E-015  0.9000766E+02  0.7816164E-02  0.1186339E+00
        -11   -1    0    0    0    0  0.00000000000E+00  0.00000000000E+00  0.45593999997E+02  0.45594000000E+02  0.51100000000E-03 0.  1.
         11   -1    0    0    0    0 -0.00000000000E+00 -0.00000000000E+00 -0.45593999997E+02  0.45594000000E+02  0.51100000000E-03 0. -1.
    9900012    2    1    2    0    0 -0.65768446317E+00  0.90619367670E+00 -0.37344739470E+00  0.90007661578E+02  0.89999921911E+02 0.  0.
         12    1    1    2    0    0  0.65768446317E+00 -0.90619367670E+00  0.37344739470E+00  0.11803384215E+01  0.00000000000E+00 0. -1.
         11    1    3    3    0    0 -0.24501210382E+02 -0.27542775697E+02 -0.81513851612E+00  0.36872459293E+02  0.51100000000E-03 0. -1.
        -11    1    3    3    0    0  0.19559835165E+01 -0.92735974362E+01  0.89956176941E+00  0.95202254471E+01  0.51100000000E-03 0.  1.
        -12    1    3    3    0    0  0.21887542402E+02  0.37722566810E+02 -0.45787064799E+00  0.43614976839E+02  0.00000000000E+00 0.  1.
</event>
<event>
 7    1  0.2148778E-015  0.9000775E+02  0.7816164E-02  0.1186339E+00
        -11   -1    0    0    0    0  0.00000000000E+00  0.00000000000E+00  0.45593999997E+02  0.45594000000E+02  0.51100000000E-03 0.  1.
         11   -1    0    0    0    0 -0.00000000000E+00 -0.00000000000E+00 -0.45593999997E+02  0.45594000000E+02  0.51100000000E-03 0. -1.
    9900012    2    1    2    0    0  0.86946232066E+00 -0.76032022678E+00  0.24276503821E+00  0.90007751535E+02  0.90000013056E+02 0.  0.
         12    1    1    2    0    0 -0.86946232066E+00  0.76032022678E+00 -0.24276503821E+00  0.11802484646E+01  0.00000000000E+00 0. -1.
         11    1    3    3    0    0  0.96155888973E+01  0.28216718710E+00  0.31602698659E+01  0.10125535741E+02  0.51100000000E-03 0. -1.
        -11    1    3    3    0    0  0.72970466610E+01  0.23431581624E+02 -0.30854440116E+02  0.39424388169E+02  0.51100000000E-03 0.  1.
         12    1    3    3    0    0 -0.16043173238E+02 -0.24474069038E+02  0.27936935288E+02  0.40457827625E+02  0.00000000000E+00 0. -1.
</event>
<event>
 7    1  0.2148778E-015  0.9000772E+02  0.7816164E-02  0.1186339E+00
        -11   -1    0    0    0    0  0.00000000000E+00  0.00000000000E+00  0.45593999997E+02  0.45594000000E+02  0.51100000000E-03 0.  1.
         11   -1    0    0    0    0 -0.00000000000E+00 -0.00000000000E+00 -0.45593999997E+02  0.45594000000E+02  0.51100000000E-03 0. -1.
    9900012    2    1    2    0    0  0.11070616573E+01 -0.17673515484E+00 -0.36911086791E+00  0.90007718821E+02  0.89999979910E+02 0.  0.
         12    1    1    2    0    0 -0.11070616573E+01  0.17673515484E+00  0.36911086791E+00  0.11802811787E+01  0.00000000000E+00 0. -1.
         11    1    3    3    0    0  0.32555918808E+02  0.38775666038E+01 -0.24484368354E+02  0.40919526710E+02  0.51100000000E-03 0. -1.
        -11    1    3    3    0    0 -0.34846570932E+01 -0.75877493324E+01 -0.40161827104E+01  0.92653385698E+01  0.51100000000E-03 0.  1.
        -12    1    3    3    0    0 -0.27964200058E+02  0.35334475737E+01  0.28131440197E+02  0.39822853541E+02  0.00000000000E+00 0.  1.
</event>
<event>
 7    1  0.2148778E-015  0.9000776E+02  0.7816164E-02  0.1186339E+00
        -11   -1    0    0    0    0  0.00000000000E+00  0.00000000000E+00  0.45593999997E+02  0.45594000000E+02  0.51100000000E-03 0.  1.
         11   -1    0    0    0    0 -0.00000000000E+00 -0.00000000000E+00 -0.45593999997E+02  0.45594000000E+02  0.51100000000E-03 0. -1.
    9900012    2    1    2    0    0  0.80708147707E+00 -0.62216536525E+00  0.59538989758E+00  0.90007762997E+02  0.90000024669E+02 0.  0.
         12    1    1    2    0    0 -0.80708147707E+00  0.62216536525E+00 -0.59538989758E+00  0.11802370027E+01  0.00000000000E+00 0. -1.
         11    1    3    3    0    0  0.19841520640E+02  0.21197198678E+02  0.67641436800E+01  0.29812091726E+02  0.51100000000E-03 0. -1.
        -11    1    3    3    0    0 -0.69210434249E+01  0.11522982289E+02  0.13983754211E+02  0.19396529200E+02  0.51100000000E-03 0.  1.
         12    1    3    3    0    0 -0.12113395738E+02 -0.33342346333E+02 -0.20152507993E+02  0.40799142071E+02  0.00000000000E+00 0. -1.
</event>
<event>
 7    1  0.2148778E-015  0.9000776E+02  0.7816164E-02  0.1186339E+00
        -11   -1    0    0    0    0  0.00000000000E+00  0.00000000000E+00  0.45593999997E+02  0.45594000000E+02  0.51100000000E-03 0. -1.
         11   -1    0    0    0    0 -0.00000000000E+00 -0.00000000000E+00 -0.45593999997E+02  0.45594000000E+02  0.51100000000E-03 0.  1.
    9900012    2    1    2    0    0  0.57057997223E+00 -0.93338625449E+00  0.44293340730E+00  0.90007762139E+02  0.90000023799E+02 0.  0.
         12    1    1    2    0    0 -0.57057997223E+00  0.93338625449E+00 -0.44293340730E+00  0.11802378608E+01  0.00000000000E+00 0. -1.
         11    1    3    3    0    0 -0.28112594860E+02 -0.20786357647E+02 -0.26728563512E+01  0.35064723232E+02  0.51100000000E-03 0. -1.
        -11    1    3    3    0    0 -0.89179567385E+01 -0.44600984857E+01  0.18946819461E+01  0.10149495102E+02  0.51100000000E-03 0.  1.
        -12    1    3    3    0    0  0.37601131571E+02  0.24313069879E+02  0.12211078123E+01  0.44793543805E+02  0.00000000000E+00 0.  1.
</event>
<event>
 7    1  0.2148778E-015  0.9000774E+02  0.7816164E-02  0.1186339E+00
        -11   -1    0    0    0    0  0.00000000000E+00  0.00000000000E+00  0.45593999997E+02  0.45594000000E+02  0.51100000000E-03 0. -1.
         11   -1    0    0    0    0 -0.00000000000E+00 -0.00000000000E+00 -0.45593999997E+02  0.45594000000E+02  0.51100000000E-03 0.  1.
    9900012    2    1    2    0    0 -0.72815425467E+00 -0.48136278408E+00 -0.79441850315E+00  0.90007737526E+02  0.89999998862E+02 0.  0.
         12    1    1    2    0    0  0.72815425467E+00  0.48136278408E+00  0.79441850315E+00  0.11802624736E+01  0.00000000000E+00 0. -1.
         11    1    3    3    0    0  0.39021304400E+02 -0.68140592916E+01  0.14194912275E+02  0.42078368979E+02  0.51100000000E-03 0. -1.
        -11    1    3    3    0    0 -0.65099434655E+01  0.40801581061E+01  0.49150412175E+01  0.91205638272E+01  0.51100000000E-03 0.  1.
        -12    1    3    3    0    0 -0.33239515190E+02  0.22525384015E+01 -0.19904371996E+02  0.38808804721E+02  0.00000000000E+00 0.  1.
</event>
<event>
 7    1  0.2148778E-015  0.9000781E+02  0.7816164E-02  0.1186339E+00
        -11   -1    0    0    0    0  0.00000000000E+00  0.00000000000E+00  0.45593999997E+02  0.45594000000E+02  0.51100000000E-03 0.  1.
         11   -1    0    0    0    0 -0.00000000000E+00 -0.00000000000E+00 -0.45593999997E+02  0.45594000000E+02  0.51100000000E-03 0. -1.
    9900012    2    1    2    0    0  0.22959303196E+00 -0.11575486569E+01  0.14565050353E-01  0.90007811882E+02  0.90000074199E+02 0.  0.
         12    1    1    2    0    0 -0.22959303196E+00  0.11575486569E+01 -0.14565050353E-01  0.11801881181E+01  0.00000000000E+00 0. -1.
         11    1    3    3    0    0  0.20171901728E+01 -0.57337570495E+01  0.68971470041E+01  0.91932400791E+01  0.51100000000E-03 0. -1.
        -11    1    3    3    0    0  0.21280958569E+01  0.18152310213E+02  0.33428703804E+02  0.38098732214E+02  0.51100000000E-03 0.  1.
         12    1    3    3    0    0 -0.39156929977E+01 -0.13576101820E+02 -0.40311285758E+02  0.42715839589E+02  0.00000000000E+00 0. -1.
</event>
<event>
 7    1  0.2148778E-015  0.9000782E+02  0.7816164E-02  0.1186339E+00
        -11   -1    0    0    0    0  0.00000000000E+00  0.00000000000E+00  0.45593999997E+02  0.45594000000E+02  0.51100000000E-03 0. -1.
         11   -1    0    0    0    0 -0.00000000000E+00 -0.00000000000E+00 -0.45593999997E+02  0.45594000000E+02  0.51100000000E-03 0.  1.
    9900012    2    1    2    0    0 -0.17334555492E+00 -0.11666658315E+01 -0.40837691053E-01  0.90007819691E+02  0.90000082111E+02 0.  0.
         12    1    1    2    0    0  0.17334555492E+00  0.11666658315E+01  0.40837691053E-01  0.11801803086E+01  0.00000000000E+00 0. -1.
         11    1    3    3    0    0  0.35987947484E+02  0.12162937705E+02  0.26806006287E+01  0.38082214191E+02  0.51100000000E-03 0. -1.
        -11    1    3    3    0    0  0.53400889362E+01 -0.81138681903E+01 -0.27591702101E+01  0.10097743677E+02  0.51100000000E-03 0.  1.
        -12    1    3    3    0    0 -0.41501381975E+02 -0.52157353458E+01  0.37731890282E-01  0.41827861823E+02  0.00000000000E+00 0.  1.
</event>
<event>
 7    1  0.2148778E-015  0.9000772E+02  0.7816164E-02  0.1186339E+00
        -11   -1    0    0    0    0  0.00000000000E+00  0.00000000000E+00  0.45593999997E+02  0.45594000000E+02  0.51100000000E-03 0. -1.
         11   -1    0    0    0    0 -0.00000000000E+00 -0.00000000000E+00 -0.45593999997E+02  0.45594000000E+02  0.51100000000E-03 0.  1.
    9900012    2    1    2    0    0 -0.54423521876E+00 -0.91801247538E+00 -0.50411266771E+00  0.90007716788E+02  0.89999977850E+02 0.  0.
         12    1    1    2    0    0  0.54423521876E+00  0.91801247538E+00  0.50411266771E+00  0.11802832118E+01  0.00000000000E+00 0. -1.
         11    1    3    3    0    0  0.83072869797E+01 -0.86266913085E+01 -0.47526662646E+01  0.12884822730E+02  0.51100000000E-03 0. -1.
        -11    1    3    3    0    0  0.22880854604E+02 -0.10186684639E+02 -0.21093372765E+02  0.32744960318E+02  0.51100000000E-03 0.  1.
         12    1    3    3    0    0 -0.31732376802E+02  0.17895363472E+02  0.25341926362E+02  0.44377933741E+02  0.00000000000E+00 0. -1.
</event>
<event>
 8    1  0.2148778E-015  0.9000771E+02  0.7816164E-02  0.1186339E+00
        -11   -1    0    0    0    0  0.00000000000E+00  0.00000000000E+00  0.45593999997E+02  0.45594000000E+02  0.51100000000E-03 0. -1.
         11   -1    0    0    0    0 -0.00000000000E+00 -0.00000000000E+00 -0.45593999997E+02  0.45594000000E+02  0.51100000000E-03 0.  1.
    9900012    2    1    2    0    0  0.50127026149E+00 -0.22286512437E+00 -0.10450562248E+01  0.90007710522E+02  0.89999971501E+02 0.  0.
         23    2    3    3    0    0 -0.13163609689E+02  0.20224212780E+02 -0.13176668685E+02  0.62585311653E+02  0.56222746593E+02 0.  0.
         12    1    1    2    0    0 -0.50127026149E+00  0.22286512437E+00  0.10450562248E+01  0.11802894779E+01  0.00000000000E+00 0. -1.
         11    1    4    4    0    0  0.14561597051E+02 -0.11807687243E+02 -0.54377275520E+01  0.19520001739E+02  0.51100000000E-03 0. -1.
        -11    1    4    4    0    0 -0.27725206739E+02  0.32031900023E+02 -0.77389411326E+01  0.43065309914E+02  0.51100000000E-03 0.  1.
         12    1    3    3    0    0  0.13664879950E+02 -0.20447077904E+02  0.12131612460E+02  0.27422398869E+02  0.00000000000E+00 0. -1.
</event>
<event>
 7    1  0.2148778E-015  0.9000774E+02  0.7816164E-02  0.1186339E+00
        -11   -1    0    0    0    0  0.00000000000E+00  0.00000000000E+00  0.45593999997E+02  0.45594000000E+02  0.51100000000E-03 0.  1.
         11   -1    0    0    0    0 -0.00000000000E+00 -0.00000000000E+00 -0.45593999997E+02  0.45594000000E+02  0.51100000000E-03 0. -1.
    9900012    2    1    2    0    0 -0.96584305268E-01 -0.11392556824E+01  0.29290030735E+00  0.90007736204E+02  0.89999997522E+02 0.  0.
         12    1    1    2    0    0  0.96584305268E-01  0.11392556824E+01 -0.29290030735E+00  0.11802637959E+01  0.00000000000E+00 0. -1.
         11    1    3    3    0    0  0.26888068136E+02 -0.13665275079E+02 -0.23359098548E+02  0.38149121043E+02  0.51100000000E-03 0. -1.
        -11    1    3    3    0    0  0.16679699347E+01 -0.73229059079E+01 -0.28900032994E+01  0.80473097350E+01  0.51100000000E-03 0.  1.
        -12    1    3    3    0    0 -0.28652622376E+02  0.19848925305E+02  0.26542002155E+02  0.43811305426E+02  0.00000000000E+00 0.  1.
</event>
<event>
 7    1  0.2148778E-015  0.9000771E+02  0.7816164E-02  0.1186339E+00
        -11   -1    0    0    0    0  0.00000000000E+00  0.00000000000E+00  0.45593999997E+02  0.45594000000E+02  0.51100000000E-03 0.  1.
         11   -1    0    0    0    0 -0.00000000000E+00 -0.00000000000E+00 -0.45593999997E+02  0.45594000000E+02  0.51100000000E-03 0. -1.
    9900012    2    1    2    0    0  0.49621102264E+00  0.70569075714E-01  0.10685838279E+01  0.90007713268E+02  0.89999974283E+02 0.  0.
         12    1    1    2    0    0 -0.49621102264E+00 -0.70569075714E-01 -0.10685838279E+01  0.11802867324E+01  0.00000000000E+00 0. -1.
         11    1    3    3    0    0 -0.32965881988E+01  0.21642955072E+01  0.80633227503E+01  0.89760148636E+01  0.51100000000E-03 0. -1.
        -11    1    3    3    0    0  0.85027975583E+01  0.30477796590E+02 -0.27780951431E+02  0.42106708658E+02  0.51100000000E-03 0.  1.
         12    1    3    3    0    0 -0.47099983369E+01 -0.32571523022E+02  0.20786212509E+02  0.38924989746E+02  0.00000000000E+00 0. -1.
</event>
<event>
 7    1  0.2148778E-015  0.9000783E+02  0.7816164E-02  0.1186339E+00
        -11   -1    0    0    0    0  0.00000000000E+00  0.00000000000E+00  0.45593999997E+02  0.45594000000E+02  0.51100000000E-03 0.  1.
         11   -1    0    0    0    0 -0.00000000000E+00 -0.00000000000E+00 -0.45593999997E+02  0.45594000000E+02  0.51100000000E-03 0. -1.
    9900012    2    1    2    0    0  0.11677918924E+01  0.16566792558E+00 -0.40286364087E-01  0.90007827658E+02  0.90000090183E+02 0.  0.
         12    1    1    2    0    0 -0.11677918924E+01 -0.16566792558E+00  0.40286364087E-01  0.11801723419E+01  0.00000000000E+00 0. -1.
         11    1    3    3    0    0  0.12204568905E+01  0.21844009295E+01 -0.72421812633E+01  0.76622654714E+01  0.51100000000E-03 0. -1.
        -11    1    3    3    0    0 -0.34156239662E+02 -0.38662493196E+01  0.26239223959E+02  0.43244577300E+02  0.51100000000E-03 0.  1.
         12    1    3    3    0    0  0.34103574663E+02  0.18475163156E+01 -0.19037329060E+02  0.39100984887E+02  0.00000000000E+00 0. -1.
</event>
<event>
 7    1  0.2148778E-015  0.9000781E+02  0.7816164E-02  0.1186339E+00
        -11   -1    0    0    0    0  0.00000000000E+00  0.00000000000E+00  0.45593999997E+02  0.45594000000E+02  0.51100000000E-03 0. -1.
         11   -1    0    0    0    0 -0.00000000000E+00 -0.00000000000E+00 -0.45593999997E+02  0.45594000000E+02  0.51100000000E-03 0.  1.
    9900012    2    1    2    0    0 -0.11344649421E+01 -0.31568945624E+00  0.78580370602E-01  0.90007811281E+02  0.90000073590E+02 0.  0.
         12    1    1    2    0    0  0.11344649421E+01  0.31568945624E+00 -0.78580370602E-01  0.11801887189E+01  0.00000000000E+00 0. -1.
         11    1    3    3    0    0 -0.14597514940E+02  0.57921322869E+01  0.38334347480E+02  0.41426542649E+02  0.51100000000E-03 0. -1.
        -11    1    3    3    0    0  0.59958154608E+01 -0.39923979721E+01  0.20862917946E+01  0.74994438674E+01  0.51100000000E-03 0.  1.
        -12    1    3    3    0    0  0.74672345370E+01 -0.21154237711E+01 -0.40342058904E+02  0.41081824765E+02  0.00000000000E+00 0.  1.
</event>
<event>
 7    1  0.2148778E-015  0.9000773E+02  0.7816164E-02  0.1186339E+00
        -11   -1    0    0    0    0  0.00000000000E+00  0.00000000000E+00  0.45593999997E+02  0.45594000000E+02  0.51100000000E-03 0. -1.
         11   -1    0    0    0    0 -0.00000000000E+00 -0.00000000000E+00 -0.45593999997E+02  0.45594000000E+02  0.51100000000E-03 0.  1.
    9900012    2    1    2    0    0  0.70761697194E+00 -0.60446163708E+00 -0.72591354316E+00  0.90007726251E+02  0.89999987438E+02 0.  0.
         12    1    1    2    0    0 -0.70761697194E+00  0.60446163708E+00  0.72591354316E+00  0.11802737487E+01  0.00000000000E+00 0. -1.
         11    1    3    3    0    0 -0.35026660484E+01  0.97403561696E+01  0.65084159925E+01  0.12227129130E+02  0.51100000000E-03 0. -1.
        -11    1    3    3    0    0 -0.20737314095E+02  0.47843568482E+01 -0.32725454720E+02  0.39036926790E+02  0.51100000000E-03 0.  1.
         12    1    3    3    0    0  0.24947597115E+02 -0.15129174655E+02  0.25491125185E+02  0.38743670331E+02  0.00000000000E+00 0. -1.
</event>
<event>
 7    1  0.2148778E-015  0.9000785E+02  0.7816164E-02  0.1186339E+00
        -11   -1    0    0    0    0  0.00000000000E+00  0.00000000000E+00  0.45593999997E+02  0.45594000000E+02  0.51100000000E-03 0. -1.
         11   -1    0    0    0    0 -0.00000000000E+00 -0.00000000000E+00 -0.45593999997E+02  0.45594000000E+02  0.51100000000E-03 0.  1.
    9900012    2    1    2    0    0  0.27252336155E+00 -0.46122096919E+00 -0.10515556824E+01  0.90007846146E+02  0.90000108915E+02 0.  0.
         12    1    1    2    0    0 -0.27252336155E+00  0.46122096919E+00  0.10515556824E+01  0.11801538537E+01  0.00000000000E+00 0. -1.
         11    1    3    3    0    0 -0.16352548313E+02 -0.12915609697E+02  0.28706111909E+02  0.35471956126E+02  0.51100000000E-03 0. -1.
        -11    1    3    3    0    0 -0.11268903989E+02  0.41267091194E+01  0.11765091101E+01  0.12058279281E+02  0.51100000000E-03 0.  1.
        -12    1    3    3    0    0  0.27893975663E+02  0.83276796083E+01 -0.30934176702E+02  0.42477610740E+02  0.00000000000E+00 0.  1.
</event>
<event>
 7    1  0.2148778E-015  0.9000826E+02  0.7816164E-02  0.1186338E+00
        -11   -1    0    0    0    0  0.00000000000E+00  0.00000000000E+00  0.45593999997E+02  0.45594000000E+02  0.51100000000E-03 0.  1.
         11   -1    0    0    0    0 -0.00000000000E+00 -0.00000000000E+00 -0.45593999997E+02  0.45594000000E+02  0.51100000000E-03 0. -1.
    9900012    2    1    2    0    0  0.42097063805E+00 -0.10403768858E+01  0.36358444692E+00  0.90008256811E+02  0.90000524999E+02 0.  0.
         12    1    1    2    0    0 -0.42097063805E+00  0.10403768858E+01 -0.36358444692E+00  0.11797431893E+01  0.00000000000E+00 0. -1.
         11    1    3    3    0    0  0.12320420801E+01  0.72583963958E+01  0.36385930322E+01  0.82122838139E+01  0.51100000000E-03 0. -1.
        -11    1    3    3    0    0 -0.15919839952E+02 -0.35821694978E+02  0.18740484165E+02  0.43449290929E+02  0.51100000000E-03 0.  1.
         12    1    3    3    0    0  0.15108768510E+02  0.27522921696E+02 -0.22015492751E+02  0.38346682068E+02  0.00000000000E+00 0. -1.
</event>
<event>
 7    1  0.2148778E-015  0.9000784E+02  0.7816164E-02  0.1186339E+00
        -11   -1    0    0    0    0  0.00000000000E+00  0.00000000000E+00  0.45593999997E+02  0.45594000000E+02  0.51100000000E-03 0.  1.
         11   -1    0    0    0    0 -0.00000000000E+00 -0.00000000000E+00 -0.45593999997E+02  0.45594000000E+02  0.51100000000E-03 0. -1.
    9900012    2    1    2    0    0 -0.73080316207E+00  0.41636300522E+00  0.82785702013E+00  0.90007839562E+02  0.90000102244E+02 0.  0.
         12    1    1    2    0    0  0.73080316207E+00 -0.41636300522E+00 -0.82785702013E+00  0.11801604381E+01  0.00000000000E+00 0. -1.
         11    1    3    3    0    0 -0.53627615065E+01 -0.72039633113E+01 -0.35019852863E+01  0.96395124136E+01  0.51100000000E-03 0. -1.
        -11    1    3    3    0    0 -0.17342471623E+01  0.21106655915E+02  0.38022570269E+02  0.43522573307E+02  0.51100000000E-03 0.  1.
         12    1    3    3    0    0  0.63662055067E+01 -0.13486329599E+02 -0.33692727962E+02  0.36845753841E+02  0.00000000000E+00 0. -1.
</event>
<event>
 7    1  0.2148778E-015  0.9000772E+02  0.7816164E-02  0.1186339E+00
        -11   -1    0    0    0    0  0.00000000000E+00  0.00000000000E+00  0.45593999997E+02  0.45594000000E+02  0.51100000000E-03 0.  1.
         11   -1    0    0    0    0 -0.00000000000E+00 -0.00000000000E+00 -0.45593999997E+02  0.45594000000E+02  0.51100000000E-03 0. -1.
    9900012    2    1    2    0    0  0.45488700603E+00  0.32223470118E+00  0.10403421966E+01  0.90007716442E+02  0.89999977499E+02 0.  0.
         12    1    1    2    0    0 -0.45488700603E+00 -0.32223470118E+00 -0.10403421966E+01  0.11802835579E+01  0.00000000000E+00 0. -1.
         11    1    3    3    0    0  0.12558018890E+02  0.33029722679E+02  0.14747307064E+02  0.38290331477E+02  0.51100000000E-03 0. -1.
        -11    1    3    3    0    0  0.30667442090E+01  0.65043219308E+01 -0.50616197575E+01  0.87938113837E+01  0.51100000000E-03 0.  1.
        -12    1    3    3    0    0 -0.15169876093E+02 -0.39211809908E+02 -0.86453451103E+01  0.42923573582E+02  0.00000000000E+00 0.  1.
</event>
<event>
 7    1  0.2148778E-015  0.9000772E+02  0.7816164E-02  0.1186339E+00
        -11   -1    0    0    0    0  0.00000000000E+00  0.00000000000E+00  0.45593999997E+02  0.45594000000E+02  0.51100000000E-03 0. -1.
         11   -1    0    0    0    0 -0.00000000000E+00 -0.00000000000E+00 -0.45593999997E+02  0.45594000000E+02  0.51100000000E-03 0.  1.
    9900012    2    1    2    0    0  0.24405249502E+00 -0.16887221907E+00 -0.11423530188E+01  0.90007724665E+02  0.89999985831E+02 0.  0.
         12    1    1    2    0    0 -0.24405249502E+00  0.16887221907E+00  0.11423530188E+01  0.11802753350E+01  0.00000000000E+00 0. -1.
         11    1    3    3    0    0  0.24046201099E+01  0.97636350880E+01 -0.46351604305E+01  0.11072284339E+02  0.51100000000E-03 0. -1.
        -11    1    3    3    0    0 -0.48670546994E+01  0.27679065422E+02 -0.20012139648E+02  0.34500791551E+02  0.51100000000E-03 0.  1.
         12    1    3    3    0    0  0.27064870845E+01 -0.37611572729E+02  0.23504947060E+02  0.44434648775E+02  0.00000000000E+00 0. -1.
</event>
<event>
 7    1  0.2148778E-015  0.9000780E+02  0.7816164E-02  0.1186339E+00
        -11   -1    0    0    0    0  0.00000000000E+00  0.00000000000E+00  0.45593999997E+02  0.45594000000E+02  0.51100000000E-03 0. -1.
         11   -1    0    0    0    0 -0.00000000000E+00 -0.00000000000E+00 -0.45593999997E+02  0.45594000000E+02  0.51100000000E-03 0.  1.
    9900012    2    1    2    0    0 -0.11318608012E+01  0.32918767805E+00  0.58284578712E-01  0.90007800656E+02  0.90000062824E+02 0.  0.
         12    1    1    2    0    0  0.11318608012E+01 -0.32918767805E+00 -0.58284578712E-01  0.11801993445E+01  0.00000000000E+00 0. -1.
         11    1    3    3    0    0 -0.11200682276E+02  0.21091096455E+01  0.78946715611E+01  0.13864684138E+02  0.51100000000E-03 0. -1.
        -11    1    3    3    0    0  0.37659040607E+02 -0.19710999791E+02 -0.90130030171E+00  0.42515164291E+02  0.51100000000E-03 0.  1.
         12    1    3    3    0    0 -0.27590219133E+02  0.17931077823E+02 -0.69350866807E+01  0.33627952227E+02  0.00000000000E+00 0. -1.
</event>
<event>
 7    1  0.2148778E-015  0.9000741E+02  0.7816164E-02  0.1186340E+00
        -11   -1    0    0    0    0  0.00000000000E+00  0.00000000000E+00  0.45593999997E+02  0.45594000000E+02  0.51100000000E-03 0. -1.
         11   -1    0    0    0    0 -0.00000000000E+00 -0.00000000000E+00 -0.45593999997E+02  0.45594000000E+02  0.51100000000E-03 0.  1.
    9900012    2    1    2    0    0 -0.13670516491E+00 -0.99830693328E+00 -0.61520594228E+00  0.90007413965E+02  0.89999671029E+02 0.  0.
         12    1    1    2    0    0  0.13670516491E+00  0.99830693328E+00  0.61520594228E+00  0.11805860352E+01  0.00000000000E+00 0. -1.
         11    1    3    3    0    0 -0.85955164929E+01  0.72859029425E+00 -0.21463880544E+00  0.86290102373E+01  0.51100000000E-03 0. -1.
        -11    1    3    3    0    0 -0.97428007785E+01  0.36931149217E+02 -0.44747574419E+01  0.38455889067E+02  0.51100000000E-03 0.  1.
         12    1    3    3    0    0  0.18201612107E+02 -0.38658046444E+02  0.40741903050E+01  0.42922514661E+02  0.00000000000E+00 0. -1.
</event>
<event>
 7    1  0.2148778E-015  0.9000766E+02  0.7816164E-02  0.1186339E+00
        -11   -1    0    0    0    0  0.00000000000E+00  0.00000000000E+00  0.45593999997E+02  0.45594000000E+02  0.51100000000E-03 0. -1.
         11   -1    0    0    0    0 -0.00000000000E+00 -0.00000000000E+00 -0.45593999997E+02  0.45594000000E+02  0.51100000000E-03 0.  1.
    9900012    2    1    2    0    0 -0.21622626262E+00  0.87620558244E+00 -0.76073302717E+00  0.90007659050E+02  0.89999919350E+02 0.  0.
         12    1    1    2    0    0  0.21622626262E+00 -0.87620558244E+00  0.76073302717E+00  0.11803409499E+01  0.00000000000E+00 0. -1.
         11    1    3    3    0    0 -0.25498040479E+02 -0.14395569950E+02  0.22202153819E+02  0.36746675182E+02  0.51100000000E-03 0. -1.
        -11    1    3    3    0    0 -0.37841212273E+01 -0.68867833677E+01  0.30191161473E+01  0.84179820140E+01  0.51100000000E-03 0.  1.
        -12    1    3    3    0    0  0.29065935444E+02  0.22158558900E+02 -0.25982002993E+02  0.44843001854E+02  0.00000000000E+00 0.  1.
</event>
<event>
 7    1  0.2148778E-015  0.9000792E+02  0.7816164E-02  0.1186339E+00
        -11   -1    0    0    0    0  0.00000000000E+00  0.00000000000E+00  0.45593999997E+02  0.45594000000E+02  0.51100000000E-03 0.  1.
         11   -1    0    0    0    0 -0.00000000000E+00 -0.00000000000E+00 -0.45593999997E+02  0.45594000000E+02  0.51100000000E-03 0. -1.
    9900012    2    1    2    0    0  0.16244898437E+00  0.11647310103E+01  0.98008950193E-01  0.90007917904E+02  0.90000181620E+02 0.  0.
         12    1    1    2    0    0 -0.16244898437E+00 -0.11647310103E+01 -0.98008950193E-01  0.11800820960E+01  0.00000000000E+00 0. -1.
         11    1    3    3    0    0  0.33624042732E+01 -0.14123703399E+02 -0.31247411198E+02  0.34455557854E+02  0.51100000000E-03 0. -1.
        -11    1    3    3    0    0  0.74295685797E+01  0.17584411675E+01 -0.89340124813E+01  0.11751901289E+02  0.51100000000E-03 0.  1.
        -12    1    3    3    0    0 -0.10629523868E+02  0.13529993242E+02  0.40279432629E+02  0.43800458762E+02  0.00000000000E+00 0.  1.
</event>
<event>
 7    1  0.2148778E-015  0.9000784E+02  0.7816164E-02  0.1186339E+00
        -11   -1    0    0    0    0  0.00000000000E+00  0.00000000000E+00  0.45593999997E+02  0.45594000000E+02  0.51100000000E-03 0. -1.
         11   -1    0    0    0    0 -0.00000000000E+00 -0.00000000000E+00 -0.45593999997E+02  0.45594000000E+02  0.51100000000E-03 0.  1.
    9900012    2    1    2    0    0 -0.20975915811E+00  0.18448948368E-01 -0.11612197397E+01  0.90007842997E+02  0.90000105724E+02 0.  0.
         12    1    1    2    0    0  0.20975915811E+00 -0.18448948368E-01  0.11612197397E+01  0.11801570031E+01  0.00000000000E+00 0. -1.
         11    1    3    3    0    0  0.24096209201E+01  0.87925342878E+01  0.35313857040E+01  0.97767897304E+01  0.51100000000E-03 0. -1.
        -11    1    3    3    0    0  0.38317014911E+02 -0.44267350704E+01  0.15014388476E+01  0.38601087212E+02  0.51100000000E-03 0.  1.
         12    1    3    3    0    0 -0.40936394989E+02 -0.43473502690E+01 -0.61940442913E+01  0.41629966055E+02  0.00000000000E+00 0. -1.
</event>
<event>
 7    1  0.2148778E-015  0.9000772E+02  0.7816164E-02  0.1186339E+00
        -11   -1    0    0    0    0  0.00000000000E+00  0.00000000000E+00  0.45593999997E+02  0.45594000000E+02  0.51100000000E-03 0. -1.
         11   -1    0    0    0    0 -0.00000000000E+00 -0.00000000000E+00 -0.45593999997E+02  0.45594000000E+02  0.51100000000E-03 0.  1.
    9900012    2    1    2    0    0 -0.10631650282E+01  0.28597277815E+00  0.42538221228E+00  0.90007724467E+02  0.89999985630E+02 0.  0.
         12    1    1    2    0    0  0.10631650282E+01 -0.28597277815E+00 -0.42538221228E+00  0.11802755329E+01  0.00000000000E+00 0. -1.
         11    1    3    3    0    0  0.75425394558E+01  0.17996855086E+01 -0.55302948465E+01  0.95243336104E+01  0.51100000000E-03 0. -1.
        -11    1    3    3    0    0 -0.14951916722E+02 -0.26036972152E+02 -0.25991676501E+02  0.39712101180E+02  0.51100000000E-03 0.  1.
         12    1    3    3    0    0  0.63462122383E+01  0.24523259422E+02  0.31947353560E+02  0.40771289677E+02  0.00000000000E+00 0. -1.
</event>
<event>
 7    1  0.2148778E-015  0.9000772E+02  0.7816164E-02  0.1186339E+00
        -11   -1    0    0    0    0  0.00000000000E+00  0.00000000000E+00  0.45593999997E+02  0.45594000000E+02  0.51100000000E-03 0.  1.
         11   -1    0    0    0    0 -0.00000000000E+00 -0.00000000000E+00 -0.45593999997E+02  0.45594000000E+02  0.51100000000E-03 0. -1.
    9900012    2    1    2    0    0  0.27880871507E+00  0.64729160587E+00  0.94674653934E+00  0.90007724722E+02  0.89999985888E+02 0.  0.
         12    1    1    2    0    0 -0.27880871507E+00 -0.64729160587E+00 -0.94674653934E+00  0.11802752782E+01  0.00000000000E+00 0. -1.
         11    1    3    3    0    0  0.29056653351E+01 -0.30601833761E+00  0.79591866516E+01  0.84785134711E+01  0.51100000000E-03 0. -1.
        -11    1    3    3    0    0  0.46514820053E+00  0.40510077375E+02 -0.10034181548E+02  0.41736884544E+02  0.51100000000E-03 0.  1.
         12    1    3    3    0    0 -0.30920048206E+01 -0.39556767432E+02  0.30217414357E+01  0.39792326707E+02  0.00000000000E+00 0. -1.
</event>
<event>
 7    1  0.2148778E-015  0.9000774E+02  0.7816164E-02  0.1186339E+00
        -11   -1    0    0    0    0  0.00000000000E+00  0.00000000000E+00  0.45593999997E+02  0.45594000000E+02  0.51100000000E-03 0.  1.
         11   -1    0    0    0    0 -0.00000000000E+00 -0.00000000000E+00 -0.45593999997E+02  0.45594000000E+02  0.51100000000E-03 0. -1.
    9900012    2    1    2    0    0  0.20866866901E-02 -0.68637717719E+00  0.96015774107E+00  0.90007736948E+02  0.89999998276E+02 0.  0.
         12    1    1    2    0    0 -0.20866866901E-02  0.68637717719E+00 -0.96015774107E+00  0.11802630518E+01  0.00000000000E+00 0. -1.
         11    1    3    3    0    0 -0.32111844652E+02 -0.21906706084E+02  0.19895989081E+02  0.43668349181E+02  0.51100000000E-03 0. -1.
        -11    1    3    3    0    0  0.93522079258E+01  0.23407959765E+01  0.23254656188E+01  0.99172027052E+01  0.51100000000E-03 0.  1.
        -12    1    3    3    0    0  0.22761723413E+02  0.18879532930E+02 -0.21261296958E+02  0.36422185063E+02  0.00000000000E+00 0.  1.
</event>
<event>
 7    1  0.2148778E-015  0.9000833E+02  0.7816164E-02  0.1186338E+00
        -11   -1    0    0    0    0  0.00000000000E+00  0.00000000000E+00  0.45593999997E+02  0.45594000000E+02  0.51100000000E-03 0. -1.
         11   -1    0    0    0    0 -0.00000000000E+00 -0.00000000000E+00 -0.45593999997E+02  0.45594000000E+02  0.51100000000E-03 0.  1.
    9900012    2    1    2    0    0 -0.97124738722E-01 -0.46800480468E+00 -0.10785007565E+01  0.90008328184E+02  0.90000597314E+02 0.  0.
         12    1    1    2    0    0  0.97124738722E-01  0.46800480468E+00  0.10785007565E+01  0.11796718161E+01  0.00000000000E+00 0. -1.
         11    1    3    3    0    0  0.19697542321E+02  0.22839254428E+02  0.16532561068E+02  0.34394044427E+02  0.51100000000E-03 0. -1.
        -11    1    3    3    0    0  0.68128310260E+01  0.87504426955E+01 -0.38548438470E+01  0.11740729760E+02  0.51100000000E-03 0.  1.
        -12    1    3    3    0    0 -0.26607498085E+02 -0.32057701928E+02 -0.13756217977E+02  0.43873553997E+02  0.00000000000E+00 0.  1.
</event>
<event>
 7    1  0.2148778E-015  0.9000772E+02  0.7816164E-02  0.1186339E+00
        -11   -1    0    0    0    0  0.00000000000E+00  0.00000000000E+00  0.45593999997E+02  0.45594000000E+02  0.51100000000E-03 0.  1.
         11   -1    0    0    0    0 -0.00000000000E+00 -0.00000000000E+00 -0.45593999997E+02  0.45594000000E+02  0.51100000000E-03 0. -1.
    9900012    2    1    2    0    0 -0.86205563718E+00  0.50053978911E+00  0.63196982174E+00  0.90007717891E+02  0.89999978967E+02 0.  0.
         12    1    1    2    0    0  0.86205563718E+00 -0.50053978911E+00 -0.63196982174E+00  0.11802821094E+01  0.00000000000E+00 0. -1.
         11    1    3    3    0    0 -0.78497498695E+01 -0.55384866455E+01 -0.50596567882E+01  0.10857878909E+02  0.51100000000E-03 0. -1.
        -11    1    3    3    0    0 -0.25342917313E+02 -0.42348077029E+01  0.28422266742E+02  0.38314779148E+02  0.51100000000E-03 0.  1.
         12    1    3    3    0    0  0.32330611545E+02  0.10273834138E+02 -0.22730640132E+02  0.40835059833E+02  0.00000000000E+00 0. -1.
</event>
<event>
 7    1  0.2148778E-015  0.9000776E+02  0.7816164E-02  0.1186339E+00
        -11   -1    0    0    0    0  0.00000000000E+00  0.00000000000E+00  0.45593999997E+02  0.45594000000E+02  0.51100000000E-03 0.  1.
         11   -1    0    0    0    0 -0.00000000000E+00 -0.00000000000E+00 -0.45593999997E+02  0.45594000000E+02  0.51100000000E-03 0. -1.
    9900012    2    1    2    0    0  0.41529114821E+00  0.11001773054E+01  0.10060116251E+00  0.90007755350E+02  0.90000016920E+02 0.  0.
         12    1    1    2    0    0 -0.41529114821E+00 -0.11001773054E+01 -0.10060116251E+00  0.11802446505E+01  0.00000000000E+00 0. -1.
         11    1    3    3    0    0 -0.88688597451E+01  0.10670743864E+02  0.32888249488E+01  0.14259656994E+02  0.51100000000E-03 0. -1.
        -11    1    3    3    0    0  0.20330053292E+02 -0.38762681200E+02  0.32062249149E+01  0.43887770497E+02  0.51100000000E-03 0.  1.
         12    1    3    3    0    0 -0.11045902399E+02  0.29192114642E+02 -0.63944487012E+01  0.31860327859E+02  0.00000000000E+00 0. -1.
</event>
<event>
 7    1  0.2148778E-015  0.9000779E+02  0.7816164E-02  0.1186339E+00
        -11   -1    0    0    0    0  0.00000000000E+00  0.00000000000E+00  0.45593999997E+02  0.45594000000E+02  0.51100000000E-03 0.  1.
         11   -1    0    0    0    0 -0.00000000000E+00 -0.00000000000E+00 -0.45593999997E+02  0.45594000000E+02  0.51100000000E-03 0. -1.
    9900012    2    1    2    0    0  0.87175851272E-01  0.38847952168E-01  0.11763424872E+01  0.90007792205E+02  0.90000054262E+02 0.  0.
         12    1    1    2    0    0 -0.87175851272E-01 -0.38847952168E-01 -0.11763424872E+01  0.11802077951E+01  0.00000000000E+00 0. -1.
         11    1    3    3    0    0  0.34476993524E+02  0.23715695567E+02 -0.36273710487E+01  0.42003037029E+02  0.51100000000E-03 0. -1.
        -11    1    3    3    0    0 -0.79684036426E+01  0.43600000633E+01  0.24516567922E+01  0.94082771245E+01  0.51100000000E-03 0.  1.
        -12    1    3    3    0    0 -0.26421414030E+02 -0.28036847678E+02  0.23520567437E+01  0.38596478052E+02  0.00000000000E+00 0.  1.
</event>
<event>
 7    1  0.2148778E-015  0.9000772E+02  0.7816164E-02  0.1186339E+00
        -11   -1    0    0    0    0  0.00000000000E+00  0.00000000000E+00  0.45593999997E+02  0.45594000000E+02  0.51100000000E-03 0. -1.
         11   -1    0    0    0    0 -0.00000000000E+00 -0.00000000000E+00 -0.45593999997E+02  0.45594000000E+02  0.51100000000E-03 0.  1.
    9900012    2    1    2    0    0 -0.35985510290E+00  0.10001224832E+01 -0.51315223988E+00  0.90007717874E+02  0.89999978950E+02 0.  0.
         12    1    1    2    0    0  0.35985510290E+00 -0.10001224832E+01  0.51315223988E+00  0.11802821264E+01  0.00000000000E+00 0. -1.
         11    1    3    3    0    0 -0.16848132679E+02  0.21081446589E+02 -0.89244623223E+01  0.28424162135E+02  0.51100000000E-03 0. -1.
        -11    1    3    3    0    0 -0.16737513324E+02 -0.21392533786E+02  0.80498782331E+01  0.28329938120E+02  0.51100000000E-03 0.  1.
         12    1    3    3    0    0  0.33225790900E+02  0.13112096808E+01  0.36143184928E+00  0.33253617619E+02  0.00000000000E+00 0. -1.
</event>
<event>
 7    1  0.2148778E-015  0.9000755E+02  0.7816164E-02  0.1186339E+00
        -11   -1    0    0    0    0  0.00000000000E+00  0.00000000000E+00  0.45593999997E+02  0.45594000000E+02  0.51100000000E-03 0.  1.
         11   -1    0    0    0    0 -0.00000000000E+00 -0.00000000000E+00 -0.45593999997E+02  0.45594000000E+02  0.51100000000E-03 0. -1.
    9900012    2    1    2    0    0  0.23480999784E+00 -0.20585604034E+00  0.11383978010E+01  0.90007550087E+02  0.89999808948E+02 0.  0.
         12    1    1    2    0    0 -0.23480999784E+00  0.20585604034E+00 -0.11383978010E+01  0.11804499133E+01  0.00000000000E+00 0. -1.
         11    1    3    3    0    0 -0.85785921870E+01 -0.35144321918E+02  0.13596174767E+01  0.36201714972E+02  0.51100000000E-03 0. -1.
        -11    1    3    3    0    0 -0.33990997007E+01 -0.82054564730E+01 -0.11590900872E+01  0.89569461758E+01  0.51100000000E-03 0.  1.
        -12    1    3    3    0    0  0.12212501886E+02  0.43143922351E+02  0.93787041150E+00  0.44848888939E+02  0.00000000000E+00 0.  1.
</event>
<event>
 7    1  0.2148778E-015  0.9000776E+02  0.7816164E-02  0.1186339E+00
        -11   -1    0    0    0    0  0.00000000000E+00  0.00000000000E+00  0.45593999997E+02  0.45594000000E+02  0.51100000000E-03 0.  1.
         11   -1    0    0    0    0 -0.00000000000E+00 -0.00000000000E+00 -0.45593999997E+02  0.45594000000E+02  0.51100000000E-03 0. -1.
    9900012    2    1    2    0    0  0.53160128873E+00  0.58317455633E+00 -0.87765280256E+00  0.90007759798E+02  0.90000021427E+02 0.  0.
         12    1    1    2    0    0 -0.53160128873E+00 -0.58317455633E+00  0.87765280256E+00  0.11802402023E+01  0.00000000000E+00 0. -1.
         11    1    3    3    0    0  0.16750143072E+02  0.17551335739E+02 -0.33608626531E+02  0.41450650860E+02  0.51100000000E-03 0. -1.
        -11    1    3    3    0    0  0.52546715267E+01 -0.20100393722E+01 -0.11540118994E+01  0.57431328433E+01  0.51100000000E-03 0.  1.
        -12    1    3    3    0    0 -0.21473213310E+02 -0.14958121811E+02  0.33884985628E+02  0.42813976094E+02  0.00000000000E+00 0.  1.
</event>
<event>
 7    1  0.2148778E-015  0.9000772E+02  0.7816164E-02  0.1186339E+00
        -11   -1    0    0    0    0  0.00000000000E+00  0.00000000000E+00  0.45593999997E+02  0.45594000000E+02  0.51100000000E-03 0.  1.
         11   -1    0    0    0    0 -0.00000000000E+00 -0.00000000000E+00 -0.45593999997E+02  0.45594000000E+02  0.51100000000E-03 0. -1.
    9900012    2    1    2    0    0  0.80510309752E+00 -0.49710758282E+00  0.70551331450E+00  0.90007722074E+02  0.89999983205E+02 0.  0.
         12    1    1    2    0    0 -0.80510309752E+00  0.49710758282E+00 -0.70551331450E+00  0.11802779264E+01  0.00000000000E+00 0. -1.
         11    1    3    3    0    0  0.11981107947E+02 -0.13027331002E+01 -0.11719118240E+01  0.12108568815E+02  0.51100000000E-03 0. -1.
        -11    1    3    3    0    0 -0.78234762009E+01 -0.23488706865E+01  0.39327687785E+02  0.40167038728E+02  0.51100000000E-03 0.  1.
         12    1    3    3    0    0 -0.33525286483E+01  0.31544962039E+01 -0.37450262647E+02  0.37732114531E+02  0.00000000000E+00 0. -1.
</event>
<event>
 7    1  0.2148778E-015  0.9000775E+02  0.7816164E-02  0.1186339E+00
        -11   -1    0    0    0    0  0.00000000000E+00  0.00000000000E+00  0.45593999997E+02  0.45594000000E+02  0.51100000000E-03 0. -1.
         11   -1    0    0    0    0 -0.00000000000E+00 -0.00000000000E+00 -0.45593999997E+02  0.45594000000E+02  0.51100000000E-03 0.  1.
    9900012    2    1    2    0    0 -0.52186561453E+00  0.40493781965E+00 -0.97809166499E+00  0.90007753559E+02  0.90000015106E+02 0.  0.
         12    1    1    2    0    0  0.52186561453E+00 -0.40493781965E+00  0.97809166499E+00  0.11802464414E+01  0.00000000000E+00 0. -1.
         11    1    3    3    0    0  0.52053920351E+01  0.58316253588E+01 -0.85836587765E+01  0.11609614930E+02  0.51100000000E-03 0. -1.
        -11    1    3    3    0    0  0.25886822203E+02  0.13985273195E+02 -0.16905494579E+02  0.33933923695E+02  0.51100000000E-03 0.  1.
         12    1    3    3    0    0 -0.31614079853E+02 -0.19411960734E+02  0.24511061690E+02  0.44464214934E+02  0.00000000000E+00 0. -1.
</event>
<event>
 7    1  0.2148778E-015  0.9000785E+02  0.7816164E-02  0.1186339E+00
        -11   -1    0    0    0    0  0.00000000000E+00  0.00000000000E+00  0.45593999997E+02  0.45594000000E+02  0.51100000000E-03 0.  1.
         11   -1    0    0    0    0 -0.00000000000E+00 -0.00000000000E+00 -0.45593999997E+02  0.45594000000E+02  0.51100000000E-03 0. -1.
    9900012    2    1    2    0    0 -0.33158869600E+00 -0.11251741516E+01  0.12959743271E+00  0.90007846015E+02  0.90000108782E+02 0.  0.
         12    1    1    2    0    0  0.33158869600E+00  0.11251741516E+01 -0.12959743271E+00  0.11801539855E+01  0.00000000000E+00 0. -1.
         11    1    3    3    0    0 -0.33925784905E+02  0.13971863288E+02  0.72668971777E+00  0.36697410309E+02  0.51100000000E-03 0. -1.
        -11    1    3    3    0    0 -0.55330804612E+01 -0.47543321147E+01  0.91301874564E+01  0.11686700839E+02  0.51100000000E-03 0.  1.
        -12    1    3    3    0    0  0.39127276671E+02 -0.10342705325E+02 -0.97272797415E+01  0.41623734867E+02  0.00000000000E+00 0.  1.
</event>
<event>
 7    1  0.2148778E-015  0.9000759E+02  0.7816164E-02  0.1186339E+00
        -11   -1    0    0    0    0  0.00000000000E+00  0.00000000000E+00  0.45593999997E+02  0.45594000000E+02  0.51100000000E-03 0. -1.
         11   -1    0    0    0    0 -0.00000000000E+00 -0.00000000000E+00 -0.45593999997E+02  0.45594000000E+02  0.51100000000E-03 0.  1.
    9900012    2    1    2    0    0  0.12939153061E+00  0.10899552020E+01  0.43431745696E+00  0.90007586444E+02  0.89999845785E+02 0.  0.
         12    1    1    2    0    0 -0.12939153061E+00 -0.10899552020E+01 -0.43431745696E+00  0.11804135563E+01  0.00000000000E+00 0. -1.
         11    1    3    3    0    0  0.11708401737E+02  0.88312266532E+01  0.23734618593E+02  0.27899988449E+02  0.51100000000E-03 0. -1.
        -11    1    3    3    0    0  0.19496578941E+02 -0.10375592414E+02  0.16803122231E+01  0.22149333122E+02  0.51100000000E-03 0.  1.
        -12    1    3    3    0    0 -0.31075589147E+02  0.26343209623E+01 -0.24980613359E+02  0.39958264872E+02  0.00000000000E+00 0.  1.
</event>
<event>
 7    1  0.2148778E-015  0.9000762E+02  0.7816164E-02  0.1186339E+00
        -11   -1    0    0    0    0  0.00000000000E+00  0.00000000000E+00  0.45593999997E+02  0.45594000000E+02  0.51100000000E-03 0.  1.
         11   -1    0    0    0    0 -0.00000000000E+00 -0.00000000000E+00 -0.45593999997E+02  0.45594000000E+02  0.51100000000E-03 0. -1.
    9900012    2    1    2    0    0 -0.70151256371E+00  0.85798808360E+00  0.40623998749E+00  0.90007621096E+02  0.89999880895E+02 0.  0.
         12    1    1    2    0    0  0.70151256371E+00 -0.85798808360E+00 -0.40623998749E+00  0.11803789036E+01  0.00000000000E+00 0. -1.
         11    1    3    3    0    0 -0.25888741784E+02  0.45138231726E+01 -0.24081633500E+02  0.35644447296E+02  0.51100000000E-03 0. -1.
        -11    1    3    3    0    0 -0.70843195082E+01  0.10978242884E+02  0.56841198778E+01  0.14248460224E+02  0.51100000000E-03 0.  1.
        -12    1    3    3    0    0  0.32271548729E+02 -0.14634077973E+02  0.18803753609E+02  0.40114713576E+02  0.00000000000E+00 0.  1.
</event>
<event>
 7    1  0.2148778E-015  0.9000794E+02  0.7816164E-02  0.1186339E+00
        -11   -1    0    0    0    0  0.00000000000E+00  0.00000000000E+00  0.45593999997E+02  0.45594000000E+02  0.51100000000E-03 0. -1.
         11   -1    0    0    0    0 -0.00000000000E+00 -0.00000000000E+00 -0.45593999997E+02  0.45594000000E+02  0.51100000000E-03 0.  1.
    9900012    2    1    2    0    0  0.10373416524E+00 -0.10304648685E+01 -0.56561041695E+00  0.90007943321E+02  0.90000207372E+02 0.  0.
         12    1    1    2    0    0 -0.10373416524E+00  0.10304648685E+01  0.56561041695E+00  0.11800566791E+01  0.00000000000E+00 0. -1.
         11    1    3    3    0    0  0.11065698714E+02 -0.12663137615E+02  0.64787659136E+00  0.16829274691E+02  0.51100000000E-03 0. -1.
        -11    1    3    3    0    0  0.11421071617E+02 -0.21976018465E+02 -0.16765128988E+02  0.29907454166E+02  0.51100000000E-03 0.  1.
         12    1    3    3    0    0 -0.22383036166E+02  0.33608691211E+02  0.15551641979E+02  0.43271214464E+02  0.00000000000E+00 0. -1.
</event>
<event>
 7    1  0.2148778E-015  0.9000793E+02  0.7816164E-02  0.1186339E+00
        -11   -1    0    0    0    0  0.00000000000E+00  0.00000000000E+00  0.45593999997E+02  0.45594000000E+02  0.51100000000E-03 0.  1.
         11   -1    0    0    0    0 -0.00000000000E+00 -0.00000000000E+00 -0.45593999997E+02  0.45594000000E+02  0.51100000000E-03 0. -1.
    9900012    2    1    2    0    0  0.37672725225E+00 -0.62292062039E+00  0.92877301512E+00  0.90007926767E+02  0.90000190600E+02 0.  0.
         12    1    1    2    0    0 -0.37672725225E+00  0.62292062039E+00 -0.92877301512E+00  0.11800732331E+01  0.00000000000E+00 0. -1.
         11    1    3    3    0    0 -0.25366008888E+01 -0.13654376364E+02 -0.28712698884E+01  0.14181696971E+02  0.51100000000E-03 0. -1.
        -11    1    3    3    0    0  0.77630538845E+01 -0.30618523084E+02 -0.12902110992E+01  0.31613661705E+02  0.51100000000E-03 0.  1.
         12    1    3    3    0    0 -0.48497257435E+01  0.43649978827E+02  0.50902540027E+01  0.44212568091E+02  0.00000000000E+00 0. -1.
</event>
<event>
 7    1  0.2148778E-015  0.9000770E+02  0.7816164E-02  0.1186339E+00
        -11   -1    0    0    0    0  0.00000000000E+00  0.00000000000E+00  0.45593999997E+02  0.45594000000E+02  0.51100000000E-03 0.  1.
         11   -1    0    0    0    0 -0.00000000000E+00 -0.00000000000E+00 -0.45593999997E+02  0.45594000000E+02  0.51100000000E-03 0. -1.
    9900012    2    1    2    0    0 -0.85391603702E+00  0.30735071807E+00  0.75463543329E+00  0.90007698471E+02  0.89999959291E+02 0.  0.
         12    1    1    2    0    0  0.85391603702E+00 -0.30735071807E+00 -0.75463543329E+00  0.11803015290E+01  0.00000000000E+00 0. -1.
         11    1    3    3    0    0 -0.25400216914E+02  0.14548345809E+02 -0.14516876986E+02  0.32673614779E+02  0.51100000000E-03 0. -1.
        -11    1    3    3    0    0 -0.12570894403E+02  0.19627594264E+01 -0.27313689895E+01  0.13013077556E+02  0.51100000000E-03 0.  1.
        -12    1    3    3    0    0  0.37117195280E+02 -0.16203754517E+02  0.18002881409E+02  0.44321006136E+02  0.00000000000E+00 0.  1.
</event>
<event>
 7    1  0.2148778E-015  0.9000774E+02  0.7816164E-02  0.1186339E+00
        -11   -1    0    0    0    0  0.00000000000E+00  0.00000000000E+00  0.45593999997E+02  0.45594000000E+02  0.51100000000E-03 0. -1.
         11   -1    0    0    0    0 -0.00000000000E+00 -0.00000000000E+00 -0.45593999997E+02  0.45594000000E+02  0.51100000000E-03 0.  1.
    9900012    2    1    2    0    0 -0.11017252857E+01 -0.42059141549E+00 -0.48066566611E-01  0.90007743190E+02  0.90000004600E+02 0.  0.
         12    1    1    2    0    0  0.11017252857E+01  0.42059141549E+00  0.48066566611E-01  0.11802568105E+01  0.00000000000E+00 0. -1.
         11    1    3    3    0    0  0.76922674456E+01  0.34526412931E+01 -0.16205963522E+02  0.18268140690E+02  0.51100000000E-03 0. -1.
        -11    1    3    3    0    0 -0.13468833836E+02  0.31457791040E+02  0.90885766995E+01  0.35406275273E+02  0.51100000000E-03 0.  1.
         12    1    3    3    0    0  0.46748411044E+01 -0.35331023749E+02  0.70693202556E+01  0.36333327226E+02  0.00000000000E+00 0. -1.
</event>
<event>
 7    1  0.2148778E-015  0.9000775E+02  0.7816164E-02  0.1186339E+00
        -11   -1    0    0    0    0  0.00000000000E+00  0.00000000000E+00  0.45593999997E+02  0.45594000000E+02  0.51100000000E-03 0.  1.
         11   -1    0    0    0    0 -0.00000000000E+00 -0.00000000000E+00 -0.45593999997E+02  0.45594000000E+02  0.51100000000E-03 0. -1.
    9900012    2    1    2    0    0  0.23363875161E+00 -0.14808232769E+00  0.11473792991E+01  0.90007748036E+02  0.90000009510E+02 0.  0.
         12    1    1    2    0    0 -0.23363875161E+00  0.14808232769E+00 -0.11473792991E+01  0.11802519638E+01  0.00000000000E+00 0. -1.
         11    1    3    3    0    0  0.15694441744E+02 -0.20637071359E+02 -0.17077045106E+02  0.31045606545E+02  0.51100000000E-03 0. -1.
        -11    1    3    3    0    0  0.16241570764E+02  0.35723164790E+01  0.15813095552E+02  0.22947855175E+02  0.51100000000E-03 0.  1.
        -12    1    3    3    0    0 -0.31702373757E+02  0.16916672552E+02  0.24113288528E+01  0.36014286317E+02  0.00000000000E+00 0.  1.
</event>
<event>
 7    1  0.2148778E-015  0.9000755E+02  0.7816164E-02  0.1186339E+00
        -11   -1    0    0    0    0  0.00000000000E+00  0.00000000000E+00  0.45593999997E+02  0.45594000000E+02  0.51100000000E-03 0.  1.
         11   -1    0    0    0    0 -0.00000000000E+00 -0.00000000000E+00 -0.45593999997E+02  0.45594000000E+02  0.51100000000E-03 0. -1.
    9900012    2    1    2    0    0 -0.11384410321E+00 -0.11308978538E+01  0.31871996266E+00  0.90007545490E+02  0.89999804290E+02 0.  0.
         12    1    1    2    0    0  0.11384410321E+00  0.11308978538E+01 -0.31871996266E+00  0.11804545100E+01  0.00000000000E+00 0. -1.
         11    1    3    3    0    0  0.53481124213E+01 -0.38234538413E+00  0.75488430091E+01  0.92592400067E+01  0.51100000000E-03 0. -1.
        -11    1    3    3    0    0  0.26157143343E+02 -0.17928062813E+02  0.18313100926E+02  0.36619410834E+02  0.51100000000E-03 0.  1.
         12    1    3    3    0    0 -0.31619099867E+02  0.17179510343E+02 -0.25543223972E+02  0.44128894649E+02  0.00000000000E+00 0. -1.
</event>
<event>
 7    1  0.2148778E-015  0.9000774E+02  0.7816164E-02  0.1186339E+00
        -11   -1    0    0    0    0  0.00000000000E+00  0.00000000000E+00  0.45593999997E+02  0.45594000000E+02  0.51100000000E-03 0.  1.
         11   -1    0    0    0    0 -0.00000000000E+00 -0.00000000000E+00 -0.45593999997E+02  0.45594000000E+02  0.51100000000E-03 0. -1.
    9900012    2    1    2    0    0  0.99397011947E+00  0.61363287829E+00 -0.16877056859E+00  0.90007743497E+02  0.90000004911E+02 0.  0.
         12    1    1    2    0    0 -0.99397011947E+00 -0.61363287829E+00  0.16877056859E+00  0.11802565029E+01  0.00000000000E+00 0. -1.
         11    1    3    3    0    0  0.38231216540E+00 -0.13928595492E+02 -0.53411992029E+01  0.14922477816E+02  0.51100000000E-03 0. -1.
        -11    1    3    3    0    0 -0.60256958856E+01 -0.12805596350E+02  0.32754108192E+02  0.35680861992E+02  0.51100000000E-03 0.  1.
         12    1    3    3    0    0  0.66373538397E+01  0.27347824720E+02 -0.27581679558E+02  0.39404403690E+02  0.00000000000E+00 0. -1.
</event>
<event>
 7    1  0.2148778E-015  0.9000791E+02  0.7816164E-02  0.1186339E+00
        -11   -1    0    0    0    0  0.00000000000E+00  0.00000000000E+00  0.45593999997E+02  0.45594000000E+02  0.51100000000E-03 0.  1.
         11   -1    0    0    0    0 -0.00000000000E+00 -0.00000000000E+00 -0.45593999997E+02  0.45594000000E+02  0.51100000000E-03 0. -1.
    9900012    2    1    2    0    0  0.39887183573E-01  0.25984846341E+00  0.11504322078E+01  0.90007912513E+02  0.90000176158E+02 0.  0.
         12    1    1    2    0    0 -0.39887183572E-01 -0.25984846341E+00 -0.11504322078E+01  0.11800874866E+01  0.00000000000E+00 0. -1.
         11    1    3    3    0    0  0.17532719052E+02  0.15369840869E+02 -0.31212882785E+02  0.38959880617E+02  0.51100000000E-03 0. -1.
        -11    1    3    3    0    0  0.83296486370E+01 -0.64237997447E+01  0.28837154441E+01  0.10907064894E+02  0.51100000000E-03 0.  1.
        -12    1    3    3    0    0 -0.25822480505E+02 -0.86861926608E+01  0.29479599548E+02  0.40140967003E+02  0.00000000000E+00 0.  1.
</event>
<event>
 7    1  0.2148778E-015  0.9000786E+02  0.7816164E-02  0.1186339E+00
        -11   -1    0    0    0    0  0.00000000000E+00  0.00000000000E+00  0.45593999997E+02  0.45594000000E+02  0.51100000000E-03 0. -1.
         11   -1    0    0    0    0 -0.00000000000E+00 -0.00000000000E+00 -0.45593999997E+02  0.45594000000E+02  0.51100000000E-03 0.  1.
    9900012    2    1    2    0    0 -0.50547278553E+00  0.32976025511E+00 -0.10141382982E+01  0.90007863969E+02  0.90000126974E+02 0.  0.
         12    1    1    2    0    0  0.50547278553E+00 -0.32976025511E+00  0.10141382982E+01  0.11801360305E+01  0.00000000000E+00 0. -1.
         11    1    3    3    0    0  0.51782491885E+01 -0.10217174675E+01  0.82020574930E+01  0.97535592796E+01  0.51100000000E-03 0. -1.
        -11    1    3    3    0    0  0.28630992830E+02 -0.78405906360E+01  0.18690706712E+02  0.35079212215E+02  0.51100000000E-03 0.  1.
         12    1    3    3    0    0 -0.34314714805E+02  0.91920683586E+01 -0.27906902503E+02  0.45175092475E+02  0.00000000000E+00 0. -1.
</event>
<event>
 7    1  0.2148778E-015  0.9000765E+02  0.7816164E-02  0.1186339E+00
        -11   -1    0    0    0    0  0.00000000000E+00  0.00000000000E+00  0.45593999997E+02  0.45594000000E+02  0.51100000000E-03 0.  1.
         11   -1    0    0    0    0 -0.00000000000E+00 -0.00000000000E+00 -0.45593999997E+02  0.45594000000E+02  0.51100000000E-03 0. -1.
    9900012    2    1    2    0    0  0.38858452621E-01 -0.10755749762E+01  0.48462066211E+00  0.90007648910E+02  0.89999909076E+02 0.  0.
         12    1    1    2    0    0 -0.38858452621E-01  0.10755749762E+01 -0.48462066211E+00  0.11803510897E+01  0.00000000000E+00 0. -1.
         11    1    3    3    0    0 -0.14489092415E+02 -0.21527703622E+01  0.13383182985E+02  0.19841315640E+02  0.51100000000E-03 0. -1.
        -11    1    3    3    0    0  0.27020565343E+02  0.77120638766E+01  0.19910049439E+02  0.34438306428E+02  0.51100000000E-03 0.  1.
         12    1    3    3    0    0 -0.12492614476E+02 -0.66348684906E+01 -0.32808611762E+02  0.35728026843E+02  0.00000000000E+00 0. -1.
</event>
<event>
 7    1  0.2148778E-015  0.9000764E+02  0.7816164E-02  0.1186339E+00
        -11   -1    0    0    0    0  0.00000000000E+00  0.00000000000E+00  0.45593999997E+02  0.45594000000E+02  0.51100000000E-03 0.  1.
         11   -1    0    0    0    0 -0.00000000000E+00 -0.00000000000E+00 -0.45593999997E+02  0.45594000000E+02  0.51100000000E-03 0. -1.
    9900012    2    1    2    0    0 -0.90980637951E+00  0.70345784841E+00  0.26582079859E+00  0.90007635103E+02  0.89999895086E+02 0.  0.
         12    1    1    2    0    0  0.90980637951E+00 -0.70345784841E+00 -0.26582079859E+00  0.11803648968E+01  0.00000000000E+00 0. -1.
         11    1    3    3    0    0  0.20789638124E+01 -0.13186049080E+02 -0.35180552175E+02  0.37627984698E+02  0.51100000000E-03 0. -1.
        -11    1    3    3    0    0  0.87927421667E+01 -0.11683485402E+01 -0.30640630131E+01  0.93843399092E+01  0.51100000000E-03 0.  1.
        -12    1    3    3    0    0 -0.11781512359E+02  0.15057855468E+02  0.38510435987E+02  0.42995310496E+02  0.00000000000E+00 0.  1.
</event>
<event>
 7    1  0.2148778E-015  0.9000774E+02  0.7816164E-02  0.1186339E+00
        -11   -1    0    0    0    0  0.00000000000E+00  0.00000000000E+00  0.45593999997E+02  0.45594000000E+02  0.51100000000E-03 0. -1.
         11   -1    0    0    0    0 -0.00000000000E+00 -0.00000000000E+00 -0.45593999997E+02  0.45594000000E+02  0.51100000000E-03 0.  1.
    9900012    2    1    2    0    0  0.21359395526E+00 -0.10758505352E+01 -0.43582655109E+00  0.90007736667E+02  0.89999997991E+02 0.  0.
         12    1    1    2    0    0 -0.21359395526E+00  0.10758505352E+01  0.43582655109E+00  0.11802633326E+01  0.00000000000E+00 0. -1.
         11    1    3    3    0    0  0.69770278923E+01  0.23378330035E+02  0.33948248958E+02  0.41805607770E+02  0.51100000000E-03 0. -1.
        -11    1    3    3    0    0  0.29544455709E+01 -0.96387385971E+01 -0.65520682478E+00  0.10102639587E+02  0.51100000000E-03 0.  1.
        -12    1    3    3    0    0 -0.97178795080E+01 -0.14815441973E+02 -0.33728868685E+02  0.38099489311E+02  0.00000000000E+00 0.  1.
</event>
<event>
 7    1  0.2148778E-015  0.9000725E+02  0.7816164E-02  0.1186340E+00
        -11   -1    0    0    0    0  0.00000000000E+00  0.00000000000E+00  0.45593999997E+02  0.45594000000E+02  0.51100000000E-03 0.  1.
         11   -1    0    0    0    0 -0.00000000000E+00 -0.00000000000E+00 -0.45593999997E+02  0.45594000000E+02  0.51100000000E-03 0. -1.
    9900012    2    1    2    0    0  0.81700193106E+00 -0.63323264790E+00  0.57069563396E+00  0.90007250556E+02  0.89999505462E+02 0.  0.
         12    1    1    2    0    0 -0.81700193106E+00  0.63323264790E+00 -0.57069563396E+00  0.11807494435E+01  0.00000000000E+00 0. -1.
         11    1    3    3    0    0 -0.11053544564E+01  0.98916932776E+01  0.70914679859E+01  0.12221142452E+02  0.51100000000E-03 0. -1.
        -11    1    3    3    0    0 -0.54552255072E+00  0.33456857743E+02 -0.27771018570E+01  0.33576349115E+02  0.51100000000E-03 0.  1.
         12    1    3    3    0    0  0.24678789382E+01 -0.43981783669E+02 -0.37436704950E+01  0.44209758990E+02  0.00000000000E+00 0. -1.
</event>
<event>
 7    1  0.2148778E-015  0.9000766E+02  0.7816164E-02  0.1186339E+00
        -11   -1    0    0    0    0  0.00000000000E+00  0.00000000000E+00  0.45593999997E+02  0.45594000000E+02  0.51100000000E-03 0. -1.
         11   -1    0    0    0    0 -0.00000000000E+00 -0.00000000000E+00 -0.45593999997E+02  0.45594000000E+02  0.51100000000E-03 0.  1.
    9900012    2    1    2    0    0 -0.63661009460E+00 -0.94565462075E+00  0.30605339110E+00  0.90007659476E+02  0.89999919781E+02 0.  0.
         12    1    1    2    0    0  0.63661009460E+00  0.94565462075E+00 -0.30605339110E+00  0.11803405240E+01  0.00000000000E+00 0. -1.
         11    1    3    3    0    0  0.92845042951E+01 -0.31567125939E+01 -0.23477407642E+01  0.10083587723E+02  0.51100000000E-03 0. -1.
        -11    1    3    3    0    0 -0.80490129891E+01  0.35834135694E+02 -0.17495345867E+02  0.40681187523E+02  0.51100000000E-03 0.  1.
         12    1    3    3    0    0 -0.18721014006E+01 -0.33623077721E+02  0.20149140022E+02  0.39242884230E+02  0.00000000000E+00 0. -1.
</event>
<event>
 7    1  0.2148778E-015  0.9000849E+02  0.7816164E-02  0.1186338E+00
        -11   -1    0    0    0    0  0.00000000000E+00  0.00000000000E+00  0.45593999997E+02  0.45594000000E+02  0.51100000000E-03 0. -1.
         11   -1    0    0    0    0 -0.00000000000E+00 -0.00000000000E+00 -0.45593999997E+02  0.45594000000E+02  0.51100000000E-03 0.  1.
    9900012    2    1    2    0    0  0.85273148364E+00 -0.48416822526E+00 -0.65549296057E+00  0.90008491257E+02  0.90000762538E+02 0.  0.
         12    1    1    2    0    0 -0.85273148364E+00  0.48416822526E+00  0.65549296057E+00  0.11795087430E+01  0.00000000000E+00 0. -1.
         11    1    3    3    0    0  0.70833988398E+01  0.73693127136E+01  0.17258062756E+01  0.10366277854E+02  0.51100000000E-03 0. -1.
        -11    1    3    3    0    0  0.31104417784E+02  0.10422923293E+02  0.13046087794E+02  0.35303293652E+02  0.51100000000E-03 0.  1.
         12    1    3    3    0    0 -0.37335085140E+02 -0.18276404232E+02 -0.15427387030E+02  0.44338919751E+02  0.00000000000E+00 0. -1.
</event>
<event>
 7    1  0.2148778E-015  0.9000778E+02  0.7816164E-02  0.1186339E+00
        -11   -1    0    0    0    0  0.00000000000E+00  0.00000000000E+00  0.45593999997E+02  0.45594000000E+02  0.51100000000E-03 0.  1.
         11   -1    0    0    0    0 -0.00000000000E+00 -0.00000000000E+00 -0.45593999997E+02  0.45594000000E+02  0.51100000000E-03 0. -1.
    9900012    2    1    2    0    0 -0.11544383205E+01  0.24069816522E+00  0.47445048876E-01  0.90007782022E+02  0.90000043945E+02 0.  0.
         12    1    1    2    0    0  0.11544383205E+01 -0.24069816522E+00 -0.47445048876E-01  0.11802179779E+01  0.00000000000E+00 0. -1.
         11    1    3    3    0    0  0.15505992135E+02  0.72081323619E+01 -0.30449215688E+02  0.34922023144E+02  0.51100000000E-03 0. -1.
        -11    1    3    3    0    0  0.45723851458E+01 -0.16275736691E+01 -0.88296878530E+01  0.10075668207E+02  0.51100000000E-03 0.  1.
        -12    1    3    3    0    0 -0.21232815601E+02 -0.53398605276E+01  0.39326348590E+02  0.45010090671E+02  0.00000000000E+00 0.  1.
</event>
<event>
 7    1  0.2148778E-015  0.9000774E+02  0.7816164E-02  0.1186339E+00
        -11   -1    0    0    0    0  0.00000000000E+00  0.00000000000E+00  0.45593999997E+02  0.45594000000E+02  0.51100000000E-03 0.  1.
         11   -1    0    0    0    0 -0.00000000000E+00 -0.00000000000E+00 -0.45593999997E+02  0.45594000000E+02  0.51100000000E-03 0. -1.
    9900012    2    1    2    0    0  0.19202110833E+00 -0.11636276117E+01  0.45980354918E-01  0.90007739216E+02  0.90000000574E+02 0.  0.
         12    1    1    2    0    0 -0.19202110833E+00  0.11636276117E+01 -0.45980354918E-01  0.11802607838E+01  0.00000000000E+00 0. -1.
         11    1    3    3    0    0 -0.57218709361E+01  0.48653655742E+01 -0.32743697828E+01  0.81934783160E+01  0.51100000000E-03 0. -1.
        -11    1    3    3    0    0  0.10142713170E+02  0.33479777206E+02  0.18140233912E+02  0.39406068047E+02  0.51100000000E-03 0.  1.
         12    1    3    3    0    0 -0.42288211253E+01 -0.39508770392E+02 -0.14819883775E+02  0.42408192854E+02  0.00000000000E+00 0. -1.
</event>
<event>
 7    1  0.2148778E-015  0.9000775E+02  0.7816164E-02  0.1186339E+00
        -11   -1    0    0    0    0  0.00000000000E+00  0.00000000000E+00  0.45593999997E+02  0.45594000000E+02  0.51100000000E-03 0. -1.
         11   -1    0    0    0    0 -0.00000000000E+00 -0.00000000000E+00 -0.45593999997E+02  0.45594000000E+02  0.51100000000E-03 0.  1.
    9900012    2    1    2    0    0  0.29032806908E+00  0.42931697189E+00 -0.10603664574E+01  0.90007754062E+02  0.90000015616E+02 0.  0.
         12    1    1    2    0    0 -0.29032806908E+00 -0.42931697189E+00  0.10603664574E+01  0.11802459380E+01  0.00000000000E+00 0. -1.
         11    1    3    3    0    0 -0.37598128772E-01  0.15185656477E+02  0.35179461447E+02  0.38317099110E+02  0.51100000000E-03 0. -1.
        -11    1    3    3    0    0  0.96757791080E+01 -0.13060950674E+01  0.21103529201E+01  0.99890027220E+01  0.51100000000E-03 0.  1.
        -12    1    3    3    0    0 -0.93478529101E+01 -0.13450244438E+02 -0.38350180824E+02  0.41701652230E+02  0.00000000000E+00 0.  1.
</event>
<event>
 7    1  0.2148778E-015  0.9000773E+02  0.7816164E-02  0.1186339E+00
        -11   -1    0    0    0    0  0.00000000000E+00  0.00000000000E+00  0.45593999997E+02  0.45594000000E+02  0.51100000000E-03 0.  1.
         11   -1    0    0    0    0 -0.00000000000E+00 -0.00000000000E+00 -0.45593999997E+02  0.45594000000E+02  0.51100000000E-03 0. -1.
    9900012    2    1    2    0    0  0.14546791872E+00  0.67011214494E+00  0.96063598086E+00  0.90007731942E+02  0.89999993203E+02 0.  0.
         12    1    1    2    0    0 -0.14546791872E+00 -0.67011214494E+00 -0.96063598086E+00  0.11802680585E+01  0.00000000000E+00 0. -1.
         11    1    3    3    0    0 -0.87707026951E+01  0.21002273438E+02 -0.31132094684E+02  0.38564595616E+02  0.51100000000E-03 0. -1.
        -11    1    3    3    0    0  0.93410426927E+01  0.30052072293E+01 -0.21081364788E+01  0.10036462960E+02  0.51100000000E-03 0.  1.
        -12    1    3    3    0    0 -0.42487207884E+00 -0.23337368522E+02  0.34200867144E+02  0.41406673366E+02  0.00000000000E+00 0.  1.
</event>
<event>
 7    1  0.2148778E-015  0.9000793E+02  0.7816164E-02  0.1186339E+00
        -11   -1    0    0    0    0  0.00000000000E+00  0.00000000000E+00  0.45593999997E+02  0.45594000000E+02  0.51100000000E-03 0.  1.
         11   -1    0    0    0    0 -0.00000000000E+00 -0.00000000000E+00 -0.45593999997E+02  0.45594000000E+02  0.51100000000E-03 0. -1.
    9900012    2    1    2    0    0  0.99322872371E+00 -0.20980234374E+00 -0.60170408210E+00  0.90007928763E+02  0.90000192623E+02 0.  0.
         12    1    1    2    0    0 -0.99322872371E+00  0.20980234374E+00  0.60170408210E+00  0.11800712366E+01  0.00000000000E+00 0. -1.
         11    1    3    3    0    0  0.14346351475E+02 -0.21556838700E+02  0.99256271196E+01  0.27731447300E+02  0.51100000000E-03 0. -1.
        -11    1    3    3    0    0 -0.31033027465E+01  0.67431013221E+01  0.23070403075E+02  0.24235168695E+02  0.51100000000E-03 0.  1.
         12    1    3    3    0    0 -0.10249820005E+02  0.14603935034E+02 -0.33597734277E+02  0.38041312768E+02  0.00000000000E+00 0. -1.
</event>
<event>
 7    1  0.2148778E-015  0.9000776E+02  0.7816164E-02  0.1186339E+00
        -11   -1    0    0    0    0  0.00000000000E+00  0.00000000000E+00  0.45593999997E+02  0.45594000000E+02  0.51100000000E-03 0.  1.
         11   -1    0    0    0    0 -0.00000000000E+00 -0.00000000000E+00 -0.45593999997E+02  0.45594000000E+02  0.51100000000E-03 0. -1.
    9900012    2    1    2    0    0 -0.26329498202E+00 -0.32360608448E+00  0.11040526125E+01  0.90007755400E+02  0.90000016971E+02 0.  0.
         12    1    1    2    0    0  0.26329498202E+00  0.32360608448E+00 -0.11040526125E+01  0.11802446003E+01  0.00000000000E+00 0. -1.
         11    1    3    3    0    0  0.20115392737E+01 -0.10195315560E+02 -0.29536330894E+01  0.10803457701E+02  0.51100000000E-03 0. -1.
        -11    1    3    3    0    0  0.32373545483E+02 -0.15557896380E+02 -0.98024070389E+00  0.35931260193E+02  0.51100000000E-03 0.  1.
         12    1    3    3    0    0 -0.34648379739E+02  0.25429605856E+02  0.50379264058E+01  0.43273037506E+02  0.00000000000E+00 0. -1.
</event>
<event>
 7    1  0.2148778E-015  0.9000773E+02  0.7816164E-02  0.1186339E+00
        -11   -1    0    0    0    0  0.00000000000E+00  0.00000000000E+00  0.45593999997E+02  0.45594000000E+02  0.51100000000E-03 0. -1.
         11   -1    0    0    0    0 -0.00000000000E+00 -0.00000000000E+00 -0.45593999997E+02  0.45594000000E+02  0.51100000000E-03 0.  1.
    9900012    2    1    2    0    0  0.11183732324E+01 -0.37507142343E+00 -0.39927350920E-01  0.90007732465E+02  0.89999993734E+02 0.  0.
         12    1    1    2    0    0 -0.11183732324E+01  0.37507142343E+00  0.39927350920E-01  0.11802675345E+01  0.00000000000E+00 0. -1.
         11    1    3    3    0    0 -0.30787933414E+02 -0.90884848126E+01  0.66620854524E+01  0.32785374528E+02  0.51100000000E-03 0. -1.
        -11    1    3    3    0    0 -0.10848062968E+02  0.78643476917E+01  0.21019367761E+01  0.13562690487E+02  0.51100000000E-03 0.  1.
        -12    1    3    3    0    0  0.42754369615E+02  0.84906569750E+00 -0.88039495795E+01  0.43659667451E+02  0.00000000000E+00 0.  1.
</event>
<event>
 7    1  0.2148778E-015  0.9000788E+02  0.7816164E-02  0.1186339E+00
        -11   -1    0    0    0    0  0.00000000000E+00  0.00000000000E+00  0.45593999997E+02  0.45594000000E+02  0.51100000000E-03 0.  1.
         11   -1    0    0    0    0 -0.00000000000E+00 -0.00000000000E+00 -0.45593999997E+02  0.45594000000E+02  0.51100000000E-03 0. -1.
    9900012    2    1    2    0    0  0.10501644181E+01 -0.22280026847E+00  0.49009933491E+00  0.90007880251E+02  0.90000143470E+02 0.  0.
         12    1    1    2    0    0 -0.10501644181E+01  0.22280026847E+00 -0.49009933491E+00  0.11801197493E+01  0.00000000000E+00 0. -1.
         11    1    3    3    0    0  0.77085916444E-01  0.47400042147E+01  0.10314811704E+02  0.11352044880E+02  0.51100000000E-03 0. -1.
        -11    1    3    3    0    0 -0.13079601838E+02 -0.13231362002E+02  0.30181207412E+02  0.35454903833E+02  0.51100000000E-03 0.  1.
         12    1    3    3    0    0  0.14052680340E+02  0.82685575187E+01 -0.40005919782E+02  0.43200931538E+02  0.00000000000E+00 0. -1.
</event>
<event>
 7    1  0.2148778E-015  0.9000793E+02  0.7816164E-02  0.1186339E+00
        -11   -1    0    0    0    0  0.00000000000E+00  0.00000000000E+00  0.45593999997E+02  0.45594000000E+02  0.51100000000E-03 0.  1.
         11   -1    0    0    0    0 -0.00000000000E+00 -0.00000000000E+00 -0.45593999997E+02  0.45594000000E+02  0.51100000000E-03 0. -1.
    9900012    2    1    2    0    0 -0.28262872171E+00 -0.88871176689E+00  0.72310727955E+00  0.90007927232E+02  0.90000191072E+02 0.  0.
         12    1    1    2    0    0  0.28262872171E+00  0.88871176689E+00 -0.72310727955E+00  0.11800727675E+01  0.00000000000E+00 0. -1.
         11    1    3    3    0    0 -0.33047256450E+02 -0.17325608616E+02 -0.81663187949E+01  0.38196683570E+02  0.51100000000E-03 0. -1.
        -11    1    3    3    0    0 -0.59843742604E+01 -0.18484155827E+00  0.75374313553E+01  0.96259946701E+01  0.51100000000E-03 0.  1.
        -12    1    3    3    0    0  0.38749001989E+02  0.16621738408E+02  0.13519947191E+01  0.42185248993E+02  0.00000000000E+00 0.  1.
</event>
<event>
 7    1  0.2148778E-015  0.9000770E+02  0.7816164E-02  0.1186339E+00
        -11   -1    0    0    0    0  0.00000000000E+00  0.00000000000E+00  0.45593999997E+02  0.45594000000E+02  0.51100000000E-03 0.  1.
         11   -1    0    0    0    0 -0.00000000000E+00 -0.00000000000E+00 -0.45593999997E+02  0.45594000000E+02  0.51100000000E-03 0. -1.
    9900012    2    1    2    0    0  0.37279478051E+00 -0.71793328020E+00  0.85947819457E+00  0.90007700500E+02  0.89999961346E+02 0.  0.
         12    1    1    2    0    0 -0.37279478051E+00  0.71793328020E+00 -0.85947819457E+00  0.11802995002E+01  0.00000000000E+00 0. -1.
         11    1    3    3    0    0  0.39068957282E+01  0.18530842672E+02  0.21691812689E+01  0.19062038506E+02  0.51100000000E-03 0. -1.
        -11    1    3    3    0    0  0.22810920545E+02  0.72239527828E+01  0.16999352413E+02  0.29351347033E+02  0.51100000000E-03 0.  1.
         12    1    3    3    0    0 -0.26345021493E+02 -0.26472728736E+02 -0.18309055488E+02  0.41594314960E+02  0.00000000000E+00 0. -1.
</event>
<event>
 7    1  0.2148778E-015  0.9000760E+02  0.7816164E-02  0.1186339E+00
        -11   -1    0    0    0    0  0.00000000000E+00  0.00000000000E+00  0.45593999997E+02  0.45594000000E+02  0.51100000000E-03 0.  1.
         11   -1    0    0    0    0 -0.00000000000E+00 -0.00000000000E+00 -0.45593999997E+02  0.45594000000E+02  0.51100000000E-03 0. -1.
    9900012    2    1    2    0    0 -0.24887654820E+00  0.27292359959E+00  0.11211271415E+01  0.90007596300E+02  0.89999855771E+02 0.  0.
         12    1    1    2    0    0  0.24887654820E+00 -0.27292359959E+00 -0.11211271415E+01  0.11804037000E+01  0.00000000000E+00 0. -1.
         11    1    3    3    0    0 -0.12029027512E+02  0.97430062224E+01 -0.32211632810E+02  0.35738116370E+02  0.51100000000E-03 0. -1.
        -11    1    3    3    0    0 -0.81244238522E+01 -0.12025258451E+02 -0.95161043597E+00  0.14543681323E+02  0.51100000000E-03 0.  1.
        -12    1    3    3    0    0  0.19904574816E+02  0.25551758283E+01  0.34284370387E+02  0.39725798607E+02  0.00000000000E+00 0.  1.
</event>
<event>
 7    1  0.2148778E-015  0.9000776E+02  0.7816164E-02  0.1186339E+00
        -11   -1    0    0    0    0  0.00000000000E+00  0.00000000000E+00  0.45593999997E+02  0.45594000000E+02  0.51100000000E-03 0. -1.
         11   -1    0    0    0    0 -0.00000000000E+00 -0.00000000000E+00 -0.45593999997E+02  0.45594000000E+02  0.51100000000E-03 0.  1.
    9900012    2    1    2    0    0  0.87600444936E+00  0.71549973757E+00 -0.33710427674E+00  0.90007761480E+02  0.90000023132E+02 0.  0.
         12    1    1    2    0    0 -0.87600444936E+00 -0.71549973757E+00  0.33710427674E+00  0.11802385196E+01  0.00000000000E+00 0. -1.
         11    1    3    3    0    0  0.87320620927E+00  0.13835142038E+02  0.31137617680E+02  0.34084085426E+02  0.51100000000E-03 0. -1.
        -11    1    3    3    0    0  0.14388616338E+02  0.61128134624E+01  0.84609970935E+00  0.15656137886E+02  0.51100000000E-03 0.  1.
        -12    1    3    3    0    0 -0.14385818098E+02 -0.19232455762E+02 -0.32320821666E+02  0.40267538168E+02  0.00000000000E+00 0.  1.
</event>
<event>
 7    1  0.2148778E-015  0.9000797E+02  0.7816164E-02  0.1186339E+00
        -11   -1    0    0    0    0  0.00000000000E+00  0.00000000000E+00  0.45593999997E+02  0.45594000000E+02  0.51100000000E-03 0.  1.
         11   -1    0    0    0    0 -0.00000000000E+00 -0.00000000000E+00 -0.45593999997E+02  0.45594000000E+02  0.51100000000E-03 0. -1.
    9900012    2    1    2    0    0 -0.55081990862E+00 -0.10396155043E+01 -0.90904433707E-01  0.90007971787E+02  0.90000236214E+02 0.  0.
         12    1    1    2    0    0  0.55081990862E+00  0.10396155043E+01  0.90904433707E-01  0.11800282135E+01  0.00000000000E+00 0. -1.
         11    1    3    3    0    0  0.31969996555E+01 -0.86349977529E+01 -0.73196330934E+00  0.92368697910E+01  0.51100000000E-03 0. -1.
        -11    1    3    3    0    0  0.10805991783E+02 -0.63680235874E+01  0.37068365250E+02  0.39132913070E+02  0.51100000000E-03 0.  1.
         12    1    3    3    0    0 -0.14553811347E+02  0.13963405836E+02 -0.36427306374E+02  0.41638188925E+02  0.00000000000E+00 0. -1.
</event>
<event>
 7    1  0.2148778E-015  0.9000777E+02  0.7816164E-02  0.1186339E+00
        -11   -1    0    0    0    0  0.00000000000E+00  0.00000000000E+00  0.45593999997E+02  0.45594000000E+02  0.51100000000E-03 0. -1.
         11   -1    0    0    0    0 -0.00000000000E+00 -0.00000000000E+00 -0.45593999997E+02  0.45594000000E+02  0.51100000000E-03 0.  1.
    9900012    2    1    2    0    0 -0.26440045545E+00  0.66848785215E+00 -0.93603052696E+00  0.90007772583E+02  0.90000034381E+02 0.  0.
         12    1    1    2    0    0  0.26440045545E+00 -0.66848785215E+00  0.93603052696E+00  0.11802274174E+01  0.00000000000E+00 0. -1.
         11    1    3    3    0    0 -0.20193463780E+01 -0.20895922434E+02  0.31572825434E+02  0.37915176913E+02  0.51100000000E-03 0. -1.
        -11    1    3    3    0    0  0.48932969156E+01  0.44708814647E+01  0.65643580842E+01  0.93286619134E+01  0.51100000000E-03 0.  1.
        -12    1    3    3    0    0 -0.31383509930E+01  0.17093528822E+02 -0.39073214045E+02  0.42763933757E+02  0.00000000000E+00 0.  1.
</event>
<event>
 7    1  0.2148778E-015  0.9000775E+02  0.7816164E-02  0.1186339E+00
        -11   -1    0    0    0    0  0.00000000000E+00  0.00000000000E+00  0.45593999997E+02  0.45594000000E+02  0.51100000000E-03 0. -1.
         11   -1    0    0    0    0 -0.00000000000E+00 -0.00000000000E+00 -0.45593999997E+02  0.45594000000E+02  0.51100000000E-03 0.  1.
    9900012    2    1    2    0    0 -0.17113395148E+00 -0.11370424864E+01  0.26614810221E+00  0.90007751188E+02  0.90000012704E+02 0.  0.
         12    1    1    2    0    0  0.17113395148E+00  0.11370424864E+01 -0.26614810221E+00  0.11802488117E+01  0.00000000000E+00 0. -1.
         11    1    3    3    0    0  0.30179721565E+01  0.93880288256E+01 -0.13872247051E-01  0.98612085399E+01  0.51100000000E-03 0. -1.
        -11    1    3    3    0    0  0.34644628466E+02 -0.65216278453E+01 -0.16062599614E+02  0.38740018300E+02  0.51100000000E-03 0.  1.
         12    1    3    3    0    0 -0.37833734574E+02 -0.40034434667E+01  0.16342619963E+02  0.41406524349E+02  0.00000000000E+00 0. -1.
</event>
<event>
 7    1  0.2148778E-015  0.9000796E+02  0.7816164E-02  0.1186339E+00
        -11   -1    0    0    0    0  0.00000000000E+00  0.00000000000E+00  0.45593999997E+02  0.45594000000E+02  0.51100000000E-03 0.  1.
         11   -1    0    0    0    0 -0.00000000000E+00 -0.00000000000E+00 -0.45593999997E+02  0.45594000000E+02  0.51100000000E-03 0. -1.
    9900012    2    1    2    0    0  0.95576778312E-01  0.33305687471E+00  0.11280184131E+01  0.90007962991E+02  0.90000227302E+02 0.  0.
         12    1    1    2    0    0 -0.95576778312E-01 -0.33305687471E+00 -0.11280184131E+01  0.11800370090E+01  0.00000000000E+00 0. -1.
         11    1    3    3    0    0  0.52230042516E+01  0.79447263925E+01 -0.54733710807E+01  0.10970699254E+02  0.51100000000E-03 0. -1.
        -11    1    3    3    0    0 -0.12001672322E+02  0.25682032953E+02  0.27200795013E+02  0.39287277899E+02  0.51100000000E-03 0.  1.
         12    1    3    3    0    0  0.68742448488E+01 -0.33293702470E+02 -0.20599405519E+02  0.39749985839E+02  0.00000000000E+00 0. -1.
</event>
<event>
 7    1  0.2148778E-015  0.9000775E+02  0.7816164E-02  0.1186339E+00
        -11   -1    0    0    0    0  0.00000000000E+00  0.00000000000E+00  0.45593999997E+02  0.45594000000E+02  0.51100000000E-03 0. -1.
         11   -1    0    0    0    0 -0.00000000000E+00 -0.00000000000E+00 -0.45593999997E+02  0.45594000000E+02  0.51100000000E-03 0.  1.
    9900012    2    1    2    0    0 -0.10075048257E+01  0.56883085500E+00  0.23316139488E+00  0.90007746319E+02  0.90000007770E+02 0.  0.
         12    1    1    2    0    0  0.10075048257E+01 -0.56883085500E+00 -0.23316139488E+00  0.11802536810E+01  0.00000000000E+00 0. -1.
         11    1    3    3    0    0  0.34676018172E+01  0.34666800453E+00 -0.79392319148E+01  0.86704004940E+01  0.51100000000E-03 0. -1.
        -11    1    3    3    0    0 -0.23500090401E+02  0.10600222431E+02 -0.28693318031E+02  0.38573636908E+02  0.51100000000E-03 0.  1.
         12    1    3    3    0    0  0.19024983758E+02 -0.10378059581E+02  0.36865711340E+02  0.42763708917E+02  0.00000000000E+00 0. -1.
</event>
<event>
 7    1  0.2148778E-015  0.9000775E+02  0.7816164E-02  0.1186339E+00
        -11   -1    0    0    0    0  0.00000000000E+00  0.00000000000E+00  0.45593999997E+02  0.45594000000E+02  0.51100000000E-03 0.  1.
         11   -1    0    0    0    0 -0.00000000000E+00 -0.00000000000E+00 -0.45593999997E+02  0.45594000000E+02  0.51100000000E-03 0. -1.
    9900012    2    1    2    0    0  0.27012399435E+00 -0.65424355550E+00  0.94445113074E+00  0.90007750221E+02  0.90000011724E+02 0.  0.
         12    1    1    2    0    0 -0.27012399435E+00  0.65424355550E+00 -0.94445113074E+00  0.11802497789E+01  0.00000000000E+00 0. -1.
         11    1    3    3    0    0 -0.36164430104E+02 -0.78330162058E+01 -0.17776144954E+02  0.41051351711E+02  0.51100000000E-03 0. -1.
        -11    1    3    3    0    0  0.55777041118E+00  0.85783834537E+01  0.29769863744E+00  0.86016507283E+01  0.51100000000E-03 0.  1.
        -12    1    3    3    0    0  0.35876783688E+02 -0.13996108034E+01  0.18422897447E+02  0.40354747781E+02  0.00000000000E+00 0.  1.
</event>
<event>
 7    1  0.2148778E-015  0.9000776E+02  0.7816164E-02  0.1186339E+00
        -11   -1    0    0    0    0  0.00000000000E+00  0.00000000000E+00  0.45593999997E+02  0.45594000000E+02  0.51100000000E-03 0.  1.
         11   -1    0    0    0    0 -0.00000000000E+00 -0.00000000000E+00 -0.45593999997E+02  0.45594000000E+02  0.51100000000E-03 0. -1.
    9900012    2    1    2    0    0  0.63153279741E-03 -0.99255079807E+00 -0.63860373286E+00  0.90007757562E+02  0.90000019161E+02 0.  0.
         12    1    1    2    0    0 -0.63153279741E-03  0.99255079807E+00  0.63860373286E+00  0.11802424383E+01  0.00000000000E+00 0. -1.
         11    1    3    3    0    0  0.24883775002E+02 -0.23636626669E+02  0.22509574660E+02  0.41043554065E+02  0.51100000000E-03 0. -1.
        -11    1    3    3    0    0 -0.80857790044E+01  0.16930518521E+00  0.47644939088E+01  0.93866335191E+01  0.51100000000E-03 0.  1.
        -12    1    3    3    0    0 -0.16797364465E+02  0.22474770686E+02 -0.27912672301E+02  0.39577569978E+02  0.00000000000E+00 0.  1.
</event>
<event>
 7    1  0.2148778E-015  0.9000776E+02  0.7816164E-02  0.1186339E+00
        -11   -1    0    0    0    0  0.00000000000E+00  0.00000000000E+00  0.45593999997E+02  0.45594000000E+02  0.51100000000E-03 0. -1.
         11   -1    0    0    0    0 -0.00000000000E+00 -0.00000000000E+00 -0.45593999997E+02  0.45594000000E+02  0.51100000000E-03 0.  1.
    9900012    2    1    2    0    0  0.13411594479E+00  0.10654386844E+01 -0.48970839343E+00  0.90007762317E+02  0.90000023980E+02 0.  0.
         12    1    1    2    0    0 -0.13411594479E+00 -0.10654386844E+01  0.48970839343E+00  0.11802376826E+01  0.00000000000E+00 0. -1.
         11    1    3    3    0    0  0.24540657610E+02  0.61065060149E+01  0.28932221857E+02  0.38426641194E+02  0.51100000000E-03 0. -1.
        -11    1    3    3    0    0  0.46892646738E+00  0.94406731231E+01  0.12310767060E+01  0.95321430521E+01  0.51100000000E-03 0.  1.
        -12    1    3    3    0    0 -0.24875468132E+02 -0.14481740454E+02 -0.30653006956E+02  0.42048978071E+02  0.00000000000E+00 0.  1.
</event>
<event>
 7    1  0.2148778E-015  0.9000765E+02  0.7816164E-02  0.1186339E+00
        -11   -1    0    0    0    0  0.00000000000E+00  0.00000000000E+00  0.45593999997E+02  0.45594000000E+02  0.51100000000E-03 0. -1.
         11   -1    0    0    0    0 -0.00000000000E+00 -0.00000000000E+00 -0.45593999997E+02  0.45594000000E+02  0.51100000000E-03 0.  1.
    9900012    2    1    2    0    0  0.60051105192E+00  0.95189819479E+00  0.35567555209E+00  0.90007648868E+02  0.89999909033E+02 0.  0.
         12    1    1    2    0    0 -0.60051105192E+00 -0.95189819479E+00 -0.35567555209E+00  0.11803511321E+01  0.00000000000E+00 0. -1.
         11    1    3    3    0    0 -0.45270611114E+00 -0.42727486632E+01  0.82929135627E+01  0.93399004054E+01  0.51100000000E-03 0. -1.
        -11    1    3    3    0    0  0.19105959159E+02 -0.29101447023E+02 -0.19876950547E+02  0.40087717041E+02  0.51100000000E-03 0.  1.
         12    1    3    3    0    0 -0.18052741996E+02  0.34326093882E+02  0.11939712537E+02  0.40580031422E+02  0.00000000000E+00 0. -1.
</event>
<event>
 7    1  0.2148778E-015  0.9000767E+02  0.7816164E-02  0.1186339E+00
        -11   -1    0    0    0    0  0.00000000000E+00  0.00000000000E+00  0.45593999997E+02  0.45594000000E+02  0.51100000000E-03 0. -1.
         11   -1    0    0    0    0 -0.00000000000E+00 -0.00000000000E+00 -0.45593999997E+02  0.45594000000E+02  0.51100000000E-03 0.  1.
    9900012    2    1    2    0    0  0.16257382393E+00 -0.11148364813E+01 -0.35199309063E+00  0.90007665402E+02  0.89999925785E+02 0.  0.
         12    1    1    2    0    0 -0.16257382393E+00  0.11148364813E+01  0.35199309063E+00  0.11803345984E+01  0.00000000000E+00 0. -1.
         11    1    3    3    0    0  0.84499298270E+01  0.42335566327E+00 -0.46493532137E+01  0.96538608684E+01  0.51100000000E-03 0. -1.
        -11    1    3    3    0    0  0.25206416522E+02  0.24141709953E+02 -0.91068448079E+01  0.36071044010E+02  0.51100000000E-03 0.  1.
         12    1    3    3    0    0 -0.33493772525E+02 -0.25679902098E+02  0.13404204931E+02  0.44282760523E+02  0.00000000000E+00 0. -1.
</event>
<event>
 7    1  0.2148778E-015  0.9000785E+02  0.7816164E-02  0.1186339E+00
        -11   -1    0    0    0    0  0.00000000000E+00  0.00000000000E+00  0.45593999997E+02  0.45594000000E+02  0.51100000000E-03 0.  1.
         11   -1    0    0    0    0 -0.00000000000E+00 -0.00000000000E+00 -0.45593999997E+02  0.45594000000E+02  0.51100000000E-03 0. -1.
    9900012    2    1    2    0    0 -0.30598504967E+00 -0.78942749995E+00  0.82215646199E+00  0.90007845825E+02  0.90000108590E+02 0.  0.
         12    1    1    2    0    0  0.30598504967E+00  0.78942749995E+00 -0.82215646199E+00  0.11801541748E+01  0.00000000000E+00 0. -1.
         11    1    3    3    0    0  0.22364295110E+02 -0.25652006904E+02 -0.22489447310E+02  0.40791695166E+02  0.51100000000E-03 0. -1.
        -11    1    3    3    0    0 -0.97921648663E+01 -0.37679507063E+01  0.67736881893E+00  0.10513932379E+02  0.51100000000E-03 0.  1.
        -12    1    3    3    0    0 -0.12878115293E+02  0.28630530110E+02  0.22634234953E+02  0.38702218280E+02  0.00000000000E+00 0.  1.
</event>
<event>
 7    1  0.2148778E-015  0.9000772E+02  0.7816164E-02  0.1186339E+00
        -11   -1    0    0    0    0  0.00000000000E+00  0.00000000000E+00  0.45593999997E+02  0.45594000000E+02  0.51100000000E-03 0.  1.
         11   -1    0    0    0    0 -0.00000000000E+00 -0.00000000000E+00 -0.45593999997E+02  0.45594000000E+02  0.51100000000E-03 0. -1.
    9900012    2    1    2    0    0  0.11963697880E+00  0.10992921529E+01 -0.41268793296E+00  0.90007717163E+02  0.89999978230E+02 0.  0.
         12    1    1    2    0    0 -0.11963697880E+00 -0.10992921529E+01  0.41268793296E+00  0.11802828365E+01  0.00000000000E+00 0. -1.
         11    1    3    3    0    0  0.35177944741E+00 -0.35891426477E+02 -0.46463368871E+01  0.36192633091E+02  0.51100000000E-03 0. -1.
        -11    1    3    3    0    0  0.63959763047E+01 -0.45592489727E+01  0.84406728984E+01  0.11529970656E+02  0.51100000000E-03 0.  1.
        -12    1    3    3    0    0 -0.66281187733E+01  0.41549967602E+02 -0.42070239442E+01  0.42285113417E+02  0.00000000000E+00 0.  1.
</event>
<event>
 7    1  0.2148778E-015  0.9000767E+02  0.7816164E-02  0.1186339E+00
        -11   -1    0    0    0    0  0.00000000000E+00  0.00000000000E+00  0.45593999997E+02  0.45594000000E+02  0.51100000000E-03 0.  1.
         11   -1    0    0    0    0 -0.00000000000E+00 -0.00000000000E+00 -0.45593999997E+02  0.45594000000E+02  0.51100000000E-03 0. -1.
    9900012    2    1    2    0    0 -0.78031854907E+00  0.32844801815E-01  0.88498358759E+00  0.90007673024E+02  0.89999933508E+02 0.  0.
         12    1    1    2    0    0  0.78031854907E+00 -0.32844801815E-01 -0.88498358759E+00  0.11803269756E+01  0.00000000000E+00 0. -1.
         11    1    3    3    0    0  0.84412748096E+01  0.12917207238E+00 -0.37243904658E+00  0.84504743619E+01  0.51100000000E-03 0. -1.
        -11    1    3    3    0    0 -0.19001139350E+01 -0.18520694974E+02  0.36583232876E+02  0.41048258224E+02  0.51100000000E-03 0.  1.
         12    1    3    3    0    0 -0.73214794237E+01  0.18424367704E+02 -0.35325810242E+02  0.40508940439E+02  0.00000000000E+00 0. -1.
</event>
<event>
 7    1  0.2148778E-015  0.9000771E+02  0.7816164E-02  0.1186339E+00
        -11   -1    0    0    0    0  0.00000000000E+00  0.00000000000E+00  0.45593999997E+02  0.45594000000E+02  0.51100000000E-03 0. -1.
         11   -1    0    0    0    0 -0.00000000000E+00 -0.00000000000E+00 -0.45593999997E+02  0.45594000000E+02  0.51100000000E-03 0.  1.
    9900012    2    1    2    0    0  0.11281730625E+01  0.21403591647E+00  0.27292523683E+00  0.90007714434E+02  0.89999975464E+02 0.  0.
         12    1    1    2    0    0 -0.11281730625E+01 -0.21403591647E+00 -0.27292523683E+00  0.11802855661E+01  0.00000000000E+00 0. -1.
         11    1    3    3    0    0 -0.30499114807E+01  0.80500416330E+01 -0.44335995392E+01  0.96830746908E+01  0.51100000000E-03 0. -1.
        -11    1    3    3    0    0 -0.43122697282E+01  0.23827395762E+02 -0.25913802558E+02  0.35466401315E+02  0.51100000000E-03 0.  1.
         12    1    3    3    0    0  0.84903542714E+01 -0.31663401478E+02  0.30620327334E+02  0.44858238428E+02  0.00000000000E+00 0. -1.
</event>
<event>
 7    1  0.2148778E-015  0.9000776E+02  0.7816164E-02  0.1186339E+00
        -11   -1    0    0    0    0  0.00000000000E+00  0.00000000000E+00  0.45593999997E+02  0.45594000000E+02  0.51100000000E-03 0.  1.
         11   -1    0    0    0    0 -0.00000000000E+00 -0.00000000000E+00 -0.45593999997E+02  0.45594000000E+02  0.51100000000E-03 0. -1.
    9900012    2    1    2    0    0 -0.10680238222E+01 -0.11488530871E+00  0.48897951457E+00  0.90007756599E+02  0.90000018186E+02 0.  0.
         12    1    1    2    0    0  0.10680238222E+01  0.11488530871E+00 -0.48897951457E+00  0.11802434006E+01  0.00000000000E+00 0. -1.
         11    1    3    3    0    0 -0.22167864895E+02  0.17439152836E+02 -0.14788968516E+02  0.31847321326E+02  0.51100000000E-03 0. -1.
        -11    1    3    3    0    0 -0.10701784632E+02  0.56334449223E+01 -0.59115835630E+01  0.13461452985E+02  0.51100000000E-03 0.  1.
        -12    1    3    3    0    0  0.31801625705E+02 -0.23187483067E+02  0.21189531593E+02  0.44698982288E+02  0.00000000000E+00 0.  1.
</event>
<event>
 7    1  0.2148778E-015  0.9000760E+02  0.7816164E-02  0.1186339E+00
        -11   -1    0    0    0    0  0.00000000000E+00  0.00000000000E+00  0.45593999997E+02  0.45594000000E+02  0.51100000000E-03 0.  1.
         11   -1    0    0    0    0 -0.00000000000E+00 -0.00000000000E+00 -0.45593999997E+02  0.45594000000E+02  0.51100000000E-03 0. -1.
    9900012    2    1    2    0    0 -0.61463676497E+00 -0.95616255873E+00  0.31832123135E+00  0.90007596002E+02  0.89999855469E+02 0.  0.
         12    1    1    2    0    0  0.61463676497E+00  0.95616255873E+00 -0.31832123135E+00  0.11804039978E+01  0.00000000000E+00 0. -1.
         11    1    3    3    0    0 -0.48046177582E+01  0.66888456791E+01  0.32088132282E+01  0.88386362589E+01  0.51100000000E-03 0. -1.
        -11    1    3    3    0    0 -0.30561601106E+02 -0.46396518985E+01 -0.25098523195E+02  0.39818007217E+02  0.51100000000E-03 0.  1.
         12    1    3    3    0    0  0.34751582099E+02 -0.30053563394E+01  0.22208031199E+02  0.41350952526E+02  0.00000000000E+00 0. -1.
</event>
<event>
 7    1  0.2148778E-015  0.9000772E+02  0.7816164E-02  0.1186339E+00
        -11   -1    0    0    0    0  0.00000000000E+00  0.00000000000E+00  0.45593999997E+02  0.45594000000E+02  0.51100000000E-03 0. -1.
         11   -1    0    0    0    0 -0.00000000000E+00 -0.00000000000E+00 -0.45593999997E+02  0.45594000000E+02  0.51100000000E-03 0.  1.
    9900012    2    1    2    0    0  0.63214267059E+00 -0.80159650786E-01 -0.99349427477E+00  0.90007720033E+02  0.89999981138E+02 0.  0.
         12    1    1    2    0    0 -0.63214267059E+00  0.80159650786E-01  0.99349427477E+00  0.11802799666E+01  0.00000000000E+00 0. -1.
         11    1    3    3    0    0  0.99975257077E+01 -0.21242867131E+01  0.44226414143E+01  0.11136555646E+02  0.51100000000E-03 0. -1.
        -11    1    3    3    0    0  0.28739734927E+02 -0.11079810176E+02  0.14353315137E+02  0.33981645236E+02  0.51100000000E-03 0.  1.
         12    1    3    3    0    0 -0.38105117965E+02  0.13123937238E+02 -0.19769450826E+02  0.44889519152E+02  0.00000000000E+00 0. -1.
</event>
<event>
 7    1  0.2148778E-015  0.9000773E+02  0.7816164E-02  0.1186339E+00
        -11   -1    0    0    0    0  0.00000000000E+00  0.00000000000E+00  0.45593999997E+02  0.45594000000E+02  0.51100000000E-03 0.  1.
         11   -1    0    0    0    0 -0.00000000000E+00 -0.00000000000E+00 -0.45593999997E+02  0.45594000000E+02  0.51100000000E-03 0. -1.
    9900012    2    1    2    0    0  0.83921763088E+00 -0.62983643627E+00  0.54041906007E+00  0.90007731840E+02  0.89999993101E+02 0.  0.
         12    1    1    2    0    0 -0.83921763088E+00  0.62983643627E+00 -0.54041906007E+00  0.11802681597E+01  0.00000000000E+00 0. -1.
         11    1    3    3    0    0 -0.49759616540E-01  0.66279039674E+01  0.80410521709E+01  0.10420657719E+02  0.51100000000E-03 0. -1.
        -11    1    3    3    0    0 -0.12851504774E+02 -0.36533612209E+02  0.13514954205E+02  0.41018532195E+02  0.51100000000E-03 0.  1.
         12    1    3    3    0    0  0.13740482021E+02  0.29275871805E+02 -0.21015587316E+02  0.38568541927E+02  0.00000000000E+00 0. -1.
</event>
<event>
 7    1  0.2148778E-015  0.9000751E+02  0.7816164E-02  0.1186339E+00
        -11   -1    0    0    0    0  0.00000000000E+00  0.00000000000E+00  0.45593999997E+02  0.45594000000E+02  0.51100000000E-03 0. -1.
         11   -1    0    0    0    0 -0.00000000000E+00 -0.00000000000E+00 -0.45593999997E+02  0.45594000000E+02  0.51100000000E-03 0.  1.
    9900012    2    1    2    0    0 -0.38381466630E+00 -0.74712389692E+00 -0.82948424190E+00  0.90007511998E+02  0.89999770356E+02 0.  0.
         12    1    1    2    0    0  0.38381466630E+00  0.74712389692E+00  0.82948424190E+00  0.11804880020E+01  0.00000000000E+00 0. -1.
         11    1    3    3    0    0 -0.23331169545E+00  0.69345401028E+01  0.93215035860E+01  0.11620357574E+02  0.51100000000E-03 0. -1.
        -11    1    3    3    0    0  0.43032838270E+01  0.33966660107E+02  0.32943396784E+01  0.34396292310E+02  0.51100000000E-03 0.  1.
         12    1    3    3    0    0 -0.44537867978E+01 -0.41648324107E+02 -0.13445327506E+02  0.43990862114E+02  0.00000000000E+00 0. -1.
</event>
<event>
 7    1  0.2148778E-015  0.9000774E+02  0.7816164E-02  0.1186339E+00
        -11   -1    0    0    0    0  0.00000000000E+00  0.00000000000E+00  0.45593999997E+02  0.45594000000E+02  0.51100000000E-03 0.  1.
         11   -1    0    0    0    0 -0.00000000000E+00 -0.00000000000E+00 -0.45593999997E+02  0.45594000000E+02  0.51100000000E-03 0. -1.
    9900012    2    1    2    0    0  0.14264723370E+00 -0.27493321776E+00  0.11388916818E+01  0.90007741227E+02  0.90000002612E+02 0.  0.
         12    1    1    2    0    0 -0.14264723370E+00  0.27493321776E+00 -0.11388916818E+01  0.11802587726E+01  0.00000000000E+00 0. -1.
         11    1    3    3    0    0  0.74694140172E+01 -0.10482964849E+02  0.62356970804E+01  0.14302748552E+02  0.51100000000E-03 0. -1.
        -11    1    3    3    0    0 -0.46344350452E+01 -0.14205345322E+02  0.29621644013E+02  0.33176974217E+02  0.51100000000E-03 0.  1.
         12    1    3    3    0    0 -0.26923317382E+01  0.24413376954E+02 -0.34718449411E+02  0.42528018459E+02  0.00000000000E+00 0. -1.
</event>
<event>
 7    1  0.2148778E-015  0.9000779E+02  0.7816164E-02  0.1186339E+00
        -11   -1    0    0    0    0  0.00000000000E+00  0.00000000000E+00  0.45593999997E+02  0.45594000000E+02  0.51100000000E-03 0. -1.
         11   -1    0    0    0    0 -0.00000000000E+00 -0.00000000000E+00 -0.45593999997E+02  0.45594000000E+02  0.51100000000E-03 0.  1.
    9900012    2    1    2    0    0 -0.36321786258E-02  0.97166346453E+00 -0.66988990584E+00  0.90007790033E+02  0.90000052061E+02 0.  0.
         12    1    1    2    0    0  0.36321786258E-02 -0.97166346453E+00  0.66988990584E+00  0.11802099673E+01  0.00000000000E+00 0. -1.
         11    1    3    3    0    0 -0.34566459405E+01  0.62065838117E+01  0.96410791430E+01  0.11975829452E+02  0.51100000000E-03 0. -1.
        -11    1    3    3    0    0  0.13339606863E+02 -0.39081678578E+02 -0.11102308187E+02  0.42761945220E+02  0.51100000000E-03 0.  1.
         12    1    3    3    0    0 -0.98865931007E+01  0.33846758231E+02  0.79133913782E+00  0.35270015360E+02  0.00000000000E+00 0. -1.
</event>
<event>
 7    1  0.2148778E-015  0.9000775E+02  0.7816164E-02  0.1186339E+00
        -11   -1    0    0    0    0  0.00000000000E+00  0.00000000000E+00  0.45593999997E+02  0.45594000000E+02  0.51100000000E-03 0.  1.
         11   -1    0    0    0    0 -0.00000000000E+00 -0.00000000000E+00 -0.45593999997E+02  0.45594000000E+02  0.51100000000E-03 0. -1.
    9900012    2    1    2    0    0 -0.82053672417E+00  0.81825863719E+00 -0.22397754492E+00  0.90007748479E+02  0.90000009959E+02 0.  0.
         12    1    1    2    0    0  0.82053672417E+00 -0.81825863719E+00  0.22397754492E+00  0.11802515214E+01  0.00000000000E+00 0. -1.
         11    1    3    3    0    0 -0.24960899264E+02  0.18760818670E+02 -0.21659836646E+02  0.38002149058E+02  0.51100000000E-03 0. -1.
        -11    1    3    3    0    0 -0.58500769835E+01 -0.69469809742E+01 -0.51554225309E+01  0.10443291009E+02  0.51100000000E-03 0.  1.
        -12    1    3    3    0    0  0.29990439523E+02 -0.10995579059E+02  0.26591281632E+02  0.41562308411E+02  0.00000000000E+00 0.  1.
</event>
<event>
 7    1  0.2148778E-015  0.9000782E+02  0.7816164E-02  0.1186339E+00
        -11   -1    0    0    0    0  0.00000000000E+00  0.00000000000E+00  0.45593999997E+02  0.45594000000E+02  0.51100000000E-03 0. -1.
         11   -1    0    0    0    0 -0.00000000000E+00 -0.00000000000E+00 -0.45593999997E+02  0.45594000000E+02  0.51100000000E-03 0.  1.
    9900012    2    1    2    0    0  0.76901263921E+00 -0.30734744253E+00  0.84082415150E+00  0.90007818597E+02  0.90000081003E+02 0.  0.
         12    1    1    2    0    0 -0.76901263921E+00  0.30734744253E+00 -0.84082415150E+00  0.11801814028E+01  0.00000000000E+00 0. -1.
         11    1    3    3    0    0  0.12347199973E+02 -0.34720951176E+02  0.12124481048E+02  0.38794340292E+02  0.51100000000E-03 0. -1.
        -11    1    3    3    0    0  0.43267901034E+01  0.30179819294E+01  0.91173785714E+01  0.10533561591E+02  0.51100000000E-03 0.  1.
        -12    1    3    3    0    0 -0.15904977437E+02  0.31395621804E+02 -0.20401035468E+02  0.40679916714E+02  0.00000000000E+00 0.  1.
</event>
<event>
 7    1  0.2148778E-015  0.9000771E+02  0.7816164E-02  0.1186339E+00
        -11   -1    0    0    0    0  0.00000000000E+00  0.00000000000E+00  0.45593999997E+02  0.45594000000E+02  0.51100000000E-03 0.  1.
         11   -1    0    0    0    0 -0.00000000000E+00 -0.00000000000E+00 -0.45593999997E+02  0.45594000000E+02  0.51100000000E-03 0. -1.
    9900012    2    1    2    0    0  0.30952166395E+00  0.84374142610E+00 -0.76510638112E+00  0.90007707227E+02  0.89999968163E+02 0.  0.
         12    1    1    2    0    0 -0.30952166395E+00 -0.84374142610E+00  0.76510638112E+00  0.11802927726E+01  0.00000000000E+00 0. -1.
         11    1    3    3    0    0  0.71499396287E+01 -0.32208773535E+01  0.60339531960E+01  0.98946591176E+01  0.51100000000E-03 0. -1.
        -11    1    3    3    0    0  0.33255086130E+02 -0.24464071829E+01  0.11887171468E+02  0.35400430893E+02  0.51100000000E-03 0.  1.
         12    1    3    3    0    0 -0.40095504095E+02  0.65110259626E+01 -0.18686231045E+02  0.44712617217E+02  0.00000000000E+00 0. -1.
</event>
<event>
 7    1  0.2148778E-015  0.9000760E+02  0.7816164E-02  0.1186339E+00
        -11   -1    0    0    0    0  0.00000000000E+00  0.00000000000E+00  0.45593999997E+02  0.45594000000E+02  0.51100000000E-03 0.  1.
         11   -1    0    0    0    0 -0.00000000000E+00 -0.00000000000E+00 -0.45593999997E+02  0.45594000000E+02  0.51100000000E-03 0. -1.
    9900012    2    1    2    0    0  0.76875171709E+00 -0.13678906378E+00  0.88524445604E+00  0.90007598290E+02  0.89999857787E+02 0.  0.
         12    1    1    2    0    0 -0.76875171709E+00  0.13678906378E+00 -0.88524445604E+00  0.11804017102E+01  0.00000000000E+00 0. -1.
         11    1    3    3    0    0  0.17790836115E+02  0.10987328661E+02 -0.34892880769E+02  0.40678598420E+02  0.51100000000E-03 0. -1.
        -11    1    3    3    0    0  0.15445054309E+01 -0.87469292987E+01 -0.76360910283E-01  0.88825728498E+01  0.51100000000E-03 0.  1.
        -12    1    3    3    0    0 -0.18566589829E+02 -0.23771884261E+01  0.35854486135E+02  0.40446427020E+02  0.00000000000E+00 0.  1.
</event>
<event>
 7    1  0.2148778E-015  0.9000770E+02  0.7816164E-02  0.1186339E+00
        -11   -1    0    0    0    0  0.00000000000E+00  0.00000000000E+00  0.45593999997E+02  0.45594000000E+02  0.51100000000E-03 0. -1.
         11   -1    0    0    0    0 -0.00000000000E+00 -0.00000000000E+00 -0.45593999997E+02  0.45594000000E+02  0.51100000000E-03 0.  1.
    9900012    2    1    2    0    0 -0.48122537127E+00  0.19233837870E-01 -0.10775747366E+01  0.90007697026E+02  0.89999957826E+02 0.  0.
         12    1    1    2    0    0  0.48122537127E+00 -0.19233837871E-01  0.10775747366E+01  0.11803029744E+01  0.00000000000E+00 0. -1.
         11    1    3    3    0    0 -0.33089087927E+02  0.71632695069E+01  0.23423321720E+02  0.41168582323E+02  0.51100000000E-03 0. -1.
        -11    1    3    3    0    0  0.67394534974E+01  0.65889764390E+01  0.16581483023E+01  0.95699686525E+01  0.51100000000E-03 0.  1.
        -12    1    3    3    0    0  0.25868409058E+02 -0.13733012108E+02 -0.26159044759E+02  0.39269146050E+02  0.00000000000E+00 0.  1.
</event>
<event>
 7    1  0.2148778E-015  0.9000764E+02  0.7816164E-02  0.1186339E+00
        -11   -1    0    0    0    0  0.00000000000E+00  0.00000000000E+00  0.45593999997E+02  0.45594000000E+02  0.51100000000E-03 0.  1.
         11   -1    0    0    0    0 -0.00000000000E+00 -0.00000000000E+00 -0.45593999997E+02  0.45594000000E+02  0.51100000000E-03 0. -1.
    9900012    2    1    2    0    0  0.20350094550E+00 -0.11625093001E+01  0.20151407578E-01  0.90007641331E+02  0.89999901397E+02 0.  0.
         12    1    1    2    0    0 -0.20350094550E+00  0.11625093001E+01 -0.20151407578E-01  0.11803586687E+01  0.00000000000E+00 0. -1.
         11    1    3    3    0    0  0.49325036849E+01 -0.37966982300E+01  0.67356600007E+01  0.91713480993E+01  0.51100000000E-03 0. -1.
        -11    1    3    3    0    0  0.21480360912E+02 -0.63676883625E+01  0.28355192020E+02  0.36138210730E+02  0.51100000000E-03 0.  1.
         12    1    3    3    0    0 -0.26209363652E+02  0.90018772924E+01 -0.35070700613E+02  0.44698082502E+02  0.00000000000E+00 0. -1.
</event>
<event>
 7    1  0.2148778E-015  0.9000775E+02  0.7816164E-02  0.1186339E+00
        -11   -1    0    0    0    0  0.00000000000E+00  0.00000000000E+00  0.45593999997E+02  0.45594000000E+02  0.51100000000E-03 0. -1.
         11   -1    0    0    0    0 -0.00000000000E+00 -0.00000000000E+00 -0.45593999997E+02  0.45594000000E+02  0.51100000000E-03 0.  1.
    9900012    2    1    2    0    0  0.62051649213E+00  0.86905571198E+00 -0.50268255530E+00  0.90007750747E+02  0.90000012257E+02 0.  0.
         12    1    1    2    0    0 -0.62051649213E+00 -0.86905571198E+00  0.50268255530E+00  0.11802492529E+01  0.00000000000E+00 0. -1.
         11    1    3    3    0    0  0.34624470245E+01 -0.17188995182E+02  0.32649448303E+02  0.37059905147E+02  0.51100000000E-03 0. -1.
        -11    1    3    3    0    0  0.12708842920E+01  0.10615272509E+02  0.64211973636E+01  0.12471204159E+02  0.51100000000E-03 0.  1.
        -12    1    3    3    0    0 -0.41128148244E+01  0.74427783846E+01 -0.39573328222E+02  0.40476641442E+02  0.00000000000E+00 0.  1.
</event>
<event>
 7    1  0.2148778E-015  0.9000815E+02  0.7816164E-02  0.1186338E+00
        -11   -1    0    0    0    0  0.00000000000E+00  0.00000000000E+00  0.45593999997E+02  0.45594000000E+02  0.51100000000E-03 0.  1.
         11   -1    0    0    0    0 -0.00000000000E+00 -0.00000000000E+00 -0.45593999997E+02  0.45594000000E+02  0.51100000000E-03 0. -1.
    9900012    2    1    2    0    0 -0.84334905229E+00 -0.32121762579E+00  0.76002066375E+00  0.90008148401E+02  0.90000415159E+02 0.  0.
         12    1    1    2    0    0  0.84334905229E+00  0.32121762579E+00 -0.76002066375E+00  0.11798515993E+01  0.00000000000E+00 0. -1.
         11    1    3    3    0    0  0.21678539606E+02 -0.62730100734E+01  0.56955571835E+01  0.23275504435E+02  0.51100000000E-03 0. -1.
        -11    1    3    3    0    0 -0.85470102305E+01  0.34045554206E+02 -0.41357158946E+01  0.35344805719E+02  0.51100000000E-03 0.  1.
        -12    1    3    3    0    0 -0.13974878427E+02 -0.28093761758E+02 -0.79982062519E+00  0.31387838247E+02  0.00000000000E+00 0.  1.
</event>
<event>
 7    1  0.2148778E-015  0.9000730E+02  0.7816164E-02  0.1186340E+00
        -11   -1    0    0    0    0  0.00000000000E+00  0.00000000000E+00  0.45593999997E+02  0.45594000000E+02  0.51100000000E-03 0.  1.
         11   -1    0    0    0    0 -0.00000000000E+00 -0.00000000000E+00 -0.45593999997E+02  0.45594000000E+02  0.51100000000E-03 0. -1.
    9900012    2    1    2    0    0 -0.46000000556E+00  0.10105086704E+01  0.40165535449E+00  0.90007299021E+02  0.89999554567E+02 0.  0.
         12    1    1    2    0    0  0.46000000556E+00 -0.10105086704E+01 -0.40165535449E+00  0.11807009790E+01  0.00000000000E+00 0. -1.
         11    1    3    3    0    0  0.15796529630E+02 -0.22812812518E+02 -0.29697141592E+02  0.40643264907E+02  0.51100000000E-03 0. -1.
        -11    1    3    3    0    0  0.69748585340E+01  0.43571339662E+01  0.31483942972E+01  0.88060010721E+01  0.51100000000E-03 0.  1.
        -12    1    3    3    0    0 -0.23231388169E+02  0.19466187222E+02  0.26950402649E+02  0.40558033042E+02  0.00000000000E+00 0.  1.
</event>
<event>
 7    1  0.2148778E-015  0.9000774E+02  0.7816164E-02  0.1186339E+00
        -11   -1    0    0    0    0  0.00000000000E+00  0.00000000000E+00  0.45593999997E+02  0.45594000000E+02  0.51100000000E-03 0.  1.
         11   -1    0    0    0    0 -0.00000000000E+00 -0.00000000000E+00 -0.45593999997E+02  0.45594000000E+02  0.51100000000E-03 0. -1.
    9900012    2    1    2    0    0 -0.88840847050E+00 -0.71613290875E+00  0.30147878578E+00  0.90007743497E+02  0.90000004912E+02 0.  0.
         12    1    1    2    0    0  0.88840847050E+00  0.71613290875E+00 -0.30147878578E+00  0.11802565025E+01  0.00000000000E+00 0. -1.
         11    1    3    3    0    0 -0.37737833705E+02 -0.93429777959E+01 -0.25274244182E+01  0.38959250523E+02  0.51100000000E-03 0. -1.
        -11    1    3    3    0    0  0.44162283565E+01  0.16923935864E+02  0.77054956427E+00  0.17507610485E+02  0.51100000000E-03 0.  1.
        -12    1    3    3    0    0  0.32433196878E+02 -0.82970909766E+01  0.20583536397E+01  0.33540882489E+02  0.00000000000E+00 0.  1.
</event>
<event>
 7    1  0.2148778E-015  0.9000772E+02  0.7816164E-02  0.1186339E+00
        -11   -1    0    0    0    0  0.00000000000E+00  0.00000000000E+00  0.45593999997E+02  0.45594000000E+02  0.51100000000E-03 0. -1.
         11   -1    0    0    0    0 -0.00000000000E+00 -0.00000000000E+00 -0.45593999997E+02  0.45594000000E+02  0.51100000000E-03 0.  1.
    9900012    2    1    2    0    0 -0.49380230390E+00 -0.10286676032E+01  0.30175933997E+00  0.90007721875E+02  0.89999983004E+02 0.  0.
         12    1    1    2    0    0  0.49380230390E+00  0.10286676032E+01 -0.30175933997E+00  0.11802781251E+01  0.00000000000E+00 0. -1.
         11    1    3    3    0    0  0.66962550485E+01 -0.45668812846E+01 -0.51326605689E+01  0.95937709541E+01  0.51100000000E-03 0. -1.
        -11    1    3    3    0    0 -0.37006293504E+02 -0.12133650952E+02 -0.14167358570E+02  0.41441588934E+02  0.51100000000E-03 0.  1.
         12    1    3    3    0    0  0.29816236151E+02  0.15671864633E+02  0.19601778478E+02  0.38972361987E+02  0.00000000000E+00 0. -1.
</event>
<event>
 7    1  0.2148778E-015  0.9000781E+02  0.7816164E-02  0.1186339E+00
        -11   -1    0    0    0    0  0.00000000000E+00  0.00000000000E+00  0.45593999997E+02  0.45594000000E+02  0.51100000000E-03 0. -1.
         11   -1    0    0    0    0 -0.00000000000E+00 -0.00000000000E+00 -0.45593999997E+02  0.45594000000E+02  0.51100000000E-03 0.  1.
    9900012    2    1    2    0    0 -0.11271196753E+01  0.17233860189E-01  0.34950814682E+00  0.90007808612E+02  0.90000070885E+02 0.  0.
         12    1    1    2    0    0  0.11271196753E+01 -0.17233860189E-01 -0.34950814682E+00  0.11801913883E+01  0.00000000000E+00 0. -1.
         11    1    3    3    0    0 -0.49679283893E+01 -0.62403887871E+01 -0.66234184958E+01  0.10367855975E+02  0.51100000000E-03 0. -1.
        -11    1    3    3    0    0 -0.15890488971E+02 -0.30794130518E+02 -0.70874842890E+01  0.35369740569E+02  0.51100000000E-03 0.  1.
         12    1    3    3    0    0  0.19731297685E+02  0.37051753165E+02  0.14060410932E+02  0.44270212068E+02  0.00000000000E+00 0. -1.
</event>
<event>
 7    1  0.2148778E-015  0.9000770E+02  0.7816164E-02  0.1186339E+00
        -11   -1    0    0    0    0  0.00000000000E+00  0.00000000000E+00  0.45593999997E+02  0.45594000000E+02  0.51100000000E-03 0. -1.
         11   -1    0    0    0    0 -0.00000000000E+00 -0.00000000000E+00 -0.45593999997E+02  0.45594000000E+02  0.51100000000E-03 0.  1.
    9900012    2    1    2    0    0 -0.54803533285E-01 -0.69767764286E+00 -0.95044562323E+00  0.90007701562E+02  0.89999962422E+02 0.  0.
         12    1    1    2    0    0  0.54803533285E-01  0.69767764286E+00  0.95044562323E+00  0.11802984382E+01  0.00000000000E+00 0. -1.
         11    1    3    3    0    0  0.11259559039E+02 -0.14296932823E+02  0.28905552016E+02  0.34157149991E+02  0.51100000000E-03 0. -1.
        -11    1    3    3    0    0  0.78081315113E+01 -0.82432978211E+01  0.32585815078E+01  0.11812587793E+02  0.51100000000E-03 0.  1.
        -12    1    3    3    0    0 -0.19122494084E+02  0.21842553001E+02 -0.33114579147E+02  0.44037963778E+02  0.00000000000E+00 0.  1.
</event>
<event>
 7    1  0.2148778E-015  0.9000779E+02  0.7816164E-02  0.1186339E+00
        -11   -1    0    0    0    0  0.00000000000E+00  0.00000000000E+00  0.45593999997E+02  0.45594000000E+02  0.51100000000E-03 0. -1.
         11   -1    0    0    0    0 -0.00000000000E+00 -0.00000000000E+00 -0.45593999997E+02  0.45594000000E+02  0.51100000000E-03 0.  1.
    9900012    2    1    2    0    0 -0.31098020120E+00 -0.61416776896E+00 -0.95863843994E+00  0.90007788836E+02  0.90000050848E+02 0.  0.
         12    1    1    2    0    0  0.31098020120E+00  0.61416776896E+00  0.95863843994E+00  0.11802111644E+01  0.00000000000E+00 0. -1.
         11    1    3    3    0    0  0.23500762690E+02  0.20908097296E+02  0.18361850801E+02  0.36422409924E+02  0.51100000000E-03 0. -1.
        -11    1    3    3    0    0  0.76166648696E+01  0.18662252754E+01  0.31171686614E+01  0.84387867161E+01  0.51100000000E-03 0.  1.
        -12    1    3    3    0    0 -0.31428407761E+02 -0.23388490341E+02 -0.22437657902E+02  0.45146592196E+02  0.00000000000E+00 0.  1.
</event>
<event>
 7    1  0.2148778E-015  0.9000769E+02  0.7816164E-02  0.1186339E+00
        -11   -1    0    0    0    0  0.00000000000E+00  0.00000000000E+00  0.45593999997E+02  0.45594000000E+02  0.51100000000E-03 0. -1.
         11   -1    0    0    0    0 -0.00000000000E+00 -0.00000000000E+00 -0.45593999997E+02  0.45594000000E+02  0.51100000000E-03 0.  1.
    9900012    2    1    2    0    0  0.72249783921E+00  0.72287924985E+00 -0.59040463940E+00  0.90007688526E+02  0.89999949214E+02 0.  0.
         12    1    1    2    0    0 -0.72249783921E+00 -0.72287924985E+00  0.59040463940E+00  0.11803114740E+01  0.00000000000E+00 0. -1.
         11    1    3    3    0    0  0.10769801944E+02 -0.32783857096E+02  0.10353002284E+02  0.36027136669E+02  0.51100000000E-03 0. -1.
        -11    1    3    3    0    0 -0.37270215352E+01 -0.86640323770E+01 -0.56933271227E+01  0.11016810815E+02  0.51100000000E-03 0.  1.
        -12    1    3    3    0    0 -0.63202825692E+01  0.42170768723E+02 -0.52500798002E+01  0.42963741042E+02  0.00000000000E+00 0.  1.
</event>
<event>
 7    1  0.3999636E-015  0.9000767E+02  0.7816164E-02  0.1186339E+00
        -11   -1    0    0    0    0  0.00000000000E+00  0.00000000000E+00  0.45593999997E+02  0.45594000000E+02  0.51100000000E-03 0.  1.
         11   -1    0    0    0    0 -0.00000000000E+00 -0.00000000000E+00 -0.45593999997E+02  0.45594000000E+02  0.51100000000E-03 0. -1.
    9900012    2    1    2    0    0  0.17296562146E+00  0.93232219466E+00  0.70287789255E+00  0.90007669914E+02  0.89999930357E+02 0.  0.
         12    1    1    2    0    0 -0.17296562146E+00 -0.93232219466E+00 -0.70287789255E+00  0.11803300863E+01  0.00000000000E+00 0. -1.
         11    1    3    3    0    0  0.73342863980E+01 -0.55630971949E+01 -0.54576280331E+00  0.92215868844E+01  0.51100000000E-03 0. -1.
        -11    1    3    3    0    0 -0.27680149579E+01 -0.49970684549E+01  0.39857202548E+02  0.40264490499E+02  0.51100000000E-03 0.  1.
         12    1    3    3    0    0 -0.43933058186E+01  0.11492487844E+02 -0.38608561852E+02  0.40521592530E+02  0.00000000000E+00 0. -1.
</event>
<event>
 7    1  0.2148778E-015  0.9000772E+02  0.7816164E-02  0.1186339E+00
        -11   -1    0    0    0    0  0.00000000000E+00  0.00000000000E+00  0.45593999997E+02  0.45594000000E+02  0.51100000000E-03 0.  1.
         11   -1    0    0    0    0 -0.00000000000E+00 -0.00000000000E+00 -0.45593999997E+02  0.45594000000E+02  0.51100000000E-03 0. -1.
    9900012    2    1    2    0    0 -0.11147352891E+01 -0.38524038383E+00  0.44860711752E-01  0.90007721473E+02  0.89999982596E+02 0.  0.
         12    1    1    2    0    0  0.11147352891E+01  0.38524038383E+00 -0.44860711752E-01  0.11802785271E+01  0.00000000000E+00 0. -1.
         11    1    3    3    0    0  0.80739368228E+01  0.53795486367E+01  0.20671469054E+01  0.99197326548E+01  0.51100000000E-03 0. -1.
        -11    1    3    3    0    0  0.22137934871E+02  0.14813332775E+02  0.22858679408E+02  0.35100458869E+02  0.51100000000E-03 0.  1.
         12    1    3    3    0    0 -0.31326606983E+02 -0.20578121795E+02 -0.24880965601E+02  0.44987529949E+02  0.00000000000E+00 0. -1.
</event>
<event>
 7    1  0.2148778E-015  0.9000774E+02  0.7816164E-02  0.1186339E+00
        -11   -1    0    0    0    0  0.00000000000E+00  0.00000000000E+00  0.45593999997E+02  0.45594000000E+02  0.51100000000E-03 0.  1.
         11   -1    0    0    0    0 -0.00000000000E+00 -0.00000000000E+00 -0.45593999997E+02  0.45594000000E+02  0.51100000000E-03 0. -1.
    9900012    2    1    2    0    0 -0.40492023046E+00 -0.50264259704E+00  0.98813730004E+00  0.90007735073E+02  0.89999996376E+02 0.  0.
         12    1    1    2    0    0  0.40492023046E+00  0.50264259704E+00 -0.98813730004E+00  0.11802649267E+01  0.00000000000E+00 0. -1.
         11    1    3    3    0    0  0.67254922688E+01 -0.16569856834E+01 -0.66232888142E+01  0.95836215905E+01  0.51100000000E-03 0. -1.
        -11    1    3    3    0    0 -0.37555449103E+02 -0.19814675656E+02  0.91666682276E+01  0.43440314632E+02  0.51100000000E-03 0.  1.
         12    1    3    3    0    0  0.30425036604E+02  0.20969018742E+02 -0.15552421134E+01  0.36983798850E+02  0.00000000000E+00 0. -1.
</event>
<event>
 7    1  0.2148778E-015  0.9000773E+02  0.7816164E-02  0.1186339E+00
        -11   -1    0    0    0    0  0.00000000000E+00  0.00000000000E+00  0.45593999997E+02  0.45594000000E+02  0.51100000000E-03 0.  1.
         11   -1    0    0    0    0 -0.00000000000E+00 -0.00000000000E+00 -0.45593999997E+02  0.45594000000E+02  0.51100000000E-03 0. -1.
    9900012    2    1    2    0    0 -0.26498461709E+00 -0.98294932781E+00  0.59719265855E+00  0.90007726600E+02  0.89999987791E+02 0.  0.
         12    1    1    2    0    0  0.26498461709E+00  0.98294932781E+00 -0.59719265855E+00  0.11802734004E+01  0.00000000000E+00 0. -1.
         11    1    3    3    0    0  0.45677410332E+00  0.71310466248E+01 -0.45224703952E+01  0.84565481896E+01  0.51100000000E-03 0. -1.
        -11    1    3    3    0    0 -0.30062797068E+02  0.98635936648E+01  0.26301257723E+02  0.41143874460E+02  0.51100000000E-03 0.  1.
         12    1    3    3    0    0  0.29341038347E+02 -0.17977589617E+02 -0.21181594669E+02  0.40407303950E+02  0.00000000000E+00 0. -1.
</event>
<event>
 7    1  0.2209482E-015  0.9000775E+02  0.7816164E-02  0.1186339E+00
        -11   -1    0    0    0    0  0.00000000000E+00  0.00000000000E+00  0.45593999997E+02  0.45594000000E+02  0.51100000000E-03 0. -1.
         11   -1    0    0    0    0 -0.00000000000E+00 -0.00000000000E+00 -0.45593999997E+02  0.45594000000E+02  0.51100000000E-03 0.  1.
    9900012    2    1    2    0    0  0.43003183448E+00 -0.10524840278E+01 -0.31678134835E+00  0.90007745608E+02  0.90000007050E+02 0.  0.
         12    1    1    2    0    0 -0.43003183448E+00  0.10524840278E+01  0.31678134835E+00  0.11802543921E+01  0.00000000000E+00 0. -1.
         11    1    3    3    0    0  0.74118298223E+01  0.38119347326E+01 -0.51154751360E+01  0.97792716420E+01  0.51100000000E-03 0. -1.
        -11    1    3    3    0    0  0.47620819489E+01  0.33129082517E+02 -0.13953558600E+02  0.36261761275E+02  0.51100000000E-03 0.  1.
         12    1    3    3    0    0 -0.11743879937E+02 -0.37993501277E+02  0.18752252387E+02  0.43966712691E+02  0.00000000000E+00 0. -1.
</event>
<event>
 7    1  0.2148778E-015  0.9000771E+02  0.7816164E-02  0.1186339E+00
        -11   -1    0    0    0    0  0.00000000000E+00  0.00000000000E+00  0.45593999997E+02  0.45594000000E+02  0.51100000000E-03 0. -1.
         11   -1    0    0    0    0 -0.00000000000E+00 -0.00000000000E+00 -0.45593999997E+02  0.45594000000E+02  0.51100000000E-03 0.  1.
    9900012    2    1    2    0    0  0.48014633787E+00  0.10696034772E+01  0.13602149646E+00  0.90007705989E+02  0.89999966908E+02 0.  0.
         12    1    1    2    0    0 -0.48014633787E+00 -0.10696034772E+01 -0.13602149646E+00  0.11802940107E+01  0.00000000000E+00 0. -1.
         11    1    3    3    0    0  0.98224462291E+01 -0.73239342863E+00 -0.19693405166E+01  0.10044657903E+02  0.51100000000E-03 0. -1.
        -11    1    3    3    0    0  0.33173039813E+02  0.72463809270E+01 -0.10048110818E+02  0.35410805388E+02  0.51100000000E-03 0.  1.
         12    1    3    3    0    0 -0.42515339704E+02 -0.54443840212E+01  0.12153472831E+02  0.44552242698E+02  0.00000000000E+00 0. -1.
</event>
<event>
 7    1  0.2148778E-015  0.9000781E+02  0.7816164E-02  0.1186339E+00
        -11   -1    0    0    0    0  0.00000000000E+00  0.00000000000E+00  0.45593999997E+02  0.45594000000E+02  0.51100000000E-03 0.  1.
         11   -1    0    0    0    0 -0.00000000000E+00 -0.00000000000E+00 -0.45593999997E+02  0.45594000000E+02  0.51100000000E-03 0. -1.
    9900012    2    1    2    0    0 -0.16933406600E+00 -0.58609955203E+00 -0.10102767372E+01  0.90007811118E+02  0.90000073425E+02 0.  0.
         12    1    1    2    0    0  0.16933406600E+00  0.58609955203E+00  0.10102767372E+01  0.11801888817E+01  0.00000000000E+00 0. -1.
         11    1    3    3    0    0 -0.36436361599E+01  0.27770187656E+00 -0.81247875859E+01  0.89087247334E+01  0.51100000000E-03 0. -1.
        -11    1    3    3    0    0 -0.30566916856E+02  0.17735800139E+02  0.19520348501E+02  0.40372503249E+02  0.51100000000E-03 0.  1.
         12    1    3    3    0    0  0.34041218950E+02 -0.18599601568E+02 -0.12405837652E+02  0.40726583136E+02  0.00000000000E+00 0. -1.
</event>
<event>
 7    1  0.2148778E-015  0.9000771E+02  0.7816164E-02  0.1186339E+00
        -11   -1    0    0    0    0  0.00000000000E+00  0.00000000000E+00  0.45593999997E+02  0.45594000000E+02  0.51100000000E-03 0.  1.
         11   -1    0    0    0    0 -0.00000000000E+00 -0.00000000000E+00 -0.45593999997E+02  0.45594000000E+02  0.51100000000E-03 0. -1.
    9900012    2    1    2    0    0 -0.69020243844E+00  0.78404581383E+00 -0.54952869867E+00  0.90007708072E+02  0.89999969019E+02 0.  0.
         12    1    1    2    0    0  0.69020243844E+00 -0.78404581383E+00  0.54952869867E+00  0.11802919278E+01  0.00000000000E+00 0. -1.
         11    1    3    3    0    0  0.11997272161E+02  0.38666116992E+02  0.28581435127E+01  0.40585368387E+02  0.51100000000E-03 0. -1.
        -11    1    3    3    0    0 -0.16728353017E+01  0.29268115794E+00  0.79256382290E+01  0.81055401921E+01  0.51100000000E-03 0.  1.
        -12    1    3    3    0    0 -0.11014639297E+02 -0.38174752336E+02 -0.11333310440E+02  0.41316799493E+02  0.00000000000E+00 0.  1.
</event>
<event>
 7    1  0.2148778E-015  0.9000762E+02  0.7816164E-02  0.1186339E+00
        -11   -1    0    0    0    0  0.00000000000E+00  0.00000000000E+00  0.45593999997E+02  0.45594000000E+02  0.51100000000E-03 0.  1.
         11   -1    0    0    0    0 -0.00000000000E+00 -0.00000000000E+00 -0.45593999997E+02  0.45594000000E+02  0.51100000000E-03 0. -1.
    9900012    2    1    2    0    0 -0.11519240458E+01  0.20979285164E+00  0.14948681912E+00  0.90007623638E+02  0.89999883470E+02 0.  0.
         12    1    1    2    0    0  0.11519240458E+01 -0.20979285164E+00 -0.14948681912E+00  0.11803763624E+01  0.00000000000E+00 0. -1.
         11    1    3    3    0    0  0.45532212950E+01 -0.93894680718E+01 -0.13407623070E+01  0.10521006542E+02  0.51100000000E-03 0. -1.
        -11    1    3    3    0    0 -0.61132631203E+01 -0.74424337154E+01  0.37995622767E+02  0.39197310562E+02  0.51100000000E-03 0.  1.
         12    1    3    3    0    0  0.40811777950E+00  0.17041694639E+02 -0.36505373641E+02  0.40289306533E+02  0.00000000000E+00 0. -1.
</event>
<event>
 7    1  0.2148778E-015  0.9000837E+02  0.7816164E-02  0.1186338E+00
        -11   -1    0    0    0    0  0.00000000000E+00  0.00000000000E+00  0.45593999997E+02  0.45594000000E+02  0.51100000000E-03 0.  1.
         11   -1    0    0    0    0 -0.00000000000E+00 -0.00000000000E+00 -0.45593999997E+02  0.45594000000E+02  0.51100000000E-03 0. -1.
    9900012    2    1    2    0    0 -0.44460063043E+00 -0.99077389997E+00  0.46067840889E+00  0.90008369872E+02  0.90000639552E+02 0.  0.
         12    1    1    2    0    0  0.44460063043E+00  0.99077389997E+00 -0.46067840889E+00  0.11796301276E+01  0.00000000000E+00 0. -1.
         11    1    3    3    0    0  0.16407081560E+02 -0.25833237783E+02 -0.25487822485E+02  0.39826845154E+02  0.51100000000E-03 0. -1.
        -11    1    3    3    0    0  0.76008144652E+01  0.69577022688E+01  0.18029772898E-01  0.10304480905E+02  0.51100000000E-03 0.  1.
        -12    1    3    3    0    0 -0.24452496655E+02  0.17884761614E+02  0.25930471121E+02  0.39877043813E+02  0.00000000000E+00 0.  1.
</event>
<event>
 7    1  0.2148778E-015  0.9000770E+02  0.7816164E-02  0.1186339E+00
        -11   -1    0    0    0    0  0.00000000000E+00  0.00000000000E+00  0.45593999997E+02  0.45594000000E+02  0.51100000000E-03 0.  1.
         11   -1    0    0    0    0 -0.00000000000E+00 -0.00000000000E+00 -0.45593999997E+02  0.45594000000E+02  0.51100000000E-03 0. -1.
    9900012    2    1    2    0    0  0.99549218797E+00 -0.38033163458E+00 -0.50739978965E+00  0.90007698600E+02  0.89999959421E+02 0.  0.
         12    1    1    2    0    0 -0.99549218797E+00  0.38033163458E+00  0.50739978965E+00  0.11803014001E+01  0.00000000000E+00 0. -1.
         11    1    3    3    0    0 -0.52658127833E+01  0.65126599661E+01  0.39878980796E+01  0.92761444285E+01  0.51100000000E-03 0. -1.
        -11    1    3    3    0    0 -0.15948997338E+02  0.26875800764E+02  0.16332823770E+02  0.35262449084E+02  0.51100000000E-03 0.  1.
         12    1    3    3    0    0  0.22210302310E+02 -0.33768792365E+02 -0.20828121639E+02  0.45469105088E+02  0.00000000000E+00 0. -1.
</event>
<event>
 7    1  0.2148778E-015  0.9000772E+02  0.7816164E-02  0.1186339E+00
        -11   -1    0    0    0    0  0.00000000000E+00  0.00000000000E+00  0.45593999997E+02  0.45594000000E+02  0.51100000000E-03 0.  1.
         11   -1    0    0    0    0 -0.00000000000E+00 -0.00000000000E+00 -0.45593999997E+02  0.45594000000E+02  0.51100000000E-03 0. -1.
    9900012    2    1    2    0    0  0.96069773127E+00  0.61016681945E+00  0.31273861522E+00  0.90007724981E+02  0.89999986151E+02 0.  0.
         12    1    1    2    0    0 -0.96069773127E+00 -0.61016681945E+00 -0.31273861522E+00  0.11802750187E+01  0.00000000000E+00 0. -1.
         11    1    3    3    0    0 -0.97195775841E+01 -0.45301625156E+01  0.22572077241E-02  0.10723458686E+02  0.51100000000E-03 0. -1.
        -11    1    3    3    0    0 -0.12842916452E+02  0.33322486404E+02  0.16285245974E+02  0.39249685856E+02  0.51100000000E-03 0.  1.
         12    1    3    3    0    0  0.23523191767E+02 -0.28182157069E+02 -0.15974764566E+02  0.40034580439E+02  0.00000000000E+00 0. -1.
</event>
<event>
 7    1  0.2148778E-015  0.9000769E+02  0.7816164E-02  0.1186339E+00
        -11   -1    0    0    0    0  0.00000000000E+00  0.00000000000E+00  0.45593999997E+02  0.45594000000E+02  0.51100000000E-03 0.  1.
         11   -1    0    0    0    0 -0.00000000000E+00 -0.00000000000E+00 -0.45593999997E+02  0.45594000000E+02  0.51100000000E-03 0. -1.
    9900012    2    1    2    0    0 -0.62683171845E-01 -0.81568090095E+00  0.85080749502E+00  0.90007687369E+02  0.89999948043E+02 0.  0.
         12    1    1    2    0    0  0.62683171845E-01  0.81568090095E+00 -0.85080749502E+00  0.11803126305E+01  0.00000000000E+00 0. -1.
         11    1    3    3    0    0 -0.10060119381E+02 -0.22007603456E+00 -0.37419666787E+00  0.10069481557E+02  0.51100000000E-03 0. -1.
        -11    1    3    3    0    0 -0.25344422851E+02  0.25519540874E+02  0.14107497088E+01  0.35994123841E+02  0.51100000000E-03 0.  1.
         12    1    3    3    0    0  0.35341859060E+02 -0.26115145741E+02 -0.18574554589E+00  0.43944081971E+02  0.00000000000E+00 0. -1.
</event>
<event>
 7    1  0.2148778E-015  0.9000807E+02  0.7816164E-02  0.1186338E+00
        -11   -1    0    0    0    0  0.00000000000E+00  0.00000000000E+00  0.45593999997E+02  0.45594000000E+02  0.51100000000E-03 0. -1.
         11   -1    0    0    0    0 -0.00000000000E+00 -0.00000000000E+00 -0.45593999997E+02  0.45594000000E+02  0.51100000000E-03 0.  1.
    9900012    2    1    2    0    0 -0.11348196544E+01 -0.21977460186E+00 -0.23688318073E+00  0.90008071966E+02  0.90000337716E+02 0.  0.
         12    1    1    2    0    0  0.11348196544E+01  0.21977460186E+00  0.23688318073E+00  0.11799280338E+01  0.00000000000E+00 0. -1.
         11    1    3    3    0    0  0.17978770017E+01 -0.73378965738E+01  0.82221306028E+01  0.11166043156E+02  0.51100000000E-03 0. -1.
        -11    1    3    3    0    0  0.31967911024E+02  0.23579847429E+02 -0.60184257057E+01  0.40176833975E+02  0.51100000000E-03 0.  1.
         12    1    3    3    0    0 -0.34900607681E+02 -0.16461725457E+02 -0.24405880778E+01  0.38665194835E+02  0.00000000000E+00 0. -1.
</event>
<event>
 7    1  0.2148778E-015  0.9000773E+02  0.7816164E-02  0.1186339E+00
        -11   -1    0    0    0    0  0.00000000000E+00  0.00000000000E+00  0.45593999997E+02  0.45594000000E+02  0.51100000000E-03 0.  1.
         11   -1    0    0    0    0 -0.00000000000E+00 -0.00000000000E+00 -0.45593999997E+02  0.45594000000E+02  0.51100000000E-03 0. -1.
    9900012    2    1    2    0    0 -0.36159893043E-01  0.11633894779E+01 -0.19561203461E+00  0.90007726014E+02  0.89999987197E+02 0.  0.
         12    1    1    2    0    0  0.36159893043E-01 -0.11633894779E+01  0.19561203461E+00  0.11802739865E+01  0.00000000000E+00 0. -1.
         11    1    3    3    0    0 -0.53949950206E+01  0.22359718215E+02  0.30197812472E+01  0.23198751022E+02  0.51100000000E-03 0. -1.
        -11    1    3    3    0    0 -0.16757080500E+02  0.74082397325E+01  0.17332613919E+02  0.25221048122E+02  0.51100000000E-03 0.  1.
         12    1    3    3    0    0  0.22115915628E+02 -0.28604568470E+02 -0.20548007201E+02  0.41587926870E+02  0.00000000000E+00 0. -1.
</event>
<event>
 7    1  0.2148778E-015  0.9000768E+02  0.7816164E-02  0.1186339E+00
        -11   -1    0    0    0    0  0.00000000000E+00  0.00000000000E+00  0.45593999997E+02  0.45594000000E+02  0.51100000000E-03 0.  1.
         11   -1    0    0    0    0 -0.00000000000E+00 -0.00000000000E+00 -0.45593999997E+02  0.45594000000E+02  0.51100000000E-03 0. -1.
    9900012    2    1    2    0    0 -0.11688126545E+01  0.60768427398E-01  0.15278703332E+00  0.90007678137E+02  0.89999938688E+02 0.  0.
         12    1    1    2    0    0  0.11688126545E+01 -0.60768427398E-01 -0.15278703332E+00  0.11803218631E+01  0.00000000000E+00 0. -1.
         11    1    3    3    0    0  0.20384672798E-01  0.47304116335E+01 -0.36841410188E+02  0.37143865101E+02  0.51100000000E-03 0. -1.
        -11    1    3    3    0    0 -0.71133904113E+01  0.44074620640E+01 -0.48271626223E+01  0.96606182117E+01  0.51100000000E-03 0.  1.
        -12    1    3    3    0    0  0.59241930841E+01 -0.90771052701E+01  0.41821359844E+02  0.43203194824E+02  0.00000000000E+00 0.  1.
</event>
<event>
 7    1  0.2547330E-015  0.9000756E+02  0.7816164E-02  0.1186339E+00
        -11   -1    0    0    0    0  0.00000000000E+00  0.00000000000E+00  0.45593999997E+02  0.45594000000E+02  0.51100000000E-03 0.  1.
         11   -1    0    0    0    0 -0.00000000000E+00 -0.00000000000E+00 -0.45593999997E+02  0.45594000000E+02  0.51100000000E-03 0. -1.
    9900012    2    1    2    0    0  0.67480940704E+00  0.80080049521E+00  0.54479160193E+00  0.90007556415E+02  0.89999815359E+02 0.  0.
         12    1    1    2    0    0 -0.67480940704E+00 -0.80080049521E+00 -0.54479160193E+00  0.11804435855E+01  0.00000000000E+00 0. -1.
         11    1    3    3    0    0 -0.35930987889E+01 -0.67328772572E+01  0.56302468248E+01  0.94837584657E+01  0.51100000000E-03 0. -1.
        -11    1    3    3    0    0  0.16303474598E+02 -0.24900852750E+02  0.21647430624E+02  0.36803084171E+02  0.51100000000E-03 0.  1.
         12    1    3    3    0    0 -0.12035566402E+02  0.32434530502E+02 -0.26732885847E+02  0.43720713778E+02  0.00000000000E+00 0. -1.
</event>
<event>
 7    1  0.2148778E-015  0.9000682E+02  0.7816164E-02  0.1186341E+00
        -11   -1    0    0    0    0  0.00000000000E+00  0.00000000000E+00  0.45593999997E+02  0.45594000000E+02  0.51100000000E-03 0.  1.
         11   -1    0    0    0    0 -0.00000000000E+00 -0.00000000000E+00 -0.45593999997E+02  0.45594000000E+02  0.51100000000E-03 0. -1.
    9900012    2    1    2    0    0 -0.11289705424E+01  0.34561888895E+00  0.33982945145E-01  0.90006821884E+02  0.89999071128E+02 0.  0.
         12    1    1    2    0    0  0.11289705424E+01 -0.34561888895E+00 -0.33982945145E-01  0.11811781164E+01  0.00000000000E+00 0. -1.
         11    1    3    3    0    0 -0.52567091462E+01 -0.83887230006E+01  0.42704123016E+01  0.10781469571E+02  0.51100000000E-03 0. -1.
        -11    1    3    3    0    0 -0.21002072893E+02  0.35696829941E+02 -0.79784712053E+01  0.42178273278E+02  0.51100000000E-03 0.  1.
         12    1    3    3    0    0  0.25129811497E+02 -0.26962488052E+02  0.37420418489E+01  0.37047079035E+02  0.00000000000E+00 0. -1.
</event>
<event>
 7    1  0.2148778E-015  0.9000777E+02  0.7816164E-02  0.1186339E+00
        -11   -1    0    0    0    0  0.00000000000E+00  0.00000000000E+00  0.45593999997E+02  0.45594000000E+02  0.51100000000E-03 0. -1.
         11   -1    0    0    0    0 -0.00000000000E+00 -0.00000000000E+00 -0.45593999997E+02  0.45594000000E+02  0.51100000000E-03 0.  1.
    9900012    2    1    2    0    0 -0.36907618541E+00  0.46135007681E+00 -0.10217053296E+01  0.90007769978E+02  0.90000031742E+02 0.  0.
         12    1    1    2    0    0  0.36907618541E+00 -0.46135007681E+00  0.10217053296E+01  0.11802300219E+01  0.00000000000E+00 0. -1.
         11    1    3    3    0    0 -0.76370208773E+01 -0.48716000488E+01 -0.43528943853E+01  0.10050087796E+02  0.51100000000E-03 0. -1.
        -11    1    3    3    0    0  0.38109035416E+02 -0.12197815442E+02 -0.11307698339E+02  0.41580636405E+02  0.51100000000E-03 0.  1.
         12    1    3    3    0    0 -0.30841090724E+02  0.17530765567E+02  0.14638887394E+02  0.38377045777E+02  0.00000000000E+00 0. -1.
</event>
<event>
 7    1  0.2148778E-015  0.9000815E+02  0.7816164E-02  0.1186338E+00
        -11   -1    0    0    0    0  0.00000000000E+00  0.00000000000E+00  0.45593999997E+02  0.45594000000E+02  0.51100000000E-03 0.  1.
         11   -1    0    0    0    0 -0.00000000000E+00 -0.00000000000E+00 -0.45593999997E+02  0.45594000000E+02  0.51100000000E-03 0. -1.
    9900012    2    1    2    0    0 -0.70982060405E+00  0.28717520055E+00  0.89762784358E+00  0.90008148047E+02  0.90000414800E+02 0.  0.
         12    1    1    2    0    0  0.70982060405E+00 -0.28717520055E+00 -0.89762784358E+00  0.11798519531E+01  0.00000000000E+00 0. -1.
         11    1    3    3    0    0 -0.26770055602E+02  0.23157231308E+02 -0.17344920556E+02  0.39417502561E+02  0.51100000000E-03 0. -1.
        -11    1    3    3    0    0 -0.39978974012E+01 -0.77840157902E+01 -0.46477783162E+01  0.99083767081E+01  0.51100000000E-03 0.  1.
        -12    1    3    3    0    0  0.30058132399E+02 -0.15086040317E+02  0.22890326715E+02  0.40682268778E+02  0.00000000000E+00 0.  1.
</event>
<event>
 7    1  0.2148778E-015  0.9000753E+02  0.7816164E-02  0.1186339E+00
        -11   -1    0    0    0    0  0.00000000000E+00  0.00000000000E+00  0.45593999997E+02  0.45594000000E+02  0.51100000000E-03 0.  1.
         11   -1    0    0    0    0 -0.00000000000E+00 -0.00000000000E+00 -0.45593999997E+02  0.45594000000E+02  0.51100000000E-03 0. -1.
    9900012    2    1    2    0    0 -0.83305767428E+00 -0.64613900537E+00 -0.53106744101E+00  0.90007528344E+02  0.89999786918E+02 0.  0.
         12    1    1    2    0    0  0.83305767428E+00  0.64613900537E+00  0.53106744101E+00  0.11804716557E+01  0.00000000000E+00 0. -1.
         11    1    3    3    0    0  0.49934403040E+01  0.69597051176E+01 -0.59084724523E+01  0.10405863173E+02  0.51100000000E-03 0. -1.
        -11    1    3    3    0    0 -0.15085234437E+02  0.27102480437E+02  0.23925943096E+02  0.39173453986E+02  0.51100000000E-03 0.  1.
         12    1    3    3    0    0  0.92587364587E+01 -0.34708324560E+02 -0.18548538085E+02  0.40428211186E+02  0.00000000000E+00 0. -1.
</event>
<event>
 7    1  0.2148778E-015  0.9000777E+02  0.7816164E-02  0.1186339E+00
        -11   -1    0    0    0    0  0.00000000000E+00  0.00000000000E+00  0.45593999997E+02  0.45594000000E+02  0.51100000000E-03 0.  1.
         11   -1    0    0    0    0 -0.00000000000E+00 -0.00000000000E+00 -0.45593999997E+02  0.45594000000E+02  0.51100000000E-03 0. -1.
    9900012    2    1    2    0    0  0.58925878844E+00  0.61054488679E+00 -0.82034193739E+00  0.90007766179E+02  0.90000027892E+02 0.  0.
         12    1    1    2    0    0 -0.58925878844E+00 -0.61054488679E+00  0.82034193739E+00  0.11802338212E+01  0.00000000000E+00 0. -1.
         11    1    3    3    0    0 -0.26195520945E+02  0.33076494727E+02 -0.11290793402E+02  0.43677704117E+02  0.51100000000E-03 0. -1.
        -11    1    3    3    0    0  0.77977445772E+01 -0.51874004189E+01 -0.38683132599E+01  0.10133005050E+02  0.51100000000E-03 0.  1.
        -12    1    3    3    0    0  0.18987035157E+02 -0.27278549421E+02  0.14338764724E+02  0.36197057013E+02  0.00000000000E+00 0.  1.
</event>
<event>
 7    1  0.2148778E-015  0.9000765E+02  0.7816164E-02  0.1186339E+00
        -11   -1    0    0    0    0  0.00000000000E+00  0.00000000000E+00  0.45593999997E+02  0.45594000000E+02  0.51100000000E-03 0. -1.
         11   -1    0    0    0    0 -0.00000000000E+00 -0.00000000000E+00 -0.45593999997E+02  0.45594000000E+02  0.51100000000E-03 0.  1.
    9900012    2    1    2    0    0  0.70538509850E+00 -0.25677883755E+00  0.91088675940E+00  0.90007653357E+02  0.89999913582E+02 0.  0.
         12    1    1    2    0    0 -0.70538509850E+00  0.25677883755E+00 -0.91088675940E+00  0.11803466427E+01  0.00000000000E+00 0. -1.
         11    1    3    3    0    0 -0.13816802686E+01  0.95298316372E+01 -0.33076093414E+01  0.10181699819E+02  0.51100000000E-03 0. -1.
        -11    1    3    3    0    0  0.30852624139E+02  0.19653979760E+02  0.10801079954E+02  0.38142190093E+02  0.51100000000E-03 0.  1.
         12    1    3    3    0    0 -0.28765558772E+02 -0.29440590234E+02 -0.65825838527E+01  0.41683763445E+02  0.00000000000E+00 0. -1.
</event>
<event>
 7    1  0.2148778E-015  0.9000795E+02  0.7816164E-02  0.1186339E+00
        -11   -1    0    0    0    0  0.00000000000E+00  0.00000000000E+00  0.45593999997E+02  0.45594000000E+02  0.51100000000E-03 0.  1.
         11   -1    0    0    0    0 -0.00000000000E+00 -0.00000000000E+00 -0.45593999997E+02  0.45594000000E+02  0.51100000000E-03 0. -1.
    9900012    2    1    2    0    0  0.49327482895E+00  0.75566530445E+00  0.76037956533E+00  0.90007946106E+02  0.90000210194E+02 0.  0.
         12    1    1    2    0    0 -0.49327482895E+00 -0.75566530445E+00 -0.76037956533E+00  0.11800538939E+01  0.00000000000E+00 0. -1.
         11    1    3    3    0    0 -0.61991413199E+01  0.10738479294E+02 -0.90041579679E+01  0.15323809958E+02  0.51100000000E-03 0. -1.
        -11    1    3    3    0    0 -0.31588395596E+02 -0.15555629722E+02  0.70099657175E+01  0.35901865857E+02  0.51100000000E-03 0.  1.
         12    1    3    3    0    0  0.38280811745E+02  0.55728157319E+01  0.27545718157E+01  0.38782270291E+02  0.00000000000E+00 0. -1.
</event>
<event>
 7    1  0.2148778E-015  0.9000852E+02  0.7816164E-02  0.1186337E+00
        -11   -1    0    0    0    0  0.00000000000E+00  0.00000000000E+00  0.45593999997E+02  0.45594000000E+02  0.51100000000E-03 0.  1.
         11   -1    0    0    0    0 -0.00000000000E+00 -0.00000000000E+00 -0.45593999997E+02  0.45594000000E+02  0.51100000000E-03 0. -1.
    9900012    2    1    2    0    0  0.33726993825E+00  0.51278736033E+00  0.10072122107E+01  0.90008517772E+02  0.90000789403E+02 0.  0.
         12    1    1    2    0    0 -0.33726993825E+00 -0.51278736033E+00 -0.10072122107E+01  0.11794822277E+01  0.00000000000E+00 0. -1.
         11    1    3    3    0    0  0.18453393857E+02 -0.12889667975E+02 -0.34850388528E+02  0.41487598944E+02  0.51100000000E-03 0. -1.
        -11    1    3    3    0    0 -0.85656227552E+01  0.14559119747E+01 -0.87387678165E+00  0.87323097605E+01  0.51100000000E-03 0.  1.
        -12    1    3    3    0    0 -0.95505011635E+01  0.11946543361E+02  0.36731477520E+02  0.39788609068E+02  0.00000000000E+00 0.  1.
</event>
<event>
 7    1  0.2148778E-015  0.9000772E+02  0.7816164E-02  0.1186339E+00
        -11   -1    0    0    0    0  0.00000000000E+00  0.00000000000E+00  0.45593999997E+02  0.45594000000E+02  0.51100000000E-03 0. -1.
         11   -1    0    0    0    0 -0.00000000000E+00 -0.00000000000E+00 -0.45593999997E+02  0.45594000000E+02  0.51100000000E-03 0.  1.
    9900012    2    1    2    0    0 -0.36922312810E-02  0.10060605411E+01 -0.61717089313E+00  0.90007715561E+02  0.89999976607E+02 0.  0.
         12    1    1    2    0    0  0.36922312810E-02 -0.10060605411E+01  0.61717089313E+00  0.11802844387E+01  0.00000000000E+00 0. -1.
         11    1    3    3    0    0  0.76246418713E+01  0.34946119960E+02  0.17217184445E+02  0.39696321044E+02  0.51100000000E-03 0. -1.
        -11    1    3    3    0    0 -0.12951438834E+01  0.56230248817E+01 -0.64590554278E+01  0.86611317839E+01  0.51100000000E-03 0.  1.
        -12    1    3    3    0    0 -0.63331902192E+01 -0.39563084301E+02 -0.11375299911E+02  0.41650262734E+02  0.00000000000E+00 0.  1.
</event>
<event>
 7    1  0.2148778E-015  0.9000753E+02  0.7816164E-02  0.1186339E+00
        -11   -1    0    0    0    0  0.00000000000E+00  0.00000000000E+00  0.45593999997E+02  0.45594000000E+02  0.51100000000E-03 0.  1.
         11   -1    0    0    0    0 -0.00000000000E+00 -0.00000000000E+00 -0.45593999997E+02  0.45594000000E+02  0.51100000000E-03 0. -1.
    9900012    2    1    2    0    0  0.61045121313E+00 -0.92480590245E+00 -0.40692805070E+00  0.90007530992E+02  0.89999789601E+02 0.  0.
         12    1    1    2    0    0 -0.61045121313E+00  0.92480590245E+00  0.40692805070E+00  0.11804690082E+01  0.00000000000E+00 0. -1.
         11    1    3    3    0    0  0.34885263751E+02 -0.23863842955E+01 -0.12073838768E+02  0.36992621425E+02  0.51100000000E-03 0. -1.
        -11    1    3    3    0    0  0.64448694655E+01  0.64733421672E+01 -0.27323330716E+01  0.95344714335E+01  0.51100000000E-03 0.  1.
        -12    1    3    3    0    0 -0.40719682004E+02 -0.50117637741E+01  0.14399243789E+02  0.43480438134E+02  0.00000000000E+00 0.  1.
</event>
<event>
 7    1  0.2148778E-015  0.9000773E+02  0.7816164E-02  0.1186339E+00
        -11   -1    0    0    0    0  0.00000000000E+00  0.00000000000E+00  0.45593999997E+02  0.45594000000E+02  0.51100000000E-03 0. -1.
         11   -1    0    0    0    0 -0.00000000000E+00 -0.00000000000E+00 -0.45593999997E+02  0.45594000000E+02  0.51100000000E-03 0.  1.
    9900012    2    1    2    0    0 -0.31002303318E+00  0.80130561756E+00 -0.80922355705E+00  0.90007725566E+02  0.89999986744E+02 0.  0.
         12    1    1    2    0    0  0.31002303318E+00 -0.80130561756E+00  0.80922355705E+00  0.11802744338E+01  0.00000000000E+00 0. -1.
         11    1    3    3    0    0  0.68170435622E+01 -0.79547610279E+01 -0.56510322579E+01  0.11903128655E+02  0.51100000000E-03 0. -1.
        -11    1    3    3    0    0  0.48282526471E+01  0.30981793162E+02 -0.24215404781E+02  0.39617790955E+02  0.51100000000E-03 0.  1.
         12    1    3    3    0    0 -0.11955319243E+02 -0.22225726517E+02  0.29057213482E+02  0.38486805956E+02  0.00000000000E+00 0. -1.
</event>
<event>
 7    1  0.2148778E-015  0.9000768E+02  0.7816164E-02  0.1186339E+00
        -11   -1    0    0    0    0  0.00000000000E+00  0.00000000000E+00  0.45593999997E+02  0.45594000000E+02  0.51100000000E-03 0.  1.
         11   -1    0    0    0    0 -0.00000000000E+00 -0.00000000000E+00 -0.45593999997E+02  0.45594000000E+02  0.51100000000E-03 0. -1.
    9900012    2    1    2    0    0 -0.55500794482E+00 -0.74116390345E+00  0.73198238728E+00  0.90007679719E+02  0.89999940291E+02 0.  0.
         12    1    1    2    0    0  0.55500794482E+00  0.74116390345E+00 -0.73198238728E+00  0.11803202811E+01  0.00000000000E+00 0. -1.
         11    1    3    3    0    0  0.32217769605E+01  0.58880298617E+01  0.10006171889E+02  0.12048743444E+02  0.51100000000E-03 0. -1.
        -11    1    3    3    0    0  0.11803977864E+01  0.26584146992E+02  0.20096012649E+02  0.33346063259E+02  0.51100000000E-03 0.  1.
         12    1    3    3    0    0 -0.49571826917E+01 -0.33213340757E+02 -0.29370202150E+02  0.44612873017E+02  0.00000000000E+00 0. -1.
</event>
<event>
 7    1  0.2148778E-015  0.9000773E+02  0.7816164E-02  0.1186339E+00
        -11   -1    0    0    0    0  0.00000000000E+00  0.00000000000E+00  0.45593999997E+02  0.45594000000E+02  0.51100000000E-03 0. -1.
         11   -1    0    0    0    0 -0.00000000000E+00 -0.00000000000E+00 -0.45593999997E+02  0.45594000000E+02  0.51100000000E-03 0.  1.
    9900012    2    1    2    0    0 -0.91654887600E+00  0.64783366142E+00  0.36509271609E+00  0.90007727580E+02  0.89999988784E+02 0.  0.
         12    1    1    2    0    0  0.91654887600E+00 -0.64783366142E+00 -0.36509271609E+00  0.11802724204E+01  0.00000000000E+00 0. -1.
         11    1    3    3    0    0 -0.55157728608E+01 -0.67589746473E+01  0.38866639645E+00  0.87326141770E+01  0.51100000000E-03 0. -1.
        -11    1    3    3    0    0 -0.62590481569E+01 -0.30923406567E+02 -0.19334034156E+02  0.37003211138E+02  0.51100000000E-03 0.  1.
         12    1    3    3    0    0  0.10858272142E+02  0.38330214876E+02  0.19310460476E+02  0.44271902264E+02  0.00000000000E+00 0. -1.
</event>
<event>
 7    1  0.2148778E-015  0.9000789E+02  0.7816164E-02  0.1186339E+00
        -11   -1    0    0    0    0  0.00000000000E+00  0.00000000000E+00  0.45593999997E+02  0.45594000000E+02  0.51100000000E-03 0.  1.
         11   -1    0    0    0    0 -0.00000000000E+00 -0.00000000000E+00 -0.45593999997E+02  0.45594000000E+02  0.51100000000E-03 0. -1.
    9900012    2    1    2    0    0  0.61621342012E+00  0.90969016077E+00  0.43057496487E+00  0.90007894086E+02  0.90000157488E+02 0.  0.
         12    1    1    2    0    0 -0.61621342012E+00 -0.90969016077E+00 -0.43057496487E+00  0.11801059139E+01  0.00000000000E+00 0. -1.
         11    1    3    3    0    0 -0.33396494865E+02  0.11713306092E+02  0.21665308597E+01  0.35457316101E+02  0.51100000000E-03 0. -1.
        -11    1    3    3    0    0 -0.63625877785E+01 -0.62862499592E+00 -0.10222127034E+02  0.12056930538E+02  0.51100000000E-03 0.  1.
        -12    1    3    3    0    0  0.40375296064E+02 -0.10174990935E+02  0.84861711395E+01  0.42493647447E+02  0.00000000000E+00 0.  1.
</event>
<event>
 7    1  0.2148778E-015  0.9000783E+02  0.7816164E-02  0.1186339E+00
        -11   -1    0    0    0    0  0.00000000000E+00  0.00000000000E+00  0.45593999997E+02  0.45594000000E+02  0.51100000000E-03 0.  1.
         11   -1    0    0    0    0 -0.00000000000E+00 -0.00000000000E+00 -0.45593999997E+02  0.45594000000E+02  0.51100000000E-03 0. -1.
    9900012    2    1    2    0    0 -0.35586848309E+00 -0.11083457839E+01 -0.19424075916E+00  0.90007829577E+02  0.90000092128E+02 0.  0.
         12    1    1    2    0    0  0.35586848309E+00  0.11083457839E+01  0.19424075916E+00  0.11801704227E+01  0.00000000000E+00 0. -1.
         11    1    3    3    0    0 -0.37793152992E+01 -0.39518865125E+02 -0.17651363043E+02  0.43446456040E+02  0.51100000000E-03 0. -1.
        -11    1    3    3    0    0 -0.66837779367E+01  0.77084820186E+01  0.77499011807E+01  0.12812281261E+02  0.51100000000E-03 0.  1.
        -12    1    3    3    0    0  0.10107224753E+02  0.30702037322E+02  0.97072211027E+01  0.33749092277E+02  0.00000000000E+00 0.  1.
</event>
<event>
 7    1  0.2148778E-015  0.9000795E+02  0.7816164E-02  0.1186339E+00
        -11   -1    0    0    0    0  0.00000000000E+00  0.00000000000E+00  0.45593999997E+02  0.45594000000E+02  0.51100000000E-03 0. -1.
         11   -1    0    0    0    0 -0.00000000000E+00 -0.00000000000E+00 -0.45593999997E+02  0.45594000000E+02  0.51100000000E-03 0.  1.
    9900012    2    1    2    0    0 -0.32921542600E+00  0.10863746020E+01 -0.32238770734E+00  0.90007946439E+02  0.90000210532E+02 0.  0.
         12    1    1    2    0    0  0.32921542600E+00 -0.10863746020E+01  0.32238770734E+00  0.11800535608E+01  0.00000000000E+00 0. -1.
         11    1    3    3    0    0  0.67986931047E+01  0.68236672706E+01  0.30218723158E+01  0.10095364060E+02  0.51100000000E-03 0. -1.
        -11    1    3    3    0    0  0.20337936540E+02 -0.32454568889E+02 -0.12913351929E+02  0.40418873843E+02  0.51100000000E-03 0.  1.
         12    1    3    3    0    0 -0.27465845070E+02  0.26717276220E+02  0.95690919056E+01  0.39493708536E+02  0.00000000000E+00 0. -1.
</event>
<event>
 7    1  0.2148778E-015  0.9000785E+02  0.7816164E-02  0.1186339E+00
        -11   -1    0    0    0    0  0.00000000000E+00  0.00000000000E+00  0.45593999997E+02  0.45594000000E+02  0.51100000000E-03 0.  1.
         11   -1    0    0    0    0 -0.00000000000E+00 -0.00000000000E+00 -0.45593999997E+02  0.45594000000E+02  0.51100000000E-03 0. -1.
    9900012    2    1    2    0    0 -0.77571251431E-01 -0.11703450945E+01  0.13048730625E+00  0.90007850909E+02  0.90000113741E+02 0.  0.
         12    1    1    2    0    0  0.77571251431E-01  0.11703450945E+01 -0.13048730625E+00  0.11801490907E+01  0.00000000000E+00 0. -1.
         11    1    3    3    0    0  0.36512344478E+02  0.48336253786E+01  0.16004419411E+02  0.40157896789E+02  0.51100000000E-03 0. -1.
        -11    1    3    3    0    0 -0.10775695785E+02  0.88169655754E+01  0.34716464560E+01  0.14349454031E+02  0.51100000000E-03 0.  1.
        -12    1    3    3    0    0 -0.25814219945E+02 -0.14820936048E+02 -0.19345578561E+02  0.35500500089E+02  0.00000000000E+00 0.  1.
</event>
<event>
 7    1  0.2148778E-015  0.9000779E+02  0.7816164E-02  0.1186339E+00
        -11   -1    0    0    0    0  0.00000000000E+00  0.00000000000E+00  0.45593999997E+02  0.45594000000E+02  0.51100000000E-03 0.  1.
         11   -1    0    0    0    0 -0.00000000000E+00 -0.00000000000E+00 -0.45593999997E+02  0.45594000000E+02  0.51100000000E-03 0. -1.
    9900012    2    1    2    0    0 -0.54326022463E+00  0.60604119997E+00 -0.85467382688E+00  0.90007794527E+02  0.90000056615E+02 0.  0.
         12    1    1    2    0    0  0.54326022463E+00 -0.60604119997E+00  0.85467382688E+00  0.11802054728E+01  0.00000000000E+00 0. -1.
         11    1    3    3    0    0 -0.54531208931E+01  0.10032639263E+02 -0.15208506048E+01  0.11519694652E+02  0.51100000000E-03 0. -1.
        -11    1    3    3    0    0 -0.39767069519E+01 -0.29053253026E+02  0.30092722612E+02  0.42017587556E+02  0.51100000000E-03 0.  1.
         12    1    3    3    0    0  0.88865676203E+01  0.19626654963E+02 -0.29426545834E+02  0.36470512319E+02  0.00000000000E+00 0. -1.
</event>
<event>
 7    1  0.2148778E-015  0.9000766E+02  0.7816164E-02  0.1186339E+00
        -11   -1    0    0    0    0  0.00000000000E+00  0.00000000000E+00  0.45593999997E+02  0.45594000000E+02  0.51100000000E-03 0.  1.
         11   -1    0    0    0    0 -0.00000000000E+00 -0.00000000000E+00 -0.45593999997E+02  0.45594000000E+02  0.51100000000E-03 0. -1.
    9900012    2    1    2    0    0  0.72074297301E+00 -0.38787978598E-01 -0.93392589663E+00  0.90007664234E+02  0.89999924602E+02 0.  0.
         12    1    1    2    0    0 -0.72074297301E+00  0.38787978598E-01  0.93392589663E+00  0.11803357661E+01  0.00000000000E+00 0. -1.
         11    1    3    3    0    0 -0.27670132277E+02  0.20969858215E+02  0.13813324035E+02  0.37365479991E+02  0.51100000000E-03 0. -1.
        -11    1    3    3    0    0 -0.82035965088E+01 -0.15226586540E+01 -0.59822099152E+01  0.10266660644E+02  0.51100000000E-03 0.  1.
        -12    1    3    3    0    0  0.36594471759E+02 -0.19485987540E+02 -0.87650400159E+01  0.42375523598E+02  0.00000000000E+00 0.  1.
</event>
<event>
 7    1  0.2148778E-015  0.9000771E+02  0.7816164E-02  0.1186339E+00
        -11   -1    0    0    0    0  0.00000000000E+00  0.00000000000E+00  0.45593999997E+02  0.45594000000E+02  0.51100000000E-03 0.  1.
         11   -1    0    0    0    0 -0.00000000000E+00 -0.00000000000E+00 -0.45593999997E+02  0.45594000000E+02  0.51100000000E-03 0. -1.
    9900012    2    1    2    0    0 -0.26811876393E+00  0.10455112469E+01  0.47759997977E+00  0.90007710553E+02  0.89999971532E+02 0.  0.
         12    1    1    2    0    0  0.26811876393E+00 -0.10455112469E+01 -0.47759997977E+00  0.11802894474E+01  0.00000000000E+00 0. -1.
         11    1    3    3    0    0  0.25357002591E+02 -0.13110108054E+02 -0.22900297080E+01  0.28637331404E+02  0.51100000000E-03 0. -1.
        -11    1    3    3    0    0  0.92422809174E+01  0.23364821132E+02  0.30137485861E+01  0.25306467629E+02  0.51100000000E-03 0.  1.
         12    1    3    3    0    0 -0.34867402272E+02 -0.92092018305E+01 -0.24611889826E+00  0.36063911519E+02  0.00000000000E+00 0. -1.
</event>
<event>
 7    1  0.2148778E-015  0.9000778E+02  0.7816164E-02  0.1186339E+00
        -11   -1    0    0    0    0  0.00000000000E+00  0.00000000000E+00  0.45593999997E+02  0.45594000000E+02  0.51100000000E-03 0. -1.
         11   -1    0    0    0    0 -0.00000000000E+00 -0.00000000000E+00 -0.45593999997E+02  0.45594000000E+02  0.51100000000E-03 0.  1.
    9900012    2    1    2    0    0 -0.80289969852E+00 -0.58332089981E+00 -0.63876313423E+00  0.90007775640E+02  0.90000037479E+02 0.  0.
         12    1    1    2    0    0  0.80289969852E+00  0.58332089981E+00  0.63876313423E+00  0.11802243599E+01  0.00000000000E+00 0. -1.
         11    1    3    3    0    0 -0.21854455218E+01 -0.68085460048E+01 -0.90200703550E+00  0.72073634417E+01  0.51100000000E-03 0. -1.
        -11    1    3    3    0    0  0.19916174562E+02  0.26302469850E+02 -0.28158413035E+02  0.43374764026E+02  0.51100000000E-03 0.  1.
         12    1    3    3    0    0 -0.18533628739E+02 -0.20077244745E+02  0.28421656937E+02  0.39425648172E+02  0.00000000000E+00 0. -1.
</event>
<event>
 7    1  0.2148778E-015  0.9000764E+02  0.7816164E-02  0.1186339E+00
        -11   -1    0    0    0    0  0.00000000000E+00  0.00000000000E+00  0.45593999997E+02  0.45594000000E+02  0.51100000000E-03 0.  1.
         11   -1    0    0    0    0 -0.00000000000E+00 -0.00000000000E+00 -0.45593999997E+02  0.45594000000E+02  0.51100000000E-03 0. -1.
    9900012    2    1    2    0    0  0.70871460873E+00  0.94334746717E+00 -0.32774963507E-01  0.90007637751E+02  0.89999897769E+02 0.  0.
         12    1    1    2    0    0 -0.70871460873E+00 -0.94334746717E+00  0.32774963507E-01  0.11803622489E+01  0.00000000000E+00 0. -1.
         11    1    3    3    0    0  0.22180431606E+02 -0.59568940990E+01  0.32453759822E+02  0.39758051516E+02  0.51100000000E-03 0. -1.
        -11    1    3    3    0    0  0.64353939771E+01  0.63307268484E+01 -0.26865641452E+01  0.94185999616E+01  0.51100000000E-03 0.  1.
        -12    1    3    3    0    0 -0.27907110974E+02  0.56951471783E+00 -0.29799970640E+02  0.40830986274E+02  0.00000000000E+00 0.  1.
</event>
<event>
 7    1  0.2148778E-015  0.9000774E+02  0.7816164E-02  0.1186339E+00
        -11   -1    0    0    0    0  0.00000000000E+00  0.00000000000E+00  0.45593999997E+02  0.45594000000E+02  0.51100000000E-03 0. -1.
         11   -1    0    0    0    0 -0.00000000000E+00 -0.00000000000E+00 -0.45593999997E+02  0.45594000000E+02  0.51100000000E-03 0.  1.
    9900012    2    1    2    0    0  0.11558479605E+01 -0.55263712853E-01 -0.23232293973E+00  0.90007740480E+02  0.90000001855E+02 0.  0.
         12    1    1    2    0    0 -0.11558479605E+01  0.55263712853E-01  0.23232293973E+00  0.11802595198E+01  0.00000000000E+00 0. -1.
         11    1    3    3    0    0 -0.66908658223E+01  0.70688041322E+01 -0.23396391060E+01  0.10010473951E+02  0.51100000000E-03 0. -1.
        -11    1    3    3    0    0 -0.13183880174E+02  0.32330394833E+02 -0.27573556193E+01  0.35023879522E+02  0.51100000000E-03 0.  1.
         12    1    3    3    0    0  0.21030593957E+02 -0.39454462678E+02  0.48646717855E+01  0.44973387008E+02  0.00000000000E+00 0. -1.
</event>
<event>
 7    1  0.2148778E-015  0.9000779E+02  0.7816164E-02  0.1186339E+00
        -11   -1    0    0    0    0  0.00000000000E+00  0.00000000000E+00  0.45593999997E+02  0.45594000000E+02  0.51100000000E-03 0. -1.
         11   -1    0    0    0    0 -0.00000000000E+00 -0.00000000000E+00 -0.45593999997E+02  0.45594000000E+02  0.51100000000E-03 0.  1.
    9900012    2    1    2    0    0  0.94225234684E+00  0.19854913623E+00 -0.68237563601E+00  0.90007789106E+02  0.90000051123E+02 0.  0.
         12    1    1    2    0    0 -0.94225234684E+00 -0.19854913623E+00  0.68237563601E+00  0.11802108935E+01  0.00000000000E+00 0. -1.
         11    1    3    3    0    0 -0.91028245129E+01  0.51004319487E+00 -0.10571782528E+02  0.13960091126E+02  0.51100000000E-03 0. -1.
        -11    1    3    3    0    0  0.79814286382E+01 -0.32531506137E+02  0.23595814310E+02  0.40972729319E+02  0.51100000000E-03 0.  1.
         12    1    3    3    0    0  0.20636482215E+01  0.32220012078E+02 -0.13706407418E+02  0.35074968662E+02  0.00000000000E+00 0. -1.
</event>
<event>
 7    1  0.2148778E-015  0.9000760E+02  0.7816164E-02  0.1186339E+00
        -11   -1    0    0    0    0  0.00000000000E+00  0.00000000000E+00  0.45593999997E+02  0.45594000000E+02  0.51100000000E-03 0. -1.
         11   -1    0    0    0    0 -0.00000000000E+00 -0.00000000000E+00 -0.45593999997E+02  0.45594000000E+02  0.51100000000E-03 0.  1.
    9900012    2    1    2    0    0  0.90874126118E+00  0.75175947863E+00 -0.48953197789E-01  0.90007597777E+02  0.89999857267E+02 0.  0.
         12    1    1    2    0    0 -0.90874126118E+00 -0.75175947863E+00  0.48953197789E-01  0.11804022234E+01  0.00000000000E+00 0. -1.
         11    1    3    3    0    0  0.41104768343E+01 -0.45562993815E+01  0.68604894102E+01  0.92044662566E+01  0.51100000000E-03 0. -1.
        -11    1    3    3    0    0  0.28412457048E+02  0.16941466380E+02 -0.26007531414E+02  0.42079361796E+02  0.51100000000E-03 0.  1.
         12    1    3    3    0    0 -0.31614192621E+02 -0.11633407519E+02  0.19098088806E+02  0.38723769724E+02  0.00000000000E+00 0. -1.
</event>
<event>
 7    1  0.2148778E-015  0.9000782E+02  0.7816164E-02  0.1186339E+00
        -11   -1    0    0    0    0  0.00000000000E+00  0.00000000000E+00  0.45593999997E+02  0.45594000000E+02  0.51100000000E-03 0.  1.
         11   -1    0    0    0    0 -0.00000000000E+00 -0.00000000000E+00 -0.45593999997E+02  0.45594000000E+02  0.51100000000E-03 0. -1.
    9900012    2    1    2    0    0 -0.10807701279E+01 -0.42431417279E+00 -0.21145947016E+00  0.90007821330E+02  0.90000083771E+02 0.  0.
         12    1    1    2    0    0  0.10807701279E+01  0.42431417279E+00  0.21145947016E+00  0.11801786704E+01  0.00000000000E+00 0. -1.
         11    1    3    3    0    0 -0.82247705709E+01  0.37649457008E+01 -0.11169285443E+02  0.14372703456E+02  0.51100000000E-03 0. -1.
        -11    1    3    3    0    0 -0.20391330704E+02 -0.29163719485E+02  0.14212581613E+02  0.38318747089E+02  0.51100000000E-03 0.  1.
         12    1    3    3    0    0  0.27535331147E+02  0.24974459611E+02 -0.32547556406E+01  0.37316370785E+02  0.00000000000E+00 0. -1.
</event>
<event>
 7    1  0.2148778E-015  0.9000765E+02  0.7816164E-02  0.1186339E+00
        -11   -1    0    0    0    0  0.00000000000E+00  0.00000000000E+00  0.45593999997E+02  0.45594000000E+02  0.51100000000E-03 0. -1.
         11   -1    0    0    0    0 -0.00000000000E+00 -0.00000000000E+00 -0.45593999997E+02  0.45594000000E+02  0.51100000000E-03 0.  1.
    9900012    2    1    2    0    0  0.10347731998E+01 -0.50348835192E+00  0.26261623839E+00  0.90007651160E+02  0.89999911355E+02 0.  0.
         12    1    1    2    0    0 -0.10347731998E+01  0.50348835192E+00 -0.26261623839E+00  0.11803488401E+01  0.00000000000E+00 0. -1.
         11    1    3    3    0    0  0.20834956806E+01  0.90633428311E+01  0.75423799237E+00  0.93302739903E+01  0.51100000000E-03 0. -1.
        -11    1    3    3    0    0  0.38606201782E+02  0.14763024194E+01  0.56926253209E+01  0.39051559100E+02  0.51100000000E-03 0.  1.
         12    1    3    3    0    0 -0.39654924263E+02 -0.11043133602E+02 -0.61842470749E+01  0.41625818069E+02  0.00000000000E+00 0. -1.
</event>
<event>
 7    1  0.2148778E-015  0.9000762E+02  0.7816164E-02  0.1186339E+00
        -11   -1    0    0    0    0  0.00000000000E+00  0.00000000000E+00  0.45593999997E+02  0.45594000000E+02  0.51100000000E-03 0. -1.
         11   -1    0    0    0    0 -0.00000000000E+00 -0.00000000000E+00 -0.45593999997E+02  0.45594000000E+02  0.51100000000E-03 0.  1.
    9900012    2    1    2    0    0  0.96410590226E+00  0.33793115302E+00  0.59127487383E+00  0.90007617167E+02  0.89999876914E+02 0.  0.
         12    1    1    2    0    0 -0.96410590226E+00 -0.33793115302E+00 -0.59127487383E+00  0.11803828326E+01  0.00000000000E+00 0. -1.
         11    1    3    3    0    0 -0.91820308280E+01  0.14563785366E+01  0.20692331843E+01  0.95243086259E+01  0.51100000000E-03 0. -1.
        -11    1    3    3    0    0 -0.25220272064E+02  0.21205261639E+02  0.14117860471E+02  0.35847443824E+02  0.51100000000E-03 0.  1.
         12    1    3    3    0    0  0.35366408795E+02 -0.22323709023E+02 -0.15595818782E+02  0.44635864717E+02  0.00000000000E+00 0. -1.
</event>
<event>
 7    1  0.2148778E-015  0.9000774E+02  0.7816164E-02  0.1186339E+00
        -11   -1    0    0    0    0  0.00000000000E+00  0.00000000000E+00  0.45593999997E+02  0.45594000000E+02  0.51100000000E-03 0. -1.
         11   -1    0    0    0    0 -0.00000000000E+00 -0.00000000000E+00 -0.45593999997E+02  0.45594000000E+02  0.51100000000E-03 0.  1.
    9900012    2    1    2    0    0 -0.34500715127E+00  0.10012828562E+01 -0.52097695461E+00  0.90007739741E+02  0.90000001105E+02 0.  0.
         12    1    1    2    0    0  0.34500715127E+00 -0.10012828562E+01  0.52097695461E+00  0.11802602594E+01  0.00000000000E+00 0. -1.
         11    1    3    3    0    0  0.89732316347E+01  0.30064681850E+02 -0.15134293302E+02  0.34834620922E+02  0.51100000000E-03 0. -1.
        -11    1    3    3    0    0  0.69054557875E+00  0.92659746791E+01 -0.54452869003E+01  0.10769693108E+02  0.51100000000E-03 0.  1.
        -12    1    3    3    0    0 -0.10008784365E+02 -0.38329373673E+02  0.20058603248E+02  0.44403425711E+02  0.00000000000E+00 0.  1.
</event>
<event>
 7    1  0.2148778E-015  0.9000781E+02  0.7816164E-02  0.1186339E+00
        -11   -1    0    0    0    0  0.00000000000E+00  0.00000000000E+00  0.45593999997E+02  0.45594000000E+02  0.51100000000E-03 0. -1.
         11   -1    0    0    0    0 -0.00000000000E+00 -0.00000000000E+00 -0.45593999997E+02  0.45594000000E+02  0.51100000000E-03 0.  1.
    9900012    2    1    2    0    0  0.65572851649E+00 -0.47278660686E+00 -0.85984877533E+00  0.90007810617E+02  0.90000072917E+02 0.  0.
         12    1    1    2    0    0 -0.65572851649E+00  0.47278660686E+00  0.85984877533E+00  0.11801893829E+01  0.00000000000E+00 0. -1.
         11    1    3    3    0    0 -0.27566606355E-01 -0.21397488947E+02  0.26354805955E+02  0.33947446006E+02  0.51100000000E-03 0. -1.
        -11    1    3    3    0    0  0.21685263714E+01 -0.73154836129E+01  0.78941173017E+01  0.10978884067E+02  0.51100000000E-03 0.  1.
        -12    1    3    3    0    0 -0.14852312486E+01  0.28240185953E+02 -0.35108772032E+02  0.45081480545E+02  0.00000000000E+00 0.  1.
</event>
<event>
 7    1  0.2148778E-015  0.9000770E+02  0.7816164E-02  0.1186339E+00
        -11   -1    0    0    0    0  0.00000000000E+00  0.00000000000E+00  0.45593999997E+02  0.45594000000E+02  0.51100000000E-03 0. -1.
         11   -1    0    0    0    0 -0.00000000000E+00 -0.00000000000E+00 -0.45593999997E+02  0.45594000000E+02  0.51100000000E-03 0.  1.
    9900012    2    1    2    0    0  0.28492297773E+00  0.11262710008E+01  0.20841298502E+00  0.90007701969E+02  0.89999962835E+02 0.  0.
         12    1    1    2    0    0 -0.28492297773E+00 -0.11262710008E+01 -0.20841298502E+00  0.11802980313E+01  0.00000000000E+00 0. -1.
         11    1    3    3    0    0  0.31302138986E+02  0.11044462986E+02  0.15622926104E+02  0.36686235676E+02  0.51100000000E-03 0. -1.
        -11    1    3    3    0    0  0.87174885218E+01  0.53134871939E+00  0.15517339710E+01  0.88704462214E+01  0.51100000000E-03 0.  1.
        -12    1    3    3    0    0 -0.39734704530E+02 -0.10449540705E+02 -0.16966247090E+02  0.44451020071E+02  0.00000000000E+00 0.  1.
</event>
<event>
 7    1  0.2148778E-015  0.9000826E+02  0.7816164E-02  0.1186338E+00
        -11   -1    0    0    0    0  0.00000000000E+00  0.00000000000E+00  0.45593999997E+02  0.45594000000E+02  0.51100000000E-03 0.  1.
         11   -1    0    0    0    0 -0.00000000000E+00 -0.00000000000E+00 -0.45593999997E+02  0.45594000000E+02  0.51100000000E-03 0. -1.
    9900012    2    1    2    0    0  0.52852862959E+00  0.82088912632E+00  0.66225344140E+00  0.90008262279E+02  0.90000530539E+02 0.  0.
         12    1    1    2    0    0 -0.52852862959E+00 -0.82088912632E+00 -0.66225344140E+00  0.11797377211E+01  0.00000000000E+00 0. -1.
         11    1    3    3    0    0 -0.68961608613E+01  0.32755391556E+00  0.80228539333E+01  0.10584446688E+02  0.51100000000E-03 0. -1.
        -11    1    3    3    0    0  0.15741298689E+02 -0.36826992887E+02 -0.93829943560E+01  0.41134614048E+02  0.51100000000E-03 0.  1.
         12    1    3    3    0    0 -0.83166091980E+01  0.37320328098E+02  0.20223938641E+01  0.38289201543E+02  0.00000000000E+00 0. -1.
</event>
<event>
 7    1  0.2148778E-015  0.9000775E+02  0.7816164E-02  0.1186339E+00
        -11   -1    0    0    0    0  0.00000000000E+00  0.00000000000E+00  0.45593999997E+02  0.45594000000E+02  0.51100000000E-03 0. -1.
         11   -1    0    0    0    0 -0.00000000000E+00 -0.00000000000E+00 -0.45593999997E+02  0.45594000000E+02  0.51100000000E-03 0.  1.
    9900012    2    1    2    0    0  0.93457284414E+00 -0.56703216248E+00  0.44500201528E+00  0.90007754827E+02  0.90000016391E+02 0.  0.
         12    1    1    2    0    0 -0.93457284414E+00  0.56703216248E+00 -0.44500201528E+00  0.11802451728E+01  0.00000000000E+00 0. -1.
         11    1    3    3    0    0 -0.83511885631E+01  0.20168666839E+01 -0.84218541862E+01  0.12030699474E+02  0.51100000000E-03 0. -1.
        -11    1    3    3    0    0  0.99665950290E+01 -0.30294435862E+01 -0.33766074994E+02  0.35336360391E+02  0.51100000000E-03 0.  1.
         12    1    3    3    0    0 -0.68083362180E+00  0.44554473982E+00  0.42632931196E+02  0.42640694962E+02  0.00000000000E+00 0. -1.
</event>
<event>
 7    1  0.2148778E-015  0.9000710E+02  0.7816164E-02  0.1186340E+00
        -11   -1    0    0    0    0  0.00000000000E+00  0.00000000000E+00  0.45593999997E+02  0.45594000000E+02  0.51100000000E-03 0. -1.
         11   -1    0    0    0    0 -0.00000000000E+00 -0.00000000000E+00 -0.45593999997E+02  0.45594000000E+02  0.51100000000E-03 0.  1.
    9900012    2    1    2    0    0  0.57981259420E+00  0.89478322828E+00  0.50765726146E+00  0.90007095446E+02  0.89999348304E+02 0.  0.
         12    1    1    2    0    0 -0.57981259420E+00 -0.89478322828E+00 -0.50765726146E+00  0.11809045538E+01  0.00000000000E+00 0. -1.
         11    1    3    3    0    0  0.11229500153E+02 -0.34900846160E+01 -0.38917028329E+01  0.12386594186E+02  0.51100000000E-03 0. -1.
        -11    1    3    3    0    0  0.33208826669E+02 -0.85533620872E+00 -0.11420607677E+00  0.33220036304E+02  0.51100000000E-03 0.  1.
         12    1    3    3    0    0 -0.43858514228E+02  0.52402040530E+01  0.45135661712E+01  0.44400464957E+02  0.00000000000E+00 0. -1.
</event>
<event>
 7    1  0.2148778E-015  0.9000775E+02  0.7816164E-02  0.1186339E+00
        -11   -1    0    0    0    0  0.00000000000E+00  0.00000000000E+00  0.45593999997E+02  0.45594000000E+02  0.51100000000E-03 0. -1.
         11   -1    0    0    0    0 -0.00000000000E+00 -0.00000000000E+00 -0.45593999997E+02  0.45594000000E+02  0.51100000000E-03 0.  1.
    9900012    2    1    2    0    0  0.10939055284E+01 -0.39812806208E+00 -0.19458756738E+00  0.90007745968E+02  0.90000007415E+02 0.  0.
         12    1    1    2    0    0 -0.10939055284E+01  0.39812806208E+00  0.19458756738E+00  0.11802540321E+01  0.00000000000E+00 0. -1.
         11    1    3    3    0    0 -0.37334909774E+02  0.51317224841E+01 -0.29380870789E+01  0.37800296552E+02  0.51100000000E-03 0. -1.
        -11    1    3    3    0    0 -0.42626073874E+01  0.63837217618E+01 -0.93354807406E+00  0.77326087150E+01  0.51100000000E-03 0.  1.
        -12    1    3    3    0    0  0.42691422690E+02 -0.11913572308E+02  0.36770475856E+01  0.44474840701E+02  0.00000000000E+00 0.  1.
</event>
<event>
 7    1  0.2148778E-015  0.9000775E+02  0.7816164E-02  0.1186339E+00
        -11   -1    0    0    0    0  0.00000000000E+00  0.00000000000E+00  0.45593999997E+02  0.45594000000E+02  0.51100000000E-03 0. -1.
         11   -1    0    0    0    0 -0.00000000000E+00 -0.00000000000E+00 -0.45593999997E+02  0.45594000000E+02  0.51100000000E-03 0.  1.
    9900012    2    1    2    0    0  0.15813831310E+00  0.15015858643E+00 -0.11599309697E+01  0.90007747831E+02  0.90000009303E+02 0.  0.
         12    1    1    2    0    0 -0.15813831310E+00 -0.15015858643E+00  0.11599309697E+01  0.11802521686E+01  0.00000000000E+00 0. -1.
         11    1    3    3    0    0  0.91853595642E+01 -0.56651677003E+00 -0.16072013528E+01  0.93421019061E+01  0.51100000000E-03 0. -1.
        -11    1    3    3    0    0  0.30371284347E+02 -0.16282051275E+02 -0.11145568910E+02  0.36218003993E+02  0.51100000000E-03 0.  1.
         12    1    3    3    0    0 -0.39398505598E+02  0.16998726631E+02  0.11592839294E+02  0.44447641933E+02  0.00000000000E+00 0. -1.
</event>
<event>
 7    1  0.2148778E-015  0.9000770E+02  0.7816164E-02  0.1186339E+00
        -11   -1    0    0    0    0  0.00000000000E+00  0.00000000000E+00  0.45593999997E+02  0.45594000000E+02  0.51100000000E-03 0. -1.
         11   -1    0    0    0    0 -0.00000000000E+00 -0.00000000000E+00 -0.45593999997E+02  0.45594000000E+02  0.51100000000E-03 0.  1.
    9900012    2    1    2    0    0 -0.61100404817E+00 -0.87060865261E+00 -0.51169764329E+00  0.90007695018E+02  0.89999955792E+02 0.  0.
         12    1    1    2    0    0  0.61100404817E+00  0.87060865261E+00  0.51169764329E+00  0.11803049822E+01  0.00000000000E+00 0. -1.
         11    1    3    3    0    0 -0.42651480513E+01 -0.43221465235E+02  0.14898948159E+01  0.43456948027E+02  0.51100000000E-03 0. -1.
        -11    1    3    3    0    0 -0.57611941341E+01  0.66710068594E+01  0.30025485485E+01  0.93117661277E+01  0.51100000000E-03 0.  1.
        -12    1    3    3    0    0  0.94153381373E+01  0.35679849723E+02 -0.50041410077E+01  0.37238980863E+02  0.00000000000E+00 0.  1.
</event>
<event>
 7    1  0.2148778E-015  0.9000774E+02  0.7816164E-02  0.1186339E+00
        -11   -1    0    0    0    0  0.00000000000E+00  0.00000000000E+00  0.45593999997E+02  0.45594000000E+02  0.51100000000E-03 0.  1.
         11   -1    0    0    0    0 -0.00000000000E+00 -0.00000000000E+00 -0.45593999997E+02  0.45594000000E+02  0.51100000000E-03 0. -1.
    9900012    2    1    2    0    0  0.70157321370E+00 -0.69525178371E+00 -0.64609476140E+00  0.90007737971E+02  0.89999999312E+02 0.  0.
         12    1    1    2    0    0 -0.70157321370E+00  0.69525178371E+00  0.64609476140E+00  0.11802620292E+01  0.00000000000E+00 0. -1.
         11    1    3    3    0    0  0.82227328919E+01 -0.15098156364E+01  0.36149307699E+01  0.91082711971E+01  0.51100000000E-03 0. -1.
        -11    1    3    3    0    0  0.30427942975E+02 -0.20608586343E+02  0.23366484911E+01  0.36824359752E+02  0.51100000000E-03 0.  1.
         12    1    3    3    0    0 -0.37949102653E+02  0.21423150196E+02 -0.65976740224E+01  0.44075107022E+02  0.00000000000E+00 0. -1.
</event>
<event>
 7    1  0.2361523E-015  0.9000805E+02  0.7816164E-02  0.1186338E+00
        -11   -1    0    0    0    0  0.00000000000E+00  0.00000000000E+00  0.45593999997E+02  0.45594000000E+02  0.51100000000E-03 0.  1.
         11   -1    0    0    0    0 -0.00000000000E+00 -0.00000000000E+00 -0.45593999997E+02  0.45594000000E+02  0.51100000000E-03 0. -1.
    9900012    2    1    2    0    0  0.76073476459E+00  0.30058372609E-01  0.90148349524E+00  0.90008045179E+02  0.90000310575E+02 0.  0.
         12    1    1    2    0    0 -0.76073476459E+00 -0.30058372609E-01 -0.90148349524E+00  0.11799548212E+01  0.00000000000E+00 0. -1.
         11    1    3    3    0    0 -0.12176400687E+01  0.44031597392E+01  0.86641164598E+01  0.97947627493E+01  0.51100000000E-03 0. -1.
        -11    1    3    3    0    0 -0.23000208116E+02 -0.24189132652E+02  0.19156554050E+02  0.38485026636E+02  0.51100000000E-03 0.  1.
         12    1    3    3    0    0  0.24978582949E+02  0.19816031285E+02 -0.26919187015E+02  0.41728255794E+02  0.00000000000E+00 0. -1.
</event>
<event>
 7    1  0.2148778E-015  0.9000769E+02  0.7816164E-02  0.1186339E+00
        -11   -1    0    0    0    0  0.00000000000E+00  0.00000000000E+00  0.45593999997E+02  0.45594000000E+02  0.51100000000E-03 0. -1.
         11   -1    0    0    0    0 -0.00000000000E+00 -0.00000000000E+00 -0.45593999997E+02  0.45594000000E+02  0.51100000000E-03 0.  1.
    9900012    2    1    2    0    0 -0.16946494284E-01  0.11353446674E+01  0.32224026701E+00  0.90007689241E+02  0.89999949939E+02 0.  0.
         12    1    1    2    0    0  0.16946494284E-01 -0.11353446674E+01 -0.32224026701E+00  0.11803107587E+01  0.00000000000E+00 0. -1.
         11    1    3    3    0    0  0.15849482752E+01 -0.27959190899E+02  0.26597666152E+02  0.38622069620E+02  0.51100000000E-03 0. -1.
        -11    1    3    3    0    0  0.39567284431E+01 -0.63677595023E+01 -0.84882954915E+01  0.11324982193E+02  0.51100000000E-03 0.  1.
        -12    1    3    3    0    0 -0.55586232125E+01  0.35462295068E+02 -0.17787130394E+02  0.40060637429E+02  0.00000000000E+00 0.  1.
</event>
<event>
 7    1  0.2148778E-015  0.9000762E+02  0.7816164E-02  0.1186339E+00
        -11   -1    0    0    0    0  0.00000000000E+00  0.00000000000E+00  0.45593999997E+02  0.45594000000E+02  0.51100000000E-03 0.  1.
         11   -1    0    0    0    0 -0.00000000000E+00 -0.00000000000E+00 -0.45593999997E+02  0.45594000000E+02  0.51100000000E-03 0. -1.
    9900012    2    1    2    0    0  0.56970308539E+00  0.98073853650E+00  0.32695331377E+00  0.90007615253E+02  0.89999874974E+02 0.  0.
         12    1    1    2    0    0 -0.56970308539E+00 -0.98073853650E+00 -0.32695331377E+00  0.11803847474E+01  0.00000000000E+00 0. -1.
         11    1    3    3    0    0  0.23716598659E+02  0.43433855940E+01 -0.31250717717E+02  0.39470867845E+02  0.51100000000E-03 0. -1.
        -11    1    3    3    0    0  0.79130973618E+01  0.11931838744E+01  0.75804270315E+01  0.11022870400E+02  0.51100000000E-03 0.  1.
        -12    1    3    3    0    0 -0.31059992935E+02 -0.45558309320E+01  0.23997243999E+02  0.39513877008E+02  0.00000000000E+00 0.  1.
</event>
<event>
 7    1  0.2148778E-015  0.9000763E+02  0.7816164E-02  0.1186339E+00
        -11   -1    0    0    0    0  0.00000000000E+00  0.00000000000E+00  0.45593999997E+02  0.45594000000E+02  0.51100000000E-03 0.  1.
         11   -1    0    0    0    0 -0.00000000000E+00 -0.00000000000E+00 -0.45593999997E+02  0.45594000000E+02  0.51100000000E-03 0. -1.
    9900012    2    1    2    0    0 -0.57119262032E-01 -0.31104507885E+00  0.11372191054E+01  0.90007627624E+02  0.89999887509E+02 0.  0.
         12    1    1    2    0    0  0.57119262032E-01  0.31104507885E+00 -0.11372191054E+01  0.11803723755E+01  0.00000000000E+00 0. -1.
         11    1    3    3    0    0  0.38629113276E+02  0.17989535887E+02  0.23177277567E+01  0.42675562752E+02  0.51100000000E-03 0. -1.
        -11    1    3    3    0    0 -0.81186012109E+01  0.34792361351E+01 -0.39936296292E+01  0.96935982783E+01  0.51100000000E-03 0.  1.
        -12    1    3    3    0    0 -0.30567631327E+02 -0.21779817101E+02  0.28131209779E+01  0.37638466594E+02  0.00000000000E+00 0.  1.
</event>
<event>
 7    1  0.2148778E-015  0.9000772E+02  0.7816164E-02  0.1186339E+00
        -11   -1    0    0    0    0  0.00000000000E+00  0.00000000000E+00  0.45593999997E+02  0.45594000000E+02  0.51100000000E-03 0.  1.
         11   -1    0    0    0    0 -0.00000000000E+00 -0.00000000000E+00 -0.45593999997E+02  0.45594000000E+02  0.51100000000E-03 0. -1.
    9900012    2    1    2    0    0  0.53982386018E-01  0.61086641385E+00 -0.10084588027E+01  0.90007719936E+02  0.89999981039E+02 0.  0.
         12    1    1    2    0    0 -0.53982386018E-01 -0.61086641385E+00  0.10084588027E+01  0.11802800644E+01  0.00000000000E+00 0. -1.
         11    1    3    3    0    0  0.39886627615E+01 -0.23102222069E+02 -0.32310750730E+02  0.39920003859E+02  0.51100000000E-03 0. -1.
        -11    1    3    3    0    0  0.63243653752E+01 -0.20345155553E+01 -0.18302375502E+01  0.68910536709E+01  0.51100000000E-03 0.  1.
        -12    1    3    3    0    0 -0.10259045751E+02  0.25747604038E+02  0.33132529477E+02  0.43196662405E+02  0.00000000000E+00 0.  1.
</event>
<event>
 7    1  0.2148778E-015  0.9000774E+02  0.7816164E-02  0.1186339E+00
        -11   -1    0    0    0    0  0.00000000000E+00  0.00000000000E+00  0.45593999997E+02  0.45594000000E+02  0.51100000000E-03 0.  1.
         11   -1    0    0    0    0 -0.00000000000E+00 -0.00000000000E+00 -0.45593999997E+02  0.45594000000E+02  0.51100000000E-03 0. -1.
    9900012    2    1    2    0    0  0.41515509568E+00 -0.71059383532E+00  0.84600484181E+00  0.90007736663E+02  0.89999997987E+02 0.  0.
         12    1    1    2    0    0 -0.41515509568E+00  0.71059383532E+00 -0.84600484181E+00  0.11802633370E+01  0.00000000000E+00 0. -1.
         11    1    3    3    0    0 -0.36475690388E+02  0.66136978099E+01  0.11106599479E+02  0.38698495323E+02  0.51100000000E-03 0. -1.
        -11    1    3    3    0    0 -0.35197087750E+01 -0.80849654567E+01 -0.60043367275E+01  0.10668039937E+02  0.51100000000E-03 0.  1.
        -12    1    3    3    0    0  0.40410554258E+02  0.76067381154E+00 -0.42562579100E+01  0.40641201403E+02  0.00000000000E+00 0.  1.
</event>
<event>
 7    1  0.2148778E-015  0.9000788E+02  0.7816164E-02  0.1186339E+00
        -11   -1    0    0    0    0  0.00000000000E+00  0.00000000000E+00  0.45593999997E+02  0.45594000000E+02  0.51100000000E-03 0.  1.
         11   -1    0    0    0    0 -0.00000000000E+00 -0.00000000000E+00 -0.45593999997E+02  0.45594000000E+02  0.51100000000E-03 0. -1.
    9900012    2    1    2    0    0  0.51513499249E+00  0.61466013688E+00  0.86574379257E+00  0.90007879896E+02  0.90000143111E+02 0.  0.
         12    1    1    2    0    0 -0.51513499249E+00 -0.61466013688E+00 -0.86574379257E+00  0.11801201035E+01  0.00000000000E+00 0. -1.
         11    1    3    3    0    0  0.16414823980E+02  0.38094466596E+01 -0.39035662226E+02  0.42517540566E+02  0.51100000000E-03 0. -1.
        -11    1    3    3    0    0 -0.53000685362E+01 -0.58566272312E+01  0.21461358605E+01  0.81851517033E+01  0.51100000000E-03 0.  1.
        -12    1    3    3    0    0 -0.10599620451E+02  0.26618407084E+01  0.37755270158E+02  0.39305187627E+02  0.00000000000E+00 0.  1.
</event>
<event>
 7    1  0.2148778E-015  0.9000774E+02  0.7816164E-02  0.1186339E+00
        -11   -1    0    0    0    0  0.00000000000E+00  0.00000000000E+00  0.45593999997E+02  0.45594000000E+02  0.51100000000E-03 0.  1.
         11   -1    0    0    0    0 -0.00000000000E+00 -0.00000000000E+00 -0.45593999997E+02  0.45594000000E+02  0.51100000000E-03 0. -1.
    9900012    2    1    2    0    0 -0.11683058937E+01 -0.11395338989E+00 -0.12281782015E+00  0.90007742294E+02  0.90000003692E+02 0.  0.
         12    1    1    2    0    0  0.11683058937E+01  0.11395338989E+00  0.12281782015E+00  0.11802577063E+01  0.00000000000E+00 0. -1.
         11    1    3    3    0    0  0.16410859498E+01  0.54470285053E+01  0.83288013890E+01  0.10086238916E+02  0.51100000000E-03 0. -1.
        -11    1    3    3    0    0 -0.23959497873E+01  0.39154739050E+01  0.35074601956E+02  0.35373707947E+02  0.51100000000E-03 0.  1.
         12    1    3    3    0    0 -0.41344205615E+00 -0.94764558002E+01 -0.43526221165E+02  0.44547795431E+02  0.00000000000E+00 0. -1.
</event>
<event>
 7    1  0.2148778E-015  0.9000740E+02  0.7816164E-02  0.1186340E+00
        -11   -1    0    0    0    0  0.00000000000E+00  0.00000000000E+00  0.45593999997E+02  0.45594000000E+02  0.51100000000E-03 0. -1.
         11   -1    0    0    0    0 -0.00000000000E+00 -0.00000000000E+00 -0.45593999997E+02  0.45594000000E+02  0.51100000000E-03 0.  1.
    9900012    2    1    2    0    0 -0.79938081308E+00 -0.73283701066E-01 -0.86569401160E+00  0.90007404258E+02  0.89999661193E+02 0.  0.
         12    1    1    2    0    0  0.79938081308E+00  0.73283701066E-01  0.86569401160E+00  0.11805957424E+01  0.00000000000E+00 0. -1.
         11    1    3    3    0    0 -0.11342906090E+01 -0.64694840734E+01 -0.72304923779E+01  0.97683601310E+01  0.51100000000E-03 0. -1.
        -11    1    3    3    0    0 -0.38599594330E+02  0.11737897886E+02  0.69302617777E+01  0.40935747920E+02  0.51100000000E-03 0.  1.
         12    1    3    3    0    0  0.38934504126E+02 -0.53416975132E+01 -0.56546341133E+00  0.39303296207E+02  0.00000000000E+00 0. -1.
</event>
<event>
 7    1  0.2148778E-015  0.9000773E+02  0.7816164E-02  0.1186339E+00
        -11   -1    0    0    0    0  0.00000000000E+00  0.00000000000E+00  0.45593999997E+02  0.45594000000E+02  0.51100000000E-03 0.  1.
         11   -1    0    0    0    0 -0.00000000000E+00 -0.00000000000E+00 -0.45593999997E+02  0.45594000000E+02  0.51100000000E-03 0. -1.
    9900012    2    1    2    0    0 -0.15619930411E+00  0.48306445006E+00  0.10654935044E+01  0.90007734821E+02  0.89999996120E+02 0.  0.
         12    1    1    2    0    0  0.15619930411E+00 -0.48306445006E+00 -0.10654935044E+01  0.11802651793E+01  0.00000000000E+00 0. -1.
         11    1    3    3    0    0  0.22747536859E+00  0.22866568498E+01 -0.79163660267E+01  0.82431423572E+01  0.51100000000E-03 0. -1.
        -11    1    3    3    0    0 -0.18658598354E+02  0.28348890627E+02 -0.17009026496E+02  0.37961952992E+02  0.51100000000E-03 0.  1.
         12    1    3    3    0    0  0.18274923681E+02 -0.30152483027E+02  0.25990886027E+02  0.43802639472E+02  0.00000000000E+00 0. -1.
</event>
<event>
 7    1  0.2148778E-015  0.9000774E+02  0.7816164E-02  0.1186339E+00
        -11   -1    0    0    0    0  0.00000000000E+00  0.00000000000E+00  0.45593999997E+02  0.45594000000E+02  0.51100000000E-03 0.  1.
         11   -1    0    0    0    0 -0.00000000000E+00 -0.00000000000E+00 -0.45593999997E+02  0.45594000000E+02  0.51100000000E-03 0. -1.
    9900012    2    1    2    0    0  0.51170112100E+00  0.22965177935E+00  0.10384775750E+01  0.90007740007E+02  0.90000001375E+02 0.  0.
         12    1    1    2    0    0 -0.51170112100E+00 -0.22965177935E+00 -0.10384775750E+01  0.11802599928E+01  0.00000000000E+00 0. -1.
         11    1    3    3    0    0 -0.41171435727E+01  0.29476632536E+01  0.58061580111E+01  0.77039639775E+01  0.51100000000E-03 0. -1.
        -11    1    3    3    0    0 -0.19269650067E+02  0.11756418604E+02  0.30099340686E+02  0.37623172409E+02  0.51100000000E-03 0.  1.
         12    1    3    3    0    0  0.23898494761E+02 -0.14474430079E+02 -0.34867021122E+02  0.44680603621E+02  0.00000000000E+00 0. -1.
</event>
<event>
 7    1  0.2148778E-015  0.9000768E+02  0.7816164E-02  0.1186339E+00
        -11   -1    0    0    0    0  0.00000000000E+00  0.00000000000E+00  0.45593999997E+02  0.45594000000E+02  0.51100000000E-03 0.  1.
         11   -1    0    0    0    0 -0.00000000000E+00 -0.00000000000E+00 -0.45593999997E+02  0.45594000000E+02  0.51100000000E-03 0. -1.
    9900012    2    1    2    0    0  0.62488720054E+00 -0.61116506181E+00  0.79318834263E+00  0.90007680343E+02  0.89999940923E+02 0.  0.
         12    1    1    2    0    0 -0.62488720054E+00  0.61116506181E+00 -0.79318834263E+00  0.11803196572E+01  0.00000000000E+00 0. -1.
         11    1    3    3    0    0 -0.17685442688E+01  0.45263124414E+01  0.10217240102E+02  0.11314028846E+02  0.51100000000E-03 0. -1.
        -11    1    3    3    0    0 -0.20402328699E+02 -0.11961021596E+02  0.26553841717E+02  0.35558790252E+02  0.51100000000E-03 0.  1.
         12    1    3    3    0    0  0.22795760169E+02  0.68235440929E+01 -0.35977893477E+02  0.43134861246E+02  0.00000000000E+00 0. -1.
</event>
<event>
 7    1  0.2148778E-015  0.9000766E+02  0.7816164E-02  0.1186339E+00
        -11   -1    0    0    0    0  0.00000000000E+00  0.00000000000E+00  0.45593999997E+02  0.45594000000E+02  0.51100000000E-03 0. -1.
         11   -1    0    0    0    0 -0.00000000000E+00 -0.00000000000E+00 -0.45593999997E+02  0.45594000000E+02  0.51100000000E-03 0.  1.
    9900012    2    1    2    0    0  0.79974193415E+00 -0.81085006008E+00 -0.31005926779E+00  0.90007660332E+02  0.89999920649E+02 0.  0.
         12    1    1    2    0    0 -0.79974193415E+00  0.81085006008E+00  0.31005926779E+00  0.11803396675E+01  0.00000000000E+00 0. -1.
         11    1    3    3    0    0 -0.12526617685E+02  0.12887365312E+02 -0.10325147773E+02  0.20727011654E+02  0.51100000000E-03 0. -1.
        -11    1    3    3    0    0  0.37265268812E+01 -0.34454274797E+02 -0.12832170061E+02  0.36954683643E+02  0.51100000000E-03 0.  1.
         12    1    3    3    0    0  0.95998327380E+01  0.20756059426E+02  0.22847258567E+02  0.32325965036E+02  0.00000000000E+00 0. -1.
</event>
<event>
 7    1  0.2148778E-015  0.9000789E+02  0.7816164E-02  0.1186339E+00
        -11   -1    0    0    0    0  0.00000000000E+00  0.00000000000E+00  0.45593999997E+02  0.45594000000E+02  0.51100000000E-03 0. -1.
         11   -1    0    0    0    0 -0.00000000000E+00 -0.00000000000E+00 -0.45593999997E+02  0.45594000000E+02  0.51100000000E-03 0.  1.
    9900012    2    1    2    0    0  0.64216246562E+00  0.72654210002E+00 -0.67263035134E+00  0.90007886597E+02  0.90000149900E+02 0.  0.
         12    1    1    2    0    0 -0.64216246562E+00 -0.72654210002E+00  0.67263035134E+00  0.11801134034E+01  0.00000000000E+00 0. -1.
         11    1    3    3    0    0 -0.19958353247E+02 -0.15108259723E+02  0.26162650004E+02  0.36208833614E+02  0.51100000000E-03 0. -1.
        -11    1    3    3    0    0  0.83918329188E+01 -0.79986443217E+01  0.46281294447E+01  0.12482818317E+02  0.51100000000E-03 0.  1.
        -12    1    3    3    0    0  0.12208682794E+02  0.23833446144E+02 -0.31463409800E+02  0.41316234665E+02  0.00000000000E+00 0.  1.
</event>
<event>
 7    1  0.2148778E-015  0.9000763E+02  0.7816164E-02  0.1186339E+00
        -11   -1    0    0    0    0  0.00000000000E+00  0.00000000000E+00  0.45593999997E+02  0.45594000000E+02  0.51100000000E-03 0.  1.
         11   -1    0    0    0    0 -0.00000000000E+00 -0.00000000000E+00 -0.45593999997E+02  0.45594000000E+02  0.51100000000E-03 0. -1.
    9900012    2    1    2    0    0  0.18864058978E+00 -0.11615373355E+01 -0.92238243531E-01  0.90007634740E+02  0.89999894718E+02 0.  0.
         12    1    1    2    0    0 -0.18864058978E+00  0.11615373355E+01  0.92238243531E-01  0.11803652602E+01  0.00000000000E+00 0. -1.
         11    1    3    3    0    0  0.99882556915E+01  0.64413657490E+00 -0.86174233280E+00  0.10046032241E+02  0.51100000000E-03 0. -1.
        -11    1    3    3    0    0  0.33076110390E+02  0.48516185734E+01 -0.10666269230E+02  0.35090405823E+02  0.51100000000E-03 0.  1.
         12    1    3    3    0    0 -0.42875725492E+02 -0.66572924838E+01  0.11435773319E+02  0.44871196675E+02  0.00000000000E+00 0. -1.
</event>
<event>
 7    1  0.2148778E-015  0.9000777E+02  0.7816164E-02  0.1186339E+00
        -11   -1    0    0    0    0  0.00000000000E+00  0.00000000000E+00  0.45593999997E+02  0.45594000000E+02  0.51100000000E-03 0.  1.
         11   -1    0    0    0    0 -0.00000000000E+00 -0.00000000000E+00 -0.45593999997E+02  0.45594000000E+02  0.51100000000E-03 0. -1.
    9900012    2    1    2    0    0  0.52100566024E+00  0.62958737295E+00  0.85153547051E+00  0.90007771287E+02  0.90000033068E+02 0.  0.
         12    1    1    2    0    0 -0.52100566024E+00 -0.62958737295E+00 -0.85153547051E+00  0.11802287133E+01  0.00000000000E+00 0. -1.
         11    1    3    3    0    0 -0.46952549176E+01  0.74270138993E+01  0.32038769326E+01  0.93525815614E+01  0.51100000000E-03 0. -1.
        -11    1    3    3    0    0 -0.21626914999E+02  0.18727364248E+01  0.30447560927E+02  0.37393643320E+02  0.51100000000E-03 0.  1.
         12    1    3    3    0    0  0.26843175577E+02 -0.86701629512E+01 -0.32799902389E+02  0.43261546405E+02  0.00000000000E+00 0. -1.
</event>
<event>
 7    1  0.2148778E-015  0.9000779E+02  0.7816164E-02  0.1186339E+00
        -11   -1    0    0    0    0  0.00000000000E+00  0.00000000000E+00  0.45593999997E+02  0.45594000000E+02  0.51100000000E-03 0.  1.
         11   -1    0    0    0    0 -0.00000000000E+00 -0.00000000000E+00 -0.45593999997E+02  0.45594000000E+02  0.51100000000E-03 0. -1.
    9900012    2    1    2    0    0 -0.94143936188E+00  0.67672967349E+00 -0.22049468214E+00  0.90007792803E+02  0.90000054868E+02 0.  0.
         12    1    1    2    0    0  0.94143936188E+00 -0.67672967349E+00  0.22049468214E+00  0.11802071970E+01  0.00000000000E+00 0. -1.
         11    1    3    3    0    0  0.22273087118E+01 -0.98404526330E+01  0.41360550190E+01  0.10904236035E+02  0.51100000000E-03 0. -1.
        -11    1    3    3    0    0  0.69728797082E+01 -0.29780011515E+02  0.14046860806E+02  0.33656863134E+02  0.51100000000E-03 0.  1.
         12    1    3    3    0    0 -0.10141627782E+02  0.40297193822E+02 -0.18403410507E+02  0.45446693634E+02  0.00000000000E+00 0. -1.
</event>
<event>
 7    1  0.2148778E-015  0.9000771E+02  0.7816164E-02  0.1186339E+00
        -11   -1    0    0    0    0  0.00000000000E+00  0.00000000000E+00  0.45593999997E+02  0.45594000000E+02  0.51100000000E-03 0. -1.
         11   -1    0    0    0    0 -0.00000000000E+00 -0.00000000000E+00 -0.45593999997E+02  0.45594000000E+02  0.51100000000E-03 0.  1.
    9900012    2    1    2    0    0  0.26523813880E+00 -0.23186492728E+00 -0.11264863554E+01  0.90007710153E+02  0.89999971127E+02 0.  0.
         12    1    1    2    0    0 -0.26523813880E+00  0.23186492728E+00  0.11264863554E+01  0.11802898473E+01  0.00000000000E+00 0. -1.
         11    1    3    3    0    0  0.16176243150E+01  0.73208877089E+01 -0.32682181126E+01  0.81788358074E+01  0.51100000000E-03 0. -1.
        -11    1    3    3    0    0  0.21169226786E+02  0.23461594241E+02 -0.20160408122E+02  0.37483658078E+02  0.51100000000E-03 0.  1.
         12    1    3    3    0    0 -0.22521612962E+02 -0.31014346877E+02  0.22302139879E+02  0.44345216267E+02  0.00000000000E+00 0. -1.
</event>
<event>
 7    1  0.2148778E-015  0.9000774E+02  0.7816164E-02  0.1186339E+00
        -11   -1    0    0    0    0  0.00000000000E+00  0.00000000000E+00  0.45593999997E+02  0.45594000000E+02  0.51100000000E-03 0.  1.
         11   -1    0    0    0    0 -0.00000000000E+00 -0.00000000000E+00 -0.45593999997E+02  0.45594000000E+02  0.51100000000E-03 0. -1.
    9900012    2    1    2    0    0 -0.78030104213E+00 -0.88177110272E+00  0.81331938210E-01  0.90007743724E+02  0.90000005141E+02 0.  0.
         12    1    1    2    0    0  0.78030104213E+00  0.88177110272E+00 -0.81331938210E-01  0.11802562765E+01  0.00000000000E+00 0. -1.
         11    1    3    3    0    0 -0.88142390987E+01 -0.14486380492E+01  0.53965504394E+01  0.10436096971E+02  0.51100000000E-03 0. -1.
        -11    1    3    3    0    0  0.18717492831E+02 -0.30146372522E+02  0.17776761226E+02  0.39688305004E+02  0.51100000000E-03 0.  1.
         12    1    3    3    0    0 -0.10683554775E+02  0.30713239468E+02 -0.23091979728E+02  0.39883341748E+02  0.00000000000E+00 0. -1.
</event>
<event>
 7    1  0.2180913E-015  0.9000757E+02  0.7816164E-02  0.1186339E+00
        -11   -1    0    0    0    0  0.00000000000E+00  0.00000000000E+00  0.45593999997E+02  0.45594000000E+02  0.51100000000E-03 0. -1.
         11   -1    0    0    0    0 -0.00000000000E+00 -0.00000000000E+00 -0.45593999997E+02  0.45594000000E+02  0.51100000000E-03 0.  1.
    9900012    2    1    2    0    0 -0.54943701989E-01 -0.10561965559E+01 -0.52425052451E+00  0.90007572710E+02  0.89999831869E+02 0.  0.
         12    1    1    2    0    0  0.54943701989E-01  0.10561965559E+01  0.52425052451E+00  0.11804272903E+01  0.00000000000E+00 0. -1.
         11    1    3    3    0    0 -0.48857980500E+01 -0.31052454111E+00  0.39512401937E+02  0.39814536983E+02  0.51100000000E-03 0. -1.
        -11    1    3    3    0    0 -0.94517363096E+01 -0.13578538627E+01 -0.22751419663E+01  0.98160764875E+01  0.51100000000E-03 0.  1.
        -12    1    3    3    0    0  0.14282590658E+02  0.61218184789E+00 -0.37761510495E+02  0.40376959239E+02  0.00000000000E+00 0.  1.
</event>
<event>
 7    1  0.2148778E-015  0.9000772E+02  0.7816164E-02  0.1186339E+00
        -11   -1    0    0    0    0  0.00000000000E+00  0.00000000000E+00  0.45593999997E+02  0.45594000000E+02  0.51100000000E-03 0. -1.
         11   -1    0    0    0    0 -0.00000000000E+00 -0.00000000000E+00 -0.45593999997E+02  0.45594000000E+02  0.51100000000E-03 0.  1.
    9900012    2    1    2    0    0  0.73424937060E+00 -0.91875969977E+00  0.99069236131E-01  0.90007721966E+02  0.89999983096E+02 0.  0.
         12    1    1    2    0    0 -0.73424937060E+00  0.91875969977E+00 -0.99069236131E-01  0.11802780341E+01  0.00000000000E+00 0. -1.
         11    1    3    3    0    0 -0.70428204291E+01 -0.62106144702E+01 -0.64784307066E+01  0.11408028593E+02  0.51100000000E-03 0. -1.
        -11    1    3    3    0    0 -0.14994879760E+02 -0.30216156137E+02 -0.66707449270E+01  0.34385481659E+02  0.51100000000E-03 0.  1.
         12    1    3    3    0    0  0.22771949560E+02  0.35508010908E+02  0.13248244870E+02  0.44214211714E+02  0.00000000000E+00 0. -1.
</event>
<event>
 7    1  0.2148778E-015  0.9000759E+02  0.7816164E-02  0.1186339E+00
        -11   -1    0    0    0    0  0.00000000000E+00  0.00000000000E+00  0.45593999997E+02  0.45594000000E+02  0.51100000000E-03 0.  1.
         11   -1    0    0    0    0 -0.00000000000E+00 -0.00000000000E+00 -0.45593999997E+02  0.45594000000E+02  0.51100000000E-03 0. -1.
    9900012    2    1    2    0    0 -0.81809337322E+00 -0.49577394636E-01  0.84948567225E+00  0.90007593039E+02  0.89999852467E+02 0.  0.
         12    1    1    2    0    0  0.81809337322E+00  0.49577394636E-01 -0.84948567225E+00  0.11804069606E+01  0.00000000000E+00 0. -1.
         11    1    3    3    0    0  0.24580740576E+02  0.31450415154E+01  0.24733794760E+02  0.35012350634E+02  0.51100000000E-03 0. -1.
        -11    1    3    3    0    0  0.77168943459E+01  0.16084569142E+01  0.61757172715E+01  0.10013844220E+02  0.51100000000E-03 0.  1.
        -12    1    3    3    0    0 -0.33115728296E+02 -0.48030758242E+01 -0.30060026360E+02  0.44981398185E+02  0.00000000000E+00 0.  1.
</event>
<event>
 7    1  0.2148778E-015  0.9000770E+02  0.7816164E-02  0.1186339E+00
        -11   -1    0    0    0    0  0.00000000000E+00  0.00000000000E+00  0.45593999997E+02  0.45594000000E+02  0.51100000000E-03 0.  1.
         11   -1    0    0    0    0 -0.00000000000E+00 -0.00000000000E+00 -0.45593999997E+02  0.45594000000E+02  0.51100000000E-03 0. -1.
    9900012    2    1    2    0    0  0.46028563076E+00  0.85757149452E+00  0.66769619040E+00  0.90007699219E+02  0.89999960049E+02 0.  0.
         12    1    1    2    0    0 -0.46028563076E+00 -0.85757149452E+00 -0.66769619040E+00  0.11803007806E+01  0.00000000000E+00 0. -1.
         11    1    3    3    0    0  0.41840053120E+01 -0.83176548579E+01  0.16569433527E+01  0.94569944655E+01  0.51100000000E-03 0. -1.
        -11    1    3    3    0    0  0.87072528789E+01 -0.33977115174E+02 -0.51502565747E+01  0.35451174187E+02  0.51100000000E-03 0.  1.
         12    1    3    3    0    0 -0.12430972560E+02  0.43152341526E+02  0.41610094124E+01  0.45099530566E+02  0.00000000000E+00 0. -1.
</event>
<event>
 7    1  0.2148778E-015  0.9000777E+02  0.7816164E-02  0.1186339E+00
        -11   -1    0    0    0    0  0.00000000000E+00  0.00000000000E+00  0.45593999997E+02  0.45594000000E+02  0.51100000000E-03 0. -1.
         11   -1    0    0    0    0 -0.00000000000E+00 -0.00000000000E+00 -0.45593999997E+02  0.45594000000E+02  0.51100000000E-03 0.  1.
    9900012    2    1    2    0    0  0.55476674547E+00 -0.73845378711E+00  0.73475421858E+00  0.90007769557E+02  0.90000031315E+02 0.  0.
         12    1    1    2    0    0 -0.55476674547E+00  0.73845378711E+00 -0.73475421858E+00  0.11802304433E+01  0.00000000000E+00 0. -1.
         11    1    3    3    0    0  0.71535786486E+01  0.31253146593E+01 -0.11263182148E+02  0.13704034135E+02  0.51100000000E-03 0. -1.
        -11    1    3    3    0    0 -0.32847894099E+02  0.53678894961E+01 -0.15913269973E+02  0.36892147483E+02  0.51100000000E-03 0.  1.
         12    1    3    3    0    0  0.26249082196E+02 -0.92316579425E+01  0.27911206340E+02  0.39411587939E+02  0.00000000000E+00 0. -1.
</event>
<event>
 7    1  0.2148778E-015  0.9000781E+02  0.7816164E-02  0.1186339E+00
        -11   -1    0    0    0    0  0.00000000000E+00  0.00000000000E+00  0.45593999997E+02  0.45594000000E+02  0.51100000000E-03 0. -1.
         11   -1    0    0    0    0 -0.00000000000E+00 -0.00000000000E+00 -0.45593999997E+02  0.45594000000E+02  0.51100000000E-03 0.  1.
    9900012    2    1    2    0    0  0.19462651805E+00 -0.10790716677E+01 -0.43655956347E+00  0.90007805356E+02  0.90000067587E+02 0.  0.
         12    1    1    2    0    0 -0.19462651805E+00  0.10790716677E+01  0.43655956347E+00  0.11801946441E+01  0.00000000000E+00 0. -1.
         11    1    3    3    0    0 -0.25222754945E+01  0.16216765483E+01  0.82291326402E+01  0.87584435129E+01  0.51100000000E-03 0. -1.
        -11    1    3    3    0    0  0.16448652324E+02 -0.37377138455E+02  0.57996033085E+01  0.41246139712E+02  0.51100000000E-03 0.  1.
         12    1    3    3    0    0 -0.13731750312E+02  0.34676390239E+02 -0.14465295512E+02  0.40003222131E+02  0.00000000000E+00 0. -1.
</event>
<event>
 7    1  0.2148778E-015  0.9000778E+02  0.7816164E-02  0.1186339E+00
        -11   -1    0    0    0    0  0.00000000000E+00  0.00000000000E+00  0.45593999997E+02  0.45594000000E+02  0.51100000000E-03 0. -1.
         11   -1    0    0    0    0 -0.00000000000E+00 -0.00000000000E+00 -0.45593999997E+02  0.45594000000E+02  0.51100000000E-03 0.  1.
    9900012    2    1    2    0    0  0.38479472255E+00  0.10276157240E+01 -0.43458965693E+00  0.90007775774E+02  0.90000037614E+02 0.  0.
         12    1    1    2    0    0 -0.38479472255E+00 -0.10276157240E+01  0.43458965693E+00  0.11802242264E+01  0.00000000000E+00 0. -1.
         11    1    3    3    0    0  0.35395410641E+01 -0.91626922140E+01  0.24098103266E+01  0.10113874906E+02  0.51100000000E-03 0. -1.
        -11    1    3    3    0    0 -0.30416954170E+02  0.30254583461E+02  0.93611988586E+01  0.43910852482E+02  0.51100000000E-03 0.  1.
         12    1    3    3    0    0  0.27262207829E+02 -0.20064275523E+02 -0.12205598842E+02  0.35983048385E+02  0.00000000000E+00 0. -1.
</event>
<event>
 7    1  0.2148778E-015  0.9000775E+02  0.7816164E-02  0.1186339E+00
        -11   -1    0    0    0    0  0.00000000000E+00  0.00000000000E+00  0.45593999997E+02  0.45594000000E+02  0.51100000000E-03 0. -1.
         11   -1    0    0    0    0 -0.00000000000E+00 -0.00000000000E+00 -0.45593999997E+02  0.45594000000E+02  0.51100000000E-03 0.  1.
    9900012    2    1    2    0    0 -0.11032395636E+01  0.37309505810E+00  0.19143446671E+00  0.90007752309E+02  0.90000013839E+02 0.  0.
         12    1    1    2    0    0  0.11032395636E+01 -0.37309505810E+00 -0.19143446671E+00  0.11802476910E+01  0.00000000000E+00 0. -1.
         11    1    3    3    0    0  0.31795970771E+02 -0.12230083730E+02  0.82901514543E+01  0.35061165364E+02  0.51100000000E-03 0. -1.
        -11    1    3    3    0    0  0.67737064050E+01 -0.21726222379E+01  0.70186933843E+01  0.99932698820E+01  0.51100000000E-03 0.  1.
        -12    1    3    3    0    0 -0.39672916739E+02  0.14775801026E+02 -0.15117410372E+02  0.44953317063E+02  0.00000000000E+00 0.  1.
</event>
<event>
 7    1  0.2148778E-015  0.9000761E+02  0.7816164E-02  0.1186339E+00
        -11   -1    0    0    0    0  0.00000000000E+00  0.00000000000E+00  0.45593999997E+02  0.45594000000E+02  0.51100000000E-03 0.  1.
         11   -1    0    0    0    0 -0.00000000000E+00 -0.00000000000E+00 -0.45593999997E+02  0.45594000000E+02  0.51100000000E-03 0. -1.
    9900012    2    1    2    0    0 -0.94265222632E-01 -0.25924660511E+00  0.11477083294E+01  0.90007606361E+02  0.89999865964E+02 0.  0.
         12    1    1    2    0    0  0.94265222632E-01  0.25924660511E+00 -0.11477083294E+01  0.11803936394E+01  0.00000000000E+00 0. -1.
         11    1    3    3    0    0 -0.37052532454E+01  0.66758304094E+01 -0.43885729174E+01  0.88065422147E+01  0.51100000000E-03 0. -1.
        -11    1    3    3    0    0  0.81412277737E+01  0.26425906491E+02  0.29072622813E+02  0.40122631033E+02  0.51100000000E-03 0.  1.
         12    1    3    3    0    0 -0.45302397510E+01 -0.33360983505E+02 -0.23536341567E+02  0.41078433113E+02  0.00000000000E+00 0. -1.
</event>
<event>
 7    1  0.2148778E-015  0.9000773E+02  0.7816164E-02  0.1186339E+00
        -11   -1    0    0    0    0  0.00000000000E+00  0.00000000000E+00  0.45593999997E+02  0.45594000000E+02  0.51100000000E-03 0. -1.
         11   -1    0    0    0    0 -0.00000000000E+00 -0.00000000000E+00 -0.45593999997E+02  0.45594000000E+02  0.51100000000E-03 0.  1.
    9900012    2    1    2    0    0  0.58957367712E+00 -0.10116028179E+01  0.14865166915E+00  0.90007731090E+02  0.89999992340E+02 0.  0.
         12    1    1    2    0    0 -0.58957367712E+00  0.10116028179E+01 -0.14865166915E+00  0.11802689103E+01  0.00000000000E+00 0. -1.
         11    1    3    3    0    0  0.78914729836E+01  0.32879061530E+02  0.11421192847E+02  0.35689657875E+02  0.51100000000E-03 0. -1.
        -11    1    3    3    0    0  0.22449293174E+00  0.76978714256E+01  0.48299001346E+01  0.90904101741E+01  0.51100000000E-03 0.  1.
        -12    1    3    3    0    0 -0.75263922382E+01 -0.41588535773E+02 -0.16102441312E+02  0.45227663041E+02  0.00000000000E+00 0.  1.
</event>
<event>
 7    1  0.2148778E-015  0.9000751E+02  0.7816164E-02  0.1186340E+00
        -11   -1    0    0    0    0  0.00000000000E+00  0.00000000000E+00  0.45593999997E+02  0.45594000000E+02  0.51100000000E-03 0.  1.
         11   -1    0    0    0    0 -0.00000000000E+00 -0.00000000000E+00 -0.45593999997E+02  0.45594000000E+02  0.51100000000E-03 0. -1.
    9900012    2    1    2    0    0 -0.42602870805E+00 -0.30790260658E+00  0.10570034104E+01  0.90007508287E+02  0.89999766596E+02 0.  0.
         12    1    1    2    0    0  0.42602870805E+00  0.30790260658E+00 -0.10570034104E+01  0.11804917131E+01  0.00000000000E+00 0. -1.
         11    1    3    3    0    0 -0.11596086827E+01 -0.65397463551E+01  0.23716399856E+01  0.70524925500E+01  0.51100000000E-03 0. -1.
        -11    1    3    3    0    0 -0.34424226591E+02  0.92045845091E+01  0.20852167354E+02  0.41286373491E+02  0.51100000000E-03 0.  1.
         12    1    3    3    0    0  0.35157806566E+02 -0.29727407606E+01 -0.22166803930E+02  0.41668642246E+02  0.00000000000E+00 0. -1.
</event>
<event>
 7    1  0.2148778E-015  0.9000770E+02  0.7816164E-02  0.1186339E+00
        -11   -1    0    0    0    0  0.00000000000E+00  0.00000000000E+00  0.45593999997E+02  0.45594000000E+02  0.51100000000E-03 0. -1.
         11   -1    0    0    0    0 -0.00000000000E+00 -0.00000000000E+00 -0.45593999997E+02  0.45594000000E+02  0.51100000000E-03 0.  1.
    9900012    2    1    2    0    0 -0.86894320943E+00  0.79703167628E+00  0.52740760311E-01  0.90007701994E+02  0.89999962861E+02 0.  0.
         12    1    1    2    0    0  0.86894320943E+00 -0.79703167628E+00 -0.52740760311E-01  0.11802980056E+01  0.00000000000E+00 0. -1.
         11    1    3    3    0    0 -0.73709356769E+01  0.78561022437E+01 -0.20146000161E+02  0.22845357471E+02  0.51100000000E-03 0. -1.
        -11    1    3    3    0    0 -0.21851202370E+02  0.60780428475E+01 -0.89940307074E+01  0.24398980276E+02  0.51100000000E-03 0.  1.
         12    1    3    3    0    0  0.28353194838E+02 -0.13137113415E+02  0.29192771629E+02  0.42763364247E+02  0.00000000000E+00 0. -1.
</event>
<event>
 7    1  0.2148778E-015  0.9000772E+02  0.7816164E-02  0.1186339E+00
        -11   -1    0    0    0    0  0.00000000000E+00  0.00000000000E+00  0.45593999997E+02  0.45594000000E+02  0.51100000000E-03 0.  1.
         11   -1    0    0    0    0 -0.00000000000E+00 -0.00000000000E+00 -0.45593999997E+02  0.45594000000E+02  0.51100000000E-03 0. -1.
    9900012    2    1    2    0    0 -0.93848742809E+00 -0.38488836198E+00 -0.60346579050E+00  0.90007716702E+02  0.89999977762E+02 0.  0.
         12    1    1    2    0    0  0.93848742809E+00  0.38488836198E+00  0.60346579050E+00  0.11802832983E+01  0.00000000000E+00 0. -1.
         11    1    3    3    0    0  0.21844402832E+01 -0.53669028727E+01 -0.55411583084E+01  0.80174722610E+01  0.51100000000E-03 0. -1.
        -11    1    3    3    0    0  0.17533091556E+02  0.37745334124E+02  0.10340313140E+02  0.42884048593E+02  0.51100000000E-03 0.  1.
         12    1    3    3    0    0 -0.20656019267E+02 -0.32763319614E+02 -0.54026206223E+01  0.39106195847E+02  0.00000000000E+00 0. -1.
</event>
<event>
 7    1  0.2148778E-015  0.9000781E+02  0.7816164E-02  0.1186339E+00
        -11   -1    0    0    0    0  0.00000000000E+00  0.00000000000E+00  0.45593999997E+02  0.45594000000E+02  0.51100000000E-03 0.  1.
         11   -1    0    0    0    0 -0.00000000000E+00 -0.00000000000E+00 -0.45593999997E+02  0.45594000000E+02  0.51100000000E-03 0. -1.
    9900012    2    1    2    0    0 -0.10383665454E+01  0.46084082421E+00  0.31980890593E+00  0.90007806336E+02  0.90000068580E+02 0.  0.
         12    1    1    2    0    0  0.10383665454E+01 -0.46084082421E+00 -0.31980890593E+00  0.11801936638E+01  0.00000000000E+00 0. -1.
         11    1    3    3    0    0  0.58451266129E+01  0.59728841437E+01 -0.17202161453E+01  0.85322912493E+01  0.51100000000E-03 0. -1.
        -11    1    3    3    0    0  0.23263346853E+02 -0.20429132554E+02  0.25794518298E+02  0.40297517767E+02  0.51100000000E-03 0.  1.
         12    1    3    3    0    0 -0.30146840011E+02  0.14917089235E+02 -0.23754493246E+02  0.41177997320E+02  0.00000000000E+00 0. -1.
</event>
<event>
 7    1  0.2148778E-015  0.9000775E+02  0.7816164E-02  0.1186339E+00
        -11   -1    0    0    0    0  0.00000000000E+00  0.00000000000E+00  0.45593999997E+02  0.45594000000E+02  0.51100000000E-03 0. -1.
         11   -1    0    0    0    0 -0.00000000000E+00 -0.00000000000E+00 -0.45593999997E+02  0.45594000000E+02  0.51100000000E-03 0.  1.
    9900012    2    1    2    0    0  0.27244826870E+00  0.10348256760E+01  0.49789991164E+00  0.90007747247E+02  0.90000008711E+02 0.  0.
         12    1    1    2    0    0 -0.27244826870E+00 -0.10348256760E+01 -0.49789991164E+00  0.11802527529E+01  0.00000000000E+00 0. -1.
         11    1    3    3    0    0 -0.31078795908E+02  0.12564265053E+02  0.20258436015E+02  0.39168310424E+02  0.51100000000E-03 0. -1.
        -11    1    3    3    0    0  0.13840086925E+01  0.93337053725E+01 -0.24936549803E+00  0.94390528897E+01  0.51100000000E-03 0.  1.
        -12    1    3    3    0    0  0.29967235485E+02 -0.20863144750E+02 -0.19511170605E+02  0.41400383933E+02  0.00000000000E+00 0.  1.
</event>
<event>
 7    1  0.2148778E-015  0.9000767E+02  0.7816164E-02  0.1186339E+00
        -11   -1    0    0    0    0  0.00000000000E+00  0.00000000000E+00  0.45593999997E+02  0.45594000000E+02  0.51100000000E-03 0. -1.
         11   -1    0    0    0    0 -0.00000000000E+00 -0.00000000000E+00 -0.45593999997E+02  0.45594000000E+02  0.51100000000E-03 0.  1.
    9900012    2    1    2    0    0  0.17368487354E+00  0.11615615063E+01 -0.11745398822E+00  0.90007666569E+02  0.89999926968E+02 0.  0.
         12    1    1    2    0    0 -0.17368487354E+00 -0.11615615063E+01  0.11745398822E+00  0.11803334307E+01  0.00000000000E+00 0. -1.
         11    1    3    3    0    0  0.25211888486E+02  0.34710983362E+02 -0.23551137340E+01  0.42965547221E+02  0.51100000000E-03 0. -1.
        -11    1    3    3    0    0 -0.96321641226E+01 -0.11476550921E+01  0.52645416409E+01  0.11036806460E+02  0.51100000000E-03 0.  1.
        -12    1    3    3    0    0 -0.15406039489E+02 -0.32401766764E+02 -0.30268818952E+01  0.36005312888E+02  0.00000000000E+00 0.  1.
</event>
<event>
 7    1  0.2148778E-015  0.9000769E+02  0.7816164E-02  0.1186339E+00
        -11   -1    0    0    0    0  0.00000000000E+00  0.00000000000E+00  0.45593999997E+02  0.45594000000E+02  0.51100000000E-03 0. -1.
         11   -1    0    0    0    0 -0.00000000000E+00 -0.00000000000E+00 -0.45593999997E+02  0.45594000000E+02  0.51100000000E-03 0.  1.
    9900012    2    1    2    0    0  0.48058404751E-01 -0.41119526527E+00 -0.11053184695E+01  0.90007694923E+02  0.89999955696E+02 0.  0.
         12    1    1    2    0    0 -0.48058404751E-01  0.41119526527E+00  0.11053184695E+01  0.11803050773E+01  0.00000000000E+00 0. -1.
         11    1    3    3    0    0  0.13035797353E+02 -0.27522404031E+02  0.21112724805E+02  0.37056199012E+02  0.51100000000E-03 0. -1.
        -11    1    3    3    0    0 -0.16690433216E+01 -0.89430758965E+01  0.33789799050E-01  0.90975520945E+01  0.51100000000E-03 0.  1.
        -12    1    3    3    0    0 -0.11318695627E+02  0.36054284662E+02 -0.22251833073E+02  0.43853943817E+02  0.00000000000E+00 0.  1.
</event>
<event>
 7    1  0.2148778E-015  0.9000771E+02  0.7816164E-02  0.1186339E+00
        -11   -1    0    0    0    0  0.00000000000E+00  0.00000000000E+00  0.45593999997E+02  0.45594000000E+02  0.51100000000E-03 0.  1.
         11   -1    0    0    0    0 -0.00000000000E+00 -0.00000000000E+00 -0.45593999997E+02  0.45594000000E+02  0.51100000000E-03 0. -1.
    9900012    2    1    2    0    0 -0.14770891129E+00  0.95727978789E+00  0.67444309947E+00  0.90007713590E+02  0.89999974610E+02 0.  0.
         12    1    1    2    0    0  0.14770891129E+00 -0.95727978789E+00 -0.67444309947E+00  0.11802864098E+01  0.00000000000E+00 0. -1.
         11    1    3    3    0    0  0.71575624860E+01  0.22095473431E+02  0.65948038264E+01  0.24143986511E+02  0.51100000000E-03 0.  1.
        -11    1    3    3    0    0 -0.27247427658E+02  0.18502230889E+01 -0.18443856489E+02  0.32954840038E+02  0.51100000000E-03 0. -1.
        -12    1    3    3    0    0  0.19942156261E+02 -0.22988416732E+02  0.12523495762E+02  0.32908887041E+02  0.00000000000E+00 0.  1.
</event>
<event>
 7    1  0.2148778E-015  0.9000777E+02  0.7816164E-02  0.1186339E+00
        -11   -1    0    0    0    0  0.00000000000E+00  0.00000000000E+00  0.45593999997E+02  0.45594000000E+02  0.51100000000E-03 0.  1.
         11   -1    0    0    0    0 -0.00000000000E+00 -0.00000000000E+00 -0.45593999997E+02  0.45594000000E+02  0.51100000000E-03 0. -1.
    9900012    2    1    2    0    0 -0.39252146686E+00  0.73631975997E+00  0.83468575382E+00  0.90007771125E+02  0.90000032903E+02 0.  0.
         12    1    1    2    0    0  0.39252146686E+00 -0.73631975997E+00 -0.83468575382E+00  0.11802288755E+01  0.00000000000E+00 0. -1.
         11    1    3    3    0    0 -0.53928012064E+01  0.24315737486E+00  0.11473959444E+01  0.55188719930E+01  0.51100000000E-03 0. -1.
        -11    1    3    3    0    0 -0.10900521403E+02 -0.39099519783E+02 -0.73366441146E+01  0.41248274645E+02  0.51100000000E-03 0.  1.
         12    1    3    3    0    0  0.15900801142E+02  0.39592682168E+02  0.70239339240E+01  0.43240624486E+02  0.00000000000E+00 0. -1.
</event>
<event>
 7    1  0.2148778E-015  0.9000776E+02  0.7816164E-02  0.1186339E+00
        -11   -1    0    0    0    0  0.00000000000E+00  0.00000000000E+00  0.45593999997E+02  0.45594000000E+02  0.51100000000E-03 0.  1.
         11   -1    0    0    0    0 -0.00000000000E+00 -0.00000000000E+00 -0.45593999997E+02  0.45594000000E+02  0.51100000000E-03 0. -1.
    9900012    2    1    2    0    0  0.50630363912E+00 -0.98489099455E+00 -0.40817380975E+00  0.90007762945E+02  0.90000024616E+02 0.  0.
         12    1    1    2    0    0 -0.50630363912E+00  0.98489099455E+00  0.40817380975E+00  0.11802370546E+01  0.00000000000E+00 0. -1.
         11    1    3    3    0    0  0.16472919016E+01 -0.89108107198E+01  0.35652457239E+01  0.97379204980E+01  0.51100000000E-03 0. -1.
        -11    1    3    3    0    0 -0.34882977660E+01 -0.31809743687E+02  0.15952295999E+02  0.35756170972E+02  0.51100000000E-03 0.  1.
         12    1    3    3    0    0  0.23473095035E+01  0.39735663412E+02 -0.19925715533E+02  0.44513671475E+02  0.00000000000E+00 0. -1.
</event>
<event>
 7    1  0.2148778E-015  0.9000770E+02  0.7816164E-02  0.1186339E+00
        -11   -1    0    0    0    0  0.00000000000E+00  0.00000000000E+00  0.45593999997E+02  0.45594000000E+02  0.51100000000E-03 0.  1.
         11   -1    0    0    0    0 -0.00000000000E+00 -0.00000000000E+00 -0.45593999997E+02  0.45594000000E+02  0.51100000000E-03 0. -1.
    9900012    2    1    2    0    0 -0.66886360884E+00 -0.84353197240E+00  0.48392762441E+00  0.90007698911E+02  0.89999959736E+02 0.  0.
         12    1    1    2    0    0  0.66886360884E+00  0.84353197240E+00 -0.48392762441E+00  0.11803010893E+01  0.00000000000E+00 0. -1.
         11    1    3    3    0    0 -0.96774494567E+01 -0.38242344040E+01 -0.27278520120E+00  0.10409236705E+02  0.51100000000E-03 0. -1.
        -11    1    3    3    0    0 -0.34486948800E+02 -0.49213965141E+01 -0.43083188608E+01  0.35101729201E+02  0.51100000000E-03 0.  1.
         12    1    3    3    0    0  0.43495534648E+02  0.79020989458E+01  0.50650316865E+01  0.44496733004E+02  0.00000000000E+00 0. -1.
</event>
<event>
 7    1  0.2148778E-015  0.9000822E+02  0.7816164E-02  0.1186338E+00
        -11   -1    0    0    0    0  0.00000000000E+00  0.00000000000E+00  0.45593999997E+02  0.45594000000E+02  0.51100000000E-03 0.  1.
         11   -1    0    0    0    0 -0.00000000000E+00 -0.00000000000E+00 -0.45593999997E+02  0.45594000000E+02  0.51100000000E-03 0. -1.
    9900012    2    1    2    0    0 -0.20675349963E+00 -0.92352575038E+00  0.70443143724E+00  0.90008224398E+02  0.90000492159E+02 0.  0.
         12    1    1    2    0    0  0.20675349963E+00  0.92352575038E+00 -0.70443143724E+00  0.11797756020E+01  0.00000000000E+00 0. -1.
         11    1    3    3    0    0  0.48925917773E+01 -0.78602383690E+01  0.18610280562E+01  0.94437401067E+01  0.51100000000E-03 0. -1.
        -11    1    3    3    0    0  0.35992428962E+02 -0.78557195625E+01 -0.18437601032E+01  0.36885860760E+02  0.51100000000E-03 0.  1.
         12    1    3    3    0    0 -0.41091774239E+02  0.14792432181E+02  0.68716348421E+00  0.43678623531E+02  0.00000000000E+00 0. -1.
</event>
<event>
 7    1  0.2148778E-015  0.9000770E+02  0.7816164E-02  0.1186339E+00
        -11   -1    0    0    0    0  0.00000000000E+00  0.00000000000E+00  0.45593999997E+02  0.45594000000E+02  0.51100000000E-03 0. -1.
         11   -1    0    0    0    0 -0.00000000000E+00 -0.00000000000E+00 -0.45593999997E+02  0.45594000000E+02  0.51100000000E-03 0.  1.
    9900012    2    1    2    0    0 -0.25626535886E+00 -0.42632976426E+00 -0.10703611713E+01  0.90007702563E+02  0.89999963437E+02 0.  0.
         12    1    1    2    0    0  0.25626535886E+00  0.42632976426E+00  0.10703611713E+01  0.11802974367E+01  0.00000000000E+00 0. -1.
         11    1    3    3    0    0  0.22698672487E+01 -0.52574266970E+01 -0.71770373466E+01  0.91816500770E+01  0.51100000000E-03 0. -1.
        -11    1    3    3    0    0  0.18187963851E+02 -0.19690889758E+02 -0.24615793148E+02  0.36393274668E+02  0.51100000000E-03 0.  1.
         12    1    3    3    0    0 -0.20714096459E+02  0.24521986690E+02  0.30722469323E+02  0.44432777818E+02  0.00000000000E+00 0. -1.
</event>
<event>
 7    1  0.2148778E-015  0.9000779E+02  0.7816164E-02  0.1186339E+00
        -11   -1    0    0    0    0  0.00000000000E+00  0.00000000000E+00  0.45593999997E+02  0.45594000000E+02  0.51100000000E-03 0.  1.
         11   -1    0    0    0    0 -0.00000000000E+00 -0.00000000000E+00 -0.45593999997E+02  0.45594000000E+02  0.51100000000E-03 0. -1.
    9900012    2    1    2    0    0  0.53006884545E+00  0.92369630017E+00 -0.50864123496E+00  0.90007786569E+02  0.90000048552E+02 0.  0.
         12    1    1    2    0    0 -0.53006884545E+00 -0.92369630017E+00  0.50864123496E+00  0.11802134306E+01  0.00000000000E+00 0. -1.
         11    1    3    3    0    0  0.67550714680E+01 -0.28978714616E+02 -0.18968550837E+02  0.35287431367E+02  0.51100000000E-03 0. -1.
        -11    1    3    3    0    0  0.33828799736E+01 -0.81649098464E+01 -0.37635081940E+01  0.96059160887E+01  0.51100000000E-03 0.  1.
        -12    1    3    3    0    0 -0.96078825961E+01  0.38067320763E+02  0.22223417796E+02  0.45114439114E+02  0.00000000000E+00 0.  1.
</event>
<event>
 7    1  0.2215314E-015  0.9000745E+02  0.7816164E-02  0.1186340E+00
        -11   -1    0    0    0    0  0.00000000000E+00  0.00000000000E+00  0.45593999997E+02  0.45594000000E+02  0.51100000000E-03 0. -1.
         11   -1    0    0    0    0 -0.00000000000E+00 -0.00000000000E+00 -0.45593999997E+02  0.45594000000E+02  0.51100000000E-03 0.  1.
    9900012    2    1    2    0    0 -0.46774657356E+00  0.69845892418E+00 -0.82889815417E+00  0.90007447640E+02  0.89999705148E+02 0.  0.
         12    1    1    2    0    0  0.46774657356E+00 -0.69845892418E+00  0.82889815417E+00  0.11805523605E+01  0.00000000000E+00 0. -1.
         11    1    3    3    0    0  0.70587288801E+01 -0.29771470224E+01  0.69195576998E+01  0.10323242553E+02  0.51100000000E-03 0. -1.
        -11    1    3    3    0    0 -0.62171650111E+01 -0.84140057410E+01 -0.42028607855E+02  0.43311113029E+02  0.51100000000E-03 0.  1.
         12    1    3    3    0    0 -0.13093104426E+01  0.12089611688E+02  0.34280152001E+02  0.36373092057E+02  0.00000000000E+00 0. -1.
</event>
<event>
 7    1  0.2148778E-015  0.9000771E+02  0.7816164E-02  0.1186339E+00
        -11   -1    0    0    0    0  0.00000000000E+00  0.00000000000E+00  0.45593999997E+02  0.45594000000E+02  0.51100000000E-03 0.  1.
         11   -1    0    0    0    0 -0.00000000000E+00 -0.00000000000E+00 -0.45593999997E+02  0.45594000000E+02  0.51100000000E-03 0. -1.
    9900012    2    1    2    0    0  0.10318660482E+01  0.14269993358E-01  0.57281998598E+00  0.90007714479E+02  0.89999975510E+02 0.  0.
         12    1    1    2    0    0 -0.10318660482E+01 -0.14269993358E-01 -0.57281998598E+00  0.11802855208E+01  0.00000000000E+00 0. -1.
         11    1    3    3    0    0 -0.85287445205E+01 -0.58079558663E+01 -0.10957259975E+02  0.15051025908E+02  0.51100000000E-03 0. -1.
        -11    1    3    3    0    0  0.74825171862E+00 -0.17671746368E+02  0.35873092835E+02  0.39996615984E+02  0.51100000000E-03 0.  1.
         12    1    3    3    0    0  0.88123588501E+01  0.23493972228E+02 -0.24343012874E+02  0.34960072588E+02  0.00000000000E+00 0. -1.
</event>
<event>
 7    1  0.2148778E-015  0.9000767E+02  0.7816164E-02  0.1186339E+00
        -11   -1    0    0    0    0  0.00000000000E+00  0.00000000000E+00  0.45593999997E+02  0.45594000000E+02  0.51100000000E-03 0.  1.
         11   -1    0    0    0    0 -0.00000000000E+00 -0.00000000000E+00 -0.45593999997E+02  0.45594000000E+02  0.51100000000E-03 0. -1.
    9900012    2    1    2    0    0 -0.37076220777E+00 -0.10361202809E+01  0.42681622984E+00  0.90007668714E+02  0.89999929141E+02 0.  0.
         12    1    1    2    0    0  0.37076220777E+00  0.10361202809E+01 -0.42681622984E+00  0.11803312862E+01  0.00000000000E+00 0. -1.
         11    1    3    3    0    0 -0.39793876672E+01  0.20040256713E+01 -0.72887433430E+01  0.85426825341E+01  0.51100000000E-03 0. -1.
        -11    1    3    3    0    0 -0.30269752329E+02  0.85235547376E+01  0.26422883750E+02  0.41074051144E+02  0.51100000000E-03 0.  1.
         12    1    3    3    0    0  0.33878377789E+02 -0.11563700690E+02 -0.18707324177E+02  0.40390935036E+02  0.00000000000E+00 0. -1.
</event>
<event>
 7    1  0.2148778E-015  0.9000783E+02  0.7816164E-02  0.1186339E+00
        -11   -1    0    0    0    0  0.00000000000E+00  0.00000000000E+00  0.45593999997E+02  0.45594000000E+02  0.51100000000E-03 0. -1.
         11   -1    0    0    0    0 -0.00000000000E+00 -0.00000000000E+00 -0.45593999997E+02  0.45594000000E+02  0.51100000000E-03 0.  1.
    9900012    2    1    2    0    0 -0.63545772600E+00 -0.88791950006E+00 -0.44787908751E+00  0.90007829149E+02  0.90000091694E+02 0.  0.
         12    1    1    2    0    0  0.63545772600E+00  0.88791950006E+00  0.44787908751E+00  0.11801708508E+01  0.00000000000E+00 0. -1.
         11    1    3    3    0    0  0.26039812081E+02  0.13504232320E+02  0.24644576503E+02  0.38311763925E+02  0.51100000000E-03 0. -1.
        -11    1    3    3    0    0 -0.16818540990E+01 -0.10010224866E+01  0.79314621554E+01  0.81693801119E+01  0.51100000000E-03 0.  1.
        -12    1    3    3    0    0 -0.24993415708E+02 -0.13391129334E+02 -0.33023917746E+02  0.43526685112E+02  0.00000000000E+00 0.  1.
</event>
<event>
 7    1  0.2148778E-015  0.9000753E+02  0.7816164E-02  0.1186339E+00
        -11   -1    0    0    0    0  0.00000000000E+00  0.00000000000E+00  0.45593999997E+02  0.45594000000E+02  0.51100000000E-03 0.  1.
         11   -1    0    0    0    0 -0.00000000000E+00 -0.00000000000E+00 -0.45593999997E+02  0.45594000000E+02  0.51100000000E-03 0. -1.
    9900012    2    1    2    0    0  0.90011694441E+00  0.84958596036E-01  0.75900214209E+00  0.90007528599E+02  0.89999787176E+02 0.  0.
         12    1    1    2    0    0 -0.90011694441E+00 -0.84958596036E-01 -0.75900214209E+00  0.11804714009E+01  0.00000000000E+00 0. -1.
         11    1    3    3    0    0  0.29978560637E+01  0.10776313021E+01 -0.91330352198E+01  0.96726812616E+01  0.51100000000E-03 0. -1.
        -11    1    3    3    0    0 -0.37156473133E+02  0.39198697811E+01 -0.11351264195E+02  0.39048944594E+02  0.51100000000E-03 0.  1.
         12    1    3    3    0    0  0.35058734014E+02 -0.49125424872E+01  0.21243301556E+02  0.41285902744E+02  0.00000000000E+00 0. -1.
</event>
<event>
 7    1  0.2148778E-015  0.9000773E+02  0.7816164E-02  0.1186339E+00
        -11   -1    0    0    0    0  0.00000000000E+00  0.00000000000E+00  0.45593999997E+02  0.45594000000E+02  0.51100000000E-03 0.  1.
         11   -1    0    0    0    0 -0.00000000000E+00 -0.00000000000E+00 -0.45593999997E+02  0.45594000000E+02  0.51100000000E-03 0. -1.
    9900012    2    1    2    0    0  0.33704018378E+00 -0.66297691678E+00  0.91646375484E+00  0.90007728721E+02  0.89999989940E+02 0.  0.
         12    1    1    2    0    0 -0.33704018378E+00  0.66297691678E+00 -0.91646375484E+00  0.11802712788E+01  0.00000000000E+00 0. -1.
         11    1    3    3    0    0  0.74981761088E+01 -0.79878074257E+00  0.42745793670E+01  0.86679135125E+01  0.51100000000E-03 0. -1.
        -11    1    3    3    0    0  0.33949787725E+02  0.13114238011E+02  0.68575972631E+01  0.37035091004E+02  0.51100000000E-03 0.  1.
         12    1    3    3    0    0 -0.41110923651E+02 -0.12978434185E+02 -0.10215712875E+02  0.44304724205E+02  0.00000000000E+00 0. -1.
</event>
<event>
 7    1  0.2148778E-015  0.9000771E+02  0.7816164E-02  0.1186339E+00
        -11   -1    0    0    0    0  0.00000000000E+00  0.00000000000E+00  0.45593999997E+02  0.45594000000E+02  0.51100000000E-03 0.  1.
         11   -1    0    0    0    0 -0.00000000000E+00 -0.00000000000E+00 -0.45593999997E+02  0.45594000000E+02  0.51100000000E-03 0. -1.
    9900012    2    1    2    0    0  0.78936529217E+00  0.70223165299E+00  0.52618207738E+00  0.90007705784E+02  0.89999966700E+02 0.  0.
         12    1    1    2    0    0 -0.78936529217E+00 -0.70223165299E+00 -0.52618207738E+00  0.11802942165E+01  0.00000000000E+00 0. -1.
         11    1    3    3    0    0 -0.96113902719E+01  0.42103243617E+01  0.15239946721E+00  0.10494230798E+02  0.51100000000E-03 0. -1.
        -11    1    3    3    0    0 -0.14441004466E+02  0.32027827780E+02 -0.61508598942E+01  0.35667316131E+02  0.51100000000E-03 0.  1.
         12    1    3    3    0    0  0.24841760031E+02 -0.35535920489E+02  0.65246425044E+01  0.43846158854E+02  0.00000000000E+00 0. -1.
</event>
<event>
 7    1  0.2148778E-015  0.9000775E+02  0.7816164E-02  0.1186339E+00
        -11   -1    0    0    0    0  0.00000000000E+00  0.00000000000E+00  0.45593999997E+02  0.45594000000E+02  0.51100000000E-03 0.  1.
         11   -1    0    0    0    0 -0.00000000000E+00 -0.00000000000E+00 -0.45593999997E+02  0.45594000000E+02  0.51100000000E-03 0. -1.
    9900012    2    1    2    0    0 -0.11725092498E+01 -0.61453439296E-01 -0.12019603769E+00  0.90007745132E+02  0.90000006568E+02 0.  0.
         12    1    1    2    0    0  0.11725092498E+01  0.61453439296E-01  0.12019603769E+00  0.11802548680E+01  0.00000000000E+00 0. -1.
         11    1    3    3    0    0 -0.12442706051E+02  0.12491678657E+02  0.79322306826E+01  0.19333474944E+02  0.51100000000E-03 0. -1.
        -11    1    3    3    0    0 -0.23221248469E+02 -0.89371269257E+01  0.14979215175E+02  0.29042649770E+02  0.51100000000E-03 0.  1.
        -12    1    3    3    0    0  0.34491445270E+02 -0.36160051704E+01 -0.23031641896E+02  0.41631620418E+02  0.00000000000E+00 0.  1.
</event>
<event>
 7    1  0.2148778E-015  0.9000773E+02  0.7816164E-02  0.1186339E+00
        -11   -1    0    0    0    0  0.00000000000E+00  0.00000000000E+00  0.45593999997E+02  0.45594000000E+02  0.51100000000E-03 0. -1.
         11   -1    0    0    0    0 -0.00000000000E+00 -0.00000000000E+00 -0.45593999997E+02  0.45594000000E+02  0.51100000000E-03 0.  1.
    9900012    2    1    2    0    0 -0.40589113737E+00 -0.10384509756E+01 -0.38716607497E+00  0.90007734939E+02  0.89999996240E+02 0.  0.
         12    1    1    2    0    0  0.40589113737E+00  0.10384509756E+01  0.38716607497E+00  0.11802650608E+01  0.00000000000E+00 0. -1.
         11    1    3    3    0    0  0.19924876586E+02 -0.18772580486E+02  0.24306217039E+02  0.36608778620E+02  0.51100000000E-03 0. -1.
        -11    1    3    3    0    0  0.79789049852E+00 -0.65218862514E+01  0.60287310222E+01  0.89172432693E+01  0.51100000000E-03 0.  1.
        -12    1    3    3    0    0 -0.21128658221E+02  0.24256015761E+02 -0.30722114136E+02  0.44481713050E+02  0.00000000000E+00 0.  1.
</event>
<event>
 7    1  0.2148778E-015  0.9000697E+02  0.7816164E-02  0.1186341E+00
        -11   -1    0    0    0    0  0.00000000000E+00  0.00000000000E+00  0.45593999997E+02  0.45594000000E+02  0.51100000000E-03 0.  1.
         11   -1    0    0    0    0 -0.00000000000E+00 -0.00000000000E+00 -0.45593999997E+02  0.45594000000E+02  0.51100000000E-03 0. -1.
    9900012    2    1    2    0    0  0.69300934542E-01  0.11774000209E+01 -0.61314799197E-01  0.90006969546E+02  0.89999220741E+02 0.  0.
         12    1    1    2    0    0 -0.69300934542E-01 -0.11774000209E+01  0.61314799197E-01  0.11810304540E+01  0.00000000000E+00 0. -1.
         11    1    3    3    0    0 -0.10827534788E+02  0.63654309605E+01 -0.35861239148E+02  0.37997140608E+02  0.51100000000E-03 0. -1.
        -11    1    3    3    0    0  0.11382621973E+02 -0.10177377151E+02 -0.58594503244E+00  0.15280262448E+02  0.51100000000E-03 0.  1.
        -12    1    3    3    0    0 -0.48578625055E+00  0.49893462112E+01  0.36385869381E+02  0.36729566490E+02  0.00000000000E+00 0.  1.
</event>
<event>
 7    1  0.2148778E-015  0.9000775E+02  0.7816164E-02  0.1186339E+00
        -11   -1    0    0    0    0  0.00000000000E+00  0.00000000000E+00  0.45593999997E+02  0.45594000000E+02  0.51100000000E-03 0.  1.
         11   -1    0    0    0    0 -0.00000000000E+00 -0.00000000000E+00 -0.45593999997E+02  0.45594000000E+02  0.51100000000E-03 0. -1.
    9900012    2    1    2    0    0 -0.27774837154E-01  0.10031344245E+01 -0.62124627767E+00  0.90007747039E+02  0.90000008500E+02 0.  0.
         12    1    1    2    0    0  0.27774837154E-01 -0.10031344245E+01  0.62124627767E+00  0.11802529613E+01  0.00000000000E+00 0. -1.
         11    1    3    3    0    0  0.54471581902E+01 -0.35709504932E+01  0.20973514969E+01  0.68426678523E+01  0.51100000000E-03 0. -1.
        -11    1    3    3    0    0  0.43619630354E+01  0.42895040170E+02  0.28567945939E+01  0.43210791110E+02  0.51100000000E-03 0.  1.
         12    1    3    3    0    0 -0.98368960628E+01 -0.38320955253E+02 -0.55753923685E+01  0.39954288076E+02  0.00000000000E+00 0. -1.
</event>
<event>
 7    1  0.2967185E-015  0.9000774E+02  0.7816164E-02  0.1186339E+00
        -11   -1    0    0    0    0  0.00000000000E+00  0.00000000000E+00  0.45593999997E+02  0.45594000000E+02  0.51100000000E-03 0. -1.
         11   -1    0    0    0    0 -0.00000000000E+00 -0.00000000000E+00 -0.45593999997E+02  0.45594000000E+02  0.51100000000E-03 0.  1.
    9900012    2    1    2    0    0 -0.38072329343E+00 -0.61732941915E+00 -0.93110573203E+00  0.90007744213E+02  0.90000005637E+02 0.  0.
         12    1    1    2    0    0  0.38072329343E+00  0.61732941915E+00  0.93110573203E+00  0.11802557867E+01  0.00000000000E+00 0. -1.
         11    1    3    3    0    0 -0.14551869121E+00 -0.72874938044E+01  0.59027103792E+01  0.93792713853E+01  0.51100000000E-03 0. -1.
        -11    1    3    3    0    0 -0.33212869648E+02  0.25030154778E+02 -0.99301953326E+01  0.42757597431E+02  0.51100000000E-03 0.  1.
         12    1    3    3    0    0  0.32977665046E+02 -0.18359990392E+02  0.30963792214E+01  0.37870875397E+02  0.00000000000E+00 0. -1.
</event>
<event>
 7    1  0.2148778E-015  0.9000777E+02  0.7816164E-02  0.1186339E+00
        -11   -1    0    0    0    0  0.00000000000E+00  0.00000000000E+00  0.45593999997E+02  0.45594000000E+02  0.51100000000E-03 0. -1.
         11   -1    0    0    0    0 -0.00000000000E+00 -0.00000000000E+00 -0.45593999997E+02  0.45594000000E+02  0.51100000000E-03 0.  1.
    9900012    2    1    2    0    0  0.68860164495E+00 -0.35855925436E+00 -0.88893673237E+00  0.90007768888E+02  0.90000030637E+02 0.  0.
         12    1    1    2    0    0 -0.68860164495E+00  0.35855925436E+00  0.88893673237E+00  0.11802311123E+01  0.00000000000E+00 0. -1.
         11    1    3    3    0    0 -0.15606426346E+02 -0.24391086810E+02  0.26290625879E+02  0.39111157850E+02  0.51100000000E-03 0. -1.
        -11    1    3    3    0    0 -0.80213531336E+01  0.82578066925E+00 -0.67701226704E+00  0.80921175028E+01  0.51100000000E-03 0.  1.
        -12    1    3    3    0    0  0.24316381124E+02  0.23206746886E+02 -0.26502550344E+02  0.42804493535E+02  0.00000000000E+00 0.  1.
</event>
<event>
 7    1  0.2148778E-015  0.9000778E+02  0.7816164E-02  0.1186339E+00
        -11   -1    0    0    0    0  0.00000000000E+00  0.00000000000E+00  0.45593999997E+02  0.45594000000E+02  0.51100000000E-03 0.  1.
         11   -1    0    0    0    0 -0.00000000000E+00 -0.00000000000E+00 -0.45593999997E+02  0.45594000000E+02  0.51100000000E-03 0. -1.
    9900012    2    1    2    0    0  0.10360655978E+00  0.31575918151E+00  0.11324682501E+01  0.90007778615E+02  0.90000040493E+02 0.  0.
         12    1    1    2    0    0 -0.10360655978E+00 -0.31575918151E+00 -0.11324682501E+01  0.11802213849E+01  0.00000000000E+00 0. -1.
         11    1    3    3    0    0  0.69886693413E+01  0.47791119973E+01  0.22388549059E+01  0.87575043360E+01  0.51100000000E-03 0. -1.
        -11    1    3    3    0    0  0.70436806624E+00 -0.39351688253E+02  0.14950118595E+02  0.42101752327E+02  0.51100000000E-03 0.  1.
         12    1    3    3    0    0 -0.75894308478E+01  0.34888335437E+02 -0.16056505251E+02  0.39148521952E+02  0.00000000000E+00 0. -1.
</event>
<event>
 7    1  0.2148778E-015  0.9000771E+02  0.7816164E-02  0.1186339E+00
        -11   -1    0    0    0    0  0.00000000000E+00  0.00000000000E+00  0.45593999997E+02  0.45594000000E+02  0.51100000000E-03 0.  1.
         11   -1    0    0    0    0 -0.00000000000E+00 -0.00000000000E+00 -0.45593999997E+02  0.45594000000E+02  0.51100000000E-03 0. -1.
    9900012    2    1    2    0    0  0.82959661699E+00 -0.83923909882E+00  0.23037508070E-01  0.90007710400E+02  0.89999971378E+02 0.  0.
         12    1    1    2    0    0 -0.82959661699E+00  0.83923909882E+00 -0.23037508070E-01  0.11802895995E+01  0.00000000000E+00 0. -1.
         11    1    3    3    0    0  0.57548528942E+01  0.72544721471E+01 -0.14762934559E+01  0.93768406511E+01  0.51100000000E-03 0. -1.
        -11    1    3    3    0    0 -0.25440896595E+02  0.28193705976E+02 -0.54690226397E+01  0.38367101599E+02  0.51100000000E-03 0.  1.
         12    1    3    3    0    0  0.20515640317E+02 -0.36287417222E+02  0.69683536037E+01  0.42263768150E+02  0.00000000000E+00 0. -1.
</event>
<event>
 7    1  0.2148778E-015  0.9000775E+02  0.7816164E-02  0.1186339E+00
        -11   -1    0    0    0    0  0.00000000000E+00  0.00000000000E+00  0.45593999997E+02  0.45594000000E+02  0.51100000000E-03 0. -1.
         11   -1    0    0    0    0 -0.00000000000E+00 -0.00000000000E+00 -0.45593999997E+02  0.45594000000E+02  0.51100000000E-03 0.  1.
    9900012    2    1    2    0    0 -0.97237924247E+00 -0.38266011877E+00 -0.54867017537E+00  0.90007750400E+02  0.90000011905E+02 0.  0.
         12    1    1    2    0    0  0.97237924247E+00  0.38266011877E+00  0.54867017537E+00  0.11802496003E+01  0.00000000000E+00 0. -1.
         11    1    3    3    0    0  0.50738473448E+01  0.13068333999E+02  0.36731896529E+02  0.39316122689E+02  0.51100000000E-03 0. -1.
        -11    1    3    3    0    0 -0.63317338264E+01  0.54324480135E+01  0.59994175650E+00  0.83643454639E+01  0.51100000000E-03 0.  1.
        -12    1    3    3    0    0  0.28550723913E+00 -0.18883442132E+02 -0.37880508461E+02  0.42327282247E+02  0.00000000000E+00 0.  1.
</event>
<event>
 7    1  0.2313587E-015  0.9000782E+02  0.7816164E-02  0.1186339E+00
        -11   -1    0    0    0    0  0.00000000000E+00  0.00000000000E+00  0.45593999997E+02  0.45594000000E+02  0.51100000000E-03 0.  1.
         11   -1    0    0    0    0 -0.00000000000E+00 -0.00000000000E+00 -0.45593999997E+02  0.45594000000E+02  0.51100000000E-03 0. -1.
    9900012    2    1    2    0    0  0.23995438992E+00  0.66766853841E+00 -0.94311465294E+00  0.90007820084E+02  0.90000082509E+02 0.  0.
         12    1    1    2    0    0 -0.23995438992E+00 -0.66766853841E+00  0.94311465294E+00  0.11801799164E+01  0.00000000000E+00 0. -1.
         11    1    3    3    0    0  0.13024618307E+01 -0.79710937738E+01 -0.55572143461E+01  0.98039468746E+01  0.51100000000E-03 0. -1.
        -11    1    3    3    0    0 -0.23386089296E+02 -0.27216412948E+02 -0.66415183504E+01  0.36493178439E+02  0.51100000000E-03 0.  1.
         12    1    3    3    0    0  0.22323581855E+02  0.35855175260E+02  0.11255618044E+02  0.43710694770E+02  0.00000000000E+00 0. -1.
</event>
<event>
 7    1  0.2148778E-015  0.9000778E+02  0.7816164E-02  0.1186339E+00
        -11   -1    0    0    0    0  0.00000000000E+00  0.00000000000E+00  0.45593999997E+02  0.45594000000E+02  0.51100000000E-03 0. -1.
         11   -1    0    0    0    0 -0.00000000000E+00 -0.00000000000E+00 -0.45593999997E+02  0.45594000000E+02  0.51100000000E-03 0.  1.
    9900012    2    1    2    0    0 -0.80167053753E+00 -0.34126782672E+00 -0.79610726733E+00  0.90007777071E+02  0.90000038929E+02 0.  0.
         12    1    1    2    0    0  0.80167053753E+00  0.34126782672E+00  0.79610726733E+00  0.11802229287E+01  0.00000000000E+00 0. -1.
         11    1    3    3    0    0 -0.24162991124E+01 -0.11087978364E+02  0.35494369557E+02  0.37264353424E+02  0.51100000000E-03 0. -1.
        -11    1    3    3    0    0  0.74100934889E+01 -0.29265582393E+01  0.46277433334E+01  0.92135898142E+01  0.51100000000E-03 0.  1.
        -12    1    3    3    0    0 -0.57954649141E+01  0.13673268777E+02 -0.40918220158E+02  0.43529833833E+02  0.00000000000E+00 0.  1.
</event>
<event>
 7    1  0.2148778E-015  0.9000772E+02  0.7816164E-02  0.1186339E+00
        -11   -1    0    0    0    0  0.00000000000E+00  0.00000000000E+00  0.45593999997E+02  0.45594000000E+02  0.51100000000E-03 0.  1.
         11   -1    0    0    0    0 -0.00000000000E+00 -0.00000000000E+00 -0.45593999997E+02  0.45594000000E+02  0.51100000000E-03 0. -1.
    9900012    2    1    2    0    0  0.89481607895E+00  0.43075755183E+00 -0.63781823944E+00  0.90007720376E+02  0.89999981485E+02 0.  0.
         12    1    1    2    0    0 -0.89481607895E+00 -0.43075755183E+00  0.63781823944E+00  0.11802796237E+01  0.00000000000E+00 0. -1.
         11    1    3    3    0    0  0.62589457939E+01  0.17288287192E+02 -0.34964983743E+02  0.39504548661E+02  0.51100000000E-03 0. -1.
        -11    1    3    3    0    0 -0.44329175240E+01 -0.99121290263E+01 -0.39767378860E+01  0.11563542022E+02  0.51100000000E-03 0.  1.
        -12    1    3    3    0    0 -0.93121219095E+00 -0.69454006135E+01  0.38303903390E+02  0.38939629694E+02  0.00000000000E+00 0.  1.
</event>
<event>
 7    1  0.2148778E-015  0.9000770E+02  0.7816164E-02  0.1186339E+00
        -11   -1    0    0    0    0  0.00000000000E+00  0.00000000000E+00  0.45593999997E+02  0.45594000000E+02  0.51100000000E-03 0.  1.
         11   -1    0    0    0    0 -0.00000000000E+00 -0.00000000000E+00 -0.45593999997E+02  0.45594000000E+02  0.51100000000E-03 0. -1.
    9900012    2    1    2    0    0 -0.36619988709E-01  0.11756695516E+01  0.97812261451E-01  0.90007700395E+02  0.89999961241E+02 0.  0.
         12    1    1    2    0    0  0.36619988709E-01 -0.11756695516E+01 -0.97812261451E-01  0.11802996046E+01  0.00000000000E+00 0. -1.
         11    1    3    3    0    0  0.26491152081E+01 -0.41250829748E+01 -0.94972418925E+01  0.10687924249E+02  0.51100000000E-03 0. -1.
        -11    1    3    3    0    0 -0.38899303518E+02  0.11844832340E+02 -0.20692562737E+01  0.40715324992E+02  0.51100000000E-03 0.  1.
         12    1    3    3    0    0  0.36213568322E+02 -0.65440798135E+01  0.11664310428E+02  0.38604451154E+02  0.00000000000E+00 0. -1.
</event>
<event>
 7    1  0.2148778E-015  0.9000776E+02  0.7816164E-02  0.1186339E+00
        -11   -1    0    0    0    0  0.00000000000E+00  0.00000000000E+00  0.45593999997E+02  0.45594000000E+02  0.51100000000E-03 0.  1.
         11   -1    0    0    0    0 -0.00000000000E+00 -0.00000000000E+00 -0.45593999997E+02  0.45594000000E+02  0.51100000000E-03 0. -1.
    9900012    2    1    2    0    0 -0.98446815898E+00  0.34521206198E+00  0.55191821762E+00  0.90007761616E+02  0.90000023269E+02 0.  0.
         12    1    1    2    0    0  0.98446815898E+00 -0.34521206198E+00 -0.55191821762E+00  0.11802383838E+01  0.00000000000E+00 0. -1.
         11    1    3    3    0    0  0.51689304342E+01 -0.16716824300E+02 -0.27000642023E+02  0.32174597533E+02  0.51100000000E-03 0. -1.
        -11    1    3    3    0    0 -0.85687991656E+01 -0.15104403668E+02  0.38055797425E+01  0.17777788578E+02  0.51100000000E-03 0.  1.
         12    1    3    3    0    0  0.24154005724E+01  0.32166440029E+02  0.23746980498E+02  0.40055375505E+02  0.00000000000E+00 0. -1.
</event>
<event>
 7    1  0.2148778E-015  0.9000775E+02  0.7816164E-02  0.1186339E+00
        -11   -1    0    0    0    0  0.00000000000E+00  0.00000000000E+00  0.45593999997E+02  0.45594000000E+02  0.51100000000E-03 0.  1.
         11   -1    0    0    0    0 -0.00000000000E+00 -0.00000000000E+00 -0.45593999997E+02  0.45594000000E+02  0.51100000000E-03 0. -1.
    9900012    2    1    2    0    0  0.54262659937E+00 -0.93520363958E+00 -0.47322219558E+00  0.90007750569E+02  0.90000012076E+02 0.  0.
         12    1    1    2    0    0 -0.54262659937E+00  0.93520363958E+00  0.47322219558E+00  0.11802494314E+01  0.00000000000E+00 0. -1.
         11    1    3    3    0    0 -0.21243111340E+02  0.26360195280E+02 -0.12784096001E+02  0.36187881749E+02  0.51100000000E-03 0. -1.
        -11    1    3    3    0    0 -0.82487654541E+00  0.71050533595E+01  0.10383730976E+02  0.12608888682E+02  0.51100000000E-03 0.  1.
        -12    1    3    3    0    0  0.22610614485E+02 -0.34400452279E+02  0.19271428292E+01  0.41210980138E+02  0.00000000000E+00 0.  1.
</event>
<event>
 7    1  0.2148778E-015  0.9000759E+02  0.7816164E-02  0.1186339E+00
        -11   -1    0    0    0    0  0.00000000000E+00  0.00000000000E+00  0.45593999997E+02  0.45594000000E+02  0.51100000000E-03 0. -1.
         11   -1    0    0    0    0 -0.00000000000E+00 -0.00000000000E+00 -0.45593999997E+02  0.45594000000E+02  0.51100000000E-03 0.  1.
    9900012    2    1    2    0    0 -0.28293910159E+00  0.91849130956E-01 -0.11423150112E+01  0.90007587198E+02  0.89999846549E+02 0.  0.
         12    1    1    2    0    0  0.28293910159E+00 -0.91849130956E-01  0.11423150112E+01  0.11804128019E+01  0.00000000000E+00 0. -1.
         11    1    3    3    0    0 -0.36091148343E-01  0.41569197334E+01 -0.78234000150E+01  0.88592817032E+01  0.51100000000E-03 0. -1.
        -11    1    3    3    0    0  0.29831821758E+02 -0.73305806300E+01 -0.23298647240E+02  0.38555180783E+02  0.51100000000E-03 0.  1.
         12    1    3    3    0    0 -0.30078669711E+02  0.32655100276E+01  0.29979732244E+02  0.42593124712E+02  0.00000000000E+00 0. -1.
</event>
<event>
 7    1  0.2148778E-015  0.9000792E+02  0.7816164E-02  0.1186339E+00
        -11   -1    0    0    0    0  0.00000000000E+00  0.00000000000E+00  0.45593999997E+02  0.45594000000E+02  0.51100000000E-03 0.  1.
         11   -1    0    0    0    0 -0.00000000000E+00 -0.00000000000E+00 -0.45593999997E+02  0.45594000000E+02  0.51100000000E-03 0. -1.
    9900012    2    1    2    0    0  0.26769484210E+00 -0.31144048022E+00  0.11063166683E+01  0.90007918532E+02  0.90000182256E+02 0.  0.
         12    1    1    2    0    0 -0.26769484210E+00  0.31144048022E+00 -0.11063166683E+01  0.11800814683E+01  0.00000000000E+00 0. -1.
         11    1    3    3    0    0 -0.12503967506E+02  0.26544916728E+01  0.99067979592E+01  0.16172203793E+02  0.51100000000E-03 0. -1.
        -11    1    3    3    0    0 -0.22860269342E+02 -0.19574031363E+02  0.79124807623E+01  0.31118193557E+02  0.51100000000E-03 0.  1.
         12    1    3    3    0    0  0.35631931690E+02  0.16608099210E+02 -0.16712962053E+02  0.42717521182E+02  0.00000000000E+00 0. -1.
</event>
<event>
 7    1  0.2148778E-015  0.9000771E+02  0.7816164E-02  0.1186339E+00
        -11   -1    0    0    0    0  0.00000000000E+00  0.00000000000E+00  0.45593999997E+02  0.45594000000E+02  0.51100000000E-03 0. -1.
         11   -1    0    0    0    0 -0.00000000000E+00 -0.00000000000E+00 -0.45593999997E+02  0.45594000000E+02  0.51100000000E-03 0.  1.
    9900012    2    1    2    0    0 -0.99956956446E+00  0.49663652575E+00  0.38379188460E+00  0.90007710475E+02  0.89999971453E+02 0.  0.
         12    1    1    2    0    0  0.99956956446E+00 -0.49663652575E+00 -0.38379188460E+00  0.11802895253E+01  0.00000000000E+00 0. -1.
         11    1    3    3    0    0  0.76723183023E+01  0.34057495507E+02  0.83891757010E+01  0.35904814963E+02  0.51100000000E-03 0. -1.
        -11    1    3    3    0    0 -0.69597468245E+01  0.82059324680E+01  0.24024318813E+01  0.11024839352E+02  0.51100000000E-03 0.  1.
        -12    1    3    3    0    0 -0.17121410422E+01 -0.41766791449E+02 -0.10407815698E+02  0.43078056160E+02  0.00000000000E+00 0.  1.
</event>
<event>
 7    1  0.2148778E-015  0.9000773E+02  0.7816164E-02  0.1186339E+00
        -11   -1    0    0    0    0  0.00000000000E+00  0.00000000000E+00  0.45593999997E+02  0.45594000000E+02  0.51100000000E-03 0. -1.
         11   -1    0    0    0    0 -0.00000000000E+00 -0.00000000000E+00 -0.45593999997E+02  0.45594000000E+02  0.51100000000E-03 0.  1.
    9900012    2    1    2    0    0 -0.20833033485E+00 -0.17955626753E+00 -0.11477776203E+01  0.90007730773E+02  0.89999992020E+02 0.  0.
         12    1    1    2    0    0  0.20833033485E+00  0.17955626753E+00  0.11477776203E+01  0.11802692266E+01  0.00000000000E+00 0. -1.
         11    1    3    3    0    0  0.12899591157E+02 -0.28880550630E+02  0.14304815166E+02  0.34714743178E+02  0.51100000000E-03 0. -1.
        -11    1    3    3    0    0 -0.54854041859E+00 -0.39499926410E+01  0.10827371419E+02  0.11538427560E+02  0.51100000000E-03 0.  1.
        -12    1    3    3    0    0 -0.12559381074E+02  0.32650987003E+02 -0.26279964205E+02  0.43754560035E+02  0.00000000000E+00 0.  1.
</event>
<event>
 7    1  0.2148778E-015  0.9000778E+02  0.7816164E-02  0.1186339E+00
        -11   -1    0    0    0    0  0.00000000000E+00  0.00000000000E+00  0.45593999997E+02  0.45594000000E+02  0.51100000000E-03 0.  1.
         11   -1    0    0    0    0 -0.00000000000E+00 -0.00000000000E+00 -0.45593999997E+02  0.45594000000E+02  0.51100000000E-03 0. -1.
    9900012    2    1    2    0    0  0.13199640317E+00  0.78935682494E+00  0.86741823057E+00  0.90007778989E+02  0.90000040872E+02 0.  0.
         12    1    1    2    0    0 -0.13199640317E+00 -0.78935682494E+00 -0.86741823057E+00  0.11802210108E+01  0.00000000000E+00 0. -1.
         11    1    3    3    0    0  0.45054143902E+01 -0.67201797513E+01  0.12851019484E+02  0.15185791937E+02  0.51100000000E-03 0. -1.
        -11    1    3    3    0    0 -0.23634988943E+02  0.51114484740E+01  0.23916282503E+02  0.34010706798E+02  0.51100000000E-03 0.  1.
         12    1    3    3    0    0  0.19261570956E+02  0.23980881022E+01 -0.35899883757E+02  0.40811280254E+02  0.00000000000E+00 0. -1.
</event>
<event>
 7    1  0.2148778E-015  0.9000771E+02  0.7816164E-02  0.1186339E+00
        -11   -1    0    0    0    0  0.00000000000E+00  0.00000000000E+00  0.45593999997E+02  0.45594000000E+02  0.51100000000E-03 0.  1.
         11   -1    0    0    0    0 -0.00000000000E+00 -0.00000000000E+00 -0.45593999997E+02  0.45594000000E+02  0.51100000000E-03 0. -1.
    9900012    2    1    2    0    0  0.27946594578E+00 -0.10832209147E+01  0.37631678561E+00  0.90007710591E+02  0.89999971571E+02 0.  0.
         12    1    1    2    0    0 -0.27946594578E+00  0.10832209147E+01 -0.37631678561E+00  0.11802894086E+01  0.00000000000E+00 0. -1.
         11    1    3    3    0    0  0.80998506970E+01  0.17831142970E+02  0.16749042456E+01  0.19656107077E+02  0.51100000000E-03 0. -1.
        -11    1    3    3    0    0 -0.40762182975E+01  0.14546141094E+02  0.23915933526E+02  0.28287411565E+02  0.51100000000E-03 0.  1.
        -12    1    3    3    0    0 -0.37441664537E+01 -0.33460504979E+02 -0.25214520986E+02  0.42064191950E+02  0.00000000000E+00 0.  1.
</event>
<event>
 7    1  0.2148778E-015  0.9000770E+02  0.7816164E-02  0.1186339E+00
        -11   -1    0    0    0    0  0.00000000000E+00  0.00000000000E+00  0.45593999997E+02  0.45594000000E+02  0.51100000000E-03 0. -1.
         11   -1    0    0    0    0 -0.00000000000E+00 -0.00000000000E+00 -0.45593999997E+02  0.45594000000E+02  0.51100000000E-03 0.  1.
    9900012    2    1    2    0    0  0.11213662794E+01 -0.36394571982E+00  0.56415232633E-01  0.90007702793E+02  0.89999963669E+02 0.  0.
         12    1    1    2    0    0 -0.11213662794E+01  0.36394571982E+00 -0.56415232633E-01  0.11802972075E+01  0.00000000000E+00 0. -1.
         11    1    3    3    0    0  0.16312812971E+02 -0.10839179441E+02  0.32343086963E+02  0.37810989838E+02  0.51100000000E-03 0. -1.
        -11    1    3    3    0    0 -0.57503739757E+01 -0.65237336135E+01  0.50815219196E+01  0.10072128196E+02  0.51100000000E-03 0.  1.
        -12    1    3    3    0    0 -0.94410727154E+01  0.16998967335E+02 -0.37368193649E+02  0.42124584759E+02  0.00000000000E+00 0.  1.
</event>
<event>
 7    1  0.2148778E-015  0.9000772E+02  0.7816164E-02  0.1186339E+00
        -11   -1    0    0    0    0  0.00000000000E+00  0.00000000000E+00  0.45593999997E+02  0.45594000000E+02  0.51100000000E-03 0.  1.
         11   -1    0    0    0    0 -0.00000000000E+00 -0.00000000000E+00 -0.45593999997E+02  0.45594000000E+02  0.51100000000E-03 0. -1.
    9900012    2    1    2    0    0 -0.81685214559E+00  0.73661684912E-01  0.84875957152E+00  0.90007717711E+02  0.89999978785E+02 0.  0.
         12    1    1    2    0    0  0.81685214559E+00 -0.73661684912E-01 -0.84875957152E+00  0.11802822890E+01  0.00000000000E+00 0. -1.
         11    1    3    3    0    0 -0.47327472124E+01 -0.16576103461E+00 -0.10109467886E+02  0.11163678340E+02  0.51100000000E-03 0. -1.
        -11    1    3    3    0    0 -0.11259093076E+02 -0.25556036450E+02 -0.21089512848E+02  0.34994938610E+02  0.51100000000E-03 0.  1.
         12    1    3    3    0    0  0.15174988142E+02  0.25795459169E+02  0.32047740305E+02  0.43849100761E+02  0.00000000000E+00 0. -1.
</event>
<event>
 7    1  0.2148778E-015  0.9000771E+02  0.7816164E-02  0.1186339E+00
        -11   -1    0    0    0    0  0.00000000000E+00  0.00000000000E+00  0.45593999997E+02  0.45594000000E+02  0.51100000000E-03 0. -1.
         11   -1    0    0    0    0 -0.00000000000E+00 -0.00000000000E+00 -0.45593999997E+02  0.45594000000E+02  0.51100000000E-03 0.  1.
    9900012    2    1    2    0    0  0.16946841497E-01  0.59812316544E+00 -0.10173728391E+01  0.90007709354E+02  0.89999970317E+02 0.  0.
         12    1    1    2    0    0 -0.16946841497E-01 -0.59812316544E+00  0.10173728391E+01  0.11802906465E+01  0.00000000000E+00 0. -1.
         11    1    3    3    0    0 -0.26294220344E+01 -0.17598324570E+02  0.18949508363E+01  0.17894293136E+02  0.51100000000E-03 0. -1.
        -11    1    3    3    0    0 -0.12147154876E+02 -0.13274570915E+02 -0.25085248650E+02  0.30871302283E+02  0.51100000000E-03 0.  1.
         12    1    3    3    0    0  0.14793523752E+02  0.31471018650E+02  0.22172924974E+02  0.41242113935E+02  0.00000000000E+00 0. -1.
</event>
<event>
 7    1  0.2148778E-015  0.9000788E+02  0.7816164E-02  0.1186339E+00
        -11   -1    0    0    0    0  0.00000000000E+00  0.00000000000E+00  0.45593999997E+02  0.45594000000E+02  0.51100000000E-03 0.  1.
         11   -1    0    0    0    0 -0.00000000000E+00 -0.00000000000E+00 -0.45593999997E+02  0.45594000000E+02  0.51100000000E-03 0. -1.
    9900012    2    1    2    0    0 -0.52800872331E+00  0.10550146819E+01  0.28758958777E-01  0.90007882943E+02  0.90000146198E+02 0.  0.
         12    1    1    2    0    0  0.52800872331E+00 -0.10550146819E+01 -0.28758958777E-01  0.11801170571E+01  0.00000000000E+00 0. -1.
         11    1    3    3    0    0  0.58361842836E+01 -0.33321489893E+01 -0.41046274868E+02  0.41592799193E+02  0.51100000000E-03 0. -1.
        -11    1    3    3    0    0  0.49700962266E+00  0.86905427737E+01  0.25825338190E+01  0.90797595482E+01  0.51100000000E-03 0.  1.
        -12    1    3    3    0    0 -0.68612026295E+01 -0.43033791025E+01  0.38492500008E+02  0.39335324202E+02  0.00000000000E+00 0.  1.
</event>
<event>
 7    1  0.2148778E-015  0.9000773E+02  0.7816164E-02  0.1186339E+00
        -11   -1    0    0    0    0  0.00000000000E+00  0.00000000000E+00  0.45593999997E+02  0.45594000000E+02  0.51100000000E-03 0. -1.
         11   -1    0    0    0    0 -0.00000000000E+00 -0.00000000000E+00 -0.45593999997E+02  0.45594000000E+02  0.51100000000E-03 0.  1.
    9900012    2    1    2    0    0 -0.30305734836E+00 -0.72410651324E+00  0.88140484242E+00  0.90007725246E+02  0.89999986419E+02 0.  0.
         12    1    1    2    0    0  0.30305734836E+00  0.72410651324E+00 -0.88140484242E+00  0.11802747541E+01  0.00000000000E+00 0. -1.
         11    1    3    3    0    0  0.19919190822E+02  0.24695331809E+02  0.21212010999E+02  0.38165206498E+02  0.51100000000E-03 0. -1.
        -11    1    3    3    0    0  0.11508635954E+01 -0.19924751376E+01  0.86087556280E+01  0.89109549383E+01  0.51100000000E-03 0.  1.
        -12    1    3    3    0    0 -0.21373111766E+02 -0.23426963185E+02 -0.28939361784E+02  0.42931563809E+02  0.00000000000E+00 0.  1.
</event>
<event>
 7    1  0.2148778E-015  0.9000772E+02  0.7816164E-02  0.1186339E+00
        -11   -1    0    0    0    0  0.00000000000E+00  0.00000000000E+00  0.45593999997E+02  0.45594000000E+02  0.51100000000E-03 0. -1.
         11   -1    0    0    0    0 -0.00000000000E+00 -0.00000000000E+00 -0.45593999997E+02  0.45594000000E+02  0.51100000000E-03 0.  1.
    9900012    2    1    2    0    0  0.44623297736E+00 -0.67361902479E+00  0.86032957055E+00  0.90007723155E+02  0.89999984301E+02 0.  0.
         12    1    1    2    0    0 -0.44623297736E+00  0.67361902479E+00 -0.86032957055E+00  0.11802768449E+01  0.00000000000E+00 0. -1.
         11    1    3    3    0    0  0.12957732264E+02  0.20472354277E+02  0.25613926699E+02  0.35257529072E+02  0.51100000000E-03 0. -1.
        -11    1    3    3    0    0  0.35727868131E+01  0.56268126221E+01  0.73762427119E+01  0.99415684226E+01  0.51100000000E-03 0.  1.
        -12    1    3    3    0    0 -0.16084286099E+02 -0.26772785924E+02 -0.32129839840E+02  0.44808625661E+02  0.00000000000E+00 0.  1.
</event>
<event>
 7    1  0.2148778E-015  0.9000774E+02  0.7816164E-02  0.1186339E+00
        -11   -1    0    0    0    0  0.00000000000E+00  0.00000000000E+00  0.45593999997E+02  0.45594000000E+02  0.51100000000E-03 0.  1.
         11   -1    0    0    0    0 -0.00000000000E+00 -0.00000000000E+00 -0.45593999997E+02  0.45594000000E+02  0.51100000000E-03 0. -1.
    9900012    2    1    2    0    0 -0.53650450245E+00 -0.11148390845E+00  0.10453495158E+01  0.90007736744E+02  0.89999998069E+02 0.  0.
         12    1    1    2    0    0  0.53650450245E+00  0.11148390845E+00 -0.10453495158E+01  0.11802632559E+01  0.00000000000E+00 0. -1.
         11    1    3    3    0    0 -0.75900523843E+01 -0.25184246566E+01  0.63560319870E+01  0.10215209289E+02  0.51100000000E-03 0. -1.
        -11    1    3    3    0    0 -0.34111072226E+01  0.16674702288E+02  0.33257285599E+02  0.37359448531E+02  0.51100000000E-03 0.  1.
         12    1    3    3    0    0  0.10464655104E+02 -0.14267761540E+02 -0.38567968070E+02  0.42433078923E+02  0.00000000000E+00 0. -1.
</event>
<event>
 7    1  0.2148778E-015  0.9000777E+02  0.7816164E-02  0.1186339E+00
        -11   -1    0    0    0    0  0.00000000000E+00  0.00000000000E+00  0.45593999997E+02  0.45594000000E+02  0.51100000000E-03 0. -1.
         11   -1    0    0    0    0 -0.00000000000E+00 -0.00000000000E+00 -0.45593999997E+02  0.45594000000E+02  0.51100000000E-03 0.  1.
    9900012    2    1    2    0    0 -0.14182125275E+00 -0.54078765281E+00 -0.10394157757E+01  0.90007767096E+02  0.90000028822E+02 0.  0.
         12    1    1    2    0    0  0.14182125275E+00  0.54078765281E+00  0.10394157757E+01  0.11802329041E+01  0.00000000000E+00 0. -1.
         11    1    3    3    0    0  0.11798491179E+01  0.22965336857E+01 -0.81622629604E+01  0.85608789155E+01  0.51100000000E-03 0. -1.
        -11    1    3    3    0    0  0.16549056155E+02  0.32241118678E+02 -0.11327806096E+02  0.37969463842E+02  0.51100000000E-03 0.  1.
         12    1    3    3    0    0 -0.17870726526E+02 -0.35078440017E+02  0.18450653281E+02  0.43477424338E+02  0.00000000000E+00 0. -1.
</event>
<event>
 7    1  0.2148778E-015  0.9000779E+02  0.7816164E-02  0.1186339E+00
        -11   -1    0    0    0    0  0.00000000000E+00  0.00000000000E+00  0.45593999997E+02  0.45594000000E+02  0.51100000000E-03 0. -1.
         11   -1    0    0    0    0 -0.00000000000E+00 -0.00000000000E+00 -0.45593999997E+02  0.45594000000E+02  0.51100000000E-03 0.  1.
    9900012    2    1    2    0    0  0.69943013767E+00 -0.94887287625E+00 -0.57792854523E-01  0.90007787194E+02  0.90000049185E+02 0.  0.
         12    1    1    2    0    0 -0.69943013767E+00  0.94887287625E+00  0.57792854523E-01  0.11802128057E+01  0.00000000000E+00 0. -1.
         11    1    3    3    0    0 -0.73713287435E+00 -0.71819466668E+01 -0.86099778484E+01  0.11236344673E+02  0.51100000000E-03 0. -1.
        -11    1    3    3    0    0 -0.18222374662E+02 -0.18487360913E+02 -0.22593339758E+02  0.34413608552E+02  0.51100000000E-03 0.  1.
         12    1    3    3    0    0  0.19658937674E+02  0.24720434704E+02  0.31145524752E+02  0.44357833970E+02  0.00000000000E+00 0. -1.
</event>
<event>
 7    1  0.2148778E-015  0.9000789E+02  0.7816164E-02  0.1186339E+00
        -11   -1    0    0    0    0  0.00000000000E+00  0.00000000000E+00  0.45593999997E+02  0.45594000000E+02  0.51100000000E-03 0.  1.
         11   -1    0    0    0    0 -0.00000000000E+00 -0.00000000000E+00 -0.45593999997E+02  0.45594000000E+02  0.51100000000E-03 0. -1.
    9900012    2    1    2    0    0  0.47979002722E+00 -0.51406659198E+00  0.94773673989E+00  0.90007886506E+02  0.90000149807E+02 0.  0.
         12    1    1    2    0    0 -0.47979002722E+00  0.51406659198E+00 -0.94773673989E+00  0.11801134943E+01  0.00000000000E+00 0. -1.
         11    1    3    3    0    0  0.47723681650E+01 -0.42078935930E+01  0.93432667100E+01  0.11303915227E+02  0.51100000000E-03 0. -1.
        -11    1    3    3    0    0 -0.11947395298E+02  0.14174161565E+02  0.31610657373E+02  0.36645337634E+02  0.51100000000E-03 0.  1.
         12    1    3    3    0    0  0.76548171606E+01 -0.10480334564E+02 -0.40006187343E+02  0.42058633645E+02  0.00000000000E+00 0. -1.
</event>
<event>
 7    1  0.2148778E-015  0.9000775E+02  0.7816164E-02  0.1186339E+00
        -11   -1    0    0    0    0  0.00000000000E+00  0.00000000000E+00  0.45593999997E+02  0.45594000000E+02  0.51100000000E-03 0. -1.
         11   -1    0    0    0    0 -0.00000000000E+00 -0.00000000000E+00 -0.45593999997E+02  0.45594000000E+02  0.51100000000E-03 0.  1.
    9900012    2    1    2    0    0 -0.54763221132E+00 -0.10442781862E+01 -0.50608440823E-01  0.90007754609E+02  0.90000016170E+02 0.  0.
         12    1    1    2    0    0  0.54763221132E+00  0.10442781862E+01  0.50608440823E-01  0.11802453912E+01  0.00000000000E+00 0. -1.
         11    1    3    3    0    0  0.99830783966E+00  0.17432633298E+02  0.24460979839E+02  0.30053832654E+02  0.51100000000E-03 0. -1.
        -11    1    3    3    0    0  0.32819875949E+01  0.39115910033E+01  0.14135851540E+02  0.15029779964E+02  0.51100000000E-03 0.  1.
        -12    1    3    3    0    0 -0.48279276459E+01 -0.22388502487E+02 -0.38647439820E+02  0.44924141991E+02  0.00000000000E+00 0.  1.
</event>
<event>
 7    1  0.2148778E-015  0.9000773E+02  0.7816164E-02  0.1186339E+00
        -11   -1    0    0    0    0  0.00000000000E+00  0.00000000000E+00  0.45593999997E+02  0.45594000000E+02  0.51100000000E-03 0.  1.
         11   -1    0    0    0    0 -0.00000000000E+00 -0.00000000000E+00 -0.45593999997E+02  0.45594000000E+02  0.51100000000E-03 0. -1.
    9900012    2    1    2    0    0 -0.49408679478E+00  0.56724352034E+00  0.90947911350E+00  0.90007729171E+02  0.89999990396E+02 0.  0.
         12    1    1    2    0    0  0.49408679478E+00 -0.56724352034E+00 -0.90947911350E+00  0.11802708291E+01  0.00000000000E+00 0. -1.
         11    1    3    3    0    0 -0.91978866300E+01 -0.37577406101E+02 -0.11932446082E+02  0.40485131067E+02  0.51100000000E-03 0. -1.
        -11    1    3    3    0    0  0.59536476400E+01 -0.99813046331E+00 -0.35432001382E+01  0.69997465757E+01  0.51100000000E-03 0.  1.
        -12    1    3    3    0    0  0.27501521952E+01  0.39142780085E+02  0.16385125333E+02  0.42522851528E+02  0.00000000000E+00 0.  1.
</event>
<event>
 7    1  0.2148778E-015  0.9000772E+02  0.7816164E-02  0.1186339E+00
        -11   -1    0    0    0    0  0.00000000000E+00  0.00000000000E+00  0.45593999997E+02  0.45594000000E+02  0.51100000000E-03 0.  1.
         11   -1    0    0    0    0 -0.00000000000E+00 -0.00000000000E+00 -0.45593999997E+02  0.45594000000E+02  0.51100000000E-03 0. -1.
    9900012    2    1    2    0    0  0.30552477922E+00  0.74012642725E+00  0.86713746330E+00  0.90007720415E+02  0.89999981524E+02 0.  0.
         12    1    1    2    0    0 -0.30552477922E+00 -0.74012642725E+00 -0.86713746330E+00  0.11802795852E+01  0.00000000000E+00 0. -1.
         11    1    3    3    0    0 -0.63207206177E+01 -0.43045493437E+01  0.82447228682E+01  0.11245270544E+02  0.51100000000E-03 0. -1.
        -11    1    3    3    0    0 -0.17966922019E+02 -0.12236633039E+02  0.25970410419E+02  0.33867502012E+02  0.51100000000E-03 0.  1.
         12    1    3    3    0    0  0.24593167415E+02  0.17281308810E+02 -0.33347995824E+02  0.44894947858E+02  0.00000000000E+00 0. -1.
</event>
<event>
 7    1  0.2148778E-015  0.9000765E+02  0.7816164E-02  0.1186339E+00
        -11   -1    0    0    0    0  0.00000000000E+00  0.00000000000E+00  0.45593999997E+02  0.45594000000E+02  0.51100000000E-03 0.  1.
         11   -1    0    0    0    0 -0.00000000000E+00 -0.00000000000E+00 -0.45593999997E+02  0.45594000000E+02  0.51100000000E-03 0. -1.
    9900012    2    1    2    0    0 -0.38753877917E-01  0.11770251522E+01  0.79569613048E-01  0.90007652002E+02  0.89999912209E+02 0.  0.
         12    1    1    2    0    0  0.38753877917E-01 -0.11770251522E+01 -0.79569613048E-01  0.11803479976E+01  0.00000000000E+00 0. -1.
         11    1    3    3    0    0  0.75159678316E+01 -0.41398281801E+00 -0.50917836381E+01  0.90877618310E+01  0.51100000000E-03 0. -1.
        -11    1    3    3    0    0  0.19495021577E+02 -0.19147084937E+02  0.28603426470E+02  0.39557840360E+02  0.51100000000E-03 0.  1.
         12    1    3    3    0    0 -0.27049743286E+02  0.20738092908E+02 -0.23432073219E+02  0.41362049812E+02  0.00000000000E+00 0. -1.
</event>
<event>
 7    1  0.2148778E-015  0.9000779E+02  0.7816164E-02  0.1186339E+00
        -11   -1    0    0    0    0  0.00000000000E+00  0.00000000000E+00  0.45593999997E+02  0.45594000000E+02  0.51100000000E-03 0. -1.
         11   -1    0    0    0    0 -0.00000000000E+00 -0.00000000000E+00 -0.45593999997E+02  0.45594000000E+02  0.51100000000E-03 0.  1.
    9900012    2    1    2    0    0  0.75595860196E+00  0.84064813259E+00 -0.33871210056E+00  0.90007792994E+02  0.90000055061E+02 0.  0.
         12    1    1    2    0    0 -0.75595860196E+00 -0.84064813259E+00  0.33871210056E+00  0.11802070063E+01  0.00000000000E+00 0. -1.
         11    1    3    3    0    0  0.66531155491E+01 -0.55545352124E+01  0.20393057571E+01  0.89036832922E+01  0.51100000000E-03 0. -1.
        -11    1    3    3    0    0  0.28917642516E+02 -0.14497666476E+02 -0.18676029604E+02  0.37352462622E+02  0.51100000000E-03 0.  1.
         12    1    3    3    0    0 -0.34814799463E+02  0.20892849821E+02  0.16298011746E+02  0.43751647079E+02  0.00000000000E+00 0. -1.
</event>
<event>
 7    1  0.2148778E-015  0.9000771E+02  0.7816164E-02  0.1186339E+00
        -11   -1    0    0    0    0  0.00000000000E+00  0.00000000000E+00  0.45593999997E+02  0.45594000000E+02  0.51100000000E-03 0.  1.
         11   -1    0    0    0    0 -0.00000000000E+00 -0.00000000000E+00 -0.45593999997E+02  0.45594000000E+02  0.51100000000E-03 0. -1.
    9900012    2    1    2    0    0  0.11358447800E+01 -0.31734450642E+00  0.47162220187E-01  0.90007713944E+02  0.89999974968E+02 0.  0.
         12    1    1    2    0    0 -0.11358447800E+01  0.31734450642E+00 -0.47162220187E-01  0.11802860565E+01  0.00000000000E+00 0. -1.
         11    1    3    3    0    0 -0.57501778866E+01  0.80350480889E+01  0.10904054101E+02  0.14714786428E+02  0.51100000000E-03 0. -1.
        -11    1    3    3    0    0  0.27932128847E+02 -0.29553834988E+02  0.58203892842E+01  0.41079312508E+02  0.51100000000E-03 0.  1.
         12    1    3    3    0    0 -0.21046106180E+02  0.21201442393E+02 -0.16677281165E+02  0.34213615008E+02  0.00000000000E+00 0. -1.
</event>
<event>
 7    1  0.2148778E-015  0.9000782E+02  0.7816164E-02  0.1186339E+00
        -11   -1    0    0    0    0  0.00000000000E+00  0.00000000000E+00  0.45593999997E+02  0.45594000000E+02  0.51100000000E-03 0.  1.
         11   -1    0    0    0    0 -0.00000000000E+00 -0.00000000000E+00 -0.45593999997E+02  0.45594000000E+02  0.51100000000E-03 0. -1.
    9900012    2    1    2    0    0  0.72857552443E+00 -0.65006010020E+00  0.66289785701E+00  0.90007816117E+02  0.90000078490E+02 0.  0.
         12    1    1    2    0    0 -0.72857552443E+00  0.65006010020E+00 -0.66289785701E+00  0.11801838829E+01  0.00000000000E+00 0. -1.
         11    1    3    3    0    0 -0.73002247748E+01 -0.25002931269E+01  0.52783008424E+01  0.93490752231E+01  0.51100000000E-03 0. -1.
        -11    1    3    3    0    0 -0.34137479100E+02 -0.61861130976E+01  0.86032657433E+01  0.35744253472E+02  0.51100000000E-03 0.  1.
         12    1    3    3    0    0  0.42166279399E+02  0.80363461243E+01 -0.13218668729E+02  0.44914487422E+02  0.00000000000E+00 0. -1.
</event>
<event>
 7    1  0.2148778E-015  0.9000772E+02  0.7816164E-02  0.1186339E+00
        -11   -1    0    0    0    0  0.00000000000E+00  0.00000000000E+00  0.45593999997E+02  0.45594000000E+02  0.51100000000E-03 0. -1.
         11   -1    0    0    0    0 -0.00000000000E+00 -0.00000000000E+00 -0.45593999997E+02  0.45594000000E+02  0.51100000000E-03 0.  1.
    9900012    2    1    2    0    0 -0.48060004044E+00  0.10559942747E+01  0.21670760937E+00  0.90007719315E+02  0.89999980410E+02 0.  0.
         12    1    1    2    0    0  0.48060004044E+00 -0.10559942747E+01 -0.21670760937E+00  0.11802806848E+01  0.00000000000E+00 0. -1.
         11    1    3    3    0    0 -0.10981999615E+02  0.24180276534E+01 -0.18425148987E+01  0.11395000425E+02  0.51100000000E-03 0. -1.
        -11    1    3    3    0    0 -0.26776466885E+02  0.20944993560E+02 -0.57382619494E+01  0.34476072638E+02  0.51100000000E-03 0.  1.
         12    1    3    3    0    0  0.37277866459E+02 -0.22307026938E+02  0.77974844574E+01  0.44136646253E+02  0.00000000000E+00 0. -1.
</event>
<event>
 7    1  0.2148778E-015  0.9000776E+02  0.7816164E-02  0.1186339E+00
        -11   -1    0    0    0    0  0.00000000000E+00  0.00000000000E+00  0.45593999997E+02  0.45594000000E+02  0.51100000000E-03 0.  1.
         11   -1    0    0    0    0 -0.00000000000E+00 -0.00000000000E+00 -0.45593999997E+02  0.45594000000E+02  0.51100000000E-03 0. -1.
    9900012    2    1    2    0    0 -0.75091502446E+00  0.58392941696E+00  0.69866174320E+00  0.90007756309E+02  0.90000017893E+02 0.  0.
         12    1    1    2    0    0  0.75091502446E+00 -0.58392941696E+00 -0.69866174320E+00  0.11802436907E+01  0.00000000000E+00 0. -1.
         11    1    3    3    0    0 -0.10321074056E+02  0.16731299679E+02 -0.35042144394E+02  0.40179756627E+02  0.51100000000E-03 0. -1.
        -11    1    3    3    0    0 -0.17209052576E+01  0.45810433611E+01 -0.20221118133E+01  0.52949418909E+01  0.51100000000E-03 0.  1.
        -12    1    3    3    0    0  0.11291064289E+02 -0.20728413623E+02  0.37762917951E+02  0.44533057791E+02  0.00000000000E+00 0.  1.
</event>
<event>
 7    1  0.2148778E-015  0.9000773E+02  0.7816164E-02  0.1186339E+00
        -11   -1    0    0    0    0  0.00000000000E+00  0.00000000000E+00  0.45593999997E+02  0.45594000000E+02  0.51100000000E-03 0.  1.
         11   -1    0    0    0    0 -0.00000000000E+00 -0.00000000000E+00 -0.45593999997E+02  0.45594000000E+02  0.51100000000E-03 0. -1.
    9900012    2    1    2    0    0 -0.17422343840E+00 -0.11184860120E+01 -0.33418354958E+00  0.90007727400E+02  0.89999988602E+02 0.  0.
         12    1    1    2    0    0  0.17422343840E+00  0.11184860120E+01  0.33418354958E+00  0.11802726000E+01  0.00000000000E+00 0. -1.
         11    1    3    3    0    0  0.15791846287E+01  0.47926408260E+01 -0.84238044540E+01  0.98195576234E+01  0.51100000000E-03 0. -1.
        -11    1    3    3    0    0 -0.26813390234E+02  0.14015227969E+02  0.29031320815E+02  0.41930920565E+02  0.51100000000E-03 0.  1.
         12    1    3    3    0    0  0.25059982167E+02 -0.19926354807E+02 -0.20941699911E+02  0.38257249212E+02  0.00000000000E+00 0. -1.
</event>
<event>
 7    1  0.2148778E-015  0.9000777E+02  0.7816164E-02  0.1186339E+00
        -11   -1    0    0    0    0  0.00000000000E+00  0.00000000000E+00  0.45593999997E+02  0.45594000000E+02  0.51100000000E-03 0. -1.
         11   -1    0    0    0    0 -0.00000000000E+00 -0.00000000000E+00 -0.45593999997E+02  0.45594000000E+02  0.51100000000E-03 0.  1.
    9900012    2    1    2    0    0  0.46618138217E+00  0.97580789878E+00  0.47267035000E+00  0.90007769770E+02  0.90000031531E+02 0.  0.
         12    1    1    2    0    0 -0.46618138217E+00 -0.97580789878E+00 -0.47267035000E+00  0.11802302302E+01  0.00000000000E+00 0. -1.
         11    1    3    3    0    0 -0.93713259586E+01 -0.29998029328E+02  0.21451766869E+02  0.38051042244E+02  0.51100000000E-03 0. -1.
        -11    1    3    3    0    0  0.44296738088E+01 -0.41735256657E+01  0.50329954595E+01  0.78975546906E+01  0.51100000000E-03 0.  1.
        -12    1    3    3    0    0  0.54078335319E+01  0.35147362893E+02 -0.26012091979E+02  0.44059172835E+02  0.00000000000E+00 0.  1.
</event>
<event>
 7    1  0.2148778E-015  0.9000773E+02  0.7816164E-02  0.1186339E+00
        -11   -1    0    0    0    0  0.00000000000E+00  0.00000000000E+00  0.45593999997E+02  0.45594000000E+02  0.51100000000E-03 0. -1.
         11   -1    0    0    0    0 -0.00000000000E+00 -0.00000000000E+00 -0.45593999997E+02  0.45594000000E+02  0.51100000000E-03 0.  1.
    9900012    2    1    2    0    0  0.11761737032E+01 -0.86393829997E-01 -0.46763430798E-01  0.90007730839E+02  0.89999992086E+02 0.  0.
         12    1    1    2    0    0 -0.11761737032E+01  0.86393829997E-01  0.46763430798E-01  0.11802691610E+01  0.00000000000E+00 0. -1.
         11    1    3    3    0    0  0.83615793325E+01  0.84490741654E+01  0.22362675002E+00  0.11889191409E+02  0.51100000000E-03 0. -1.
        -11    1    3    3    0    0 -0.24416088006E+02  0.18923055424E+02 -0.23012083672E+02  0.38519908817E+02  0.51100000000E-03 0.  1.
         12    1    3    3    0    0  0.17230682376E+02 -0.27458523419E+02  0.22741693492E+02  0.39598630612E+02  0.00000000000E+00 0. -1.
</event>
<event>
 7    1  0.2148778E-015  0.9000783E+02  0.7816164E-02  0.1186339E+00
        -11   -1    0    0    0    0  0.00000000000E+00  0.00000000000E+00  0.45593999997E+02  0.45594000000E+02  0.51100000000E-03 0.  1.
         11   -1    0    0    0    0 -0.00000000000E+00 -0.00000000000E+00 -0.45593999997E+02  0.45594000000E+02  0.51100000000E-03 0. -1.
    9900012    2    1    2    0    0  0.89574592354E+00 -0.17356515789E+00 -0.74854784416E+00  0.90007826496E+02  0.90000089006E+02 0.  0.
         12    1    1    2    0    0 -0.89574592354E+00  0.17356515789E+00  0.74854784416E+00  0.11801735036E+01  0.00000000000E+00 0. -1.
         11    1    3    3    0    0 -0.10362567762E+02 -0.21994844492E+01 -0.27653263508E+01  0.10948405023E+02  0.51100000000E-03 0. -1.
        -11    1    3    3    0    0 -0.14771580374E+01  0.36558109673E+02  0.15670748334E+02  0.39802634741E+02  0.51100000000E-03 0.  1.
         12    1    3    3    0    0  0.12735471723E+02 -0.34532190382E+02 -0.13653969827E+02  0.39256786733E+02  0.00000000000E+00 0. -1.
</event>
<event>
 7    1  0.2148778E-015  0.9000780E+02  0.7816164E-02  0.1186339E+00
        -11   -1    0    0    0    0  0.00000000000E+00  0.00000000000E+00  0.45593999997E+02  0.45594000000E+02  0.51100000000E-03 0.  1.
         11   -1    0    0    0    0 -0.00000000000E+00 -0.00000000000E+00 -0.45593999997E+02  0.45594000000E+02  0.51100000000E-03 0. -1.
    9900012    2    1    2    0    0 -0.91134831682E+00 -0.73293936621E+00 -0.15844899756E+00  0.90007804273E+02  0.90000066489E+02 0.  0.
         12    1    1    2    0    0  0.91134831682E+00  0.73293936621E+00  0.15844899756E+00  0.11801957270E+01  0.00000000000E+00 0. -1.
         11    1    3    3    0    0 -0.81363376470E+00 -0.23587191670E+02 -0.27307524733E+02  0.36093192129E+02  0.51100000000E-03 0. -1.
        -11    1    3    3    0    0  0.16166648647E+02  0.49225620648E+01 -0.82512070645E+00  0.16919603134E+02  0.51100000000E-03 0.  1.
        -12    1    3    3    0    0 -0.16264363199E+02  0.17931690239E+02  0.27974196442E+02  0.36995009010E+02  0.00000000000E+00 0.  1.
</event>
<event>
 7    1  0.2148778E-015  0.9000767E+02  0.7816164E-02  0.1186339E+00
        -11   -1    0    0    0    0  0.00000000000E+00  0.00000000000E+00  0.45593999997E+02  0.45594000000E+02  0.51100000000E-03 0. -1.
         11   -1    0    0    0    0 -0.00000000000E+00 -0.00000000000E+00 -0.45593999997E+02  0.45594000000E+02  0.51100000000E-03 0.  1.
    9900012    2    1    2    0    0  0.43559926906E+00  0.10953045775E+01 -0.61231455259E-01  0.90007666093E+02  0.89999926485E+02 0.  0.
         12    1    1    2    0    0 -0.43559926906E+00 -0.10953045775E+01  0.61231455259E-01  0.11803339069E+01  0.00000000000E+00 0. -1.
         11    1    3    3    0    0 -0.86199190417E+01 -0.11822522439E+01  0.47718085916E+01  0.99232495761E+01  0.51100000000E-03 0. -1.
        -11    1    3    3    0    0 -0.70403050149E+01  0.31465797547E+02  0.20508110948E+02  0.38213151204E+02  0.51100000000E-03 0.  1.
         12    1    3    3    0    0  0.16095823326E+02 -0.29188240726E+02 -0.25341150995E+02  0.41871265313E+02  0.00000000000E+00 0. -1.
</event>
<event>
 7    1  0.2148778E-015  0.9000776E+02  0.7816164E-02  0.1186339E+00
        -11   -1    0    0    0    0  0.00000000000E+00  0.00000000000E+00  0.45593999997E+02  0.45594000000E+02  0.51100000000E-03 0. -1.
         11   -1    0    0    0    0 -0.00000000000E+00 -0.00000000000E+00 -0.45593999997E+02  0.45594000000E+02  0.51100000000E-03 0.  1.
    9900012    2    1    2    0    0  0.24681339460E+00 -0.89037065929E+00 -0.73436571015E+00  0.90007758601E+02  0.90000020215E+02 0.  0.
         12    1    1    2    0    0 -0.24681339460E+00  0.89037065929E+00  0.73436571015E+00  0.11802413986E+01  0.00000000000E+00 0. -1.
         11    1    3    3    0    0 -0.91468259979E+01 -0.18125796440E+02  0.32888761851E+02  0.38650738399E+02  0.51100000000E-03 0. -1.
        -11    1    3    3    0    0 -0.49569157600E+01 -0.75449164883E+01 -0.32023775713E+01  0.95787264831E+01  0.51100000000E-03 0.  1.
        -12    1    3    3    0    0  0.14350555152E+02  0.24780342269E+02 -0.30420749990E+02  0.41778293719E+02  0.00000000000E+00 0.  1.
</event>
<event>
 7    1  0.2148778E-015  0.9000777E+02  0.7816164E-02  0.1186339E+00
        -11   -1    0    0    0    0  0.00000000000E+00  0.00000000000E+00  0.45593999997E+02  0.45594000000E+02  0.51100000000E-03 0.  1.
         11   -1    0    0    0    0 -0.00000000000E+00 -0.00000000000E+00 -0.45593999997E+02  0.45594000000E+02  0.51100000000E-03 0. -1.
    9900012    2    1    2    0    0 -0.59370535679E+00  0.25206389712E+00  0.98838917446E+00  0.90007773149E+02  0.90000034955E+02 0.  0.
         12    1    1    2    0    0  0.59370535679E+00 -0.25206389712E+00 -0.98838917446E+00  0.11802268507E+01  0.00000000000E+00 0. -1.
         11    1    3    3    0    0  0.17244196873E+02 -0.20520099346E+02 -0.26824049470E+02  0.37920527860E+02  0.51100000000E-03 0. -1.
        -11    1    3    3    0    0 -0.85996426302E+01  0.26473289007E+01 -0.72467747300E+01  0.11553265682E+02  0.51100000000E-03 0.  1.
        -12    1    3    3    0    0 -0.92382595995E+01  0.18124834342E+02  0.35059213374E+02  0.40533979607E+02  0.00000000000E+00 0.  1.
</event>
<event>
 7    1  0.2148778E-015  0.9000785E+02  0.7816164E-02  0.1186339E+00
        -11   -1    0    0    0    0  0.00000000000E+00  0.00000000000E+00  0.45593999997E+02  0.45594000000E+02  0.51100000000E-03 0.  1.
         11   -1    0    0    0    0 -0.00000000000E+00 -0.00000000000E+00 -0.45593999997E+02  0.45594000000E+02  0.51100000000E-03 0. -1.
    9900012    2    1    2    0    0  0.11720381764E+01 -0.11704900555E+00 -0.73369327103E-01  0.90007848732E+02  0.90000111535E+02 0.  0.
         12    1    1    2    0    0 -0.11720381764E+01  0.11704900555E+00  0.73369327103E-01  0.11801512677E+01  0.00000000000E+00 0. -1.
         11    1    3    3    0    0 -0.11701980387E+01 -0.84204042657E+01  0.32387878038E+01  0.90973797407E+01  0.51100000000E-03 0. -1.
        -11    1    3    3    0    0  0.38406786066E+02 -0.86636394669E+01  0.63980859987E+01  0.39888286118E+02  0.51100000000E-03 0.  1.
         12    1    3    3    0    0 -0.36064549851E+02  0.16966994727E+02 -0.97102431297E+01  0.41022182873E+02  0.00000000000E+00 0. -1.
</event>
<event>
 7    1  0.2148778E-015  0.9000776E+02  0.7816164E-02  0.1186339E+00
        -11   -1    0    0    0    0  0.00000000000E+00  0.00000000000E+00  0.45593999997E+02  0.45594000000E+02  0.51100000000E-03 0.  1.
         11   -1    0    0    0    0 -0.00000000000E+00 -0.00000000000E+00 -0.45593999997E+02  0.45594000000E+02  0.51100000000E-03 0. -1.
    9900012    2    1    2    0    0  0.10560819806E+01  0.81200354898E-02  0.52686418815E+00  0.90007762330E+02  0.90000023993E+02 0.  0.
         12    1    1    2    0    0 -0.10560819806E+01 -0.81200354898E-02 -0.52686418815E+00  0.11802376699E+01  0.00000000000E+00 0. -1.
         11    1    3    3    0    0  0.42092516401E+01  0.20080284177E+02 -0.23084449814E+01  0.20646174718E+02  0.51100000000E-03 0. -1.
        -11    1    3    3    0    0  0.24770049343E+02 -0.42720753914E+00  0.19350742538E+02  0.31435474989E+02  0.51100000000E-03 0.  1.
         12    1    3    3    0    0 -0.27923219003E+02 -0.19644956602E+02 -0.16515433368E+02  0.37926112623E+02  0.00000000000E+00 0. -1.
</event>
<event>
 7    1  0.2148778E-015  0.9000766E+02  0.7816164E-02  0.1186339E+00
        -11   -1    0    0    0    0  0.00000000000E+00  0.00000000000E+00  0.45593999997E+02  0.45594000000E+02  0.51100000000E-03 0. -1.
         11   -1    0    0    0    0 -0.00000000000E+00 -0.00000000000E+00 -0.45593999997E+02  0.45594000000E+02  0.51100000000E-03 0.  1.
    9900012    2    1    2    0    0  0.98988499777E+00  0.20425343993E+00 -0.60960311050E+00  0.90007657792E+02  0.89999918074E+02 0.  0.
         12    1    1    2    0    0 -0.98988499777E+00 -0.20425343993E+00  0.60960311050E+00  0.11803422084E+01  0.00000000000E+00 0. -1.
         11    1    3    3    0    0  0.63138173985E+01  0.77455615891E+01 -0.23822795767E+01  0.10272938758E+02  0.51100000000E-03 0. -1.
        -11    1    3    3    0    0 -0.13896953272E+02 -0.21363038075E+02 -0.32794116895E+02  0.41532623433E+02  0.51100000000E-03 0.  1.
         12    1    3    3    0    0  0.85730208714E+01  0.13821729926E+02  0.34566793361E+02  0.38202095601E+02  0.00000000000E+00 0. -1.
</event>
<event>
 7    1  0.2148778E-015  0.9000761E+02  0.7816164E-02  0.1186339E+00
        -11   -1    0    0    0    0  0.00000000000E+00  0.00000000000E+00  0.45593999997E+02  0.45594000000E+02  0.51100000000E-03 0.  1.
         11   -1    0    0    0    0 -0.00000000000E+00 -0.00000000000E+00 -0.45593999997E+02  0.45594000000E+02  0.51100000000E-03 0. -1.
    9900012    2    1    2    0    0  0.10389211980E+00 -0.65884896675E+00  0.97387664230E+00  0.90007613941E+02  0.89999873645E+02 0.  0.
         12    1    1    2    0    0 -0.10389211980E+00  0.65884896675E+00 -0.97387664230E+00  0.11803860589E+01  0.00000000000E+00 0. -1.
         11    1    3    3    0    0  0.85230064046E+01  0.53849157375E+01  0.19464620932E+01  0.10267797749E+02  0.51100000000E-03 0. -1.
        -11    1    3    3    0    0  0.22314541599E+02  0.34054348714E+01  0.28339504677E+02  0.36230695260E+02  0.51100000000E-03 0.  1.
         12    1    3    3    0    0 -0.30733655884E+02 -0.94491995757E+01 -0.29312090128E+02  0.43509120932E+02  0.00000000000E+00 0. -1.
</event>
<event>
 7    1  0.2148778E-015  0.9000761E+02  0.7816164E-02  0.1186339E+00
        -11   -1    0    0    0    0  0.00000000000E+00  0.00000000000E+00  0.45593999997E+02  0.45594000000E+02  0.51100000000E-03 0.  1.
         11   -1    0    0    0    0 -0.00000000000E+00 -0.00000000000E+00 -0.45593999997E+02  0.45594000000E+02  0.51100000000E-03 0. -1.
    9900012    2    1    2    0    0 -0.11372096335E+01 -0.24544640669E+00 -0.19960522074E+00  0.90007605179E+02  0.89999864767E+02 0.  0.
         12    1    1    2    0    0  0.11372096335E+01  0.24544640669E+00  0.19960522074E+00  0.11803948209E+01  0.00000000000E+00 0. -1.
         11    1    3    3    0    0 -0.13870064445E+02  0.31684119259E+02 -0.18773121174E+02  0.39353426532E+02  0.51100000000E-03 0. -1.
        -11    1    3    3    0    0  0.27927959833E+01  0.54254652528E+01  0.89278600030E+01  0.10813975546E+02  0.51100000000E-03 0.  1.
        -12    1    3    3    0    0  0.99400588281E+01 -0.37355030919E+02  0.96456559503E+01  0.39840203101E+02  0.00000000000E+00 0.  1.
</event>
<event>
 7    1  0.2148778E-015  0.9000756E+02  0.7816164E-02  0.1186339E+00
        -11   -1    0    0    0    0  0.00000000000E+00  0.00000000000E+00  0.45593999997E+02  0.45594000000E+02  0.51100000000E-03 0. -1.
         11   -1    0    0    0    0 -0.00000000000E+00 -0.00000000000E+00 -0.45593999997E+02  0.45594000000E+02  0.51100000000E-03 0.  1.
    9900012    2    1    2    0    0 -0.21022420177E+00 -0.94900000054E+00 -0.66981089396E+00  0.90007558621E+02  0.89999817594E+02 0.  0.
         12    1    1    2    0    0  0.21022420177E+00  0.94900000054E+00  0.66981089396E+00  0.11804413792E+01  0.00000000000E+00 0. -1.
         11    1    3    3    0    0 -0.33948753796E+02  0.53226493824E+01  0.11220994014E+02  0.36149124300E+02  0.51100000000E-03 0. -1.
        -11    1    3    3    0    0 -0.46836334942E+01 -0.17524567157E+01  0.86986564422E+01  0.10033650951E+02  0.51100000000E-03 0.  1.
        -12    1    3    3    0    0  0.38422163088E+02 -0.45191926672E+01 -0.20589461350E+02  0.43824783370E+02  0.00000000000E+00 0.  1.
</event>
<event>
 7    1  0.2148778E-015  0.9000770E+02  0.7816164E-02  0.1186339E+00
        -11   -1    0    0    0    0  0.00000000000E+00  0.00000000000E+00  0.45593999997E+02  0.45594000000E+02  0.51100000000E-03 0.  1.
         11   -1    0    0    0    0 -0.00000000000E+00 -0.00000000000E+00 -0.45593999997E+02  0.45594000000E+02  0.51100000000E-03 0. -1.
    9900012    2    1    2    0    0 -0.71718340377E+00  0.12014351240E+00  0.92968518565E+00  0.90007702985E+02  0.89999963865E+02 0.  0.
         12    1    1    2    0    0  0.71718340377E+00 -0.12014351240E+00 -0.92968518565E+00  0.11802970146E+01  0.00000000000E+00 0. -1.
         11    1    3    3    0    0 -0.19744176285E+01 -0.36573247215E+01 -0.84226632257E+01  0.93923162833E+01  0.51100000000E-03 0. -1.
        -11    1    3    3    0    0 -0.29364360524E+02  0.28257898687E+02  0.26148517973E+01  0.40836404805E+02  0.51100000000E-03 0.  1.
         12    1    3    3    0    0  0.30621594749E+02 -0.24480430453E+02  0.67374966141E+01  0.39778981897E+02  0.00000000000E+00 0. -1.
</event>
<event>
 7    1  0.2148778E-015  0.9000722E+02  0.7816164E-02  0.1186340E+00
        -11   -1    0    0    0    0  0.00000000000E+00  0.00000000000E+00  0.45593999997E+02  0.45594000000E+02  0.51100000000E-03 0. -1.
         11   -1    0    0    0    0 -0.00000000000E+00 -0.00000000000E+00 -0.45593999997E+02  0.45594000000E+02  0.51100000000E-03 0.  1.
    9900012    2    1    2    0    0 -0.40350584966E+00  0.10819313445E+01 -0.24668363679E+00  0.90007218385E+02  0.89999472866E+02 0.  0.
         12    1    1    2    0    0  0.40350584966E+00 -0.10819313445E+01  0.24668363679E+00  0.11807816147E+01  0.00000000000E+00 0. -1.
         11    1    3    3    0    0  0.26613639348E+01 -0.35200143947E+02  0.77043381923E+01  0.36131562644E+02  0.51100000000E-03 0. -1.
        -11    1    3    3    0    0  0.10274921758E+02 -0.33773283546E+01 -0.50381434553E+01  0.11931607339E+02  0.51100000000E-03 0.  1.
        -12    1    3    3    0    0 -0.13339791542E+02  0.39659403646E+02 -0.29128783739E+01  0.41944048402E+02  0.00000000000E+00 0.  1.
</event>
<event>
 7    1  0.2148778E-015  0.9000742E+02  0.7816164E-02  0.1186340E+00
        -11   -1    0    0    0    0  0.00000000000E+00  0.00000000000E+00  0.45593999997E+02  0.45594000000E+02  0.51100000000E-03 0.  1.
         11   -1    0    0    0    0 -0.00000000000E+00 -0.00000000000E+00 -0.45593999997E+02  0.45594000000E+02  0.51100000000E-03 0. -1.
    9900012    2    1    2    0    0  0.10034202074E+01  0.48542187056E+00 -0.38895507329E+00  0.90007418553E+02  0.89999675677E+02 0.  0.
         12    1    1    2    0    0 -0.10034202074E+01 -0.48542187056E+00  0.38895507329E+00  0.11805814475E+01  0.00000000000E+00 0. -1.
         11    1    3    3    0    0 -0.22758740416E+02 -0.21146229618E+02  0.24588675581E+02  0.39619771067E+02  0.51100000000E-03 0. -1.
        -11    1    3    3    0    0  0.61687086188E+01 -0.72424615839E+01 -0.26739536109E+01  0.98821173840E+01  0.51100000000E-03 0.  1.
        -12    1    3    3    0    0  0.17593452005E+02  0.28874113072E+02 -0.22303677043E+02  0.40505530101E+02  0.00000000000E+00 0.  1.
</event>
<event>
 7    1  0.2148778E-015  0.9000770E+02  0.7816164E-02  0.1186339E+00
        -11   -1    0    0    0    0  0.00000000000E+00  0.00000000000E+00  0.45593999997E+02  0.45594000000E+02  0.51100000000E-03 0.  1.
         11   -1    0    0    0    0 -0.00000000000E+00 -0.00000000000E+00 -0.45593999997E+02  0.45594000000E+02  0.51100000000E-03 0. -1.
    9900012    2    1    2    0    0 -0.17445310529E+00 -0.11553979674E+01  0.16649943789E+00  0.90007703253E+02  0.89999964136E+02 0.  0.
         12    1    1    2    0    0  0.17445310529E+00  0.11553979674E+01 -0.16649943789E+00  0.11802967474E+01  0.00000000000E+00 0. -1.
         11    1    3    3    0    0  0.31340684905E+02 -0.86423734558E+01 -0.96956004636E+01  0.33925415515E+02  0.51100000000E-03 0. -1.
        -11    1    3    3    0    0  0.90262431222E+01  0.75011879164E+00 -0.72133760097E+01  0.11578796864E+02  0.51100000000E-03 0.  1.
        -12    1    3    3    0    0 -0.40541381133E+02  0.67368566968E+01  0.17075475911E+02  0.44503490873E+02  0.00000000000E+00 0.  1.
</event>
<event>
 7    1  0.2148778E-015  0.9000774E+02  0.7816164E-02  0.1186339E+00
        -11   -1    0    0    0    0  0.00000000000E+00  0.00000000000E+00  0.45593999997E+02  0.45594000000E+02  0.51100000000E-03 0.  1.
         11   -1    0    0    0    0 -0.00000000000E+00 -0.00000000000E+00 -0.45593999997E+02  0.45594000000E+02  0.51100000000E-03 0. -1.
    9900012    2    1    2    0    0 -0.11423016696E+01  0.28514128162E+00 -0.82804789363E-01  0.90007739314E+02  0.90000000672E+02 0.  0.
         12    1    1    2    0    0  0.11423016696E+01 -0.28514128162E+00  0.82804789363E-01  0.11802606864E+01  0.00000000000E+00 0. -1.
         11    1    3    3    0    0 -0.76155421116E+01  0.23198662827E+02 -0.26201926169E+02  0.35815016039E+02  0.51100000000E-03 0. -1.
        -11    1    3    3    0    0 -0.36098423912E+01  0.45810638372E+01 -0.75688169056E+01  0.95553177646E+01  0.51100000000E-03 0.  1.
        -12    1    3    3    0    0  0.10083082833E+02 -0.27494585382E+02  0.33687938286E+02  0.44637405510E+02  0.00000000000E+00 0.  1.
</event>
<event>
 7    1  0.2148778E-015  0.9000770E+02  0.7816164E-02  0.1186339E+00
        -11   -1    0    0    0    0  0.00000000000E+00  0.00000000000E+00  0.45593999997E+02  0.45594000000E+02  0.51100000000E-03 0. -1.
         11   -1    0    0    0    0 -0.00000000000E+00 -0.00000000000E+00 -0.45593999997E+02  0.45594000000E+02  0.51100000000E-03 0.  1.
    9900012    2    1    2    0    0 -0.91856908435E+00 -0.62818894976E+00 -0.39335551857E+00  0.90007695343E+02  0.89999956122E+02 0.  0.
         12    1    1    2    0    0  0.91856908435E+00  0.62818894976E+00  0.39335551857E+00  0.11803046570E+01  0.00000000000E+00 0. -1.
         11    1    3    3    0    0 -0.75079009058E+01  0.59925326342E+01  0.33082159883E+01  0.10159887631E+02  0.51100000000E-03 0. -1.
        -11    1    3    3    0    0 -0.31905184588E+02 -0.19083078290E+02 -0.10920271370E+02  0.38747348396E+02  0.51100000000E-03 0.  1.
         12    1    3    3    0    0  0.38494516410E+02  0.12462356706E+02  0.72186998633E+01  0.41100459316E+02  0.00000000000E+00 0. -1.
</event>
<event>
 7    1  0.2148778E-015  0.9000773E+02  0.7816164E-02  0.1186339E+00
        -11   -1    0    0    0    0  0.00000000000E+00  0.00000000000E+00  0.45593999997E+02  0.45594000000E+02  0.51100000000E-03 0.  1.
         11   -1    0    0    0    0 -0.00000000000E+00 -0.00000000000E+00 -0.45593999997E+02  0.45594000000E+02  0.51100000000E-03 0. -1.
    9900012    2    1    2    0    0 -0.11743673021E+01 -0.28158254412E-01  0.11450074424E+00  0.90007728053E+02  0.89999989264E+02 0.  0.
         12    1    1    2    0    0  0.11743673021E+01  0.28158254412E-01 -0.11450074424E+00  0.11802719466E+01  0.00000000000E+00 0. -1.
         11    1    3    3    0    0  0.32516581239E+02 -0.18025749264E+02 -0.11104297483E+02  0.38801560727E+02  0.51100000000E-03 0. -1.
        -11    1    3    3    0    0  0.48305915794E+01  0.65530184465E+01 -0.28552441726E+01  0.86272292953E+01  0.51100000000E-03 0.  1.
        -12    1    3    3    0    0 -0.38521540120E+02  0.11444572563E+02  0.14074042400E+02  0.42578938031E+02  0.00000000000E+00 0.  1.
</event>
<event>
 7    1  0.2148778E-015  0.9000808E+02  0.7816164E-02  0.1186338E+00
        -11   -1    0    0    0    0  0.00000000000E+00  0.00000000000E+00  0.45593999997E+02  0.45594000000E+02  0.51100000000E-03 0.  1.
         11   -1    0    0    0    0 -0.00000000000E+00 -0.00000000000E+00 -0.45593999997E+02  0.45594000000E+02  0.51100000000E-03 0. -1.
    9900012    2    1    2    0    0  0.54126989610E+00 -0.99324399322E+00  0.33570312656E+00  0.90008083342E+02  0.90000349242E+02 0.  0.
         12    1    1    2    0    0 -0.54126989610E+00  0.99324399322E+00 -0.33570312656E+00  0.11799166579E+01  0.00000000000E+00 0. -1.
         11    1    3    3    0    0  0.22033673306E+01 -0.29696888217E+01  0.93275407062E+01  0.10033787679E+02  0.51100000000E-03 0. -1.
        -11    1    3    3    0    0  0.32138814749E+02  0.46842999148E+01  0.17546239430E+02  0.36914991501E+02  0.51100000000E-03 0.  1.
         12    1    3    3    0    0 -0.33800912183E+02 -0.27078550864E+01 -0.26538077010E+02  0.43059304162E+02  0.00000000000E+00 0. -1.
</event>
<event>
 7    1  0.2148778E-015  0.9000782E+02  0.7816164E-02  0.1186339E+00
        -11   -1    0    0    0    0  0.00000000000E+00  0.00000000000E+00  0.45593999997E+02  0.45594000000E+02  0.51100000000E-03 0.  1.
         11   -1    0    0    0    0 -0.00000000000E+00 -0.00000000000E+00 -0.45593999997E+02  0.45594000000E+02  0.51100000000E-03 0. -1.
    9900012    2    1    2    0    0  0.87482476357E+00  0.54423098125E+00  0.57559688802E+00  0.90007823104E+02  0.90000085569E+02 0.  0.
         12    1    1    2    0    0 -0.87482476357E+00 -0.54423098125E+00 -0.57559688802E+00  0.11801768958E+01  0.00000000000E+00 0. -1.
         11    1    3    3    0    0  0.10908404739E+01  0.62649732354E+01 -0.77013274279E+01  0.99875055441E+01  0.51100000000E-03 0. -1.
        -11    1    3    3    0    0  0.87455707944E+01  0.17167569501E+02 -0.29330493464E+02  0.35092567563E+02  0.51100000000E-03 0.  1.
         12    1    3    3    0    0 -0.89615865047E+01 -0.22888311755E+02  0.37607417780E+02  0.44927749997E+02  0.00000000000E+00 0. -1.
</event>
<event>
 7    1  0.2148778E-015  0.9000767E+02  0.7816164E-02  0.1186339E+00
        -11   -1    0    0    0    0  0.00000000000E+00  0.00000000000E+00  0.45593999997E+02  0.45594000000E+02  0.51100000000E-03 0. -1.
         11   -1    0    0    0    0 -0.00000000000E+00 -0.00000000000E+00 -0.45593999997E+02  0.45594000000E+02  0.51100000000E-03 0.  1.
    9900012    2    1    2    0    0 -0.23483226431E+00  0.79624518304E+00  0.83905733587E+00  0.90007673860E+02  0.89999934355E+02 0.  0.
         12    1    1    2    0    0  0.23483226431E+00 -0.79624518304E+00 -0.83905733587E+00  0.11803261400E+01  0.00000000000E+00 0. -1.
         11    1    3    3    0    0 -0.57809020045E+01  0.36437563865E+01  0.43842581073E+01  0.81189597857E+01  0.51100000000E-03 0. -1.
        -11    1    3    3    0    0 -0.25500378652E+01  0.27289862822E+02 -0.30246981978E+02  0.40818123732E+02  0.51100000000E-03 0.  1.
         12    1    3    3    0    0  0.80961076054E+01 -0.30137374025E+02  0.26701781207E+02  0.41070590343E+02  0.00000000000E+00 0. -1.
</event>
<event>
 7    1  0.2148778E-015  0.9000774E+02  0.7816164E-02  0.1186339E+00
        -11   -1    0    0    0    0  0.00000000000E+00  0.00000000000E+00  0.45593999997E+02  0.45594000000E+02  0.51100000000E-03 0.  1.
         11   -1    0    0    0    0 -0.00000000000E+00 -0.00000000000E+00 -0.45593999997E+02  0.45594000000E+02  0.51100000000E-03 0. -1.
    9900012    2    1    2    0    0  0.36341697890E+00 -0.77522477259E+00  0.81238834976E+00  0.90007737241E+02  0.89999998573E+02 0.  0.
         12    1    1    2    0    0 -0.36341697890E+00  0.77522477259E+00 -0.81238834976E+00  0.11802627586E+01  0.00000000000E+00 0. -1.
         11    1    3    3    0    0 -0.53370154614E+01  0.30720684050E+02 -0.19075375719E+02  0.36552894845E+02  0.51100000000E-03 0. -1.
        -11    1    3    3    0    0  0.15195973536E+01  0.87290444378E+01  0.13337501971E+01  0.89601497066E+01  0.51100000000E-03 0.  1.
        -12    1    3    3    0    0  0.41808350867E+01 -0.40224953260E+02  0.18554013871E+02  0.44494692689E+02  0.00000000000E+00 0.  1.
</event>
<event>
 7    1  0.2148778E-015  0.9000779E+02  0.7816164E-02  0.1186339E+00
        -11   -1    0    0    0    0  0.00000000000E+00  0.00000000000E+00  0.45593999997E+02  0.45594000000E+02  0.51100000000E-03 0.  1.
         11   -1    0    0    0    0 -0.00000000000E+00 -0.00000000000E+00 -0.45593999997E+02  0.45594000000E+02  0.51100000000E-03 0. -1.
    9900012    2    1    2    0    0  0.73995579081E+00 -0.80079663544E+00  0.45175002797E+00  0.90007793276E+02  0.90000055347E+02 0.  0.
         12    1    1    2    0    0 -0.73995579081E+00  0.80079663544E+00 -0.45175002797E+00  0.11802067240E+01  0.00000000000E+00 0. -1.
         11    1    3    3    0    0  0.20293147373E+01 -0.28230848785E+02  0.29046078497E+02  0.40555808681E+02  0.51100000000E-03 0. -1.
        -11    1    3    3    0    0  0.39058087536E+01 -0.78253622060E+00  0.42625741747E+01  0.58341446514E+01  0.51100000000E-03 0.  1.
        -12    1    3    3    0    0 -0.51951677002E+01  0.28212588370E+02 -0.32856902644E+02  0.43617839944E+02  0.00000000000E+00 0.  1.
</event>
<event>
 7    1  0.2148778E-015  0.9000768E+02  0.7816164E-02  0.1186339E+00
        -11   -1    0    0    0    0  0.00000000000E+00  0.00000000000E+00  0.45593999997E+02  0.45594000000E+02  0.51100000000E-03 0.  1.
         11   -1    0    0    0    0 -0.00000000000E+00 -0.00000000000E+00 -0.45593999997E+02  0.45594000000E+02  0.51100000000E-03 0. -1.
    9900012    2    1    2    0    0  0.10650691410E+01  0.50650507478E+00 -0.47281009742E-01  0.90007680060E+02  0.89999940637E+02 0.  0.
         12    1    1    2    0    0 -0.10650691410E+01 -0.50650507478E+00  0.47281009742E-01  0.11803199396E+01  0.00000000000E+00 0. -1.
         11    1    3    3    0    0  0.95263622950E+01 -0.35053434711E+00  0.35908158872E+01  0.10186678158E+02  0.51100000000E-03 0. -1.
        -11    1    3    3    0    0  0.10095355415E+02  0.18484975554E+02  0.30554221394E+02  0.37110254209E+02  0.51100000000E-03 0.  1.
         12    1    3    3    0    0 -0.18556648569E+02 -0.17627936132E+02 -0.34192318291E+02  0.42710747693E+02  0.00000000000E+00 0. -1.
</event>
<event>
 7    1  0.2148778E-015  0.9000772E+02  0.7816164E-02  0.1186339E+00
        -11   -1    0    0    0    0  0.00000000000E+00  0.00000000000E+00  0.45593999997E+02  0.45594000000E+02  0.51100000000E-03 0. -1.
         11   -1    0    0    0    0 -0.00000000000E+00 -0.00000000000E+00 -0.45593999997E+02  0.45594000000E+02  0.51100000000E-03 0.  1.
    9900012    2    1    2    0    0 -0.28386254555E+00 -0.48993109074E+00 -0.10355870061E+01  0.90007724242E+02  0.89999985402E+02 0.  0.
         12    1    1    2    0    0  0.28386254555E+00  0.48993109074E+00  0.10355870061E+01  0.11802757583E+01  0.00000000000E+00 0. -1.
         11    1    3    3    0    0 -0.22658493669E+02 -0.24308120568E+02 -0.21798160494E+02  0.39742318277E+02  0.51100000000E-03 0. -1.
        -11    1    3    3    0    0 -0.70028378853E+01  0.49915488327E+01 -0.17023489951E+01  0.87666008554E+01  0.51100000000E-03 0.  1.
        -12    1    3    3    0    0  0.29377469009E+02  0.18826640644E+02  0.22464922483E+02  0.41498805109E+02  0.00000000000E+00 0.  1.
</event>
<event>
 7    1  0.2148778E-015  0.9000776E+02  0.7816164E-02  0.1186339E+00
        -11   -1    0    0    0    0  0.00000000000E+00  0.00000000000E+00  0.45593999997E+02  0.45594000000E+02  0.51100000000E-03 0. -1.
         11   -1    0    0    0    0 -0.00000000000E+00 -0.00000000000E+00 -0.45593999997E+02  0.45594000000E+02  0.51100000000E-03 0.  1.
    9900012    2    1    2    0    0 -0.10767682766E+01  0.39565534223E+00  0.27746551715E+00  0.90007762658E+02  0.90000024325E+02 0.  0.
         12    1    1    2    0    0  0.10767682766E+01 -0.39565534223E+00 -0.27746551715E+00  0.11802373424E+01  0.00000000000E+00 0. -1.
         11    1    3    3    0    0  0.23819897646E+02 -0.19393578077E+02  0.17706780215E+02  0.35454597168E+02  0.51100000000E-03 0. -1.
        -11    1    3    3    0    0  0.72306553526E+01 -0.38969343613E+01  0.41236970373E+01  0.91909385680E+01  0.51100000000E-03 0.  1.
        -12    1    3    3    0    0 -0.32127321275E+02  0.23686167780E+02 -0.21553011735E+02  0.45362226922E+02  0.00000000000E+00 0.  1.
</event>
<event>
 7    1  0.2148778E-015  0.9000778E+02  0.7816164E-02  0.1186339E+00
        -11   -1    0    0    0    0  0.00000000000E+00  0.00000000000E+00  0.45593999997E+02  0.45594000000E+02  0.51100000000E-03 0.  1.
         11   -1    0    0    0    0 -0.00000000000E+00 -0.00000000000E+00 -0.45593999997E+02  0.45594000000E+02  0.51100000000E-03 0. -1.
    9900012    2    1    2    0    0 -0.40656586962E+00 -0.11079366512E+01  0.95354537189E-02  0.90007783768E+02  0.90000045714E+02 0.  0.
         12    1    1    2    0    0  0.40656586962E+00  0.11079366512E+01 -0.95354537189E-02  0.11802162320E+01  0.00000000000E+00 0. -1.
         11    1    3    3    0    0  0.36047536412E+01 -0.28048832952E+01  0.88181926090E+01  0.99308680519E+01  0.51100000000E-03 0. -1.
        -11    1    3    3    0    0 -0.24435826477E+02 -0.27420355220E+02  0.12281501695E+02  0.38727519675E+02  0.51100000000E-03 0.  1.
         12    1    3    3    0    0  0.20424506967E+02  0.29117301864E+02 -0.21090158850E+02  0.41349396041E+02  0.00000000000E+00 0. -1.
</event>
<event>
 7    1  0.2148778E-015  0.9000776E+02  0.7816164E-02  0.1186339E+00
        -11   -1    0    0    0    0  0.00000000000E+00  0.00000000000E+00  0.45593999997E+02  0.45594000000E+02  0.51100000000E-03 0.  1.
         11   -1    0    0    0    0 -0.00000000000E+00 -0.00000000000E+00 -0.45593999997E+02  0.45594000000E+02  0.51100000000E-03 0. -1.
    9900012    2    1    2    0    0  0.56813684625E+00 -0.10755057731E+00  0.10288978928E+01  0.90007755332E+02  0.90000016902E+02 0.  0.
         12    1    1    2    0    0 -0.56813684625E+00  0.10755057731E+00 -0.10288978928E+01  0.11802446681E+01  0.00000000000E+00 0. -1.
         11    1    3    3    0    0  0.20941639110E+01  0.18760776776E+02 -0.31167714766E+02  0.36438697997E+02  0.51100000000E-03 0. -1.
        -11    1    3    3    0    0 -0.33846232565E+01  0.79685444373E+01 -0.30946255135E+01  0.91940242749E+01  0.51100000000E-03 0.  1.
        -12    1    3    3    0    0  0.18585961917E+01 -0.26836871791E+02  0.35291238172E+02  0.44375033060E+02  0.00000000000E+00 0.  1.
</event>
<event>
 7    1  0.2148778E-015  0.9000772E+02  0.7816164E-02  0.1186339E+00
        -11   -1    0    0    0    0  0.00000000000E+00  0.00000000000E+00  0.45593999997E+02  0.45594000000E+02  0.51100000000E-03 0. -1.
         11   -1    0    0    0    0 -0.00000000000E+00 -0.00000000000E+00 -0.45593999997E+02  0.45594000000E+02  0.51100000000E-03 0.  1.
    9900012    2    1    2    0    0  0.10231590989E+01  0.28395994759E+00  0.51532852886E+00  0.90007724064E+02  0.89999985221E+02 0.  0.
         12    1    1    2    0    0 -0.10231590989E+01 -0.28395994759E+00 -0.51532852886E+00  0.11802759364E+01  0.00000000000E+00 0. -1.
         11    1    3    3    0    0  0.12734352086E+02 -0.37742252963E+01  0.29203504899E+02  0.32081976222E+02  0.51100000000E-03 0. -1.
        -11    1    3    3    0    0 -0.91224941353E+01 -0.21908229047E+02 -0.96250965289E+01  0.25609234324E+02  0.51100000000E-03 0.  1.
         12    1    3    3    0    0 -0.25886988522E+01  0.25966414291E+02 -0.19063079841E+02  0.32316513517E+02  0.00000000000E+00 0. -1.
</event>
<event>
 7    1  0.2148778E-015  0.9000775E+02  0.7816164E-02  0.1186339E+00
        -11   -1    0    0    0    0  0.00000000000E+00  0.00000000000E+00  0.45593999997E+02  0.45594000000E+02  0.51100000000E-03 0.  1.
         11   -1    0    0    0    0 -0.00000000000E+00 -0.00000000000E+00 -0.45593999997E+02  0.45594000000E+02  0.51100000000E-03 0. -1.
    9900012    2    1    2    0    0  0.39594413697E+00 -0.10488432148E+01  0.36897164902E+00  0.90007752599E+02  0.90000014134E+02 0.  0.
         12    1    1    2    0    0 -0.39594413697E+00  0.10488432148E+01 -0.36897164902E+00  0.11802474006E+01  0.00000000000E+00 0. -1.
         11    1    3    3    0    0  0.24403170735E+02  0.84805946997E+01 -0.28890379665E+02  0.38756796383E+02  0.51100000000E-03 0. -1.
        -11    1    3    3    0    0 -0.28456479440E+01 -0.86318031917E+01 -0.54440792508E+01  0.10594514510E+02  0.51100000000E-03 0.  1.
        -12    1    3    3    0    0 -0.21161578654E+02 -0.89763472285E+00  0.34703430565E+02  0.40656441706E+02  0.00000000000E+00 0.  1.
</event>
<event>
 7    1  0.2148778E-015  0.9000756E+02  0.7816164E-02  0.1186339E+00
        -11   -1    0    0    0    0  0.00000000000E+00  0.00000000000E+00  0.45593999997E+02  0.45594000000E+02  0.51100000000E-03 0.  1.
         11   -1    0    0    0    0 -0.00000000000E+00 -0.00000000000E+00 -0.45593999997E+02  0.45594000000E+02  0.51100000000E-03 0. -1.
    9900012    2    1    2    0    0  0.34403037276E+00  0.10496836927E+01 -0.41623504294E+00  0.90007557556E+02  0.89999816516E+02 0.  0.
         12    1    1    2    0    0 -0.34403037276E+00 -0.10496836927E+01  0.41623504294E+00  0.11804424438E+01  0.00000000000E+00 0. -1.
         11    1    3    3    0    0  0.37473233651E+01 -0.45205967232E+01  0.95142226438E+01  0.11180279957E+02  0.51100000000E-03 0. -1.
        -11    1    3    3    0    0 -0.13119188550E+01  0.35617960277E+02  0.16013287349E+02  0.39074103923E+02  0.51100000000E-03 0.  1.
         12    1    3    3    0    0 -0.20913741373E+01 -0.30047679861E+02 -0.25943745036E+02  0.39753173676E+02  0.00000000000E+00 0. -1.
</event>
<event>
 7    1  0.2148778E-015  0.9000776E+02  0.7816164E-02  0.1186339E+00
        -11   -1    0    0    0    0  0.00000000000E+00  0.00000000000E+00  0.45593999997E+02  0.45594000000E+02  0.51100000000E-03 0.  1.
         11   -1    0    0    0    0 -0.00000000000E+00 -0.00000000000E+00 -0.45593999997E+02  0.45594000000E+02  0.51100000000E-03 0. -1.
    9900012    2    1    2    0    0 -0.11299487678E+01 -0.32224048895E+00 -0.11111155699E+00  0.90007758953E+02  0.90000020571E+02 0.  0.
         12    1    1    2    0    0  0.11299487678E+01  0.32224048895E+00  0.11111155699E+00  0.11802410468E+01  0.00000000000E+00 0. -1.
         11    1    3    3    0    0  0.84898989626E+00 -0.80424877014E+01 -0.93872779904E+00  0.81414742162E+01  0.51100000000E-03 0. -1.
        -11    1    3    3    0    0 -0.69990409340E+01 -0.33257416334E+02 -0.15649093520E+02  0.37415724548E+02  0.51100000000E-03 0.  1.
         12    1    3    3    0    0  0.50201022699E+01  0.40977663546E+02  0.16476709762E+02  0.44450560189E+02  0.00000000000E+00 0. -1.
</event>
<event>
 7    1  0.2148778E-015  0.9000783E+02  0.7816164E-02  0.1186339E+00
        -11   -1    0    0    0    0  0.00000000000E+00  0.00000000000E+00  0.45593999997E+02  0.45594000000E+02  0.51100000000E-03 0. -1.
         11   -1    0    0    0    0 -0.00000000000E+00 -0.00000000000E+00 -0.45593999997E+02  0.45594000000E+02  0.51100000000E-03 0.  1.
    9900012    2    1    2    0    0  0.34154056925E-01 -0.57052194692E+00 -0.10325435688E+01  0.90007827126E+02  0.90000089644E+02 0.  0.
         12    1    1    2    0    0 -0.34154056925E-01  0.57052194692E+00  0.10325435688E+01  0.11801728742E+01  0.00000000000E+00 0. -1.
         11    1    3    3    0    0  0.13098898429E+02 -0.24712514068E+02  0.53643794307E+01  0.28479221523E+02  0.51100000000E-03 0. -1.
        -11    1    3    3    0    0  0.20693971745E+02  0.62773240338E+01  0.38926465191E+01  0.21972663944E+02  0.51100000000E-03 0.  1.
        -12    1    3    3    0    0 -0.33758716116E+02  0.17864668087E+02 -0.10289569519E+02  0.39555941659E+02  0.00000000000E+00 0.  1.
</event>
<event>
 7    1  0.2148778E-015  0.9000773E+02  0.7816164E-02  0.1186339E+00
        -11   -1    0    0    0    0  0.00000000000E+00  0.00000000000E+00  0.45593999997E+02  0.45594000000E+02  0.51100000000E-03 0. -1.
         11   -1    0    0    0    0 -0.00000000000E+00 -0.00000000000E+00 -0.45593999997E+02  0.45594000000E+02  0.51100000000E-03 0.  1.
    9900012    2    1    2    0    0 -0.60003050542E+00  0.80080176441E+00 -0.62587522971E+00  0.90007728897E+02  0.89999990118E+02 0.  0.
         12    1    1    2    0    0  0.60003050542E+00 -0.80080176441E+00  0.62587522971E+00  0.11802711030E+01  0.00000000000E+00 0. -1.
         11    1    3    3    0    0  0.34190167872E+02 -0.98435294443E+01  0.13487660552E+02  0.38049699585E+02  0.51100000000E-03 0. -1.
        -11    1    3    3    0    0 -0.28441416846E+01 -0.54326977284E+01  0.78710051434E+01  0.99777787488E+01  0.51100000000E-03 0.  1.
        -12    1    3    3    0    0 -0.31946056693E+02  0.16077028937E+02 -0.21984540925E+02  0.41980250564E+02  0.00000000000E+00 0.  1.
</event>
<event>
 7    1  0.2148778E-015  0.9000775E+02  0.7816164E-02  0.1186339E+00
        -11   -1    0    0    0    0  0.00000000000E+00  0.00000000000E+00  0.45593999997E+02  0.45594000000E+02  0.51100000000E-03 0.  1.
         11   -1    0    0    0    0 -0.00000000000E+00 -0.00000000000E+00 -0.45593999997E+02  0.45594000000E+02  0.51100000000E-03 0. -1.
    9900012    2    1    2    0    0  0.10378664729E+00  0.11746571124E+01 -0.49067599142E-01  0.90007746371E+02  0.90000007823E+02 0.  0.
         12    1    1    2    0    0 -0.10378664729E+00 -0.11746571124E+01  0.49067599142E-01  0.11802536291E+01  0.00000000000E+00 0. -1.
         11    1    3    3    0    0  0.10432926159E+02  0.14439584339E+01 -0.10437926800E+01  0.10583972204E+02  0.51100000000E-03 0. -1.
        -11    1    3    3    0    0 -0.52966562780E+01 -0.37533445740E+02  0.12805784926E+02  0.40010026802E+02  0.51100000000E-03 0.  1.
         12    1    3    3    0    0 -0.50324832335E+01  0.37264144418E+02 -0.11811059845E+02  0.39413747365E+02  0.00000000000E+00 0. -1.
</event>
<event>
 7    1  0.2148778E-015  0.9000769E+02  0.7816164E-02  0.1186339E+00
        -11   -1    0    0    0    0  0.00000000000E+00  0.00000000000E+00  0.45593999997E+02  0.45594000000E+02  0.51100000000E-03 0.  1.
         11   -1    0    0    0    0 -0.00000000000E+00 -0.00000000000E+00 -0.45593999997E+02  0.45594000000E+02  0.51100000000E-03 0. -1.
    9900012    2    1    2    0    0 -0.46506632655E+00  0.76297133626E+00  0.77118341909E+00  0.90007688256E+02  0.89999948941E+02 0.  0.
         12    1    1    2    0    0  0.46506632655E+00 -0.76297133626E+00 -0.77118341909E+00  0.11803117444E+01  0.00000000000E+00 0. -1.
         11    1    3    3    0    0  0.71958849981E+01 -0.22826294953E+02 -0.24201234084E+02  0.34037042081E+02  0.51100000000E-03 0. -1.
        -11    1    3    3    0    0  0.15963681187E+02  0.14656136118E+01  0.17306798057E+01  0.16123969522E+02  0.51100000000E-03 0.  1.
        -12    1    3    3    0    0 -0.23624632512E+02  0.22123652677E+02  0.23241737697E+02  0.39846676653E+02  0.00000000000E+00 0.  1.
</event>
<event>
 7    1  0.2148778E-015  0.9000776E+02  0.7816164E-02  0.1186339E+00
        -11   -1    0    0    0    0  0.00000000000E+00  0.00000000000E+00  0.45593999997E+02  0.45594000000E+02  0.51100000000E-03 0. -1.
         11   -1    0    0    0    0 -0.00000000000E+00 -0.00000000000E+00 -0.45593999997E+02  0.45594000000E+02  0.51100000000E-03 0.  1.
    9900012    2    1    2    0    0 -0.58588129837E+00 -0.61306434535E+00 -0.82088628425E+00  0.90007763126E+02  0.90000024799E+02 0.  0.
         12    1    1    2    0    0  0.58588129837E+00  0.61306434535E+00  0.82088628425E+00  0.11802368741E+01  0.00000000000E+00 0. -1.
         11    1    3    3    0    0 -0.87877651499E+01  0.13239439434E+02  0.39812982254E+02  0.42867016797E+02  0.51100000000E-03 0. -1.
        -11    1    3    3    0    0  0.42439779887E+01  0.27357802360E+01 -0.31280463505E+01  0.59397404741E+01  0.51100000000E-03 0.  1.
        -12    1    3    3    0    0  0.39579058629E+01 -0.16588284016E+02 -0.37505822188E+02  0.41201005854E+02  0.00000000000E+00 0.  1.
</event>
<event>
 7    1  0.2148778E-015  0.9000767E+02  0.7816164E-02  0.1186339E+00
        -11   -1    0    0    0    0  0.00000000000E+00  0.00000000000E+00  0.45593999997E+02  0.45594000000E+02  0.51100000000E-03 0. -1.
         11   -1    0    0    0    0 -0.00000000000E+00 -0.00000000000E+00 -0.45593999997E+02  0.45594000000E+02  0.51100000000E-03 0.  1.
    9900012    2    1    2    0    0  0.75922643812E+00  0.68892482239E+00  0.58491534694E+00  0.90007674554E+02  0.89999935058E+02 0.  0.
         12    1    1    2    0    0 -0.75922643812E+00 -0.68892482239E+00 -0.58491534694E+00  0.11803254459E+01  0.00000000000E+00 0. -1.
         11    1    3    3    0    0  0.19177629827E+01  0.15044665145E-01  0.52809137923E+01  0.56183709332E+01  0.51100000000E-03 0. -1.
        -11    1    3    3    0    0 -0.37777294872E+02  0.95544643800E+01  0.15142622842E+02  0.41805631490E+02  0.51100000000E-03 0.  1.
         12    1    3    3    0    0  0.36618758328E+02 -0.88805842228E+01 -0.19838621287E+02  0.42583672131E+02  0.00000000000E+00 0. -1.
</event>
<event>
 7    1  0.2148778E-015  0.9000790E+02  0.7816164E-02  0.1186339E+00
        -11   -1    0    0    0    0  0.00000000000E+00  0.00000000000E+00  0.45593999997E+02  0.45594000000E+02  0.51100000000E-03 0.  1.
         11   -1    0    0    0    0 -0.00000000000E+00 -0.00000000000E+00 -0.45593999997E+02  0.45594000000E+02  0.51100000000E-03 0. -1.
    9900012    2    1    2    0    0  0.34389513110E+00 -0.63294115729E+00  0.93475363334E+00  0.90007897155E+02  0.90000160597E+02 0.  0.
         12    1    1    2    0    0 -0.34389513110E+00  0.63294115729E+00 -0.93475363334E+00  0.11801028450E+01  0.00000000000E+00 0. -1.
         11    1    3    3    0    0 -0.53928574122E+01 -0.25575728773E+02 -0.24789843577E+02  0.36024119117E+02  0.51100000000E-03 0. -1.
        -11    1    3    3    0    0  0.21309032422E+01 -0.33922485957E+01 -0.85054147095E+01  0.94016051185E+01  0.51100000000E-03 0.  1.
        -12    1    3    3    0    0  0.36058493010E+01  0.28335036211E+02  0.34230011919E+02  0.44582172920E+02  0.00000000000E+00 0.  1.
</event>
<event>
 7    1  0.2148778E-015  0.9000779E+02  0.7816164E-02  0.1186339E+00
        -11   -1    0    0    0    0  0.00000000000E+00  0.00000000000E+00  0.45593999997E+02  0.45594000000E+02  0.51100000000E-03 0.  1.
         11   -1    0    0    0    0 -0.00000000000E+00 -0.00000000000E+00 -0.45593999997E+02  0.45594000000E+02  0.51100000000E-03 0. -1.
    9900012    2    1    2    0    0  0.91739765331E+00  0.74240604025E+00  0.10543385480E-01  0.90007789703E+02  0.90000051727E+02 0.  0.
         12    1    1    2    0    0 -0.91739765331E+00 -0.74240604025E+00 -0.10543385480E-01  0.11802102973E+01  0.00000000000E+00 0. -1.
         11    1    3    3    0    0  0.46775112288E+01 -0.20223516770E+01  0.40555593433E+01  0.65128011983E+01  0.51100000000E-03 0. -1.
        -11    1    3    3    0    0  0.26139720175E+02 -0.20428947803E+02  0.19926571675E+02  0.38700066384E+02  0.51100000000E-03 0.  1.
         12    1    3    3    0    0 -0.29899833751E+02  0.23193705520E+02 -0.23971587633E+02  0.44794922120E+02  0.00000000000E+00 0. -1.
</event>
<event>
 7    1  0.2148778E-015  0.9000800E+02  0.7816164E-02  0.1186339E+00
        -11   -1    0    0    0    0  0.00000000000E+00  0.00000000000E+00  0.45593999997E+02  0.45594000000E+02  0.51100000000E-03 0. -1.
         11   -1    0    0    0    0 -0.00000000000E+00 -0.00000000000E+00 -0.45593999997E+02  0.45594000000E+02  0.51100000000E-03 0.  1.
    9900012    2    1    2    0    0 -0.10955475727E+01  0.43434510379E+00  0.59402178956E-01  0.90007996283E+02  0.90000261034E+02 0.  0.
         12    1    1    2    0    0  0.10955475727E+01 -0.43434510379E+00 -0.59402178956E-01  0.11800037170E+01  0.00000000000E+00 0. -1.
         11    1    3    3    0    0 -0.73515032915E+00 -0.40614759835E+02 -0.97450168778E+01  0.41773969367E+02  0.51100000000E-03 0. -1.
        -11    1    3    3    0    0 -0.78281416513E+01  0.34538166949E+01  0.40797932900E+01  0.94791014883E+01  0.51100000000E-03 0.  1.
        -12    1    3    3    0    0  0.74677444078E+01  0.37595288244E+02  0.57246257667E+01  0.38754925427E+02  0.00000000000E+00 0.  1.
</event>
<event>
 7    1  0.2148778E-015  0.9000776E+02  0.7816164E-02  0.1186339E+00
        -11   -1    0    0    0    0  0.00000000000E+00  0.00000000000E+00  0.45593999997E+02  0.45594000000E+02  0.51100000000E-03 0.  1.
         11   -1    0    0    0    0 -0.00000000000E+00 -0.00000000000E+00 -0.45593999997E+02  0.45594000000E+02  0.51100000000E-03 0. -1.
    9900012    2    1    2    0    0  0.11554995875E+00  0.10223367222E+01  0.57830129346E+00  0.90007764196E+02  0.90000025884E+02 0.  0.
         12    1    1    2    0    0 -0.11554995875E+00 -0.10223367222E+01 -0.57830129346E+00  0.11802358038E+01  0.00000000000E+00 0. -1.
         11    1    3    3    0    0 -0.14638215074E+02 -0.17363348272E+02 -0.28546444289E+02  0.36478249487E+02  0.51100000000E-03 0. -1.
        -11    1    3    3    0    0 -0.70370631505E+01 -0.70492544626E+01  0.14162644108E+01  0.10060718235E+02  0.51100000000E-03 0.  1.
        -12    1    3    3    0    0  0.21790828184E+02  0.25434939457E+02  0.27708481172E+02  0.43468796475E+02  0.00000000000E+00 0.  1.
</event>
<event>
 7    1  0.2157557E-015  0.9000774E+02  0.7816164E-02  0.1186339E+00
        -11   -1    0    0    0    0  0.00000000000E+00  0.00000000000E+00  0.45593999997E+02  0.45594000000E+02  0.51100000000E-03 0.  1.
         11   -1    0    0    0    0 -0.00000000000E+00 -0.00000000000E+00 -0.45593999997E+02  0.45594000000E+02  0.51100000000E-03 0. -1.
    9900012    2    1    2    0    0  0.91511043147E+00 -0.73479691774E+00  0.12516259950E+00  0.90007737619E+02  0.89999998955E+02 0.  0.
         12    1    1    2    0    0 -0.91511043147E+00  0.73479691774E+00 -0.12516259950E+00  0.11802623812E+01  0.00000000000E+00 0. -1.
         11    1    3    3    0    0  0.24649343388E+01  0.60586312517E+01  0.71626788472E+01  0.96998393012E+01  0.51100000000E-03 0. -1.
        -11    1    3    3    0    0  0.33188859247E+02  0.28725619577E+01  0.16572523794E+02  0.37207533317E+02  0.51100000000E-03 0.  1.
         12    1    3    3    0    0 -0.34738683155E+02 -0.96659901271E+01 -0.23610040042E+02  0.43100365001E+02  0.00000000000E+00 0. -1.
</event>
<event>
 7    1  0.2148778E-015  0.9000772E+02  0.7816164E-02  0.1186339E+00
        -11   -1    0    0    0    0  0.00000000000E+00  0.00000000000E+00  0.45593999997E+02  0.45594000000E+02  0.51100000000E-03 0. -1.
         11   -1    0    0    0    0 -0.00000000000E+00 -0.00000000000E+00 -0.45593999997E+02  0.45594000000E+02  0.51100000000E-03 0.  1.
    9900012    2    1    2    0    0 -0.13663876649E+00  0.11404816297E+01 -0.27144713656E+00  0.90007723741E+02  0.89999984894E+02 0.  0.
         12    1    1    2    0    0  0.13663876649E+00 -0.11404816297E+01  0.27144713656E+00  0.11802762592E+01  0.00000000000E+00 0. -1.
         11    1    3    3    0    0  0.31681425680E+02 -0.24367293112E+02  0.46770578216E+01  0.40241180112E+02  0.51100000000E-03 0. -1.
        -11    1    3    3    0    0 -0.65134099112E+01 -0.54223832975E+01  0.30580113355E+01  0.90098936111E+01  0.51100000000E-03 0.  1.
        -12    1    3    3    0    0 -0.25304654535E+02  0.30930158039E+02 -0.80065162936E+01  0.40756650017E+02  0.00000000000E+00 0.  1.
</event>
<event>
 8    1  0.2148778E-015  0.9000765E+02  0.7816164E-02  0.1186339E+00
        -11   -1    0    0    0    0  0.00000000000E+00  0.00000000000E+00  0.45593999997E+02  0.45594000000E+02  0.51100000000E-03 0.  1.
         11   -1    0    0    0    0 -0.00000000000E+00 -0.00000000000E+00 -0.45593999997E+02  0.45594000000E+02  0.51100000000E-03 0. -1.
    9900012    2    1    2    0    0  0.54269213726E-01 -0.13806670583E+00  0.11709927889E+01  0.90007647648E+02  0.89999907797E+02 0.  0.
         23    2    3    3    0    0  0.31262952667E+01 -0.26530144598E+02  0.93509538515E+01  0.62206732510E+02  0.55395080441E+02 0.  0.
         12    1    1    2    0    0 -0.54269213726E-01  0.13806670583E+00 -0.11709927889E+01  0.11803523519E+01  0.00000000000E+00 0. -1.
         11    1    4    4    0    0  0.23211183628E+02 -0.13796962549E+02 -0.12641949472E+02  0.29814998033E+02  0.51100000000E-03 0. -1.
        -11    1    4    4    0    0 -0.20084888361E+02 -0.12733182049E+02  0.21992903324E+02  0.32391734477E+02  0.51100000000E-03 0.  1.
         12    1    3    3    0    0 -0.30720260530E+01  0.26392077892E+02 -0.81799610626E+01  0.27800915138E+02  0.00000000000E+00 0. -1.
</event>
<event>
 7    1  0.2148778E-015  0.9000774E+02  0.7816164E-02  0.1186339E+00
        -11   -1    0    0    0    0  0.00000000000E+00  0.00000000000E+00  0.45593999997E+02  0.45594000000E+02  0.51100000000E-03 0. -1.
         11   -1    0    0    0    0 -0.00000000000E+00 -0.00000000000E+00 -0.45593999997E+02  0.45594000000E+02  0.51100000000E-03 0.  1.
    9900012    2    1    2    0    0  0.11006402175E+01  0.32700458177E+00 -0.27325814059E+00  0.90007741174E+02  0.90000002558E+02 0.  0.
         12    1    1    2    0    0 -0.11006402175E+01 -0.32700458177E+00  0.27325814059E+00  0.11802588260E+01  0.00000000000E+00 0. -1.
         11    1    3    3    0    0  0.10333613579E+02  0.62347268613E+01 -0.92800777427E-02  0.12068781008E+02  0.51100000000E-03 0. -1.
        -11    1    3    3    0    0  0.18716984382E+02  0.21868128470E+02  0.18580542082E+02  0.34260430404E+02  0.51100000000E-03 0.  1.
         12    1    3    3    0    0 -0.27949957743E+02 -0.27775850750E+02 -0.18844520144E+02  0.43678529762E+02  0.00000000000E+00 0. -1.
</event>
<event>
 7    1  0.2148778E-015  0.9000774E+02  0.7816164E-02  0.1186339E+00
        -11   -1    0    0    0    0  0.00000000000E+00  0.00000000000E+00  0.45593999997E+02  0.45594000000E+02  0.51100000000E-03 0.  1.
         11   -1    0    0    0    0 -0.00000000000E+00 -0.00000000000E+00 -0.45593999997E+02  0.45594000000E+02  0.51100000000E-03 0. -1.
    9900012    2    1    2    0    0 -0.95587344588E+00 -0.18003027664E+00 -0.66851874814E+00  0.90007736359E+02  0.89999997679E+02 0.  0.
         12    1    1    2    0    0  0.95587344588E+00  0.18003027664E+00  0.66851874814E+00  0.11802636407E+01  0.00000000000E+00 0. -1.
         11    1    3    3    0    0 -0.19625782475E+02 -0.32233772193E+01 -0.25075405361E+02  0.32005272265E+02  0.51100000000E-03 0. -1.
        -11    1    3    3    0    0  0.14337711184E+02 -0.15224515195E+02 -0.64479833120E+01  0.21884522246E+02  0.51100000000E-03 0.  1.
        -12    1    3    3    0    0  0.43321978460E+01  0.18267862137E+02  0.30854869925E+02  0.36117941848E+02  0.00000000000E+00 0.  1.
</event>
<event>
 7    1  0.2148778E-015  0.9000772E+02  0.7816164E-02  0.1186339E+00
        -11   -1    0    0    0    0  0.00000000000E+00  0.00000000000E+00  0.45593999997E+02  0.45594000000E+02  0.51100000000E-03 0.  1.
         11   -1    0    0    0    0 -0.00000000000E+00 -0.00000000000E+00 -0.45593999997E+02  0.45594000000E+02  0.51100000000E-03 0. -1.
    9900012    2    1    2    0    0 -0.37261107648E+00 -0.10528309584E+01  0.38179035420E+00  0.90007722102E+02  0.89999983234E+02 0.  0.
         12    1    1    2    0    0  0.37261107648E+00  0.10528309584E+01 -0.38179035420E+00  0.11802778977E+01  0.00000000000E+00 0. -1.
         11    1    3    3    0    0 -0.73701013205E+01  0.37000436701E+01 -0.48341040362E+01  0.95591463389E+01  0.51100000000E-03 0. -1.
        -11    1    3    3    0    0 -0.25638901741E+02 -0.28396338335E+02 -0.57366077495E+01  0.38686095461E+02  0.51100000000E-03 0.  1.
         12    1    3    3    0    0  0.32636391985E+02  0.23643463706E+02  0.10952502140E+02  0.41762480302E+02  0.00000000000E+00 0. -1.
</event>
<event>
 7    1  0.2148778E-015  0.9000781E+02  0.7816164E-02  0.1186339E+00
        -11   -1    0    0    0    0  0.00000000000E+00  0.00000000000E+00  0.45593999997E+02  0.45594000000E+02  0.51100000000E-03 0.  1.
         11   -1    0    0    0    0 -0.00000000000E+00 -0.00000000000E+00 -0.45593999997E+02  0.45594000000E+02  0.51100000000E-03 0. -1.
    9900012    2    1    2    0    0  0.86778705186E+00  0.72883715652E+00 -0.32954138507E+00  0.90007807010E+02  0.90000069263E+02 0.  0.
         12    1    1    2    0    0 -0.86778705186E+00 -0.72883715652E+00  0.32954138507E+00  0.11801929895E+01  0.00000000000E+00 0. -1.
         11    1    3    3    0    0 -0.15213063348E+02  0.31234406024E+02 -0.25077020732E+02  0.42847198101E+02  0.51100000000E-03 0. -1.
        -11    1    3    3    0    0  0.93605342342E+01 -0.45602258342E+01 -0.38411066222E+00  0.10419347488E+02  0.51100000000E-03 0.  1.
        -12    1    3    3    0    0  0.67203161654E+01 -0.25945343033E+02  0.25131590009E+02  0.36741261421E+02  0.00000000000E+00 0.  1.
</event>
<event>
 7    1  0.2148778E-015  0.9000788E+02  0.7816164E-02  0.1186339E+00
        -11   -1    0    0    0    0  0.00000000000E+00  0.00000000000E+00  0.45593999997E+02  0.45594000000E+02  0.51100000000E-03 0. -1.
         11   -1    0    0    0    0 -0.00000000000E+00 -0.00000000000E+00 -0.45593999997E+02  0.45594000000E+02  0.51100000000E-03 0.  1.
    9900012    2    1    2    0    0 -0.10108148219E+01  0.15432196524E+00  0.58917541095E+00  0.90007877321E+02  0.90000140501E+02 0.  0.
         12    1    1    2    0    0  0.10108148219E+01 -0.15432196524E+00 -0.58917541095E+00  0.11801226792E+01  0.00000000000E+00 0. -1.
         11    1    3    3    0    0  0.41666672918E+01 -0.42270586939E+01 -0.76069992322E+01  0.96486050340E+01  0.51100000000E-03 0. -1.
        -11    1    3    3    0    0  0.35800777667E+02  0.44461640913E+01 -0.68228665550E+01  0.36715331470E+02  0.51100000000E-03 0.  1.
         12    1    3    3    0    0 -0.40978259780E+02 -0.64783432151E-01  0.15019041198E+02  0.43643940817E+02  0.00000000000E+00 0. -1.
</event>
<event>
 7    1  0.2148778E-015  0.9000783E+02  0.7816164E-02  0.1186339E+00
        -11   -1    0    0    0    0  0.00000000000E+00  0.00000000000E+00  0.45593999997E+02  0.45594000000E+02  0.51100000000E-03 0. -1.
         11   -1    0    0    0    0 -0.00000000000E+00 -0.00000000000E+00 -0.45593999997E+02  0.45594000000E+02  0.51100000000E-03 0.  1.
    9900012    2    1    2    0    0 -0.85179670311E+00  0.10377571102E+00 -0.81023500142E+00  0.90007827225E+02  0.90000089744E+02 0.  0.
         12    1    1    2    0    0  0.85179670311E+00 -0.10377571102E+00  0.81023500142E+00  0.11801727751E+01  0.00000000000E+00 0. -1.
         11    1    3    3    0    0  0.14918530097E+02 -0.17754317541E+02  0.27187053371E+02  0.35733936291E+02  0.51100000000E-03 0. -1.
        -11    1    3    3    0    0  0.31905493014E+01 -0.52392372073E+01  0.62939717234E+01  0.87888162841E+01  0.51100000000E-03 0.  1.
        -12    1    3    3    0    0 -0.18960876102E+02  0.23097330459E+02 -0.34291260096E+02  0.45485074649E+02  0.00000000000E+00 0.  1.
</event>
<event>
 7    1  0.4220903E-015  0.9000774E+02  0.7816164E-02  0.1186339E+00
        -11   -1    0    0    0    0  0.00000000000E+00  0.00000000000E+00  0.45593999997E+02  0.45594000000E+02  0.51100000000E-03 0.  1.
         11   -1    0    0    0    0 -0.00000000000E+00 -0.00000000000E+00 -0.45593999997E+02  0.45594000000E+02  0.51100000000E-03 0. -1.
    9900012    2    1    2    0    0  0.73182830737E+00 -0.79226241060E+00  0.47933712096E+00  0.90007738811E+02  0.90000000163E+02 0.  0.
         12    1    1    2    0    0 -0.73182830737E+00  0.79226241060E+00 -0.47933712096E+00  0.11802611890E+01  0.00000000000E+00 0. -1.
         11    1    3    3    0    0  0.52689833010E+01 -0.74064278929E+01  0.22881328656E+01  0.93729883938E+01  0.51100000000E-03 0. -1.
        -11    1    3    3    0    0  0.30554784289E+02 -0.50072014112E+01  0.20802383008E+02  0.37301555570E+02  0.51100000000E-03 0.  1.
         12    1    3    3    0    0 -0.35091939282E+02  0.11621366894E+02 -0.22611178753E+02  0.43333194847E+02  0.00000000000E+00 0. -1.
</event>
<event>
 7    1  0.2148778E-015  0.9000777E+02  0.7816164E-02  0.1186339E+00
        -11   -1    0    0    0    0  0.00000000000E+00  0.00000000000E+00  0.45593999997E+02  0.45594000000E+02  0.51100000000E-03 0.  1.
         11   -1    0    0    0    0 -0.00000000000E+00 -0.00000000000E+00 -0.45593999997E+02  0.45594000000E+02  0.51100000000E-03 0. -1.
    9900012    2    1    2    0    0  0.38907366330E+00  0.10674267694E+01 -0.31964107033E+00  0.90007767549E+02  0.90000029281E+02 0.  0.
         12    1    1    2    0    0 -0.38907366330E+00 -0.10674267694E+01  0.31964107033E+00  0.11802324505E+01  0.00000000000E+00 0. -1.
         11    1    3    3    0    0 -0.52850949663E+01 -0.26717315862E+01  0.10613591359E+02  0.12153958214E+02  0.51100000000E-03 0. -1.
        -11    1    3    3    0    0 -0.97947957074E+01  0.30629485953E+02  0.16765397100E+02  0.36265437718E+02  0.51100000000E-03 0.  1.
         12    1    3    3    0    0  0.15468964337E+02 -0.26890327598E+02 -0.27698629529E+02  0.41588371617E+02  0.00000000000E+00 0. -1.
</event>
<event>
 7    1  0.2148778E-015  0.9000776E+02  0.7816164E-02  0.1186339E+00
        -11   -1    0    0    0    0  0.00000000000E+00  0.00000000000E+00  0.45593999997E+02  0.45594000000E+02  0.51100000000E-03 0.  1.
         11   -1    0    0    0    0 -0.00000000000E+00 -0.00000000000E+00 -0.45593999997E+02  0.45594000000E+02  0.51100000000E-03 0. -1.
    9900012    2    1    2    0    0  0.11331294757E+01 -0.30460731024E+00  0.12731725669E+00  0.90007755235E+02  0.90000016804E+02 0.  0.
         12    1    1    2    0    0 -0.11331294757E+01  0.30460731024E+00 -0.12731725669E+00  0.11802447653E+01  0.00000000000E+00 0. -1.
         11    1    3    3    0    0  0.28517949698E+02 -0.26424197311E+02  0.52737859173E+01  0.39234225832E+02  0.51100000000E-03 0. -1.
        -11    1    3    3    0    0  0.44872770208E+01  0.52574507655E+01  0.79107356852E+01  0.10505055114E+02  0.51100000000E-03 0.  1.
        -12    1    3    3    0    0 -0.31872097243E+02  0.20862139235E+02 -0.13057204346E+02  0.40268474288E+02  0.00000000000E+00 0.  1.
</event>
<event>
 7    1  0.2617021E-015  0.9000773E+02  0.7816164E-02  0.1186339E+00
        -11   -1    0    0    0    0  0.00000000000E+00  0.00000000000E+00  0.45593999997E+02  0.45594000000E+02  0.51100000000E-03 0. -1.
         11   -1    0    0    0    0 -0.00000000000E+00 -0.00000000000E+00 -0.45593999997E+02  0.45594000000E+02  0.51100000000E-03 0.  1.
    9900012    2    1    2    0    0  0.47506484890E+00 -0.35891106015E+00 -0.10190872363E+01  0.90007727762E+02  0.89999988969E+02 0.  0.
         12    1    1    2    0    0 -0.47506484890E+00  0.35891106015E+00  0.10190872363E+01  0.11802722376E+01  0.00000000000E+00 0. -1.
         11    1    3    3    0    0  0.48387996026E+01  0.71539365886E+01  0.22556485351E+01  0.89264069414E+01  0.51100000000E-03 0. -1.
        -11    1    3    3    0    0  0.34835081685E+01 -0.27489203874E+02 -0.33837636946E+02  0.43735304196E+02  0.51100000000E-03 0.  1.
         12    1    3    3    0    0 -0.78472429222E+01  0.19976356225E+02  0.30562901175E+02  0.37346016625E+02  0.00000000000E+00 0. -1.
</event>
<event>
 7    1  0.2148778E-015  0.9000777E+02  0.7816164E-02  0.1186339E+00
        -11   -1    0    0    0    0  0.00000000000E+00  0.00000000000E+00  0.45593999997E+02  0.45594000000E+02  0.51100000000E-03 0. -1.
         11   -1    0    0    0    0 -0.00000000000E+00 -0.00000000000E+00 -0.45593999997E+02  0.45594000000E+02  0.51100000000E-03 0.  1.
    9900012    2    1    2    0    0  0.70693742895E+00  0.28430307825E+00 -0.90130321923E+00  0.90007772792E+02  0.90000034593E+02 0.  0.
         12    1    1    2    0    0 -0.70693742895E+00 -0.28430307825E+00  0.90130321923E+00  0.11802272077E+01  0.00000000000E+00 0. -1.
         11    1    3    3    0    0 -0.33461462529E+01 -0.12368421740E+02  0.38452271060E+01  0.13377605273E+02  0.51100000000E-03 0. -1.
        -11    1    3    3    0    0 -0.12045516772E+02 -0.27278064229E+02  0.94748690895E+01  0.31288342987E+02  0.51100000000E-03 0.  1.
         12    1    3    3    0    0  0.16098600454E+02  0.39930789047E+02 -0.14221399415E+02  0.45341824531E+02  0.00000000000E+00 0. -1.
</event>
<event>
 7    1  0.2148778E-015  0.9000771E+02  0.7816164E-02  0.1186339E+00
        -11   -1    0    0    0    0  0.00000000000E+00  0.00000000000E+00  0.45593999997E+02  0.45594000000E+02  0.51100000000E-03 0.  1.
         11   -1    0    0    0    0 -0.00000000000E+00 -0.00000000000E+00 -0.45593999997E+02  0.45594000000E+02  0.51100000000E-03 0. -1.
    9900012    2    1    2    0    0  0.87189601604E+00 -0.50371644919E+00  0.61574579065E+00  0.90007713678E+02  0.89999974698E+02 0.  0.
         12    1    1    2    0    0 -0.87189601604E+00  0.50371644919E+00 -0.61574579065E+00  0.11802863223E+01  0.00000000000E+00 0. -1.
         11    1    3    3    0    0 -0.96139249029E+01 -0.24199647739E+01 -0.57781199072E-01  0.99139861041E+01  0.51100000000E-03 0. -1.
        -11    1    3    3    0    0 -0.28025813152E+02  0.67645621709E+01 -0.20971263464E+02  0.35651078465E+02  0.51100000000E-03 0.  1.
         12    1    3    3    0    0  0.38511634071E+02 -0.48483138462E+01  0.21644790453E+02  0.44442649108E+02  0.00000000000E+00 0. -1.
</event>
<event>
 7    1  0.2148778E-015  0.9000768E+02  0.7816164E-02  0.1186339E+00
        -11   -1    0    0    0    0  0.00000000000E+00  0.00000000000E+00  0.45593999997E+02  0.45594000000E+02  0.51100000000E-03 0.  1.
         11   -1    0    0    0    0 -0.00000000000E+00 -0.00000000000E+00 -0.45593999997E+02  0.45594000000E+02  0.51100000000E-03 0. -1.
    9900012    2    1    2    0    0  0.20436249072E-02  0.24109185044E+00  0.11554322852E+01  0.90007680881E+02  0.89999941469E+02 0.  0.
         12    1    1    2    0    0 -0.20436249072E-02 -0.24109185044E+00 -0.11554322852E+01  0.11803191189E+01  0.00000000000E+00 0. -1.
         11    1    3    3    0    0 -0.22029955787E+02  0.67903819726E+01 -0.29249372530E+02  0.37241831762E+02  0.51100000000E-03 0. -1.
        -11    1    3    3    0    0  0.40474601817E+01  0.14370713566E+02  0.65846078689E+01  0.16317365087E+02  0.51100000000E-03 0.  1.
        -12    1    3    3    0    0  0.17984539231E+02 -0.20920003689E+02  0.23820196947E+02  0.36448484032E+02  0.00000000000E+00 0.  1.
</event>
<event>
 7    1  0.2148778E-015  0.9000775E+02  0.7816164E-02  0.1186339E+00
        -11   -1    0    0    0    0  0.00000000000E+00  0.00000000000E+00  0.45593999997E+02  0.45594000000E+02  0.51100000000E-03 0.  1.
         11   -1    0    0    0    0 -0.00000000000E+00 -0.00000000000E+00 -0.45593999997E+02  0.45594000000E+02  0.51100000000E-03 0. -1.
    9900012    2    1    2    0    0  0.79039946375E+00  0.13875432388E+00  0.86544835385E+00  0.90007752175E+02  0.90000013704E+02 0.  0.
         12    1    1    2    0    0 -0.79039946375E+00 -0.13875432388E+00 -0.86544835385E+00  0.11802478248E+01  0.00000000000E+00 0. -1.
         11    1    3    3    0    0 -0.92652788953E+01  0.30618692683E+02 -0.17394687873E+02  0.36413251723E+02  0.51100000000E-03 0. -1.
        -11    1    3    3    0    0  0.67533842244E+01  0.63823886073E+01 -0.43125072885E+01  0.10244061801E+02  0.51100000000E-03 0.  1.
        -12    1    3    3    0    0  0.33022941346E+01 -0.36862326966E+02  0.22572643516E+02  0.43350438650E+02  0.00000000000E+00 0.  1.
</event>
<event>
 7    1  0.2148778E-015  0.9000778E+02  0.7816164E-02  0.1186339E+00
        -11   -1    0    0    0    0  0.00000000000E+00  0.00000000000E+00  0.45593999997E+02  0.45594000000E+02  0.51100000000E-03 0. -1.
         11   -1    0    0    0    0 -0.00000000000E+00 -0.00000000000E+00 -0.45593999997E+02  0.45594000000E+02  0.51100000000E-03 0.  1.
    9900012    2    1    2    0    0 -0.38688141767E+00  0.10998561374E+01 -0.18320882778E+00  0.90007777043E+02  0.90000038900E+02 0.  0.
         12    1    1    2    0    0  0.38688141767E+00 -0.10998561374E+01  0.18320882778E+00  0.11802229573E+01  0.00000000000E+00 0. -1.
         11    1    3    3    0    0 -0.25864381742E+02  0.25108762223E+02  0.12883219276E+02  0.38280458755E+02  0.51100000000E-03 0. -1.
        -11    1    3    3    0    0  0.11398045846E+02  0.63859303697E+01  0.46069577987E+01  0.13853505557E+02  0.51100000000E-03 0.  1.
        -12    1    3    3    0    0  0.14079454479E+02 -0.30394836455E+02 -0.17673385903E+02  0.37873812731E+02  0.00000000000E+00 0.  1.
</event>
<event>
 7    1  0.2148778E-015  0.9000775E+02  0.7816164E-02  0.1186339E+00
        -11   -1    0    0    0    0  0.00000000000E+00  0.00000000000E+00  0.45593999997E+02  0.45594000000E+02  0.51100000000E-03 0.  1.
         11   -1    0    0    0    0 -0.00000000000E+00 -0.00000000000E+00 -0.45593999997E+02  0.45594000000E+02  0.51100000000E-03 0. -1.
    9900012    2    1    2    0    0  0.82030717138E+00 -0.14653354576E+00  0.83583357359E+00  0.90007748460E+02  0.90000009939E+02 0.  0.
         12    1    1    2    0    0 -0.82030717138E+00  0.14653354576E+00 -0.83583357359E+00  0.11802515402E+01  0.00000000000E+00 0. -1.
         11    1    3    3    0    0  0.52170826083E+01 -0.32114556225E+02  0.17272809810E+02  0.36836295029E+02  0.51100000000E-03 0. -1.
        -11    1    3    3    0    0 -0.16209253237E+01 -0.90733085211E+01 -0.11534340536E+01  0.92888501335E+01  0.51100000000E-03 0.  1.
        -12    1    3    3    0    0 -0.27758501132E+01  0.41041331200E+02 -0.15283542182E+02  0.43882603298E+02  0.00000000000E+00 0.  1.
</event>
<event>
 7    1  0.2148778E-015  0.9000775E+02  0.7816164E-02  0.1186339E+00
        -11   -1    0    0    0    0  0.00000000000E+00  0.00000000000E+00  0.45593999997E+02  0.45594000000E+02  0.51100000000E-03 0. -1.
         11   -1    0    0    0    0 -0.00000000000E+00 -0.00000000000E+00 -0.45593999997E+02  0.45594000000E+02  0.51100000000E-03 0.  1.
    9900012    2    1    2    0    0  0.99530875592E+00 -0.23387653081E+00 -0.58961188349E+00  0.90007754295E+02  0.90000015852E+02 0.  0.
         12    1    1    2    0    0 -0.99530875592E+00  0.23387653081E+00  0.58961188349E+00  0.11802457051E+01  0.00000000000E+00 0. -1.
         11    1    3    3    0    0 -0.17913238574E+02 -0.28196385210E+02  0.98039945509E+01  0.34814344235E+02  0.51100000000E-03 0. -1.
        -11    1    3    3    0    0 -0.79584743187E+01 -0.61889166337E+01  0.13750120751E+01  0.10175001771E+02  0.51100000000E-03 0.  1.
        -12    1    3    3    0    0  0.26867021649E+02  0.34151425313E+02 -0.11768618509E+02  0.45018408288E+02  0.00000000000E+00 0.  1.
</event>
<event>
 7    1  0.2148778E-015  0.9000744E+02  0.7816164E-02  0.1186340E+00
        -11   -1    0    0    0    0  0.00000000000E+00  0.00000000000E+00  0.45593999997E+02  0.45594000000E+02  0.51100000000E-03 0.  1.
         11   -1    0    0    0    0 -0.00000000000E+00 -0.00000000000E+00 -0.45593999997E+02  0.45594000000E+02  0.51100000000E-03 0. -1.
    9900012    2    1    2    0    0  0.10432805748E+01 -0.37358286912E+00 -0.40710202463E+00  0.90007436331E+02  0.89999693690E+02 0.  0.
         12    1    1    2    0    0 -0.10432805748E+01  0.37358286912E+00  0.40710202463E+00  0.11805636689E+01  0.00000000000E+00 0. -1.
         11    1    3    3    0    0  0.29117463524E+02 -0.24800541036E+02 -0.81234875133E+01  0.39100953536E+02  0.51100000000E-03 0. -1.
        -11    1    3    3    0    0 -0.10181146080E+01 -0.12927715670E+01 -0.96111056512E+01  0.97509572750E+01  0.51100000000E-03 0.  1.
        -12    1    3    3    0    0 -0.27056068342E+02  0.25719729733E+02  0.17327491140E+02  0.41155525520E+02  0.00000000000E+00 0.  1.
</event>
<event>
 7    1  0.2148778E-015  0.9000770E+02  0.7816164E-02  0.1186339E+00
        -11   -1    0    0    0    0  0.00000000000E+00  0.00000000000E+00  0.45593999997E+02  0.45594000000E+02  0.51100000000E-03 0.  1.
         11   -1    0    0    0    0 -0.00000000000E+00 -0.00000000000E+00 -0.45593999997E+02  0.45594000000E+02  0.51100000000E-03 0. -1.
    9900012    2    1    2    0    0 -0.65043414059E+00 -0.46757232984E+00  0.86685088974E+00  0.90007695412E+02  0.89999956192E+02 0.  0.
         12    1    1    2    0    0  0.65043414059E+00  0.46757232984E+00 -0.86685088974E+00  0.11803045878E+01  0.00000000000E+00 0. -1.
         11    1    3    3    0    0  0.20084881907E+01  0.51544700985E+01 -0.69280623069E+01  0.88656998821E+01  0.51100000000E-03 0. -1.
        -11    1    3    3    0    0  0.35767320841E+02  0.27459156371E+00 -0.11724313713E+02  0.37640884327E+02  0.51100000000E-03 0.  1.
         12    1    3    3    0    0 -0.38426243172E+02 -0.58966339921E+01  0.19519226910E+02  0.43501111203E+02  0.00000000000E+00 0. -1.
</event>
<event>
 7    1  0.2148778E-015  0.9000717E+02  0.7816164E-02  0.1186340E+00
        -11   -1    0    0    0    0  0.00000000000E+00  0.00000000000E+00  0.45593999997E+02  0.45594000000E+02  0.51100000000E-03 0.  1.
         11   -1    0    0    0    0 -0.00000000000E+00 -0.00000000000E+00 -0.45593999997E+02  0.45594000000E+02  0.51100000000E-03 0. -1.
    9900012    2    1    2    0    0  0.62007818712E+00  0.53151710088E-01  0.10035129417E+01  0.90007169662E+02  0.89999423500E+02 0.  0.
         12    1    1    2    0    0 -0.62007818712E+00 -0.53151710088E-01 -0.10035129417E+01  0.11808303378E+01  0.00000000000E+00 0. -1.
         11    1    3    3    0    0  0.22921227099E+02 -0.17423681623E+02  0.17216238335E+02  0.33546478141E+02  0.51100000000E-03 0. -1.
        -11    1    3    3    0    0  0.10444746309E+02 -0.29551622195E+01  0.55069902735E+01  0.12171797375E+02  0.51100000000E-03 0.  1.
        -12    1    3    3    0    0 -0.32745895220E+02  0.20431995552E+02 -0.21719715667E+02  0.44288894146E+02  0.00000000000E+00 0.  1.
</event>
<event>
 7    1  0.2148778E-015  0.9000782E+02  0.7816164E-02  0.1186339E+00
        -11   -1    0    0    0    0  0.00000000000E+00  0.00000000000E+00  0.45593999997E+02  0.45594000000E+02  0.51100000000E-03 0.  1.
         11   -1    0    0    0    0 -0.00000000000E+00 -0.00000000000E+00 -0.45593999997E+02  0.45594000000E+02  0.51100000000E-03 0. -1.
    9900012    2    1    2    0    0  0.11251898312E+01  0.34720973032E+00  0.78921579268E-01  0.90007815536E+02  0.90000077901E+02 0.  0.
         12    1    1    2    0    0 -0.11251898312E+01 -0.34720973032E+00 -0.78921579268E-01  0.11801844639E+01  0.00000000000E+00 0. -1.
         11    1    3    3    0    0 -0.18567117563E+01 -0.78875819413E+01  0.52076754918E+01  0.96323004374E+01  0.51100000000E-03 0. -1.
        -11    1    3    3    0    0 -0.25525856677E+01  0.33492204677E+02  0.24107975452E+02  0.41345349779E+02  0.51100000000E-03 0.  1.
         12    1    3    3    0    0  0.55344872551E+01 -0.25257413006E+02 -0.29236729365E+02  0.39030165319E+02  0.00000000000E+00 0. -1.
</event>
<event>
 7    1  0.2148778E-015  0.9000773E+02  0.7816164E-02  0.1186339E+00
        -11   -1    0    0    0    0  0.00000000000E+00  0.00000000000E+00  0.45593999997E+02  0.45594000000E+02  0.51100000000E-03 0. -1.
         11   -1    0    0    0    0 -0.00000000000E+00 -0.00000000000E+00 -0.45593999997E+02  0.45594000000E+02  0.51100000000E-03 0.  1.
    9900012    2    1    2    0    0  0.27762167442E+00 -0.11471362619E+01  0.56966997786E-02  0.90007733992E+02  0.89999995281E+02 0.  0.
         12    1    1    2    0    0 -0.27762167442E+00  0.11471362619E+01 -0.56966997787E-02  0.11802660081E+01  0.00000000000E+00 0. -1.
         11    1    3    3    0    0 -0.20181010941E+01 -0.98343752920E+01  0.37083825925E+01  0.10702325501E+02  0.51100000000E-03 0. -1.
        -11    1    3    3    0    0 -0.37388810775E+02  0.33713582299E+01  0.62271484276E+01  0.38053470345E+02  0.51100000000E-03 0.  1.
         12    1    3    3    0    0  0.39684533543E+02  0.53158808001E+01 -0.99298343203E+01  0.41251938147E+02  0.00000000000E+00 0. -1.
</event>
<event>
 7    1  0.2148778E-015  0.9000774E+02  0.7816164E-02  0.1186339E+00
        -11   -1    0    0    0    0  0.00000000000E+00  0.00000000000E+00  0.45593999997E+02  0.45594000000E+02  0.51100000000E-03 0.  1.
         11   -1    0    0    0    0 -0.00000000000E+00 -0.00000000000E+00 -0.45593999997E+02  0.45594000000E+02  0.51100000000E-03 0. -1.
    9900012    2    1    2    0    0 -0.53628322982E+00  0.86749206680E+00  0.59402069148E+00  0.90007744616E+02  0.90000006045E+02 0.  0.
         12    1    1    2    0    0  0.53628322982E+00 -0.86749206680E+00 -0.59402069148E+00  0.11802553836E+01  0.00000000000E+00 0. -1.
         11    1    3    3    0    0 -0.30804669078E+02  0.46880162689E+01 -0.18009727014E+02  0.35989656860E+02  0.51100000000E-03 0. -1.
        -11    1    3    3    0    0 -0.45513741674E+01  0.73414598198E+01 -0.54843000061E+01  0.10231792898E+02  0.51100000000E-03 0.  1.
        -12    1    3    3    0    0  0.34819760015E+02 -0.11161984022E+02  0.24088047711E+02  0.43786294858E+02  0.00000000000E+00 0.  1.
</event>
<event>
 7    1  0.2148778E-015  0.9000779E+02  0.7816164E-02  0.1186339E+00
        -11   -1    0    0    0    0  0.00000000000E+00  0.00000000000E+00  0.45593999997E+02  0.45594000000E+02  0.51100000000E-03 0. -1.
         11   -1    0    0    0    0 -0.00000000000E+00 -0.00000000000E+00 -0.45593999997E+02  0.45594000000E+02  0.51100000000E-03 0.  1.
    9900012    2    1    2    0    0 -0.40797492840E-01 -0.39002434013E+00 -0.11131495315E+01  0.90007794382E+02  0.90000056468E+02 0.  0.
         12    1    1    2    0    0  0.40797492840E-01  0.39002434013E+00  0.11131495315E+01  0.11802056180E+01  0.00000000000E+00 0. -1.
         11    1    3    3    0    0 -0.84779154256E+01  0.23219210432E+01 -0.29348734580E+00  0.87950271391E+01  0.51100000000E-03 0. -1.
        -11    1    3    3    0    0  0.14619267699E+02  0.37642270362E+02 -0.11261496988E+00  0.40381631820E+02  0.51100000000E-03 0.  1.
         12    1    3    3    0    0 -0.61821497666E+01 -0.40354215745E+02 -0.70704721578E+00  0.40831135423E+02  0.00000000000E+00 0. -1.
</event>
<event>
 7    1  0.2148778E-015  0.9000775E+02  0.7816164E-02  0.1186339E+00
        -11   -1    0    0    0    0  0.00000000000E+00  0.00000000000E+00  0.45593999997E+02  0.45594000000E+02  0.51100000000E-03 0. -1.
         11   -1    0    0    0    0 -0.00000000000E+00 -0.00000000000E+00 -0.45593999997E+02  0.45594000000E+02  0.51100000000E-03 0.  1.
    9900012    2    1    2    0    0  0.33178757969E+00 -0.97633059039E+00 -0.57418732637E+00  0.90007747694E+02  0.90000009164E+02 0.  0.
         12    1    1    2    0    0 -0.33178757969E+00  0.97633059039E+00  0.57418732637E+00  0.11802523059E+01  0.00000000000E+00 0. -1.
         11    1    3    3    0    0 -0.17494576419E+01  0.19781051682E+01 -0.88462713122E+01  0.92320105333E+01  0.51100000000E-03 0. -1.
        -11    1    3    3    0    0  0.10877167325E+01  0.16110171179E+02 -0.32203047805E+02  0.36024394947E+02  0.51100000000E-03 0.  1.
         12    1    3    3    0    0  0.99352848906E+00 -0.19064606937E+02  0.40475131790E+02  0.44751342214E+02  0.00000000000E+00 0. -1.
</event>
<event>
 7    1  0.2148778E-015  0.9000775E+02  0.7816164E-02  0.1186339E+00
        -11   -1    0    0    0    0  0.00000000000E+00  0.00000000000E+00  0.45593999997E+02  0.45594000000E+02  0.51100000000E-03 0.  1.
         11   -1    0    0    0    0 -0.00000000000E+00 -0.00000000000E+00 -0.45593999997E+02  0.45594000000E+02  0.51100000000E-03 0. -1.
    9900012    2    1    2    0    0  0.10219050508E+01 -0.58992991341E+00 -0.26095283182E-01  0.90007750789E+02  0.90000012300E+02 0.  0.
         12    1    1    2    0    0 -0.10219050508E+01  0.58992991341E+00  0.26095283182E-01  0.11802492107E+01  0.00000000000E+00 0. -1.
         11    1    3    3    0    0  0.28480148185E+02  0.19918363748E+02 -0.13458975691E+02  0.37269345070E+02  0.51100000000E-03 0. -1.
        -11    1    3    3    0    0 -0.12982452979E+01  0.96274154724E+01  0.77549445631E+01  0.12430274935E+02  0.51100000000E-03 0.  1.
        -12    1    3    3    0    0 -0.26159997836E+02 -0.30135709134E+02  0.56779358444E+01  0.40308130784E+02  0.00000000000E+00 0.  1.
</event>
<event>
 7    1  0.2148778E-015  0.9000773E+02  0.7816164E-02  0.1186339E+00
        -11   -1    0    0    0    0  0.00000000000E+00  0.00000000000E+00  0.45593999997E+02  0.45594000000E+02  0.51100000000E-03 0. -1.
         11   -1    0    0    0    0 -0.00000000000E+00 -0.00000000000E+00 -0.45593999997E+02  0.45594000000E+02  0.51100000000E-03 0.  1.
    9900012    2    1    2    0    0 -0.10849841269E+01 -0.63379501396E-01 -0.46025438419E+00  0.90007728161E+02  0.89999989372E+02 0.  0.
         12    1    1    2    0    0  0.10849841269E+01  0.63379501396E-01  0.46025438419E+00  0.11802718394E+01  0.00000000000E+00 0. -1.
         11    1    3    3    0    0  0.60203908131E+00  0.46968581111E-01  0.10590070208E+02  0.10607273182E+02  0.51100000000E-03 0. -1.
        -11    1    3    3    0    0 -0.20454243243E+02  0.21564383391E+02 -0.32164253837E+02  0.43794268150E+02  0.51100000000E-03 0.  1.
         12    1    3    3    0    0  0.18767220035E+02 -0.21674731473E+02  0.21113929245E+02  0.35606186828E+02  0.00000000000E+00 0. -1.
</event>
<event>
 7    1  0.2148778E-015  0.9000775E+02  0.7816164E-02  0.1186339E+00
        -11   -1    0    0    0    0  0.00000000000E+00  0.00000000000E+00  0.45593999997E+02  0.45594000000E+02  0.51100000000E-03 0.  1.
         11   -1    0    0    0    0 -0.00000000000E+00 -0.00000000000E+00 -0.45593999997E+02  0.45594000000E+02  0.51100000000E-03 0. -1.
    9900012    2    1    2    0    0  0.50408391310E+00  0.72842380140E+00  0.77993380393E+00  0.90007746398E+02  0.90000007851E+02 0.  0.
         12    1    1    2    0    0 -0.50408391310E+00 -0.72842380140E+00 -0.77993380393E+00  0.11802536017E+01  0.00000000000E+00 0. -1.
         11    1    3    3    0    0  0.13603453988E+02 -0.63030373188E+01 -0.57335849521E+01  0.16051673947E+02  0.51100000000E-03 0. -1.
        -11    1    3    3    0    0  0.18547491068E+02  0.12309720818E+02  0.27678758565E+02  0.35519745600E+02  0.51100000000E-03 0.  1.
         12    1    3    3    0    0 -0.31646861143E+02 -0.52782596976E+01 -0.21165239809E+02  0.38436326851E+02  0.00000000000E+00 0. -1.
</event>
<event>
 7    1  0.4231407E-015  0.9000742E+02  0.7816164E-02  0.1186340E+00
        -11   -1    0    0    0    0  0.00000000000E+00  0.00000000000E+00  0.45593999997E+02  0.45594000000E+02  0.51100000000E-03 0. -1.
         11   -1    0    0    0    0 -0.00000000000E+00 -0.00000000000E+00 -0.45593999997E+02  0.45594000000E+02  0.51100000000E-03 0.  1.
    9900012    2    1    2    0    0  0.81539981411E+00  0.23838102816E+00 -0.81979650323E+00  0.90007420194E+02  0.89999677340E+02 0.  0.
         12    1    1    2    0    0 -0.81539981411E+00 -0.23838102816E+00  0.81979650323E+00  0.11805798059E+01  0.00000000000E+00 0. -1.
         11    1    3    3    0    0  0.63180848196E+01  0.54348535385E+01  0.48280001468E+01  0.96314803873E+01  0.51100000000E-03 0. -1.
        -11    1    3    3    0    0 -0.53904211775E+01  0.28716496557E+02 -0.27424992969E+02  0.40072734554E+02  0.51100000000E-03 0.  1.
         12    1    3    3    0    0 -0.11226382804E+00 -0.33912969068E+02  0.21777196319E+02  0.40303205253E+02  0.00000000000E+00 0. -1.
</event>
<event>
 7    1  0.2148778E-015  0.9000779E+02  0.7816164E-02  0.1186339E+00
        -11   -1    0    0    0    0  0.00000000000E+00  0.00000000000E+00  0.45593999997E+02  0.45594000000E+02  0.51100000000E-03 0.  1.
         11   -1    0    0    0    0 -0.00000000000E+00 -0.00000000000E+00 -0.45593999997E+02  0.45594000000E+02  0.51100000000E-03 0. -1.
    9900012    2    1    2    0    0 -0.11655350495E+01  0.79309317481E-01  0.16773285567E+00  0.90007789752E+02  0.90000051776E+02 0.  0.
         12    1    1    2    0    0  0.11655350495E+01 -0.79309317481E-01 -0.16773285567E+00  0.11802102484E+01  0.00000000000E+00 0. -1.
         11    1    3    3    0    0  0.37735340571E+02  0.49064074878E+01 -0.17434935902E+02  0.41856967791E+02  0.51100000000E-03 0. -1.
        -11    1    3    3    0    0 -0.37937567355E+01 -0.40594511670E+01 -0.40685257585E+01  0.68865547304E+01  0.51100000000E-03 0.  1.
        -12    1    3    3    0    0 -0.35107118885E+02 -0.76764700339E+00  0.21671194516E+02  0.41264267231E+02  0.00000000000E+00 0.  1.
</event>
<event>
 7    1  0.2148778E-015  0.9000728E+02  0.7816164E-02  0.1186340E+00
        -11   -1    0    0    0    0  0.00000000000E+00  0.00000000000E+00  0.45593999997E+02  0.45594000000E+02  0.51100000000E-03 0.  1.
         11   -1    0    0    0    0 -0.00000000000E+00 -0.00000000000E+00 -0.45593999997E+02  0.45594000000E+02  0.51100000000E-03 0. -1.
    9900012    2    1    2    0    0  0.88651268428E+00 -0.11317531749E+00  0.77161449339E+00  0.90007278899E+02  0.89999534179E+02 0.  0.
         12    1    1    2    0    0 -0.88651268428E+00  0.11317531749E+00 -0.77161449339E+00  0.11807211010E+01  0.00000000000E+00 0. -1.
         11    1    3    3    0    0 -0.80134757841E+01  0.36711527312E+01 -0.22744265313E+01  0.91030858958E+01  0.51100000000E-03 0. -1.
        -11    1    3    3    0    0 -0.24734737994E+02  0.72395177561E+01  0.27649200666E+02  0.37798097554E+02  0.51100000000E-03 0.  1.
         12    1    3    3    0    0  0.33634726462E+02 -0.11023845805E+02 -0.24603159642E+02  0.43106095449E+02  0.00000000000E+00 0. -1.
</event>
<event>
 7    1  0.2148778E-015  0.9000682E+02  0.7816164E-02  0.1186341E+00
        -11   -1    0    0    0    0  0.00000000000E+00  0.00000000000E+00  0.45593999997E+02  0.45594000000E+02  0.51100000000E-03 0.  1.
         11   -1    0    0    0    0 -0.00000000000E+00 -0.00000000000E+00 -0.45593999997E+02  0.45594000000E+02  0.51100000000E-03 0. -1.
    9900012    2    1    2    0    0 -0.11239135179E+01 -0.36323938721E+00 -0.82223040624E-02  0.90006817519E+02  0.89999066705E+02 0.  0.
         12    1    1    2    0    0  0.11239135179E+01  0.36323938721E+00  0.82223040624E-02  0.11811824814E+01  0.00000000000E+00 0. -1.
         11    1    3    3    0    0 -0.70418751051E+01 -0.42186788005E+01 -0.58195222428E+01  0.10062410010E+02  0.51100000000E-03 0. -1.
        -11    1    3    3    0    0  0.27631059768E+02 -0.29175345290E+02  0.20010002798E+01  0.40232825392E+02  0.51100000000E-03 0.  1.
         12    1    3    3    0    0 -0.21713098180E+02  0.33030784703E+02  0.38102996590E+01  0.39711582116E+02  0.00000000000E+00 0. -1.
</event>
<event>
 7    1  0.2148778E-015  0.9000814E+02  0.7816164E-02  0.1186338E+00
        -11   -1    0    0    0    0  0.00000000000E+00  0.00000000000E+00  0.45593999997E+02  0.45594000000E+02  0.51100000000E-03 0.  1.
         11   -1    0    0    0    0 -0.00000000000E+00 -0.00000000000E+00 -0.45593999997E+02  0.45594000000E+02  0.51100000000E-03 0. -1.
    9900012    2    1    2    0    0  0.11515564552E+01 -0.27634687092E-01  0.25536765184E+00  0.90008144677E+02  0.90000411386E+02 0.  0.
         12    1    1    2    0    0 -0.11515564552E+01  0.27634687092E-01 -0.25536765184E+00  0.11798553230E+01  0.00000000000E+00 0. -1.
         11    1    3    3    0    0 -0.27365959514E+01 -0.59557139882E+01  0.36211829226E+01  0.74881541471E+01  0.51100000000E-03 0. -1.
        -11    1    3    3    0    0 -0.23895979715E+02 -0.19803511231E+02  0.21015117272E+02  0.37481089336E+02  0.51100000000E-03 0.  1.
         12    1    3    3    0    0  0.27784132121E+02  0.25731590532E+02 -0.24380932543E+02  0.45038901194E+02  0.00000000000E+00 0. -1.
</event>
<event>
 7    1  0.2148778E-015  0.9000782E+02  0.7816164E-02  0.1186339E+00
        -11   -1    0    0    0    0  0.00000000000E+00  0.00000000000E+00  0.45593999997E+02  0.45594000000E+02  0.51100000000E-03 0. -1.
         11   -1    0    0    0    0 -0.00000000000E+00 -0.00000000000E+00 -0.45593999997E+02  0.45594000000E+02  0.51100000000E-03 0.  1.
    9900012    2    1    2    0    0  0.23105033848E+00 -0.10613894965E+01 -0.46140080299E+00  0.90007820936E+02  0.90000083372E+02 0.  0.
         12    1    1    2    0    0 -0.23105033848E+00  0.10613894965E+01  0.46140080299E+00  0.11801790640E+01  0.00000000000E+00 0. -1.
         11    1    3    3    0    0  0.13845919204E+02  0.93587637691E+01 -0.24417252277E+02  0.29588817938E+02  0.51100000000E-03 0. -1.
        -11    1    3    3    0    0  0.11912761476E+02 -0.13071124634E+02 -0.80187380120E+01  0.19418247726E+02  0.51100000000E-03 0.  1.
         12    1    3    3    0    0 -0.25527630342E+02  0.26509713690E+01  0.31974589486E+02  0.41000755272E+02  0.00000000000E+00 0. -1.
</event>
<event>
 7    1  0.2148778E-015  0.9000765E+02  0.7816164E-02  0.1186339E+00
        -11   -1    0    0    0    0  0.00000000000E+00  0.00000000000E+00  0.45593999997E+02  0.45594000000E+02  0.51100000000E-03 0.  1.
         11   -1    0    0    0    0 -0.00000000000E+00 -0.00000000000E+00 -0.45593999997E+02  0.45594000000E+02  0.51100000000E-03 0. -1.
    9900012    2    1    2    0    0 -0.72459316096E+00 -0.86279586738E+00 -0.35180276917E+00  0.90007653802E+02  0.89999914033E+02 0.  0.
         12    1    1    2    0    0  0.72459316096E+00  0.86279586738E+00  0.35180276917E+00  0.11803461976E+01  0.00000000000E+00 0. -1.
         11    1    3    3    0    0 -0.21496863401E+02 -0.83996219847E+01 -0.22411620549E+02  0.32170631350E+02  0.51100000000E-03 0. -1.
        -11    1    3    3    0    0 -0.62011980216E+01 -0.46376867012E+00 -0.12086757322E+02  0.13592631868E+02  0.51100000000E-03 0.  1.
        -12    1    3    3    0    0  0.26973468262E+02  0.80005947874E+01  0.34146575102E+02  0.44244390584E+02  0.00000000000E+00 0.  1.
</event>
<event>
 7    1  0.2148778E-015  0.9000776E+02  0.7816164E-02  0.1186339E+00
        -11   -1    0    0    0    0  0.00000000000E+00  0.00000000000E+00  0.45593999997E+02  0.45594000000E+02  0.51100000000E-03 0.  1.
         11   -1    0    0    0    0 -0.00000000000E+00 -0.00000000000E+00 -0.45593999997E+02  0.45594000000E+02  0.51100000000E-03 0. -1.
    9900012    2    1    2    0    0  0.30116211324E+00 -0.57095097089E+00  0.98806974916E+00  0.90007760423E+02  0.90000022061E+02 0.  0.
         12    1    1    2    0    0 -0.30116211324E+00  0.57095097089E+00 -0.98806974916E+00  0.11802395769E+01  0.00000000000E+00 0. -1.
         11    1    3    3    0    0 -0.24523673186E+01 -0.41050379528E+01 -0.87533087615E+01  0.99742597016E+01  0.51100000000E-03 0. -1.
        -11    1    3    3    0    0 -0.23983096944E+02 -0.25915442574E+02  0.17655307100E+02  0.39477955518E+02  0.51100000000E-03 0.  1.
         12    1    3    3    0    0  0.26736626376E+02  0.29449529556E+02 -0.79139285892E+01  0.40555545203E+02  0.00000000000E+00 0. -1.
</event>
<event>
 7    1  0.2148778E-015  0.9000775E+02  0.7816164E-02  0.1186339E+00
        -11   -1    0    0    0    0  0.00000000000E+00  0.00000000000E+00  0.45593999997E+02  0.45594000000E+02  0.51100000000E-03 0. -1.
         11   -1    0    0    0    0 -0.00000000000E+00 -0.00000000000E+00 -0.45593999997E+02  0.45594000000E+02  0.51100000000E-03 0.  1.
    9900012    2    1    2    0    0  0.36362140590E+00 -0.98961537474E+00 -0.53049406865E+00  0.90007752961E+02  0.90000014500E+02 0.  0.
         12    1    1    2    0    0 -0.36362140590E+00  0.98961537474E+00  0.53049406865E+00  0.11802470392E+01  0.00000000000E+00 0. -1.
         11    1    3    3    0    0 -0.25291644551E+02 -0.20112927797E+01 -0.28316985374E+02  0.38020576583E+02  0.51100000000E-03 0. -1.
        -11    1    3    3    0    0 -0.54942604664E+01 -0.55346928680E+01 -0.23575089645E+01  0.81472432144E+01  0.51100000000E-03 0.  1.
        -12    1    3    3    0    0  0.31149526423E+02  0.65563702729E+01  0.30144000270E+02  0.43839933164E+02  0.00000000000E+00 0.  1.
</event>
<event>
 7    1  0.2148778E-015  0.9000768E+02  0.7816164E-02  0.1186339E+00
        -11   -1    0    0    0    0  0.00000000000E+00  0.00000000000E+00  0.45593999997E+02  0.45594000000E+02  0.51100000000E-03 0.  1.
         11   -1    0    0    0    0 -0.00000000000E+00 -0.00000000000E+00 -0.45593999997E+02  0.45594000000E+02  0.51100000000E-03 0. -1.
    9900012    2    1    2    0    0  0.56502429078E+00  0.72772228587E+00  0.73777924852E+00  0.90007682079E+02  0.89999942683E+02 0.  0.
         12    1    1    2    0    0 -0.56502429078E+00 -0.72772228587E+00 -0.73777924852E+00  0.11803179208E+01  0.00000000000E+00 0. -1.
         11    1    3    3    0    0  0.52498676323E+00 -0.89239886382E+01 -0.83836400287E+01  0.12255554035E+02  0.51100000000E-03 0. -1.
        -11    1    3    3    0    0 -0.72562496828E+01 -0.32616818249E+02  0.99048232463E+01  0.34851334493E+02  0.51100000000E-03 0.  1.
         12    1    3    3    0    0  0.72962872104E+01  0.42268529173E+02 -0.78340396910E+00  0.42900793551E+02  0.00000000000E+00 0. -1.
</event>
<event>
 7    1  0.2148778E-015  0.9000772E+02  0.7816164E-02  0.1186339E+00
        -11   -1    0    0    0    0  0.00000000000E+00  0.00000000000E+00  0.45593999997E+02  0.45594000000E+02  0.51100000000E-03 0.  1.
         11   -1    0    0    0    0 -0.00000000000E+00 -0.00000000000E+00 -0.45593999997E+02  0.45594000000E+02  0.51100000000E-03 0. -1.
    9900012    2    1    2    0    0 -0.11238831118E+01 -0.22223803133E+00  0.28383706216E+00  0.90007717632E+02  0.89999978704E+02 0.  0.
         12    1    1    2    0    0  0.11238831118E+01  0.22223803133E+00 -0.28383706216E+00  0.11802823685E+01  0.00000000000E+00 0. -1.
         11    1    3    3    0    0 -0.19408835011E+00 -0.20425037121E+02 -0.30103220674E+02  0.36378890952E+02  0.51100000000E-03 0. -1.
        -11    1    3    3    0    0  0.53265685455E+01  0.32227819544E+01 -0.86174135165E+01  0.10631014626E+02  0.51100000000E-03 0.  1.
        -12    1    3    3    0    0 -0.62563633071E+01  0.16980017135E+02  0.39004471252E+02  0.42997812054E+02  0.00000000000E+00 0.  1.
</event>
<event>
 7    1  0.2148778E-015  0.9000776E+02  0.7816164E-02  0.1186339E+00
        -11   -1    0    0    0    0  0.00000000000E+00  0.00000000000E+00  0.45593999997E+02  0.45594000000E+02  0.51100000000E-03 0.  1.
         11   -1    0    0    0    0 -0.00000000000E+00 -0.00000000000E+00 -0.45593999997E+02  0.45594000000E+02  0.51100000000E-03 0. -1.
    9900012    2    1    2    0    0  0.85895400899E+00 -0.70453384817E+00 -0.39850495021E+00  0.90007755903E+02  0.90000017481E+02 0.  0.
         12    1    1    2    0    0 -0.85895400899E+00  0.70453384817E+00  0.39850495021E+00  0.11802440968E+01  0.00000000000E+00 0. -1.
         11    1    3    3    0    0  0.31146356724E+02 -0.13171551945E+02  0.27472160509E+02  0.43569541209E+02  0.51100000000E-03 0. -1.
        -11    1    3    3    0    0 -0.62403305225E+01 -0.40627525271E+01 -0.27614115094E+01  0.79418560118E+01  0.51100000000E-03 0.  1.
        -12    1    3    3    0    0 -0.24047072193E+02  0.16529770624E+02 -0.25109253950E+02  0.38496358683E+02  0.00000000000E+00 0.  1.
</event>
<event>
 7    1  0.2148778E-015  0.9000776E+02  0.7816164E-02  0.1186339E+00
        -11   -1    0    0    0    0  0.00000000000E+00  0.00000000000E+00  0.45593999997E+02  0.45594000000E+02  0.51100000000E-03 0.  1.
         11   -1    0    0    0    0 -0.00000000000E+00 -0.00000000000E+00 -0.45593999997E+02  0.45594000000E+02  0.51100000000E-03 0. -1.
    9900012    2    1    2    0    0  0.95817992183E+00  0.40125090897E+00  0.56023245385E+00  0.90007757882E+02  0.90000019486E+02 0.  0.
         12    1    1    2    0    0 -0.95817992183E+00 -0.40125090897E+00 -0.56023245385E+00  0.11802421179E+01  0.00000000000E+00 0. -1.
         11    1    3    3    0    0 -0.90978983056E+01 -0.25093084850E+02 -0.18379077423E+02  0.32407177416E+02  0.51100000000E-03 0. -1.
        -11    1    3    3    0    0 -0.11939384746E+02  0.89290019407E+01 -0.97666889362E+01  0.17823136559E+02  0.51100000000E-03 0.  1.
        -12    1    3    3    0    0  0.21995462974E+02  0.16565333818E+02  0.28705998813E+02  0.39777443907E+02  0.00000000000E+00 0.  1.
</event>
<event>
 7    1  0.2148778E-015  0.9000770E+02  0.7816164E-02  0.1186339E+00
        -11   -1    0    0    0    0  0.00000000000E+00  0.00000000000E+00  0.45593999997E+02  0.45594000000E+02  0.51100000000E-03 0.  1.
         11   -1    0    0    0    0 -0.00000000000E+00 -0.00000000000E+00 -0.45593999997E+02  0.45594000000E+02  0.51100000000E-03 0. -1.
    9900012    2    1    2    0    0 -0.82456290617E+00 -0.51876362103E+00  0.66640649003E+00  0.90007696102E+02  0.89999956891E+02 0.  0.
         12    1    1    2    0    0  0.82456290617E+00  0.51876362103E+00 -0.66640649003E+00  0.11803038976E+01  0.00000000000E+00 0. -1.
         11    1    3    3    0    0  0.94360090783E+01  0.33270126990E+01 -0.40994892842E+01  0.10812635825E+02  0.51100000000E-03 0. -1.
        -11    1    3    3    0    0 -0.19116505565E+02  0.14809273027E+02  0.35024541997E+02  0.42561413217E+02  0.51100000000E-03 0.  1.
         12    1    3    3    0    0  0.88559335808E+01 -0.18655049348E+02 -0.30258646223E+02  0.36633647061E+02  0.00000000000E+00 0. -1.
</event>
<event>
 7    1  0.2148778E-015  0.9000771E+02  0.7816164E-02  0.1186339E+00
        -11   -1    0    0    0    0  0.00000000000E+00  0.00000000000E+00  0.45593999997E+02  0.45594000000E+02  0.51100000000E-03 0.  1.
         11   -1    0    0    0    0 -0.00000000000E+00 -0.00000000000E+00 -0.45593999997E+02  0.45594000000E+02  0.51100000000E-03 0. -1.
    9900012    2    1    2    0    0 -0.44765909138E+00  0.80174447416E+00 -0.74154636239E+00  0.90007710260E+02  0.89999971235E+02 0.  0.
         12    1    1    2    0    0  0.44765909138E+00 -0.80174447416E+00  0.74154636239E+00  0.11802897405E+01  0.00000000000E+00 0. -1.
         11    1    3    3    0    0  0.45652431945E+01 -0.47152632904E+01  0.10026051680E+02  0.11983190972E+02  0.51100000000E-03 0. -1.
        -11    1    3    3    0    0  0.15878456321E+02  0.11006883383E+01  0.28889600404E+02  0.32984024948E+02  0.51100000000E-03 0.  1.
         12    1    3    3    0    0 -0.20891358607E+02  0.44163194262E+01 -0.39657198447E+02  0.45040494340E+02  0.00000000000E+00 0. -1.
</event>
<event>
 7    1  0.2148778E-015  0.9000772E+02  0.7816164E-02  0.1186339E+00
        -11   -1    0    0    0    0  0.00000000000E+00  0.00000000000E+00  0.45593999997E+02  0.45594000000E+02  0.51100000000E-03 0. -1.
         11   -1    0    0    0    0 -0.00000000000E+00 -0.00000000000E+00 -0.45593999997E+02  0.45594000000E+02  0.51100000000E-03 0.  1.
    9900012    2    1    2    0    0  0.78888664402E+00 -0.27729465271E+00 -0.83295617166E+00  0.90007724420E+02  0.89999985582E+02 0.  0.
         12    1    1    2    0    0 -0.78888664402E+00  0.27729465271E+00  0.83295617166E+00  0.11802755803E+01  0.00000000000E+00 0. -1.
         11    1    3    3    0    0  0.18741225977E+02 -0.34665118400E+01  0.29832532469E+02  0.35400992207E+02  0.51100000000E-03 0. -1.
        -11    1    3    3    0    0  0.78356452329E+01  0.16343825043E+01  0.58229886703E+01  0.98982695307E+01  0.51100000000E-03 0.  1.
        -12    1    3    3    0    0 -0.25787984566E+02  0.15548346830E+01 -0.36488477311E+02  0.44708462682E+02  0.00000000000E+00 0.  1.
</event>
<event>
 7    1  0.2148778E-015  0.9000786E+02  0.7816164E-02  0.1186339E+00
        -11   -1    0    0    0    0  0.00000000000E+00  0.00000000000E+00  0.45593999997E+02  0.45594000000E+02  0.51100000000E-03 0.  1.
         11   -1    0    0    0    0 -0.00000000000E+00 -0.00000000000E+00 -0.45593999997E+02  0.45594000000E+02  0.51100000000E-03 0. -1.
    9900012    2    1    2    0    0 -0.33446386489E+00  0.11251399141E+01 -0.12213659842E+00  0.90007863037E+02  0.90000126029E+02 0.  0.
         12    1    1    2    0    0  0.33446386489E+00 -0.11251399141E+01  0.12213659842E+00  0.11801369632E+01  0.00000000000E+00 0. -1.
         11    1    3    3    0    0  0.10717772834E+02 -0.30320902518E+02  0.14653321582E+02  0.35340452992E+02  0.51100000000E-03 0. -1.
        -11    1    3    3    0    0 -0.39682728612E+01 -0.37851774463E+01  0.97313503608E+01  0.11170225508E+02  0.51100000000E-03 0.  1.
        -12    1    3    3    0    0 -0.70839638378E+01  0.35231219878E+02 -0.24506808541E+02  0.43497184537E+02  0.00000000000E+00 0.  1.
</event>
<event>
 7    1  0.2148778E-015  0.9000772E+02  0.7816164E-02  0.1186339E+00
        -11   -1    0    0    0    0  0.00000000000E+00  0.00000000000E+00  0.45593999997E+02  0.45594000000E+02  0.51100000000E-03 0. -1.
         11   -1    0    0    0    0 -0.00000000000E+00 -0.00000000000E+00 -0.45593999997E+02  0.45594000000E+02  0.51100000000E-03 0.  1.
    9900012    2    1    2    0    0 -0.92260235927E-01  0.52623945481E+00 -0.10524380923E+01  0.90007717893E+02  0.89999978969E+02 0.  0.
         12    1    1    2    0    0  0.92260235927E-01 -0.52623945481E+00  0.10524380923E+01  0.11802821074E+01  0.00000000000E+00 0. -1.
         11    1    3    3    0    0 -0.84600430051E+01 -0.14148213846E+01  0.64696813376E+01  0.10743873793E+02  0.51100000000E-03 0. -1.
        -11    1    3    3    0    0 -0.11128413448E+02 -0.29621694250E+02  0.15876468954E+02  0.35402664064E+02  0.51100000000E-03 0.  1.
         12    1    3    3    0    0  0.19496196217E+02  0.31562755090E+02 -0.23398588384E+02  0.43861180036E+02  0.00000000000E+00 0. -1.
</event>
<event>
 7    1  0.2148778E-015  0.9000769E+02  0.7816164E-02  0.1186339E+00
        -11   -1    0    0    0    0  0.00000000000E+00  0.00000000000E+00  0.45593999997E+02  0.45594000000E+02  0.51100000000E-03 0.  1.
         11   -1    0    0    0    0 -0.00000000000E+00 -0.00000000000E+00 -0.45593999997E+02  0.45594000000E+02  0.51100000000E-03 0. -1.
    9900012    2    1    2    0    0 -0.89871722977E+00  0.24063421564E+00  0.72632064126E+00  0.90007686839E+02  0.89999947505E+02 0.  0.
         12    1    1    2    0    0  0.89871722977E+00 -0.24063421564E+00 -0.72632064126E+00  0.11803131613E+01  0.00000000000E+00 0. -1.
         11    1    3    3    0    0  0.73705857416E+01  0.22670054479E+02 -0.32027435052E+02  0.39925098629E+02  0.51100000000E-03 0. -1.
        -11    1    3    3    0    0 -0.68207780321E+01 -0.20127666087E+01 -0.38929560762E+01  0.81073639154E+01  0.51100000000E-03 0.  1.
        -12    1    3    3    0    0 -0.14485249393E+01 -0.20416653655E+02  0.36646711770E+02  0.41975224294E+02  0.00000000000E+00 0.  1.
</event>
<event>
 7    1  0.2148778E-015  0.9000774E+02  0.7816164E-02  0.1186339E+00
        -11   -1    0    0    0    0  0.00000000000E+00  0.00000000000E+00  0.45593999997E+02  0.45594000000E+02  0.51100000000E-03 0. -1.
         11   -1    0    0    0    0 -0.00000000000E+00 -0.00000000000E+00 -0.45593999997E+02  0.45594000000E+02  0.51100000000E-03 0.  1.
    9900012    2    1    2    0    0 -0.11193111539E+01 -0.45090638353E-01 -0.37163762417E+00  0.90007743609E+02  0.90000005025E+02 0.  0.
         12    1    1    2    0    0  0.11193111539E+01  0.45090638353E-01  0.37163762417E+00  0.11802563910E+01  0.00000000000E+00 0. -1.
         11    1    3    3    0    0  0.11361804570E+02 -0.26655012675E+01 -0.36703149016E+01  0.12233834715E+02  0.51100000000E-03 0. -1.
        -11    1    3    3    0    0 -0.14054638720E+02 -0.26547352940E+02 -0.23495729135E+02  0.38135863771E+02  0.51100000000E-03 0.  1.
         12    1    3    3    0    0  0.15735229970E+01  0.29167763569E+02  0.26794406412E+02  0.39638045124E+02  0.00000000000E+00 0. -1.
</event>
<event>
 7    1  0.2148778E-015  0.9000679E+02  0.7816164E-02  0.1186341E+00
        -11   -1    0    0    0    0  0.00000000000E+00  0.00000000000E+00  0.45593999997E+02  0.45594000000E+02  0.51100000000E-03 0. -1.
         11   -1    0    0    0    0 -0.00000000000E+00 -0.00000000000E+00 -0.45593999997E+02  0.45594000000E+02  0.51100000000E-03 0.  1.
    9900012    2    1    2    0    0 -0.91734822187E+00  0.42490345751E+00  0.61089278392E+00  0.90006788460E+02  0.89999037263E+02 0.  0.
         12    1    1    2    0    0  0.91734822187E+00 -0.42490345751E+00 -0.61089278392E+00  0.11812115398E+01  0.00000000000E+00 0. -1.
         11    1    3    3    0    0  0.33305886364E+02 -0.17799343103E+01  0.25183660540E+02  0.41793145265E+02  0.51100000000E-03 0. -1.
        -11    1    3    3    0    0 -0.53003109323E+01 -0.61411221427E+01  0.16647952821E+01  0.82811968183E+01  0.51100000000E-03 0.  1.
        -12    1    3    3    0    0 -0.28922923654E+02  0.83459599105E+01 -0.26237563038E+02  0.39932446377E+02  0.00000000000E+00 0.  1.
</event>
<event>
 7    1  0.2148778E-015  0.9000776E+02  0.7816164E-02  0.1186339E+00
        -11   -1    0    0    0    0  0.00000000000E+00  0.00000000000E+00  0.45593999997E+02  0.45594000000E+02  0.51100000000E-03 0.  1.
         11   -1    0    0    0    0 -0.00000000000E+00 -0.00000000000E+00 -0.45593999997E+02  0.45594000000E+02  0.51100000000E-03 0. -1.
    9900012    2    1    2    0    0  0.10110265328E+01 -0.79194708964E-01 -0.60374788473E+00  0.90007763600E+02  0.90000025279E+02 0.  0.
         12    1    1    2    0    0 -0.10110265328E+01  0.79194708964E-01  0.60374788473E+00  0.11802364002E+01  0.00000000000E+00 0. -1.
         11    1    3    3    0    0  0.56773604396E+01  0.85326384397E+01  0.32233667088E+01  0.10743762539E+02  0.51100000000E-03 0. -1.
        -11    1    3    3    0    0  0.24707984769E+02  0.13341145919E+02  0.20926701183E+02  0.35019958715E+02  0.51100000000E-03 0.  1.
         12    1    3    3    0    0 -0.29374318675E+02 -0.21952979067E+02 -0.24753815776E+02  0.44244042345E+02  0.00000000000E+00 0. -1.
</event>
<event>
 7    1  0.2148778E-015  0.9000771E+02  0.7816164E-02  0.1186339E+00
        -11   -1    0    0    0    0  0.00000000000E+00  0.00000000000E+00  0.45593999997E+02  0.45594000000E+02  0.51100000000E-03 0.  1.
         11   -1    0    0    0    0 -0.00000000000E+00 -0.00000000000E+00 -0.45593999997E+02  0.45594000000E+02  0.51100000000E-03 0. -1.
    9900012    2    1    2    0    0 -0.70658899293E+00 -0.85351302056E+00 -0.40661654771E+00  0.90007707876E+02  0.89999968820E+02 0.  0.
         12    1    1    2    0    0  0.70658899293E+00  0.85351302056E+00  0.40661654771E+00  0.11802921240E+01  0.00000000000E+00 0. -1.
         11    1    3    3    0    0 -0.80916564399E+01  0.58135830771E+01  0.53773582631E+01  0.11322041966E+02  0.51100000000E-03 0. -1.
        -11    1    3    3    0    0 -0.17741843865E+02  0.12258785351E+02  0.26126468328E+02  0.33876882820E+02  0.51100000000E-03 0.  1.
         12    1    3    3    0    0  0.25126911312E+02 -0.18925881449E+02 -0.31910443139E+02  0.44808783090E+02  0.00000000000E+00 0. -1.
</event>
<event>
 7    1  0.2148778E-015  0.9000767E+02  0.7816164E-02  0.1186339E+00
        -11   -1    0    0    0    0  0.00000000000E+00  0.00000000000E+00  0.45593999997E+02  0.45594000000E+02  0.51100000000E-03 0. -1.
         11   -1    0    0    0    0 -0.00000000000E+00 -0.00000000000E+00 -0.45593999997E+02  0.45594000000E+02  0.51100000000E-03 0.  1.
    9900012    2    1    2    0    0  0.10852012139E+00 -0.67284418944E+00  0.96368236091E+00  0.90007669702E+02  0.89999930142E+02 0.  0.
         12    1    1    2    0    0 -0.10852012139E+00  0.67284418944E+00 -0.96368236091E+00  0.11803302982E+01  0.00000000000E+00 0. -1.
         11    1    3    3    0    0  0.32736380375E+02  0.13140152466E+02 -0.18385627003E+02  0.39778957847E+02  0.51100000000E-03 0. -1.
        -11    1    3    3    0    0 -0.41389278351E+00 -0.91954442023E+01 -0.41409057116E+01  0.10093294888E+02  0.51100000000E-03 0.  1.
        -12    1    3    3    0    0 -0.32213967470E+02 -0.46175524530E+01  0.23490215075E+02  0.40135416967E+02  0.00000000000E+00 0.  1.
</event>
<event>
 7    1  0.2148778E-015  0.9000820E+02  0.7816164E-02  0.1186338E+00
        -11   -1    0    0    0    0  0.00000000000E+00  0.00000000000E+00  0.45593999997E+02  0.45594000000E+02  0.51100000000E-03 0.  1.
         11   -1    0    0    0    0 -0.00000000000E+00 -0.00000000000E+00 -0.45593999997E+02  0.45594000000E+02  0.51100000000E-03 0. -1.
    9900012    2    1    2    0    0 -0.61897612630E+00 -0.54917714696E+00 -0.84095833614E+00  0.90008195818E+02  0.90000463202E+02 0.  0.
         12    1    1    2    0    0  0.61897612630E+00  0.54917714696E+00  0.84095833614E+00  0.11798041815E+01  0.00000000000E+00 0. -1.
         11    1    3    3    0    0  0.43976172051E+01 -0.61557471487E+01  0.60061538931E+01  0.96595105927E+01  0.51100000000E-03 0. -1.
        -11    1    3    3    0    0 -0.12290342386E+02 -0.37957823786E+01  0.34766850407E+02  0.37070127695E+02  0.51100000000E-03 0.  1.
         12    1    3    3    0    0  0.72737490541E+01  0.94023523804E+01 -0.41613962637E+02  0.43278557531E+02  0.00000000000E+00 0. -1.
</event>
<event>
 7    1  0.2148778E-015  0.9000773E+02  0.7816164E-02  0.1186339E+00
        -11   -1    0    0    0    0  0.00000000000E+00  0.00000000000E+00  0.45593999997E+02  0.45594000000E+02  0.51100000000E-03 0. -1.
         11   -1    0    0    0    0 -0.00000000000E+00 -0.00000000000E+00 -0.45593999997E+02  0.45594000000E+02  0.51100000000E-03 0.  1.
    9900012    2    1    2    0    0 -0.74871050599E+00 -0.55525703714E+00  0.72398468370E+00  0.90007732394E+02  0.89999993662E+02 0.  0.
         12    1    1    2    0    0  0.74871050599E+00  0.55525703714E+00 -0.72398468370E+00  0.11802676058E+01  0.00000000000E+00 0. -1.
         11    1    3    3    0    0  0.16690065366E+02  0.23559144571E+02  0.19904685552E+02  0.35068334463E+02  0.51100000000E-03 0. -1.
        -11    1    3    3    0    0 -0.27255030776E+01  0.50335350124E+01  0.97560001777E+01  0.11311250217E+02  0.51100000000E-03 0.  1.
        -12    1    3    3    0    0 -0.14713272794E+02 -0.29147936621E+02 -0.28936701046E+02  0.43628147714E+02  0.00000000000E+00 0.  1.
</event>
<event>
 7    1  0.2148778E-015  0.9000788E+02  0.7816164E-02  0.1186339E+00
        -11   -1    0    0    0    0  0.00000000000E+00  0.00000000000E+00  0.45593999997E+02  0.45594000000E+02  0.51100000000E-03 0. -1.
         11   -1    0    0    0    0 -0.00000000000E+00 -0.00000000000E+00 -0.45593999997E+02  0.45594000000E+02  0.51100000000E-03 0.  1.
    9900012    2    1    2    0    0 -0.10060251409E+01 -0.31974811686E+00 -0.52760292839E+00  0.90007877001E+02  0.90000140177E+02 0.  0.
         12    1    1    2    0    0  0.10060251409E+01  0.31974811686E+00  0.52760292839E+00  0.11801229989E+01  0.00000000000E+00 0. -1.
         11    1    3    3    0    0 -0.11468759124E+02  0.18152240410E+02  0.34798743482E+02  0.40889959842E+02  0.51100000000E-03 0. -1.
        -11    1    3    3    0    0 -0.28309299653E+01  0.57419734533E+01 -0.81942661794E+01  0.10398577888E+02  0.51100000000E-03 0.  1.
        -12    1    3    3    0    0  0.13293663948E+02 -0.24213961980E+02 -0.27132080231E+02  0.38719339271E+02  0.00000000000E+00 0.  1.
</event>
<event>
 7    1  0.2148778E-015  0.9000771E+02  0.7816164E-02  0.1186339E+00
        -11   -1    0    0    0    0  0.00000000000E+00  0.00000000000E+00  0.45593999997E+02  0.45594000000E+02  0.51100000000E-03 0.  1.
         11   -1    0    0    0    0 -0.00000000000E+00 -0.00000000000E+00 -0.45593999997E+02  0.45594000000E+02  0.51100000000E-03 0. -1.
    9900012    2    1    2    0    0  0.34785007442E+00 -0.10084697247E+01  0.50504062418E+00  0.90007713216E+02  0.89999974231E+02 0.  0.
         12    1    1    2    0    0 -0.34785007442E+00  0.10084697247E+01 -0.50504062418E+00  0.11802867838E+01  0.00000000000E+00 0. -1.
         11    1    3    3    0    0  0.17500966145E+02  0.10109510101E+02 -0.16699831131E+02  0.26217749151E+02  0.51100000000E-03 0. -1.
        -11    1    3    3    0    0  0.17612895685E+02  0.36018756378E+01 -0.66082425811E+01  0.19153497665E+02  0.51100000000E-03 0.  1.
        -12    1    3    3    0    0 -0.34766011756E+02 -0.14719855464E+02  0.23813114337E+02  0.44636466400E+02  0.00000000000E+00 0.  1.
</event>
<event>
 7    1  0.2148778E-015  0.9000777E+02  0.7816164E-02  0.1186339E+00
        -11   -1    0    0    0    0  0.00000000000E+00  0.00000000000E+00  0.45593999997E+02  0.45594000000E+02  0.51100000000E-03 0.  1.
         11   -1    0    0    0    0 -0.00000000000E+00 -0.00000000000E+00 -0.45593999997E+02  0.45594000000E+02  0.51100000000E-03 0. -1.
    9900012    2    1    2    0    0 -0.85773932441E-03  0.88585900728E+00  0.77987615782E+00  0.90007765389E+02  0.90000027092E+02 0.  0.
         12    1    1    2    0    0  0.85773932442E-03 -0.88585900728E+00 -0.77987615782E+00  0.11802346114E+01  0.00000000000E+00 0. -1.
         11    1    3    3    0    0  0.54890880640E+01  0.37693170073E+01  0.37725060161E+01  0.76530804502E+01  0.51100000000E-03 0. -1.
        -11    1    3    3    0    0  0.20755362714E+02  0.31381526444E+02 -0.92432548803E+01  0.38743038658E+02  0.51100000000E-03 0.  1.
         12    1    3    3    0    0 -0.26245308517E+02 -0.34264984444E+02  0.62506250220E+01  0.43611646281E+02  0.00000000000E+00 0. -1.
</event>
<event>
 7    1  0.2148778E-015  0.9000764E+02  0.7816164E-02  0.1186339E+00
        -11   -1    0    0    0    0  0.00000000000E+00  0.00000000000E+00  0.45593999997E+02  0.45594000000E+02  0.51100000000E-03 0. -1.
         11   -1    0    0    0    0 -0.00000000000E+00 -0.00000000000E+00 -0.45593999997E+02  0.45594000000E+02  0.51100000000E-03 0.  1.
    9900012    2    1    2    0    0  0.19632946715E+00  0.68396081169E+00 -0.94175900230E+00  0.90007636636E+02  0.89999896640E+02 0.  0.
         12    1    1    2    0    0 -0.19632946715E+00 -0.68396081169E+00  0.94175900230E+00  0.11803633636E+01  0.00000000000E+00 0. -1.
         11    1    3    3    0    0  0.49461599290E+01  0.17064713909E+02  0.29361601717E+02  0.34318691911E+02  0.51100000000E-03 0. -1.
        -11    1    3    3    0    0 -0.27522346085E+01  0.12390475208E+02  0.14712017930E+01  0.12777445214E+02  0.51100000000E-03 0.  1.
        -12    1    3    3    0    0 -0.19975958533E+01 -0.28771228305E+02 -0.31774562513E+02  0.42911499511E+02  0.00000000000E+00 0.  1.
</event>
<event>
 7    1  0.2148778E-015  0.9000776E+02  0.7816164E-02  0.1186339E+00
        -11   -1    0    0    0    0  0.00000000000E+00  0.00000000000E+00  0.45593999997E+02  0.45594000000E+02  0.51100000000E-03 0.  1.
         11   -1    0    0    0    0 -0.00000000000E+00 -0.00000000000E+00 -0.45593999997E+02  0.45594000000E+02  0.51100000000E-03 0. -1.
    9900012    2    1    2    0    0  0.61676419814E+00  0.71173637085E+00 -0.71133474600E+00  0.90007761101E+02  0.90000022748E+02 0.  0.
         12    1    1    2    0    0 -0.61676419814E+00 -0.71173637085E+00  0.71133474600E+00  0.11802388989E+01  0.00000000000E+00 0. -1.
         11    1    3    3    0    0  0.21729539172E+02 -0.17092842921E+02  0.30174287143E+02  0.40924635082E+02  0.51100000000E-03 0. -1.
        -11    1    3    3    0    0 -0.73296302338E+01 -0.12175407278E+01  0.28641726310E+01  0.79630000571E+01  0.51100000000E-03 0.  1.
        -12    1    3    3    0    0 -0.13783144741E+02  0.19022120020E+02 -0.33749794520E+02  0.41120125962E+02  0.00000000000E+00 0.  1.
</event>
<event>
 7    1  0.2148778E-015  0.9000772E+02  0.7816164E-02  0.1186339E+00
        -11   -1    0    0    0    0  0.00000000000E+00  0.00000000000E+00  0.45593999997E+02  0.45594000000E+02  0.51100000000E-03 0. -1.
         11   -1    0    0    0    0 -0.00000000000E+00 -0.00000000000E+00 -0.45593999997E+02  0.45594000000E+02  0.51100000000E-03 0.  1.
    9900012    2    1    2    0    0  0.86195751236E-01  0.93097130713E+00 -0.72035958775E+00  0.90007722398E+02  0.89999983534E+02 0.  0.
         12    1    1    2    0    0 -0.86195751236E-01 -0.93097130713E+00  0.72035958775E+00  0.11802776020E+01  0.00000000000E+00 0. -1.
         11    1    3    3    0    0  0.44936995262E+01 -0.87195345575E+01  0.40859869828E+01  0.10626330892E+02  0.51100000000E-03 0. -1.
        -11    1    3    3    0    0  0.11508231587E+02  0.15872627667E+02 -0.37598803306E+02  0.42403416297E+02  0.51100000000E-03 0.  1.
         12    1    3    3    0    0 -0.15915735362E+02 -0.62221218025E+01  0.32792456736E+02  0.36977975210E+02  0.00000000000E+00 0. -1.
</event>
<event>
 7    1  0.2148778E-015  0.9000765E+02  0.7816164E-02  0.1186339E+00
        -11   -1    0    0    0    0  0.00000000000E+00  0.00000000000E+00  0.45593999997E+02  0.45594000000E+02  0.51100000000E-03 0.  1.
         11   -1    0    0    0    0 -0.00000000000E+00 -0.00000000000E+00 -0.45593999997E+02  0.45594000000E+02  0.51100000000E-03 0. -1.
    9900012    2    1    2    0    0 -0.10475269085E+01  0.17557852817E+00 -0.51486386052E+00  0.90007650374E+02  0.89999910559E+02 0.  0.
         12    1    1    2    0    0  0.10475269085E+01 -0.17557852817E+00  0.51486386052E+00  0.11803496256E+01  0.00000000000E+00 0. -1.
         11    1    3    3    0    0 -0.11961598063E+02 -0.26725725619E+02 -0.22664186994E+02  0.37027146939E+02  0.51100000000E-03 0. -1.
        -11    1    3    3    0    0  0.10291454399E+02 -0.48956511131E+01 -0.37161529431E+01  0.11987127530E+02  0.51100000000E-03 0.  1.
        -12    1    3    3    0    0  0.62261675531E+00  0.31796955260E+02  0.25865476076E+02  0.40993375905E+02  0.00000000000E+00 0.  1.
</event>
<event>
 7    1  0.2148778E-015  0.9000764E+02  0.7816164E-02  0.1186339E+00
        -11   -1    0    0    0    0  0.00000000000E+00  0.00000000000E+00  0.45593999997E+02  0.45594000000E+02  0.51100000000E-03 0.  1.
         11   -1    0    0    0    0 -0.00000000000E+00 -0.00000000000E+00 -0.45593999997E+02  0.45594000000E+02  0.51100000000E-03 0. -1.
    9900012    2    1    2    0    0  0.98840191258E+00  0.16717395684E-01 -0.64501267496E+00  0.90007636004E+02  0.89999895999E+02 0.  0.
         12    1    1    2    0    0 -0.98840191258E+00 -0.16717395684E-01  0.64501267496E+00  0.11803639960E+01  0.00000000000E+00 0. -1.
         11    1    3    3    0    0  0.30146513637E+01 -0.81412214548E+01  0.49499209539E+01  0.99934642308E+01  0.51100000000E-03 0. -1.
        -11    1    3    3    0    0  0.10963434144E+02 -0.16194221498E+02  0.29483332649E+02  0.35379607156E+02  0.51100000000E-03 0.  1.
         12    1    3    3    0    0 -0.12989683595E+02  0.24352160348E+02 -0.35078266278E+02  0.44634564617E+02  0.00000000000E+00 0. -1.
</event>
<event>
 7    1  0.2148778E-015  0.9000819E+02  0.7816164E-02  0.1186338E+00
        -11   -1    0    0    0    0  0.00000000000E+00  0.00000000000E+00  0.45593999997E+02  0.45594000000E+02  0.51100000000E-03 0.  1.
         11   -1    0    0    0    0 -0.00000000000E+00 -0.00000000000E+00 -0.45593999997E+02  0.45594000000E+02  0.51100000000E-03 0. -1.
    9900012    2    1    2    0    0 -0.35122249685E+00 -0.10468311221E+01  0.41560530312E+00  0.90008194758E+02  0.90000462128E+02 0.  0.
         12    1    1    2    0    0  0.35122249685E+00  0.10468311221E+01 -0.41560530312E+00  0.11798052418E+01  0.00000000000E+00 0. -1.
         11    1    3    3    0    0  0.23328800294E+02  0.12746088256E+02 -0.27450774730E+02  0.38213096218E+02  0.51100000000E-03 0. -1.
        -11    1    3    3    0    0 -0.55775399781E+01 -0.33017389462E+01 -0.79853285142E+01  0.10284741320E+02  0.51100000000E-03 0.  1.
        -12    1    3    3    0    0 -0.18102482813E+02 -0.10491180432E+02  0.35851708547E+02  0.41510357221E+02  0.00000000000E+00 0.  1.
</event>
<event>
 7    1  0.2148778E-015  0.9000756E+02  0.7816164E-02  0.1186339E+00
        -11   -1    0    0    0    0  0.00000000000E+00  0.00000000000E+00  0.45593999997E+02  0.45594000000E+02  0.51100000000E-03 0.  1.
         11   -1    0    0    0    0 -0.00000000000E+00 -0.00000000000E+00 -0.45593999997E+02  0.45594000000E+02  0.51100000000E-03 0. -1.
    9900012    2    1    2    0    0  0.31460559684E+00  0.36231626029E+00  0.10785101002E+01  0.90007562035E+02  0.89999821053E+02 0.  0.
         12    1    1    2    0    0 -0.31460559684E+00 -0.36231626029E+00 -0.10785101002E+01  0.11804379655E+01  0.00000000000E+00 0. -1.
         11    1    3    3    0    0 -0.66859245759E+01 -0.45460573253E+01 -0.49363916207E+01  0.94729186175E+01  0.51100000000E-03 0. -1.
        -11    1    3    3    0    0 -0.19267269239E+02  0.33555238066E+02 -0.74447442664E+01  0.39403120219E+02  0.51100000000E-03 0.  1.
         12    1    3    3    0    0  0.26267799411E+02 -0.28646864480E+02  0.13459645987E+02  0.41131523198E+02  0.00000000000E+00 0. -1.
</event>
<event>
 7    1  0.2148778E-015  0.9000764E+02  0.7816164E-02  0.1186339E+00
        -11   -1    0    0    0    0  0.00000000000E+00  0.00000000000E+00  0.45593999997E+02  0.45594000000E+02  0.51100000000E-03 0.  1.
         11   -1    0    0    0    0 -0.00000000000E+00 -0.00000000000E+00 -0.45593999997E+02  0.45594000000E+02  0.51100000000E-03 0. -1.
    9900012    2    1    2    0    0 -0.18854374302E+00 -0.81550033317E+00  0.83226046581E+00  0.90007641148E+02  0.89999901211E+02 0.  0.
         12    1    1    2    0    0  0.18854374302E+00  0.81550033317E+00 -0.83226046581E+00  0.11803588520E+01  0.00000000000E+00 0. -1.
         11    1    3    3    0    0 -0.16919658963E+02 -0.51221207346E+01  0.35031146248E+01  0.18021731121E+02  0.51100000000E-03 0. -1.
        -11    1    3    3    0    0 -0.16498813529E+01  0.34250404791E+02  0.81055470445E+01  0.35235099404E+02  0.51100000000E-03 0.  1.
         12    1    3    3    0    0  0.18380996573E+02 -0.29943784390E+02 -0.10776401204E+02  0.36750810624E+02  0.00000000000E+00 0. -1.
</event>
<event>
 7    1  0.2148778E-015  0.9000876E+02  0.7816164E-02  0.1186337E+00
        -11   -1    0    0    0    0  0.00000000000E+00  0.00000000000E+00  0.45593999997E+02  0.45594000000E+02  0.51100000000E-03 0. -1.
         11   -1    0    0    0    0 -0.00000000000E+00 -0.00000000000E+00 -0.45593999997E+02  0.45594000000E+02  0.51100000000E-03 0.  1.
    9900012    2    1    2    0    0  0.68065231913E+00 -0.96266952278E+00  0.24212696401E-01  0.90008760226E+02  0.90001035055E+02 0.  0.
         12    1    1    2    0    0 -0.68065231913E+00  0.96266952278E+00 -0.24212696401E-01  0.11792397739E+01  0.00000000000E+00 0. -1.
         11    1    3    3    0    0  0.24229673091E+00 -0.53048510875E+01 -0.57708918359E+01  0.78424068760E+01  0.51100000000E-03 0. -1.
        -11    1    3    3    0    0  0.28434780363E+02 -0.27447544288E+02  0.46177228303E+01  0.39789795000E+02  0.51100000000E-03 0.  1.
         12    1    3    3    0    0 -0.27996424775E+02  0.31789725853E+02  0.11773817020E+01  0.42376558350E+02  0.00000000000E+00 0. -1.
</event>
<event>
 7    1  0.2148778E-015  0.9000774E+02  0.7816164E-02  0.1186339E+00
        -11   -1    0    0    0    0  0.00000000000E+00  0.00000000000E+00  0.45593999997E+02  0.45594000000E+02  0.51100000000E-03 0.  1.
         11   -1    0    0    0    0 -0.00000000000E+00 -0.00000000000E+00 -0.45593999997E+02  0.45594000000E+02  0.51100000000E-03 0. -1.
    9900012    2    1    2    0    0 -0.95894809959E+00 -0.22004183354E+00 -0.65192570573E+00  0.90007742828E+02  0.90000004233E+02 0.  0.
         12    1    1    2    0    0  0.95894809959E+00  0.22004183354E+00  0.65192570573E+00  0.11802571720E+01  0.00000000000E+00 0. -1.
         11    1    3    3    0    0  0.68497266027E+01  0.67288930507E+01  0.22637784850E+01  0.98651634305E+01  0.51100000000E-03 0. -1.
        -11    1    3    3    0    0  0.27360287815E+02 -0.11209910941E+02  0.21980899318E+02  0.36843010026E+02  0.51100000000E-03 0.  1.
         12    1    3    3    0    0 -0.35168962518E+02  0.42609760570E+01 -0.24896603509E+02  0.43299569372E+02  0.00000000000E+00 0. -1.
</event>
<event>
 7    1  0.2148778E-015  0.9000722E+02  0.7816164E-02  0.1186340E+00
        -11   -1    0    0    0    0  0.00000000000E+00  0.00000000000E+00  0.45593999997E+02  0.45594000000E+02  0.51100000000E-03 0. -1.
         11   -1    0    0    0    0 -0.00000000000E+00 -0.00000000000E+00 -0.45593999997E+02  0.45594000000E+02  0.51100000000E-03 0.  1.
    9900012    2    1    2    0    0  0.59565361407E+00 -0.75454701073E-01 -0.10167348883E+01  0.90007217855E+02  0.89999472330E+02 0.  0.
         12    1    1    2    0    0 -0.59565361407E+00  0.75454701073E-01  0.10167348883E+01  0.11807821446E+01  0.00000000000E+00 0. -1.
         11    1    3    3    0    0  0.22398700573E+01 -0.25231303215E+02 -0.30209410554E+02  0.39423903486E+02  0.51100000000E-03 0. -1.
        -11    1    3    3    0    0  0.53497842405E+01  0.37349053750E+01 -0.59542910487E+01  0.88330794026E+01  0.51100000000E-03 0.  1.
        -12    1    3    3    0    0 -0.69940006837E+01  0.21420943139E+02  0.35146966715E+02  0.41750234967E+02  0.00000000000E+00 0.  1.
</event>
<event>
 7    1  0.2148778E-015  0.9000770E+02  0.7816164E-02  0.1186339E+00
        -11   -1    0    0    0    0  0.00000000000E+00  0.00000000000E+00  0.45593999997E+02  0.45594000000E+02  0.51100000000E-03 0. -1.
         11   -1    0    0    0    0 -0.00000000000E+00 -0.00000000000E+00 -0.45593999997E+02  0.45594000000E+02  0.51100000000E-03 0.  1.
    9900012    2    1    2    0    0 -0.62791855357E+00  0.99428914891E+00  0.10109070038E+00  0.90007698364E+02  0.89999959183E+02 0.  0.
         12    1    1    2    0    0  0.62791855357E+00 -0.99428914891E+00 -0.10109070038E+00  0.11803016357E+01  0.00000000000E+00 0. -1.
         11    1    3    3    0    0  0.74790858791E+01 -0.59232275275E+01 -0.28772463557E+01  0.99649333557E+01  0.51100000000E-03 0. -1.
        -11    1    3    3    0    0  0.24714183255E+02 -0.20670465214E+02 -0.12356652428E+02  0.34507185420E+02  0.51100000000E-03 0.  1.
         12    1    3    3    0    0 -0.32821187688E+02  0.27587981890E+02  0.15334989485E+02  0.45535579589E+02  0.00000000000E+00 0. -1.
</event>
<event>
 7    1  0.2148778E-015  0.9000777E+02  0.7816164E-02  0.1186339E+00
        -11   -1    0    0    0    0  0.00000000000E+00  0.00000000000E+00  0.45593999997E+02  0.45594000000E+02  0.51100000000E-03 0.  1.
         11   -1    0    0    0    0 -0.00000000000E+00 -0.00000000000E+00 -0.45593999997E+02  0.45594000000E+02  0.51100000000E-03 0. -1.
    9900012    2    1    2    0    0 -0.40940385569E-01  0.23354020603E+00  0.11561658072E+01  0.90007772684E+02  0.90000034484E+02 0.  0.
         12    1    1    2    0    0  0.40940385569E-01 -0.23354020603E+00 -0.11561658072E+01  0.11802273157E+01  0.00000000000E+00 0. -1.
         11    1    3    3    0    0 -0.80521205526E+01  0.55131073072E+01 -0.17843490641E+01  0.99204283889E+01  0.51100000000E-03 0. -1.
        -11    1    3    3    0    0  0.33309194266E+02 -0.15325858871E+02 -0.22342635701E+02  0.42936904210E+02  0.51100000000E-03 0.  1.
         12    1    3    3    0    0 -0.25298014099E+02  0.10046291770E+02  0.25283150573E+02  0.37150440086E+02  0.00000000000E+00 0. -1.
</event>
<event>
 7    1  0.2148778E-015  0.9000773E+02  0.7816164E-02  0.1186339E+00
        -11   -1    0    0    0    0  0.00000000000E+00  0.00000000000E+00  0.45593999997E+02  0.45594000000E+02  0.51100000000E-03 0.  1.
         11   -1    0    0    0    0 -0.00000000000E+00 -0.00000000000E+00 -0.45593999997E+02  0.45594000000E+02  0.51100000000E-03 0. -1.
    9900012    2    1    2    0    0 -0.32749471216E+00  0.69254496495E+00  0.89786170342E+00  0.90007734372E+02  0.89999995665E+02 0.  0.
         12    1    1    2    0    0  0.32749471216E+00 -0.69254496495E+00 -0.89786170342E+00  0.11802656283E+01  0.00000000000E+00 0. -1.
         11    1    3    3    0    0 -0.83265710456E+01  0.61959952405E+01  0.13206790603E+01  0.10462616109E+02  0.51100000000E-03 0. -1.
        -11    1    3    3    0    0 -0.16620164601E+02  0.29900767765E+02  0.90669289230E+01  0.35390605881E+02  0.51100000000E-03 0.  1.
         12    1    3    3    0    0  0.24619240934E+02 -0.35404218040E+02 -0.94897462798E+01  0.44154512382E+02  0.00000000000E+00 0. -1.
</event>
<event>
 7    1  0.2148778E-015  0.9000797E+02  0.7816164E-02  0.1186339E+00
        -11   -1    0    0    0    0  0.00000000000E+00  0.00000000000E+00  0.45593999997E+02  0.45594000000E+02  0.51100000000E-03 0. -1.
         11   -1    0    0    0    0 -0.00000000000E+00 -0.00000000000E+00 -0.45593999997E+02  0.45594000000E+02  0.51100000000E-03 0.  1.
    9900012    2    1    2    0    0  0.36676505732E-01  0.11148879712E+01  0.38489646546E+00  0.90007972185E+02  0.90000236618E+02 0.  0.
         12    1    1    2    0    0 -0.36676505732E-01 -0.11148879712E+01 -0.38489646546E+00  0.11800278147E+01  0.00000000000E+00 0. -1.
         11    1    3    3    0    0  0.31959907341E+02 -0.13891361730E+02 -0.97613145863E+01  0.36189623799E+02  0.51100000000E-03 0. -1.
        -11    1    3    3    0    0  0.32791342317E+01 -0.29441305049E+01  0.13461684880E+02  0.14164659749E+02  0.51100000000E-03 0.  1.
        -12    1    3    3    0    0 -0.35202365067E+02  0.17950380206E+02 -0.33154738279E+01  0.39653688638E+02  0.00000000000E+00 0.  1.
</event>
<event>
 7    1  0.2148778E-015  0.9000832E+02  0.7816164E-02  0.1186338E+00
        -11   -1    0    0    0    0  0.00000000000E+00  0.00000000000E+00  0.45593999997E+02  0.45594000000E+02  0.51100000000E-03 0.  1.
         11   -1    0    0    0    0 -0.00000000000E+00 -0.00000000000E+00 -0.45593999997E+02  0.45594000000E+02  0.51100000000E-03 0. -1.
    9900012    2    1    2    0    0 -0.52909127694E+00  0.94177960023E+00 -0.47407895727E+00  0.90008323242E+02  0.90000592307E+02 0.  0.
         12    1    1    2    0    0  0.52909127694E+00 -0.94177960023E+00  0.47407895727E+00  0.11796767576E+01  0.00000000000E+00 0. -1.
         11    1    3    3    0    0 -0.72853726125E+01 -0.33008940278E+02 -0.43879091233E+01  0.34086955556E+02  0.51100000000E-03 0. -1.
        -11    1    3    3    0    0 -0.12087174434E+02  0.75005868945E+01  0.15871987918E+02  0.21313812196E+02  0.51100000000E-03 0.  1.
        -12    1    3    3    0    0  0.18843455770E+02  0.26450132983E+02 -0.11958157752E+02  0.34607555490E+02  0.00000000000E+00 0.  1.
</event>
<event>
 7    1  0.2148778E-015  0.9000767E+02  0.7816164E-02  0.1186339E+00
        -11   -1    0    0    0    0  0.00000000000E+00  0.00000000000E+00  0.45593999997E+02  0.45594000000E+02  0.51100000000E-03 0.  1.
         11   -1    0    0    0    0 -0.00000000000E+00 -0.00000000000E+00 -0.45593999997E+02  0.45594000000E+02  0.51100000000E-03 0. -1.
    9900012    2    1    2    0    0  0.10317865904E+01  0.40801293335E+00  0.40263359220E+00  0.90007672956E+02  0.89999933439E+02 0.  0.
         12    1    1    2    0    0 -0.10317865904E+01 -0.40801293335E+00 -0.40263359220E+00  0.11803270443E+01  0.00000000000E+00 0. -1.
         11    1    3    3    0    0  0.59764681205E+01 -0.19159072372E+02 -0.29698747992E+02  0.35844160722E+02  0.51100000000E-03 0. -1.
        -11    1    3    3    0    0 -0.68144442383E+01  0.58401209628E+00 -0.86170228750E+01  0.11001400088E+02  0.51100000000E-03 0.  1.
        -12    1    3    3    0    0  0.18697627082E+01  0.18983073209E+02  0.38718404459E+02  0.43162112146E+02  0.00000000000E+00 0.  1.
</event>
<event>
 7    1  0.2148778E-015  0.9000767E+02  0.7816164E-02  0.1186339E+00
        -11   -1    0    0    0    0  0.00000000000E+00  0.00000000000E+00  0.45593999997E+02  0.45594000000E+02  0.51100000000E-03 0.  1.
         11   -1    0    0    0    0 -0.00000000000E+00 -0.00000000000E+00 -0.45593999997E+02  0.45594000000E+02  0.51100000000E-03 0. -1.
    9900012    2    1    2    0    0  0.11291199042E+01  0.25199246013E+00 -0.23400863782E+00  0.90007672926E+02  0.89999933409E+02 0.  0.
         12    1    1    2    0    0 -0.11291199042E+01 -0.25199246013E+00  0.23400863782E+00  0.11803270736E+01  0.00000000000E+00 0. -1.
         11    1    3    3    0    0  0.50592019408E+01  0.87282697887E+01  0.54003716977E+00  0.10102962842E+02  0.51100000000E-03 0. -1.
        -11    1    3    3    0    0  0.28987734407E+02  0.20554534267E+02  0.39790077932E+01  0.35757658316E+02  0.51100000000E-03 0.  1.
         12    1    3    3    0    0 -0.32917816443E+02 -0.29030811596E+02 -0.47530536008E+01  0.44147051768E+02  0.00000000000E+00 0. -1.
</event>
<event>
 7    1  0.2148778E-015  0.9000772E+02  0.7816164E-02  0.1186339E+00
        -11   -1    0    0    0    0  0.00000000000E+00  0.00000000000E+00  0.45593999997E+02  0.45594000000E+02  0.51100000000E-03 0. -1.
         11   -1    0    0    0    0 -0.00000000000E+00 -0.00000000000E+00 -0.45593999997E+02  0.45594000000E+02  0.51100000000E-03 0.  1.
    9900012    2    1    2    0    0 -0.10303452671E+01 -0.57564018608E+00 -0.90736160436E-02  0.90007722353E+02  0.89999983488E+02 0.  0.
         12    1    1    2    0    0  0.10303452671E+01  0.57564018608E+00  0.90736160436E-02  0.11802776469E+01  0.00000000000E+00 0. -1.
         11    1    3    3    0    0  0.22725835579E+01  0.99121875663E+01 -0.14528747351E+01  0.10272630804E+02  0.51100000000E-03 0. -1.
        -11    1    3    3    0    0  0.16902046210E+02  0.25972038887E+01 -0.33319204516E+02  0.37451221929E+02  0.51100000000E-03 0.  1.
         12    1    3    3    0    0 -0.20204975035E+02 -0.13085031641E+02  0.34763005636E+02  0.42283869620E+02  0.00000000000E+00 0. -1.
</event>
<event>
 7    1  0.2148778E-015  0.9000773E+02  0.7816164E-02  0.1186339E+00
        -11   -1    0    0    0    0  0.00000000000E+00  0.00000000000E+00  0.45593999997E+02  0.45594000000E+02  0.51100000000E-03 0. -1.
         11   -1    0    0    0    0 -0.00000000000E+00 -0.00000000000E+00 -0.45593999997E+02  0.45594000000E+02  0.51100000000E-03 0.  1.
    9900012    2    1    2    0    0  0.62366541788E+00  0.96154143707E+00  0.28197987448E+00  0.90007731752E+02  0.89999993011E+02 0.  0.
         12    1    1    2    0    0 -0.62366541788E+00 -0.96154143707E+00 -0.28197987448E+00  0.11802682484E+01  0.00000000000E+00 0. -1.
         11    1    3    3    0    0  0.11482458694E+01 -0.28630101530E+02  0.25652596205E+02  0.38458508480E+02  0.51100000000E-03 0. -1.
        -11    1    3    3    0    0  0.46525546055E+01 -0.64936641583E+01 -0.74689894922E+01  0.10936166735E+02  0.51100000000E-03 0.  1.
        -12    1    3    3    0    0 -0.51771350570E+01  0.36085307126E+02 -0.17901626839E+02  0.40613056536E+02  0.00000000000E+00 0.  1.
</event>
<event>
 7    1  0.2148778E-015  0.9000774E+02  0.7816164E-02  0.1186339E+00
        -11   -1    0    0    0    0  0.00000000000E+00  0.00000000000E+00  0.45593999997E+02  0.45594000000E+02  0.51100000000E-03 0.  1.
         11   -1    0    0    0    0 -0.00000000000E+00 -0.00000000000E+00 -0.45593999997E+02  0.45594000000E+02  0.51100000000E-03 0. -1.
    9900012    2    1    2    0    0 -0.40495607194E+00  0.70008998190E-01  0.11063983022E+01  0.90007742450E+02  0.90000003851E+02 0.  0.
         12    1    1    2    0    0  0.40495607194E+00 -0.70008998190E-01 -0.11063983022E+01  0.11802575495E+01  0.00000000000E+00 0. -1.
         11    1    3    3    0    0  0.79764533384E-01 -0.29219367977E+01  0.72039985344E+01  0.77744242343E+01  0.51100000000E-03 0. -1.
        -11    1    3    3    0    0  0.55681374244E+01  0.38873761186E+02  0.12704031455E+02  0.41274276234E+02  0.51100000000E-03 0.  1.
         12    1    3    3    0    0 -0.60528580297E+01 -0.35881815390E+02 -0.18801631687E+02  0.40959041983E+02  0.00000000000E+00 0. -1.
</event>
<event>
 7    1  0.2148778E-015  0.9000780E+02  0.7816164E-02  0.1186339E+00
        -11   -1    0    0    0    0  0.00000000000E+00  0.00000000000E+00  0.45593999997E+02  0.45594000000E+02  0.51100000000E-03 0. -1.
         11   -1    0    0    0    0 -0.00000000000E+00 -0.00000000000E+00 -0.45593999997E+02  0.45594000000E+02  0.51100000000E-03 0.  1.
    9900012    2    1    2    0    0 -0.77907729005E+00  0.19697232057E+00 -0.86435171026E+00  0.90007803661E+02  0.90000065870E+02 0.  0.
         12    1    1    2    0    0  0.77907729005E+00 -0.19697232057E+00  0.86435171026E+00  0.11801963387E+01  0.00000000000E+00 0. -1.
         11    1    3    3    0    0 -0.15024771298E+02  0.20441239402E+02 -0.25206702198E+02  0.35762632130E+02  0.51100000000E-03 0. -1.
        -11    1    3    3    0    0  0.53642410211E+00  0.69481022769E+01 -0.74636043773E+01  0.10211232376E+02  0.51100000000E-03 0.  1.
        -12    1    3    3    0    0  0.13709269906E+02 -0.27192369358E+02  0.31805954865E+02  0.44033939156E+02  0.00000000000E+00 0.  1.
</event>
<event>
 7    1  0.2148778E-015  0.9000777E+02  0.7816164E-02  0.1186339E+00
        -11   -1    0    0    0    0  0.00000000000E+00  0.00000000000E+00  0.45593999997E+02  0.45594000000E+02  0.51100000000E-03 0. -1.
         11   -1    0    0    0    0 -0.00000000000E+00 -0.00000000000E+00 -0.45593999997E+02  0.45594000000E+02  0.51100000000E-03 0.  1.
    9900012    2    1    2    0    0  0.89471589090E+00 -0.71141918161E+00 -0.29377133760E+00  0.90007773167E+02  0.90000034973E+02 0.  0.
         12    1    1    2    0    0 -0.89471589090E+00  0.71141918161E+00  0.29377133760E+00  0.11802268325E+01  0.00000000000E+00 0. -1.
         11    1    3    3    0    0  0.61870813848E+01 -0.42604473424E+01 -0.81631821839E+01  0.11093643732E+02  0.51100000000E-03 0. -1.
        -11    1    3    3    0    0  0.25744055173E+02  0.18066651514E+02 -0.17765791794E+02  0.36121788882E+02  0.51100000000E-03 0.  1.
         12    1    3    3    0    0 -0.31036420667E+02 -0.14517623354E+02  0.25635202640E+02  0.42792340554E+02  0.00000000000E+00 0. -1.
</event>
<event>
 7    1  0.2148778E-015  0.9000808E+02  0.7816164E-02  0.1186338E+00
        -11   -1    0    0    0    0  0.00000000000E+00  0.00000000000E+00  0.45593999997E+02  0.45594000000E+02  0.51100000000E-03 0. -1.
         11   -1    0    0    0    0 -0.00000000000E+00 -0.00000000000E+00 -0.45593999997E+02  0.45594000000E+02  0.51100000000E-03 0.  1.
    9900012    2    1    2    0    0 -0.35206414761E+00 -0.50458657109E+00 -0.10068006173E+01  0.90008082946E+02  0.90000348840E+02 0.  0.
         12    1    1    2    0    0  0.35206414761E+00  0.50458657109E+00  0.10068006173E+01  0.11799170542E+01  0.00000000000E+00 0. -1.
         11    1    3    3    0    0  0.81564530105E-01  0.45945798953E+01  0.76327590757E+01  0.89093113402E+01  0.51100000000E-03 0. -1.
        -11    1    3    3    0    0  0.34953061285E+02 -0.21716227324E+02 -0.43034696367E+00  0.41152110773E+02  0.51100000000E-03 0.  1.
         12    1    3    3    0    0 -0.35386689962E+02  0.16617060857E+02 -0.82092127293E+01  0.39946660832E+02  0.00000000000E+00 0. -1.
</event>
<event>
 7    1  0.2148778E-015  0.9000777E+02  0.7816164E-02  0.1186339E+00
        -11   -1    0    0    0    0  0.00000000000E+00  0.00000000000E+00  0.45593999997E+02  0.45594000000E+02  0.51100000000E-03 0.  1.
         11   -1    0    0    0    0 -0.00000000000E+00 -0.00000000000E+00 -0.45593999997E+02  0.45594000000E+02  0.51100000000E-03 0. -1.
    9900012    2    1    2    0    0  0.64676582846E+00  0.68219178392E+00  0.71362255278E+00  0.90007767474E+02  0.90000029205E+02 0.  0.
         12    1    1    2    0    0 -0.64676582846E+00 -0.68219178392E+00 -0.71362255278E+00  0.11802325257E+01  0.00000000000E+00 0. -1.
         11    1    3    3    0    0  0.38922026085E+01 -0.76627125723E+01 -0.24831196233E+01  0.89460767064E+01  0.51100000000E-03 0. -1.
        -11    1    3    3    0    0 -0.35832624058E+02  0.13661088733E+02 -0.17437035580E+02  0.42126624626E+02  0.51100000000E-03 0.  1.
         12    1    3    3    0    0  0.32587187278E+02 -0.53161843764E+01  0.20633777756E+02  0.38935066142E+02  0.00000000000E+00 0. -1.
</event>
<event>
 7    1  0.2148778E-015  0.9000787E+02  0.7816164E-02  0.1186339E+00
        -11   -1    0    0    0    0  0.00000000000E+00  0.00000000000E+00  0.45593999997E+02  0.45594000000E+02  0.51100000000E-03 0.  1.
         11   -1    0    0    0    0 -0.00000000000E+00 -0.00000000000E+00 -0.45593999997E+02  0.45594000000E+02  0.51100000000E-03 0. -1.
    9900012    2    1    2    0    0 -0.73266042818E+00  0.52775256511E+00 -0.75985744061E+00  0.90007873988E+02  0.90000137125E+02 0.  0.
         12    1    1    2    0    0  0.73266042818E+00 -0.52775256511E+00  0.75985744061E+00  0.11801260115E+01  0.00000000000E+00 0. -1.
         11    1    3    3    0    0 -0.12533373374E+02  0.10348926846E+01 -0.19143613952E+02  0.22904899179E+02  0.51100000000E-03 0. -1.
        -11    1    3    3    0    0  0.26935733432E+02  0.10943249438E+02 -0.11858295477E+02  0.31399165843E+02  0.51100000000E-03 0.  1.
        -12    1    3    3    0    0 -0.15135020486E+02 -0.11450389558E+02  0.30242051989E+02  0.35703808966E+02  0.00000000000E+00 0.  1.
</event>
<event>
 7    1  0.2148778E-015  0.9000773E+02  0.7816164E-02  0.1186339E+00
        -11   -1    0    0    0    0  0.00000000000E+00  0.00000000000E+00  0.45593999997E+02  0.45594000000E+02  0.51100000000E-03 0.  1.
         11   -1    0    0    0    0 -0.00000000000E+00 -0.00000000000E+00 -0.45593999997E+02  0.45594000000E+02  0.51100000000E-03 0. -1.
    9900012    2    1    2    0    0  0.72645875752E+00  0.55305956230E+00  0.74795171040E+00  0.90007725046E+02  0.89999986217E+02 0.  0.
         12    1    1    2    0    0 -0.72645875752E+00 -0.55305956230E+00 -0.74795171040E+00  0.11802749540E+01  0.00000000000E+00 0. -1.
         11    1    3    3    0    0 -0.39380172246E+01 -0.37980568307E+01  0.71291181116E+01  0.89865199416E+01  0.51100000000E-03 0. -1.
        -11    1    3    3    0    0 -0.66879496585E+01  0.35564318250E+02  0.17417804547E+02  0.40161291298E+02  0.51100000000E-03 0.  1.
         12    1    3    3    0    0  0.11352425641E+02 -0.31213201857E+02 -0.23798970949E+02  0.40859913807E+02  0.00000000000E+00 0. -1.
</event>
<event>
 8    1  0.2148778E-015  0.9000786E+02  0.7816164E-02  0.1186339E+00
        -11   -1    0    0    0    0  0.00000000000E+00  0.00000000000E+00  0.45593999997E+02  0.45594000000E+02  0.51100000000E-03 0.  1.
         11   -1    0    0    0    0 -0.00000000000E+00 -0.00000000000E+00 -0.45593999997E+02  0.45594000000E+02  0.51100000000E-03 0. -1.
    9900012    2    1    2    0    0  0.93414545479E+00  0.69259164846E+00  0.20104749018E+00  0.90007859748E+02  0.90000122696E+02 0.  0.
         23    2    3    3    0    0 -0.20557921776E+02 -0.73939877831E+01  0.13468372744E+02  0.63487610123E+02  0.58068755554E+02 0.  0.
         12    1    1    2    0    0 -0.93414545479E+00 -0.69259164846E+00 -0.20104749018E+00  0.11801402525E+01  0.00000000000E+00 0. -1.
         11    1    4    4    0    0 -0.46997011856E+01  0.61284339439E+01 -0.21463763409E+02  0.22810919179E+02  0.51100000000E-03 0. -1.
        -11    1    4    4    0    0 -0.15858220591E+02 -0.13522421727E+02  0.34932136153E+02  0.40676690944E+02  0.51100000000E-03 0.  1.
         12    1    3    3    0    0  0.21492067231E+02  0.80865794316E+01 -0.13267325254E+02  0.26520249625E+02  0.00000000000E+00 0. -1.
</event>
<event>
 7    1  0.2148778E-015  0.9000775E+02  0.7816164E-02  0.1186339E+00
        -11   -1    0    0    0    0  0.00000000000E+00  0.00000000000E+00  0.45593999997E+02  0.45594000000E+02  0.51100000000E-03 0.  1.
         11   -1    0    0    0    0 -0.00000000000E+00 -0.00000000000E+00 -0.45593999997E+02  0.45594000000E+02  0.51100000000E-03 0. -1.
    9900012    2    1    2    0    0 -0.39614498420E-01  0.42063713271E+00  0.11020325188E+01  0.90007754018E+02  0.90000015571E+02 0.  0.
         12    1    1    2    0    0  0.39614498420E-01 -0.42063713271E+00 -0.11020325188E+01  0.11802459821E+01  0.00000000000E+00 0. -1.
         11    1    3    3    0    0  0.26436108964E+02  0.56996454598E+01 -0.31717636954E+02  0.41681678346E+02  0.51100000000E-03 0. -1.
        -11    1    3    3    0    0  0.23805823892E+01  0.37753887397E+01  0.81703422442E+01  0.93099530233E+01  0.51100000000E-03 0.  1.
        -12    1    3    3    0    0 -0.28856305852E+02 -0.90543970668E+01  0.24649327229E+02  0.39016122648E+02  0.00000000000E+00 0.  1.
</event>
<event>
 7    1  0.2148778E-015  0.9000830E+02  0.7816164E-02  0.1186338E+00
        -11   -1    0    0    0    0  0.00000000000E+00  0.00000000000E+00  0.45593999997E+02  0.45594000000E+02  0.51100000000E-03 0.  1.
         11   -1    0    0    0    0 -0.00000000000E+00 -0.00000000000E+00 -0.45593999997E+02  0.45594000000E+02  0.51100000000E-03 0. -1.
    9900012    2    1    2    0    0  0.10176378028E+01  0.55928425088E+00  0.20810167174E+00  0.90008300090E+02  0.90000568850E+02 0.  0.
         12    1    1    2    0    0 -0.10176378028E+01 -0.55928425088E+00 -0.20810167174E+00  0.11796999096E+01  0.00000000000E+00 0. -1.
         11    1    3    3    0    0  0.64598270821E+01  0.11288917358E+02 -0.57333746215E+00  0.13019129662E+02  0.51100000000E-03 0. -1.
        -11    1    3    3    0    0  0.31977857478E+02  0.15624068172E+01 -0.13968698274E+02  0.34930631481E+02  0.51100000000E-03 0.  1.
         12    1    3    3    0    0 -0.37420046757E+02 -0.12292039924E+02  0.14750137408E+02  0.42058538947E+02  0.00000000000E+00 0. -1.
</event>
<event>
 7    1  0.2148778E-015  0.9000773E+02  0.7816164E-02  0.1186339E+00
        -11   -1    0    0    0    0  0.00000000000E+00  0.00000000000E+00  0.45593999997E+02  0.45594000000E+02  0.51100000000E-03 0. -1.
         11   -1    0    0    0    0 -0.00000000000E+00 -0.00000000000E+00 -0.45593999997E+02  0.45594000000E+02  0.51100000000E-03 0.  1.
    9900012    2    1    2    0    0  0.67892416684E+00  0.91608197507E+00 -0.30478683593E+00  0.90007729173E+02  0.89999990398E+02 0.  0.
         12    1    1    2    0    0 -0.67892416684E+00 -0.91608197507E+00  0.30478683593E+00  0.11802708269E+01  0.00000000000E+00 0. -1.
         11    1    3    3    0    0 -0.30534582576E+02 -0.20776268931E+02  0.46064960048E+01  0.37218730358E+02  0.51100000000E-03 0. -1.
        -11    1    3    3    0    0  0.94290046850E+00 -0.92230310900E+01 -0.14437448663E+01  0.93828440933E+01  0.51100000000E-03 0.  1.
        -12    1    3    3    0    0  0.30270606274E+02  0.30915381996E+02 -0.34675379744E+01  0.43406154722E+02  0.00000000000E+00 0.  1.
</event>
<event>
 7    1  0.2148778E-015  0.9000780E+02  0.7816164E-02  0.1186339E+00
        -11   -1    0    0    0    0  0.00000000000E+00  0.00000000000E+00  0.45593999997E+02  0.45594000000E+02  0.51100000000E-03 0. -1.
         11   -1    0    0    0    0 -0.00000000000E+00 -0.00000000000E+00 -0.45593999997E+02  0.45594000000E+02  0.51100000000E-03 0.  1.
    9900012    2    1    2    0    0  0.30399037713E+00  0.10739694100E+01 -0.38346821532E+00  0.90007801578E+02  0.90000063759E+02 0.  0.
         12    1    1    2    0    0 -0.30399037713E+00 -0.10739694100E+01  0.38346821532E+00  0.11801984219E+01  0.00000000000E+00 0. -1.
         11    1    3    3    0    0  0.35422130931E+01 -0.45497848365E+01  0.26929251817E+01  0.63639344710E+01  0.51100000000E-03 0. -1.
        -11    1    3    3    0    0  0.36133170185E+02 -0.14262766288E+02  0.36819975790E+01  0.39020374118E+02  0.51100000000E-03 0.  1.
         12    1    3    3    0    0 -0.39371392901E+02  0.19886520535E+02 -0.67583909760E+01  0.44623492989E+02  0.00000000000E+00 0. -1.
</event>
<event>
 7    1  0.2148778E-015  0.9000761E+02  0.7816164E-02  0.1186339E+00
        -11   -1    0    0    0    0  0.00000000000E+00  0.00000000000E+00  0.45593999997E+02  0.45594000000E+02  0.51100000000E-03 0.  1.
         11   -1    0    0    0    0 -0.00000000000E+00 -0.00000000000E+00 -0.45593999997E+02  0.45594000000E+02  0.51100000000E-03 0. -1.
    9900012    2    1    2    0    0  0.96313189845E+00  0.68242698740E+00 -0.25942907684E-03  0.90007606119E+02  0.89999865720E+02 0.  0.
         12    1    1    2    0    0 -0.96313189845E+00 -0.68242698740E+00  0.25942907684E-03  0.11803938810E+01  0.00000000000E+00 0. -1.
         11    1    3    3    0    0  0.30853099374E+01 -0.92014884690E+00 -0.90035191254E+01  0.95618600813E+01  0.51100000000E-03 0. -1.
        -11    1    3    3    0    0 -0.22382259088E+02  0.32445247778E+02  0.16601282779E+02  0.42769875092E+02  0.51100000000E-03 0.  1.
         12    1    3    3    0    0  0.20260081049E+02 -0.30842671943E+02 -0.75980230825E+01  0.37675870945E+02  0.00000000000E+00 0. -1.
</event>
<event>
 7    1  0.2148778E-015  0.9000689E+02  0.7816164E-02  0.1186341E+00
        -11   -1    0    0    0    0  0.00000000000E+00  0.00000000000E+00  0.45593999997E+02  0.45594000000E+02  0.51100000000E-03 0.  1.
         11   -1    0    0    0    0 -0.00000000000E+00 -0.00000000000E+00 -0.45593999997E+02  0.45594000000E+02  0.51100000000E-03 0. -1.
    9900012    2    1    2    0    0  0.40810951018E+00 -0.80853571584E+00  0.75811275526E+00  0.90006891061E+02  0.89999141219E+02 0.  0.
         12    1    1    2    0    0 -0.40810951018E+00  0.80853571584E+00 -0.75811275526E+00  0.11811089390E+01  0.00000000000E+00 0. -1.
         11    1    3    3    0    0  0.41329608757E+01 -0.30267689626E+01  0.73236562107E+01  0.89374849095E+01  0.51100000000E-03 0. -1.
        -11    1    3    3    0    0  0.12394475546E+02  0.35777626754E+02 -0.18272588387E+02  0.42042229803E+02  0.51100000000E-03 0.  1.
         12    1    3    3    0    0 -0.16119326912E+02 -0.33559393507E+02  0.11707044932E+02  0.39027176348E+02  0.00000000000E+00 0. -1.
</event>
<event>
 7    1  0.2236763E-015  0.9000771E+02  0.7816164E-02  0.1186339E+00
        -11   -1    0    0    0    0  0.00000000000E+00  0.00000000000E+00  0.45593999997E+02  0.45594000000E+02  0.51100000000E-03 0. -1.
         11   -1    0    0    0    0 -0.00000000000E+00 -0.00000000000E+00 -0.45593999997E+02  0.45594000000E+02  0.51100000000E-03 0.  1.
    9900012    2    1    2    0    0 -0.95925191698E+00 -0.57806338213E+00 -0.37250239384E+00  0.90007712091E+02  0.89999973091E+02 0.  0.
         12    1    1    2    0    0  0.95925191698E+00  0.57806338213E+00  0.37250239384E+00  0.11802879087E+01  0.00000000000E+00 0. -1.
         11    1    3    3    0    0  0.33558642033E+01 -0.13730806502E+01  0.86120998525E+01  0.93442730672E+01  0.51100000000E-03 0. -1.
        -11    1    3    3    0    0 -0.29954878691E+01 -0.35464218823E+02 -0.22316426151E+02  0.42008411547E+02  0.51100000000E-03 0.  1.
         12    1    3    3    0    0 -0.13196282512E+01  0.36259236091E+02  0.13331823904E+02  0.38655027477E+02  0.00000000000E+00 0. -1.
</event>
<event>
 7    1  0.2148778E-015  0.9000771E+02  0.7816164E-02  0.1186339E+00
        -11   -1    0    0    0    0  0.00000000000E+00  0.00000000000E+00  0.45593999997E+02  0.45594000000E+02  0.51100000000E-03 0.  1.
         11   -1    0    0    0    0 -0.00000000000E+00 -0.00000000000E+00 -0.45593999997E+02  0.45594000000E+02  0.51100000000E-03 0. -1.
    9900012    2    1    2    0    0 -0.45495058386E+00  0.22066295901E+00  0.10664957870E+01  0.90007709595E+02  0.89999970562E+02 0.  0.
         12    1    1    2    0    0  0.45495058386E+00 -0.22066295901E+00 -0.10664957870E+01  0.11802904045E+01  0.00000000000E+00 0. -1.
         11    1    3    3    0    0 -0.15122388579E+01  0.70115232672E+01  0.63583953662E+01  0.95852760411E+01  0.51100000000E-03 0. -1.
        -11    1    3    3    0    0  0.25750530803E+02 -0.12435500200E+02  0.27035736655E+02  0.39353050182E+02  0.51100000000E-03 0.  1.
         12    1    3    3    0    0 -0.24693242529E+02  0.56446398919E+01 -0.32327636234E+02  0.41069383373E+02  0.00000000000E+00 0. -1.
</event>
<event>
 7    1  0.2148778E-015  0.9000771E+02  0.7816164E-02  0.1186339E+00
        -11   -1    0    0    0    0  0.00000000000E+00  0.00000000000E+00  0.45593999997E+02  0.45594000000E+02  0.51100000000E-03 0.  1.
         11   -1    0    0    0    0 -0.00000000000E+00 -0.00000000000E+00 -0.45593999997E+02  0.45594000000E+02  0.51100000000E-03 0. -1.
    9900012    2    1    2    0    0  0.77225954023E+00  0.59770289215E+00  0.66290852607E+00  0.90007711366E+02  0.89999972356E+02 0.  0.
         12    1    1    2    0    0 -0.77225954023E+00 -0.59770289215E+00 -0.66290852607E+00  0.11802886336E+01  0.00000000000E+00 0. -1.
         11    1    3    3    0    0 -0.16678367253E+02 -0.10475294931E+02  0.32512927096E+02  0.38013026277E+02  0.51100000000E-03 0. -1.
        -11    1    3    3    0    0 -0.22539649537E+01  0.72112573698E+01  0.56655133882E+01  0.94435498134E+01  0.51100000000E-03 0.  1.
        -12    1    3    3    0    0  0.19704591747E+02  0.38617404534E+01 -0.37515531958E+02  0.42551135276E+02  0.00000000000E+00 0.  1.
</event>
<event>
 7    1  0.2256000E-015  0.9000745E+02  0.7816164E-02  0.1186340E+00
        -11   -1    0    0    0    0  0.00000000000E+00  0.00000000000E+00  0.45593999997E+02  0.45594000000E+02  0.51100000000E-03 0. -1.
         11   -1    0    0    0    0 -0.00000000000E+00 -0.00000000000E+00 -0.45593999997E+02  0.45594000000E+02  0.51100000000E-03 0.  1.
    9900012    2    1    2    0    0  0.41664501518E+00  0.79850290897E+00 -0.76321324244E+00  0.90007451645E+02  0.89999709207E+02 0.  0.
         12    1    1    2    0    0 -0.41664501518E+00 -0.79850290897E+00  0.76321324244E+00  0.11805483547E+01  0.00000000000E+00 0. -1.
         11    1    3    3    0    0  0.75755073580E+00 -0.39215084952E+01 -0.91985993423E+01  0.10028277126E+02  0.51100000000E-03 0. -1.
        -11    1    3    3    0    0 -0.83169264321E+01  0.30744344488E+02 -0.22332877930E+02  0.38899144209E+02  0.51100000000E-03 0.  1.
         12    1    3    3    0    0  0.79760207115E+01 -0.26024333084E+02  0.30768264030E+02  0.41080030310E+02  0.00000000000E+00 0. -1.
</event>
<event>
 7    1  0.2148778E-015  0.9000740E+02  0.7816164E-02  0.1186340E+00
        -11   -1    0    0    0    0  0.00000000000E+00  0.00000000000E+00  0.45593999997E+02  0.45594000000E+02  0.51100000000E-03 0.  1.
         11   -1    0    0    0    0 -0.00000000000E+00 -0.00000000000E+00 -0.45593999997E+02  0.45594000000E+02  0.51100000000E-03 0. -1.
    9900012    2    1    2    0    0  0.59931729201E+00 -0.82208536603E+00  0.59900893383E+00  0.90007399615E+02  0.89999656490E+02 0.  0.
         12    1    1    2    0    0 -0.59931729201E+00  0.82208536603E+00 -0.59900893383E+00  0.11806003847E+01  0.00000000000E+00 0. -1.
         11    1    3    3    0    0  0.21333059626E+02  0.25007693156E+02  0.34785676326E+01  0.33054267244E+02  0.51100000000E-03 0. -1.
        -11    1    3    3    0    0  0.53572702600E+01  0.10561606972E+02 -0.28255832554E+01  0.12175048561E+02  0.51100000000E-03 0.  1.
        -12    1    3    3    0    0 -0.26091012594E+02 -0.36391385494E+02 -0.53975443351E-01  0.44778083810E+02  0.00000000000E+00 0.  1.
</event>
<event>
 7    1  0.2148778E-015  0.9000791E+02  0.7816164E-02  0.1186339E+00
        -11   -1    0    0    0    0  0.00000000000E+00  0.00000000000E+00  0.45593999997E+02  0.45594000000E+02  0.51100000000E-03 0. -1.
         11   -1    0    0    0    0 -0.00000000000E+00 -0.00000000000E+00 -0.45593999997E+02  0.45594000000E+02  0.51100000000E-03 0.  1.
    9900012    2    1    2    0    0 -0.60630882708E+00 -0.46355630193E+00 -0.90006692337E+00  0.90007908772E+02  0.90000172368E+02 0.  0.
         12    1    1    2    0    0  0.60630882708E+00  0.46355630193E+00  0.90006692337E+00  0.11800912276E+01  0.00000000000E+00 0. -1.
         11    1    3    3    0    0  0.17435852515E+02 -0.12593057198E+01 -0.18163105133E+02  0.25208990304E+02  0.51100000000E-03 0. -1.
        -11    1    3    3    0    0 -0.61552699393E+01  0.27279879775E+02 -0.47510898007E+01  0.28366389321E+02  0.51100000000E-03 0.  1.
         12    1    3    3    0    0 -0.11886891403E+02 -0.26484130357E+02  0.22014128010E+02  0.36432529147E+02  0.00000000000E+00 0. -1.
</event>
<event>
 7    1  0.2148778E-015  0.9000773E+02  0.7816164E-02  0.1186339E+00
        -11   -1    0    0    0    0  0.00000000000E+00  0.00000000000E+00  0.45593999997E+02  0.45594000000E+02  0.51100000000E-03 0.  1.
         11   -1    0    0    0    0 -0.00000000000E+00 -0.00000000000E+00 -0.45593999997E+02  0.45594000000E+02  0.51100000000E-03 0. -1.
    9900012    2    1    2    0    0  0.19936140742E-02 -0.10774377839E+01  0.48182471852E+00  0.90007732568E+02  0.89999993837E+02 0.  0.
         12    1    1    2    0    0 -0.19936140742E-02  0.10774377839E+01 -0.48182471852E+00  0.11802674325E+01  0.00000000000E+00 0. -1.
         11    1    3    3    0    0 -0.22527008511E+02 -0.15678668396E+02 -0.20280745697E+02  0.34126168865E+02  0.51100000000E-03 0. -1.
        -11    1    3    3    0    0 -0.92676801513E+01  0.17653480255E+02  0.80394858621E+01  0.21498106747E+02  0.51100000000E-03 0.  1.
         12    1    3    3    0    0  0.31796682276E+02 -0.30522496434E+01  0.12723084554E+02  0.34383456955E+02  0.00000000000E+00 0. -1.
</event>
<event>
 7    1  0.2148778E-015  0.9000779E+02  0.7816164E-02  0.1186339E+00
        -11   -1    0    0    0    0  0.00000000000E+00  0.00000000000E+00  0.45593999997E+02  0.45594000000E+02  0.51100000000E-03 0.  1.
         11   -1    0    0    0    0 -0.00000000000E+00 -0.00000000000E+00 -0.45593999997E+02  0.45594000000E+02  0.51100000000E-03 0. -1.
    9900012    2    1    2    0    0 -0.46752166979E+00  0.69399586484E+00  0.83227515480E+00  0.90007792940E+02  0.90000055006E+02 0.  0.
         12    1    1    2    0    0  0.46752166979E+00 -0.69399586484E+00 -0.83227515480E+00  0.11802070604E+01  0.00000000000E+00 0. -1.
         11    1    3    3    0    0  0.13329123509E+01 -0.10740955164E+02  0.45629308168E+01  0.11745855059E+02  0.51100000000E-03 0. -1.
        -11    1    3    3    0    0 -0.35041015617E+02 -0.72554917750E+01 -0.14538817484E+02  0.38625019747E+02  0.51100000000E-03 0.  1.
         12    1    3    3    0    0  0.33240581597E+02  0.18690442804E+02  0.10808161822E+02  0.39636918133E+02  0.00000000000E+00 0. -1.
</event>
<event>
 7    1  0.2148778E-015  0.9000778E+02  0.7816164E-02  0.1186339E+00
        -11   -1    0    0    0    0  0.00000000000E+00  0.00000000000E+00  0.45593999997E+02  0.45594000000E+02  0.51100000000E-03 0. -1.
         11   -1    0    0    0    0 -0.00000000000E+00 -0.00000000000E+00 -0.45593999997E+02  0.45594000000E+02  0.51100000000E-03 0.  1.
    9900012    2    1    2    0    0  0.28146016350E+00  0.52310731060E+00 -0.10198307762E+01  0.90007781421E+02  0.90000043336E+02 0.  0.
         12    1    1    2    0    0 -0.28146016350E+00 -0.52310731060E+00  0.10198307762E+01  0.11802185790E+01  0.00000000000E+00 0. -1.
         11    1    3    3    0    0 -0.13072819094E+02  0.34548384872E+02  0.86064487418E+01  0.37928359529E+02  0.51100000000E-03 0. -1.
        -11    1    3    3    0    0 -0.85414498110E+01 -0.49222248074E+00  0.44315465172E+01  0.96352090087E+01  0.51100000000E-03 0.  1.
        -12    1    3    3    0    0  0.21895729068E+02 -0.33533055081E+02 -0.14057826035E+02  0.42444212884E+02  0.00000000000E+00 0.  1.
</event>
<event>
 7    1  0.2148778E-015  0.9000760E+02  0.7816164E-02  0.1186339E+00
        -11   -1    0    0    0    0  0.00000000000E+00  0.00000000000E+00  0.45593999997E+02  0.45594000000E+02  0.51100000000E-03 0. -1.
         11   -1    0    0    0    0 -0.00000000000E+00 -0.00000000000E+00 -0.45593999997E+02  0.45594000000E+02  0.51100000000E-03 0.  1.
    9900012    2    1    2    0    0  0.95761082224E-01  0.94353693865E+00 -0.70278125055E+00  0.90007604462E+02  0.89999864041E+02 0.  0.
         12    1    1    2    0    0 -0.95761082224E-01 -0.94353693865E+00  0.70278125055E+00  0.11803955378E+01  0.00000000000E+00 0. -1.
         11    1    3    3    0    0 -0.34724151111E+01  0.93640579342E+01  0.22289340488E+01  0.10232858592E+02  0.51100000000E-03 0. -1.
        -11    1    3    3    0    0 -0.34961597719E+02 -0.14850471956E+02 -0.11688672722E+02  0.39742608151E+02  0.51100000000E-03 0.  1.
         12    1    3    3    0    0  0.38529773912E+02  0.64299509600E+01  0.87569574230E+01  0.40032137720E+02  0.00000000000E+00 0. -1.
</event>
<event>
 7    1  0.2148778E-015  0.9000767E+02  0.7816164E-02  0.1186339E+00
        -11   -1    0    0    0    0  0.00000000000E+00  0.00000000000E+00  0.45593999997E+02  0.45594000000E+02  0.51100000000E-03 0.  1.
         11   -1    0    0    0    0 -0.00000000000E+00 -0.00000000000E+00 -0.45593999997E+02  0.45594000000E+02  0.51100000000E-03 0. -1.
    9900012    2    1    2    0    0  0.12687724105E+00  0.10137492173E+01  0.59109737157E+00  0.90007668939E+02  0.89999929369E+02 0.  0.
         12    1    1    2    0    0 -0.12687724105E+00 -0.10137492173E+01 -0.59109737157E+00  0.11803310606E+01  0.00000000000E+00 0. -1.
         11    1    3    3    0    0  0.72554428493E+01  0.37864194172E+01 -0.59054492953E+01  0.10092212571E+02  0.51100000000E-03 0. -1.
        -11    1    3    3    0    0  0.24137909476E+02  0.15009686297E+02  0.26411611148E+02  0.38800806181E+02  0.51100000000E-03 0.  1.
         12    1    3    3    0    0 -0.31266475084E+02 -0.17782356497E+02 -0.19915064481E+02  0.41114650187E+02  0.00000000000E+00 0. -1.
</event>
<event>
 7    1  0.2148778E-015  0.9000777E+02  0.7816164E-02  0.1186339E+00
        -11   -1    0    0    0    0  0.00000000000E+00  0.00000000000E+00  0.45593999997E+02  0.45594000000E+02  0.51100000000E-03 0. -1.
         11   -1    0    0    0    0 -0.00000000000E+00 -0.00000000000E+00 -0.45593999997E+02  0.45594000000E+02  0.51100000000E-03 0.  1.
    9900012    2    1    2    0    0  0.62537432827E+00  0.44199139596E+00 -0.89804464489E+00  0.90007773908E+02  0.90000035723E+02 0.  0.
         12    1    1    2    0    0 -0.62537432827E+00 -0.44199139596E+00  0.89804464489E+00  0.11802260922E+01  0.00000000000E+00 0. -1.
         11    1    3    3    0    0  0.83117781502E+01 -0.29152183177E+01 -0.28624039088E+01  0.92616148839E+01  0.51100000000E-03 0. -1.
        -11    1    3    3    0    0  0.25023128656E+02 -0.25413087346E+02 -0.68103025046E+01  0.36309257726E+02  0.51100000000E-03 0.  1.
         12    1    3    3    0    0 -0.32709532478E+02  0.28770297059E+02  0.87746617685E+01  0.44436901298E+02  0.00000000000E+00 0. -1.
</event>
<event>
 7    1  0.2148778E-015  0.9000779E+02  0.7816164E-02  0.1186339E+00
        -11   -1    0    0    0    0  0.00000000000E+00  0.00000000000E+00  0.45593999997E+02  0.45594000000E+02  0.51100000000E-03 0.  1.
         11   -1    0    0    0    0 -0.00000000000E+00 -0.00000000000E+00 -0.45593999997E+02  0.45594000000E+02  0.51100000000E-03 0. -1.
    9900012    2    1    2    0    0 -0.11114472437E+01 -0.33965649599E+00  0.20547479228E+00  0.90007787561E+02  0.90000049557E+02 0.  0.
         12    1    1    2    0    0  0.11114472437E+01  0.33965649599E+00 -0.20547479228E+00  0.11802124390E+01  0.00000000000E+00 0. -1.
         11    1    3    3    0    0  0.23029731211E+01 -0.77667035004E+01  0.44107386525E+01  0.92238811886E+01  0.51100000000E-03 0. -1.
        -11    1    3    3    0    0  0.81117057834E+01  0.41656623690E+02  0.69017129085E+01  0.42996601136E+02  0.51100000000E-03 0.  1.
         12    1    3    3    0    0 -0.11526126148E+02 -0.34229576685E+02 -0.11106976769E+02  0.37787305236E+02  0.00000000000E+00 0. -1.
</event>
<event>
 7    1  0.2635983E-015  0.9000776E+02  0.7816164E-02  0.1186339E+00
        -11   -1    0    0    0    0  0.00000000000E+00  0.00000000000E+00  0.45593999997E+02  0.45594000000E+02  0.51100000000E-03 0.  1.
         11   -1    0    0    0    0 -0.00000000000E+00 -0.00000000000E+00 -0.45593999997E+02  0.45594000000E+02  0.51100000000E-03 0. -1.
    9900012    2    1    2    0    0  0.51141213833E+00 -0.74357412826E+00  0.76061324796E+00  0.90007755376E+02  0.90000016947E+02 0.  0.
         12    1    1    2    0    0 -0.51141213833E+00  0.74357412826E+00 -0.76061324796E+00  0.11802446240E+01  0.00000000000E+00 0. -1.
         11    1    3    3    0    0 -0.51407451582E+01  0.55926188585E+01  0.61032086965E+01  0.97444242074E+01  0.51100000000E-03 0. -1.
        -11    1    3    3    0    0 -0.16507435899E+02 -0.26097002539E+02  0.23549939959E+02  0.38834889646E+02  0.51100000000E-03 0.  1.
         12    1    3    3    0    0  0.22159593195E+02  0.19760809552E+02 -0.28892535407E+02  0.41428441523E+02  0.00000000000E+00 0. -1.
</event>
<event>
 7    1  0.2148778E-015  0.9000784E+02  0.7816164E-02  0.1186339E+00
        -11   -1    0    0    0    0  0.00000000000E+00  0.00000000000E+00  0.45593999997E+02  0.45594000000E+02  0.51100000000E-03 0. -1.
         11   -1    0    0    0    0 -0.00000000000E+00 -0.00000000000E+00 -0.45593999997E+02  0.45594000000E+02  0.51100000000E-03 0.  1.
    9900012    2    1    2    0    0 -0.11745303109E+01 -0.67955529435E-01 -0.92965454631E-01  0.90007838155E+02  0.90000100818E+02 0.  0.
         12    1    1    2    0    0  0.11745303109E+01  0.67955529435E-01  0.92965454631E-01  0.11801618452E+01  0.00000000000E+00 0. -1.
         11    1    3    3    0    0  0.41726213848E+01  0.21754580239E+02  0.38098866372E+02  0.44070354545E+02  0.51100000000E-03 0. -1.
        -11    1    3    3    0    0 -0.31960376888E+01 -0.75859294065E+01 -0.46931373338E+01  0.94755749252E+01  0.51100000000E-03 0.  1.
        -12    1    3    3    0    0 -0.21511140069E+01 -0.14236606362E+02 -0.33498694493E+02  0.36461908685E+02  0.00000000000E+00 0.  1.
</event>
<event>
 7    1  0.2148778E-015  0.9000763E+02  0.7816164E-02  0.1186339E+00
        -11   -1    0    0    0    0  0.00000000000E+00  0.00000000000E+00  0.45593999997E+02  0.45594000000E+02  0.51100000000E-03 0.  1.
         11   -1    0    0    0    0 -0.00000000000E+00 -0.00000000000E+00 -0.45593999997E+02  0.45594000000E+02  0.51100000000E-03 0. -1.
    9900012    2    1    2    0    0  0.15638377597E+00  0.10534465581E+01  0.50898140854E+00  0.90007632426E+02  0.89999892374E+02 0.  0.
         12    1    1    2    0    0 -0.15638377597E+00 -0.10534465581E+01 -0.50898140854E+00  0.11803675743E+01  0.00000000000E+00 0. -1.
         11    1    3    3    0    0  0.71549362461E+01 -0.15692731338E+02 -0.22662408202E+02  0.28478758318E+02  0.51100000000E-03 0. -1.
        -11    1    3    3    0    0 -0.94860332041E+01 -0.12755482916E+02 -0.86230848498E+01  0.18084378976E+02  0.51100000000E-03 0.  1.
        -12    1    3    3    0    0  0.24874807340E+01  0.29501660812E+02  0.31794474460E+02  0.43444495132E+02  0.00000000000E+00 0.  1.
</event>
<event>
 7    1  0.2148778E-015  0.9000772E+02  0.7816164E-02  0.1186339E+00
        -11   -1    0    0    0    0  0.00000000000E+00  0.00000000000E+00  0.45593999997E+02  0.45594000000E+02  0.51100000000E-03 0.  1.
         11   -1    0    0    0    0 -0.00000000000E+00 -0.00000000000E+00 -0.45593999997E+02  0.45594000000E+02  0.51100000000E-03 0. -1.
    9900012    2    1    2    0    0  0.60193699316E+00 -0.10131360806E+01  0.65487271627E-01  0.90007719760E+02  0.89999980861E+02 0.  0.
         12    1    1    2    0    0 -0.60193699316E+00  0.10131360806E+01 -0.65487271627E-01  0.11802802397E+01  0.00000000000E+00 0. -1.
         11    1    3    3    0    0  0.38610718440E+02  0.15602434693E+01  0.52303553595E+01  0.38994596492E+02  0.51100000000E-03 0. -1.
        -11    1    3    3    0    0  0.37810456924E+01  0.20273481867E+01 -0.77853560093E+01  0.88892190687E+01  0.51100000000E-03 0.  1.
        -12    1    3    3    0    0 -0.41789827139E+02 -0.46007277366E+01  0.26204879214E+01  0.42123904199E+02  0.00000000000E+00 0.  1.
</event>
<event>
 7    1  0.2148778E-015  0.9000770E+02  0.7816164E-02  0.1186339E+00
        -11   -1    0    0    0    0  0.00000000000E+00  0.00000000000E+00  0.45593999997E+02  0.45594000000E+02  0.51100000000E-03 0. -1.
         11   -1    0    0    0    0 -0.00000000000E+00 -0.00000000000E+00 -0.45593999997E+02  0.45594000000E+02  0.51100000000E-03 0.  1.
    9900012    2    1    2    0    0  0.35278057053E+00  0.57326288474E+00 -0.96955378530E+00  0.90007695375E+02  0.89999956154E+02 0.  0.
         12    1    1    2    0    0 -0.35278057053E+00 -0.57326288474E+00  0.96955378530E+00  0.11803046253E+01  0.00000000000E+00 0. -1.
         11    1    3    3    0    0 -0.92911460491E+01 -0.35053251201E+01 -0.21181910291E+01  0.10153789076E+02  0.51100000000E-03 0. -1.
        -11    1    3    3    0    0 -0.19816810602E+02  0.31284163218E+02 -0.97576113384E+01  0.38296420590E+02  0.51100000000E-03 0.  1.
         12    1    3    3    0    0  0.29460737222E+02 -0.27205575213E+02  0.10906248582E+02  0.41557485709E+02  0.00000000000E+00 0. -1.
</event>
<event>
 7    1  0.2148778E-015  0.9000757E+02  0.7816164E-02  0.1186339E+00
        -11   -1    0    0    0    0  0.00000000000E+00  0.00000000000E+00  0.45593999997E+02  0.45594000000E+02  0.51100000000E-03 0.  1.
         11   -1    0    0    0    0 -0.00000000000E+00 -0.00000000000E+00 -0.45593999997E+02  0.45594000000E+02  0.51100000000E-03 0. -1.
    9900012    2    1    2    0    0  0.51463508041E+00  0.13829765233E+00  0.10533033761E+01  0.90007566390E+02  0.89999825466E+02 0.  0.
         12    1    1    2    0    0 -0.51463508041E+00 -0.13829765233E+00 -0.10533033761E+01  0.11804336104E+01  0.00000000000E+00 0. -1.
         11    1    3    3    0    0  0.89215329417E+00 -0.31906547101E+02 -0.21317511358E+02  0.38383068874E+02  0.51100000000E-03 0. -1.
        -11    1    3    3    0    0  0.57632271697E+01 -0.58035300167E+01  0.41703972498E+01  0.91808475397E+01  0.51100000000E-03 0.  1.
        -12    1    3    3    0    0 -0.61407453835E+01  0.37848374770E+02  0.18200417485E+02  0.42443649976E+02  0.00000000000E+00 0.  1.
</event>
<event>
 7    1  0.2148778E-015  0.9000781E+02  0.7816164E-02  0.1186339E+00
        -11   -1    0    0    0    0  0.00000000000E+00  0.00000000000E+00  0.45593999997E+02  0.45594000000E+02  0.51100000000E-03 0.  1.
         11   -1    0    0    0    0 -0.00000000000E+00 -0.00000000000E+00 -0.45593999997E+02  0.45594000000E+02  0.51100000000E-03 0. -1.
    9900012    2    1    2    0    0 -0.82492101160E+00 -0.80401634830E+00 -0.25674922300E+00  0.90007806318E+02  0.90000068561E+02 0.  0.
         12    1    1    2    0    0  0.82492101160E+00  0.80401634830E+00  0.25674922300E+00  0.11801936821E+01  0.00000000000E+00 0. -1.
         11    1    3    3    0    0 -0.58522719745E+01 -0.79429303367E+01 -0.68640526048E+01  0.12018920418E+02  0.51100000000E-03 0. -1.
        -11    1    3    3    0    0 -0.31463085772E+02  0.18394233925E+02  0.14092771291E+02  0.39075309479E+02  0.51100000000E-03 0.  1.
         12    1    3    3    0    0  0.36490436735E+02 -0.11255319937E+02 -0.74854679092E+01  0.38913576420E+02  0.00000000000E+00 0. -1.
</event>
<event>
 7    1  0.2148778E-015  0.9000777E+02  0.7816164E-02  0.1186339E+00
        -11   -1    0    0    0    0  0.00000000000E+00  0.00000000000E+00  0.45593999997E+02  0.45594000000E+02  0.51100000000E-03 0.  1.
         11   -1    0    0    0    0 -0.00000000000E+00 -0.00000000000E+00 -0.45593999997E+02  0.45594000000E+02  0.51100000000E-03 0. -1.
    9900012    2    1    2    0    0  0.37029009958E+00 -0.10745705816E+01 -0.31798672472E+00  0.90007774492E+02  0.90000036315E+02 0.  0.
         12    1    1    2    0    0 -0.37029009958E+00  0.10745705816E+01  0.31798672472E+00  0.11802255081E+01  0.00000000000E+00 0. -1.
         11    1    3    3    0    0 -0.27328469761E+01  0.10963522279E+01  0.21196730609E+02  0.21400276391E+02  0.51100000000E-03 0. -1.
        -11    1    3    3    0    0  0.30456005631E+02 -0.82671966839E+01  0.25609232642E+01  0.31661856361E+02  0.51100000000E-03 0.  1.
         12    1    3    3    0    0 -0.27352868555E+02  0.60962738743E+01 -0.24075640598E+02  0.36945641740E+02  0.00000000000E+00 0. -1.
</event>
<event>
 7    1  0.2148778E-015  0.9000812E+02  0.7816164E-02  0.1186338E+00
        -11   -1    0    0    0    0  0.00000000000E+00  0.00000000000E+00  0.45593999997E+02  0.45594000000E+02  0.51100000000E-03 0.  1.
         11   -1    0    0    0    0 -0.00000000000E+00 -0.00000000000E+00 -0.45593999997E+02  0.45594000000E+02  0.51100000000E-03 0. -1.
    9900012    2    1    2    0    0 -0.82530641744E+00 -0.51791262156E+00  0.66539186459E+00  0.90008122676E+02  0.90000389094E+02 0.  0.
         12    1    1    2    0    0  0.82530641744E+00  0.51791262156E+00 -0.66539186459E+00  0.11798773240E+01  0.00000000000E+00 0. -1.
         11    1    3    3    0    0  0.33469945117E+02  0.54717356475E+01 -0.20764327353E+02  0.39765995622E+02  0.51100000000E-03 0. -1.
        -11    1    3    3    0    0 -0.28299106645E+01  0.78092815754E+01 -0.21390344636E+01  0.85772222655E+01  0.51100000000E-03 0.  1.
        -12    1    3    3    0    0 -0.31465340870E+02 -0.13798929845E+02  0.23568753682E+02  0.41664904788E+02  0.00000000000E+00 0.  1.
</event>
<event>
 7    1  0.2148778E-015  0.9000769E+02  0.7816164E-02  0.1186339E+00
        -11   -1    0    0    0    0  0.00000000000E+00  0.00000000000E+00  0.45593999997E+02  0.45594000000E+02  0.51100000000E-03 0.  1.
         11   -1    0    0    0    0 -0.00000000000E+00 -0.00000000000E+00 -0.45593999997E+02  0.45594000000E+02  0.51100000000E-03 0. -1.
    9900012    2    1    2    0    0 -0.74450894761E+00  0.81247798574E+00 -0.42274098805E+00  0.90007693263E+02  0.89999954014E+02 0.  0.
         12    1    1    2    0    0  0.74450894761E+00 -0.81247798574E+00  0.42274098805E+00  0.11803067370E+01  0.00000000000E+00 0. -1.
         11    1    3    3    0    0  0.65928784652E+01 -0.24259173471E+01 -0.76594938280E+01  0.10393217375E+02  0.51100000000E-03 0. -1.
        -11    1    3    3    0    0 -0.14842634853E+02 -0.28423016515E+02  0.26676455922E+02  0.41710969517E+02  0.51100000000E-03 0.  1.
         12    1    3    3    0    0  0.75052474402E+01  0.31661411848E+02 -0.19439703082E+02  0.37903506372E+02  0.00000000000E+00 0. -1.
</event>
<event>
 7    1  0.2148778E-015  0.9000778E+02  0.7816164E-02  0.1186339E+00
        -11   -1    0    0    0    0  0.00000000000E+00  0.00000000000E+00  0.45593999997E+02  0.45594000000E+02  0.51100000000E-03 0.  1.
         11   -1    0    0    0    0 -0.00000000000E+00 -0.00000000000E+00 -0.45593999997E+02  0.45594000000E+02  0.51100000000E-03 0. -1.
    9900012    2    1    2    0    0 -0.68232255802E+00  0.80333440395E+00  0.53104863573E+00  0.90007778457E+02  0.90000040332E+02 0.  0.
         12    1    1    2    0    0  0.68232255802E+00 -0.80333440395E+00 -0.53104863573E+00  0.11802215433E+01  0.00000000000E+00 0. -1.
         11    1    3    3    0    0 -0.29948481919E+02 -0.24437711587E+02  0.15624118095E+02  0.41692042207E+02  0.51100000000E-03 0. -1.
        -11    1    3    3    0    0 -0.17068776559E-01  0.11360876921E+02 -0.10712051194E+02  0.15614668002E+02  0.51100000000E-03 0.  1.
        -12    1    3    3    0    0  0.29283228137E+02  0.13880169070E+02 -0.43810182649E+01  0.32701068248E+02  0.00000000000E+00 0.  1.
</event>
<event>
 7    1  0.2148778E-015  0.9000756E+02  0.7816164E-02  0.1186339E+00
        -11   -1    0    0    0    0  0.00000000000E+00  0.00000000000E+00  0.45593999997E+02  0.45594000000E+02  0.51100000000E-03 0. -1.
         11   -1    0    0    0    0 -0.00000000000E+00 -0.00000000000E+00 -0.45593999997E+02  0.45594000000E+02  0.51100000000E-03 0.  1.
    9900012    2    1    2    0    0 -0.62119950586E+00 -0.65532040855E+00 -0.76033605555E+00  0.90007557464E+02  0.89999816422E+02 0.  0.
         12    1    1    2    0    0  0.62119950586E+00  0.65532040855E+00  0.76033605555E+00  0.11804425362E+01  0.00000000000E+00 0. -1.
         11    1    3    3    0    0 -0.30402239662E+02 -0.24592089241E+01  0.13235027941E+02  0.33249208259E+02  0.51100000000E-03 0. -1.
        -11    1    3    3    0    0 -0.10561700796E+02 -0.36816815164E+01  0.44796057979E+01  0.12048699966E+02  0.51100000000E-03 0.  1.
        -12    1    3    3    0    0  0.40342740953E+02  0.54855700320E+01 -0.18474969794E+02  0.44709649239E+02  0.00000000000E+00 0.  1.
</event>
<event>
 7    1  0.2148778E-015  0.9000768E+02  0.7816164E-02  0.1186339E+00
        -11   -1    0    0    0    0  0.00000000000E+00  0.00000000000E+00  0.45593999997E+02  0.45594000000E+02  0.51100000000E-03 0. -1.
         11   -1    0    0    0    0 -0.00000000000E+00 -0.00000000000E+00 -0.45593999997E+02  0.45594000000E+02  0.51100000000E-03 0.  1.
    9900012    2    1    2    0    0  0.33549747708E+00 -0.38813458817E+00 -0.10629916933E+01  0.90007678707E+02  0.89999939265E+02 0.  0.
         12    1    1    2    0    0 -0.33549747708E+00  0.38813458817E+00  0.10629916933E+01  0.11803212934E+01  0.00000000000E+00 0. -1.
         11    1    3    3    0    0 -0.95714229300E+01  0.34335043983E+02  0.80872350933E+01  0.36550112913E+02  0.51100000000E-03 0. -1.
        -11    1    3    3    0    0  0.76448156262E+01  0.70687850404E+01  0.78418941366E+00  0.10441545920E+02  0.51100000000E-03 0.  1.
        -12    1    3    3    0    0  0.22621047809E+01 -0.41791963611E+02 -0.99344162002E+01  0.43016019874E+02  0.00000000000E+00 0.  1.
</event>
<event>
 7    1  0.2148778E-015  0.9000772E+02  0.7816164E-02  0.1186339E+00
        -11   -1    0    0    0    0  0.00000000000E+00  0.00000000000E+00  0.45593999997E+02  0.45594000000E+02  0.51100000000E-03 0.  1.
         11   -1    0    0    0    0 -0.00000000000E+00 -0.00000000000E+00 -0.45593999997E+02  0.45594000000E+02  0.51100000000E-03 0. -1.
    9900012    2    1    2    0    0 -0.77769578680E+00  0.82774222296E+00  0.32106489901E+00  0.90007724357E+02  0.89999985518E+02 0.  0.
         12    1    1    2    0    0  0.77769578680E+00 -0.82774222296E+00 -0.32106489901E+00  0.11802756432E+01  0.00000000000E+00 0. -1.
         11    1    3    3    0    0 -0.13764898761E+02  0.28428134873E+02 -0.27235975181E+02  0.41706469937E+02  0.51100000000E-03 0. -1.
        -11    1    3    3    0    0  0.41599645118E+01  0.32773521571E+01  0.10912098398E+02  0.12129312990E+02  0.51100000000E-03 0.  1.
        -12    1    3    3    0    0  0.88272384628E+01 -0.30877744807E+02  0.16644941682E+02  0.36171941430E+02  0.00000000000E+00 0.  1.
</event>
<event>
 7    1  0.2148778E-015  0.9000775E+02  0.7816164E-02  0.1186339E+00
        -11   -1    0    0    0    0  0.00000000000E+00  0.00000000000E+00  0.45593999997E+02  0.45594000000E+02  0.51100000000E-03 0. -1.
         11   -1    0    0    0    0 -0.00000000000E+00 -0.00000000000E+00 -0.45593999997E+02  0.45594000000E+02  0.51100000000E-03 0.  1.
    9900012    2    1    2    0    0 -0.27794802238E-01 -0.11545888190E+01 -0.24317384312E+00  0.90007753666E+02  0.90000015214E+02 0.  0.
         12    1    1    2    0    0  0.27794802238E-01  0.11545888190E+01  0.24317384312E+00  0.11802463344E+01  0.00000000000E+00 0. -1.
         11    1    3    3    0    0 -0.22107092117E+02 -0.13380971732E+02 -0.22080278503E+02  0.33989890047E+02  0.51100000000E-03 0. -1.
        -11    1    3    3    0    0 -0.47584759556E+01 -0.69507062888E+01 -0.79432751080E+01  0.11578040898E+02  0.51100000000E-03 0.  1.
        -12    1    3    3    0    0  0.26837773271E+02  0.19177089202E+02  0.29780379768E+02  0.44439822721E+02  0.00000000000E+00 0.  1.
</event>
<event>
 7    1  0.2148778E-015  0.9000766E+02  0.7816164E-02  0.1186339E+00
        -11   -1    0    0    0    0  0.00000000000E+00  0.00000000000E+00  0.45593999997E+02  0.45594000000E+02  0.51100000000E-03 0.  1.
         11   -1    0    0    0    0 -0.00000000000E+00 -0.00000000000E+00 -0.45593999997E+02  0.45594000000E+02  0.51100000000E-03 0. -1.
    9900012    2    1    2    0    0 -0.74346750104E+00 -0.83577149771E+00 -0.37675062743E+00  0.90007661508E+02  0.89999921839E+02 0.  0.
         12    1    1    2    0    0  0.74346750104E+00  0.83577149771E+00  0.37675062743E+00  0.11803384924E+01  0.00000000000E+00 0. -1.
         11    1    3    3    0    0 -0.34700832439E+02  0.65786175978E+01 -0.55544294144E+01  0.35753009214E+02  0.51100000000E-03 0. -1.
        -11    1    3    3    0    0  0.76473276853E+01  0.16656999070E+02  0.24259573152E+01  0.18488442549E+02  0.51100000000E-03 0.  1.
        -12    1    3    3    0    0  0.26310037253E+02 -0.24071388165E+02  0.27517214718E+01  0.35766209745E+02  0.00000000000E+00 0.  1.
</event>
<event>
 7    1  0.2148778E-015  0.9000762E+02  0.7816164E-02  0.1186339E+00
        -11   -1    0    0    0    0  0.00000000000E+00  0.00000000000E+00  0.45593999997E+02  0.45594000000E+02  0.51100000000E-03 0.  1.
         11   -1    0    0    0    0 -0.00000000000E+00 -0.00000000000E+00 -0.45593999997E+02  0.45594000000E+02  0.51100000000E-03 0. -1.
    9900012    2    1    2    0    0 -0.94443925669E+00  0.70802936151E+00 -0.49414951466E-02  0.90007620610E+02  0.89999880402E+02 0.  0.
         12    1    1    2    0    0  0.94443925669E+00 -0.70802936151E+00  0.49414951466E-02  0.11803793902E+01  0.00000000000E+00 0. -1.
         11    1    3    3    0    0  0.47612993099E+01 -0.86517731884E+01 -0.27302501371E+02  0.29033596604E+02  0.51100000000E-03 0. -1.
        -11    1    3    3    0    0  0.10162503056E+02  0.13589778485E+02 -0.10366608056E+02  0.19885298854E+02  0.51100000000E-03 0.  1.
        -12    1    3    3    0    0 -0.15868241623E+02 -0.42299759355E+01  0.37664167932E+02  0.41088725152E+02  0.00000000000E+00 0.  1.
</event>
<event>
 7    1  0.2148778E-015  0.9000791E+02  0.7816164E-02  0.1186339E+00
        -11   -1    0    0    0    0  0.00000000000E+00  0.00000000000E+00  0.45593999997E+02  0.45594000000E+02  0.51100000000E-03 0.  1.
         11   -1    0    0    0    0 -0.00000000000E+00 -0.00000000000E+00 -0.45593999997E+02  0.45594000000E+02  0.51100000000E-03 0. -1.
    9900012    2    1    2    0    0 -0.12410196797E+00 -0.15757170253E+00  0.11629147868E+01  0.90007914858E+02  0.90000178534E+02 0.  0.
         12    1    1    2    0    0  0.12410196797E+00  0.15757170253E+00 -0.11629147868E+01  0.11800851416E+01  0.00000000000E+00 0. -1.
         11    1    3    3    0    0 -0.37358058627E+02  0.90748893774E+01  0.34268116500E+01  0.38596906611E+02  0.51100000000E-03 0. -1.
        -11    1    3    3    0    0 -0.21276227894E+01  0.80833928861E+01 -0.44526359426E+00  0.83705602689E+01  0.51100000000E-03 0.  1.
        -12    1    3    3    0    0  0.39361579448E+02 -0.17315853966E+02 -0.18186332689E+01  0.43040447979E+02  0.00000000000E+00 0.  1.
</event>
<event>
 7    1  0.2148778E-015  0.9000779E+02  0.7816164E-02  0.1186339E+00
        -11   -1    0    0    0    0  0.00000000000E+00  0.00000000000E+00  0.45593999997E+02  0.45594000000E+02  0.51100000000E-03 0.  1.
         11   -1    0    0    0    0 -0.00000000000E+00 -0.00000000000E+00 -0.45593999997E+02  0.45594000000E+02  0.51100000000E-03 0. -1.
    9900012    2    1    2    0    0 -0.19570393894E-02  0.11066623453E+01 -0.41009809946E+00  0.90007794159E+02  0.90000056242E+02 0.  0.
         12    1    1    2    0    0  0.19570393894E-02 -0.11066623453E+01  0.41009809946E+00  0.11802058413E+01  0.00000000000E+00 0. -1.
         11    1    3    3    0    0  0.35168657762E+02  0.54204624669E+01  0.28584062823E+01  0.35698548834E+02  0.51100000000E-03 0. -1.
        -11    1    3    3    0    0  0.91047665667E+01  0.42943375433E+00 -0.35440992583E+01  0.97796639716E+01  0.51100000000E-03 0.  1.
        -12    1    3    3    0    0 -0.44275381368E+02 -0.47432338759E+01  0.27559487659E+00  0.44529581353E+02  0.00000000000E+00 0.  1.
</event>
<event>
 7    1  0.2148778E-015  0.9000774E+02  0.7816164E-02  0.1186339E+00
        -11   -1    0    0    0    0  0.00000000000E+00  0.00000000000E+00  0.45593999997E+02  0.45594000000E+02  0.51100000000E-03 0. -1.
         11   -1    0    0    0    0 -0.00000000000E+00 -0.00000000000E+00 -0.45593999997E+02  0.45594000000E+02  0.51100000000E-03 0.  1.
    9900012    2    1    2    0    0 -0.11480900072E+01 -0.54016353258E-01  0.26828791345E+00  0.90007742894E+02  0.90000004301E+02 0.  0.
         12    1    1    2    0    0  0.11480900072E+01  0.54016353258E-01 -0.26828791345E+00  0.11802571057E+01  0.00000000000E+00 0. -1.
         11    1    3    3    0    0  0.56372829444E+01  0.44108798573E+01 -0.20970197030E+01  0.74587071270E+01  0.51100000000E-03 0. -1.
        -11    1    3    3    0    0 -0.34195944207E+02 -0.53156185154E+01 -0.25855248752E+02  0.43198521835E+02  0.51100000000E-03 0.  1.
         12    1    3    3    0    0  0.27410571255E+02  0.85072230482E+00  0.28220556369E+02  0.39350513932E+02  0.00000000000E+00 0. -1.
</event>
<event>
 7    1  0.2148778E-015  0.9000779E+02  0.7816164E-02  0.1186339E+00
        -11   -1    0    0    0    0  0.00000000000E+00  0.00000000000E+00  0.45593999997E+02  0.45594000000E+02  0.51100000000E-03 0.  1.
         11   -1    0    0    0    0 -0.00000000000E+00 -0.00000000000E+00 -0.45593999997E+02  0.45594000000E+02  0.51100000000E-03 0. -1.
    9900012    2    1    2    0    0  0.25049721667E+00  0.10771322362E+01  0.41223349954E+00  0.90007788507E+02  0.90000050515E+02 0.  0.
         12    1    1    2    0    0 -0.25049721667E+00 -0.10771322362E+01 -0.41223349954E+00  0.11802114929E+01  0.00000000000E+00 0. -1.
         11    1    3    3    0    0 -0.29845532911E+02  0.22954521866E+02 -0.80280031285E+01  0.38498243380E+02  0.51100000000E-03 0. -1.
        -11    1    3    3    0    0 -0.58332214173E+01  0.23178996044E+01  0.50579677543E+01  0.80611518250E+01  0.51100000000E-03 0.  1.
        -12    1    3    3    0    0  0.35929251545E+02 -0.24195289235E+02  0.33822688737E+01  0.43448393302E+02  0.00000000000E+00 0.  1.
</event>
<event>
 7    1  0.2148778E-015  0.9000779E+02  0.7816164E-02  0.1186339E+00
        -11   -1    0    0    0    0  0.00000000000E+00  0.00000000000E+00  0.45593999997E+02  0.45594000000E+02  0.51100000000E-03 0.  1.
         11   -1    0    0    0    0 -0.00000000000E+00 -0.00000000000E+00 -0.45593999997E+02  0.45594000000E+02  0.51100000000E-03 0. -1.
    9900012    2    1    2    0    0  0.43413385245E+00  0.10950632407E+01  0.72459237728E-01  0.90007794067E+02  0.90000056149E+02 0.  0.
         12    1    1    2    0    0 -0.43413385245E+00 -0.10950632407E+01 -0.72459237728E-01  0.11802059329E+01  0.00000000000E+00 0. -1.
         11    1    3    3    0    0 -0.30013122527E+01  0.90947093787E+01  0.33857882162E+01  0.10158010436E+02  0.51100000000E-03 0. -1.
        -11    1    3    3    0    0 -0.24381655577E+02 -0.30122863619E+02  0.12817829988E+02  0.40818486095E+02  0.51100000000E-03 0.  1.
         12    1    3    3    0    0  0.27817101682E+02  0.22123217481E+02 -0.16131158966E+02  0.39031297535E+02  0.00000000000E+00 0. -1.
</event>
<event>
 7    1  0.2148778E-015  0.9000773E+02  0.7816164E-02  0.1186339E+00
        -11   -1    0    0    0    0  0.00000000000E+00  0.00000000000E+00  0.45593999997E+02  0.45594000000E+02  0.51100000000E-03 0.  1.
         11   -1    0    0    0    0 -0.00000000000E+00 -0.00000000000E+00 -0.45593999997E+02  0.45594000000E+02  0.51100000000E-03 0. -1.
    9900012    2    1    2    0    0  0.67021046550E+00  0.74123604809E+00  0.62803664493E+00  0.90007727585E+02  0.89999988789E+02 0.  0.
         12    1    1    2    0    0 -0.67021046550E+00 -0.74123604809E+00 -0.62803664493E+00  0.11802724153E+01  0.00000000000E+00 0. -1.
         11    1    3    3    0    0  0.26960876512E+02 -0.10507840982E+02 -0.31320391492E+02  0.42641183237E+02  0.51100000000E-03 0. -1.
        -11    1    3    3    0    0  0.28185793918E+01  0.36189694896E+01  0.65025556604E+01  0.79576730476E+01  0.51100000000E-03 0.  1.
        -12    1    3    3    0    0 -0.29109245438E+02  0.76301075407E+01  0.25445872477E+02  0.39408871300E+02  0.00000000000E+00 0.  1.
</event>
<event>
 7    1  0.2148778E-015  0.9000733E+02  0.7816164E-02  0.1186340E+00
        -11   -1    0    0    0    0  0.00000000000E+00  0.00000000000E+00  0.45593999997E+02  0.45594000000E+02  0.51100000000E-03 0.  1.
         11   -1    0    0    0    0 -0.00000000000E+00 -0.00000000000E+00 -0.45593999997E+02  0.45594000000E+02  0.51100000000E-03 0. -1.
    9900012    2    1    2    0    0  0.59922824931E+00 -0.25673417611E+00  0.98437510075E+00  0.90007330160E+02  0.89999586117E+02 0.  0.
         12    1    1    2    0    0 -0.59922824931E+00  0.25673417611E+00 -0.98437510075E+00  0.11806698399E+01  0.00000000000E+00 0. -1.
         11    1    3    3    0    0  0.45181400588E+00  0.58323581860E+01 -0.75541545027E+01  0.95543596550E+01  0.51100000000E-03 0. -1.
        -11    1    3    3    0    0 -0.20725512175E+02 -0.60864359990E+01  0.38377027774E+02  0.44038481117E+02  0.51100000000E-03 0.  1.
         12    1    3    3    0    0  0.20872926419E+02 -0.26563630997E-02 -0.29838498170E+02  0.36414489388E+02  0.00000000000E+00 0. -1.
</event>
<event>
 7    1  0.2148778E-015  0.9000777E+02  0.7816164E-02  0.1186339E+00
        -11   -1    0    0    0    0  0.00000000000E+00  0.00000000000E+00  0.45593999997E+02  0.45594000000E+02  0.51100000000E-03 0. -1.
         11   -1    0    0    0    0 -0.00000000000E+00 -0.00000000000E+00 -0.45593999997E+02  0.45594000000E+02  0.51100000000E-03 0.  1.
    9900012    2    1    2    0    0 -0.40855158752E+00  0.51114399038E+00 -0.98221966725E+00  0.90007772033E+02  0.90000033824E+02 0.  0.
         12    1    1    2    0    0  0.40855158752E+00 -0.51114399038E+00  0.98221966725E+00  0.11802279667E+01  0.00000000000E+00 0. -1.
         11    1    3    3    0    0  0.34470661518E+01  0.14797136722E+02  0.20125475311E+02  0.25216508025E+02  0.51100000000E-03 0. -1.
        -11    1    3    3    0    0  0.11080689055E+02  0.20515472755E+02 -0.65595053893E+01  0.24221754757E+02  0.51100000000E-03 0.  1.
        -12    1    3    3    0    0 -0.14936306794E+02 -0.34801465486E+02 -0.14548189589E+02  0.40569509252E+02  0.00000000000E+00 0.  1.
</event>
<event>
 7    1  0.2148778E-015  0.9000706E+02  0.7816164E-02  0.1186340E+00
        -11   -1    0    0    0    0  0.00000000000E+00  0.00000000000E+00  0.45593999997E+02  0.45594000000E+02  0.51100000000E-03 0. -1.
         11   -1    0    0    0    0 -0.00000000000E+00 -0.00000000000E+00 -0.45593999997E+02  0.45594000000E+02  0.51100000000E-03 0.  1.
    9900012    2    1    2    0    0 -0.17873797676E+00  0.11671575086E+01 -0.20272682329E-01  0.90007061858E+02  0.89999314272E+02 0.  0.
         12    1    1    2    0    0  0.17873797676E+00 -0.11671575086E+01  0.20272682329E-01  0.11809381422E+01  0.00000000000E+00 0. -1.
         11    1    3    3    0    0 -0.31902048314E+01 -0.69326520649E+01 -0.55677616264E+01  0.94466418006E+01  0.51100000000E-03 0. -1.
        -11    1    3    3    0    0 -0.23039952233E+02 -0.14553193540E+02 -0.23080390107E+02  0.35711892261E+02  0.51100000000E-03 0.  1.
         12    1    3    3    0    0  0.26051419088E+02  0.22653003113E+02  0.28627879051E+02  0.44848527796E+02  0.00000000000E+00 0. -1.
</event>
<event>
 7    1  0.2148778E-015  0.9000772E+02  0.7816164E-02  0.1186339E+00
        -11   -1    0    0    0    0  0.00000000000E+00  0.00000000000E+00  0.45593999997E+02  0.45594000000E+02  0.51100000000E-03 0.  1.
         11   -1    0    0    0    0 -0.00000000000E+00 -0.00000000000E+00 -0.45593999997E+02  0.45594000000E+02  0.51100000000E-03 0. -1.
    9900012    2    1    2    0    0 -0.10502318009E+01  0.16117759472E+00 -0.51390855929E+00  0.90007717381E+02  0.89999978451E+02 0.  0.
         12    1    1    2    0    0  0.10502318009E+01 -0.16117759472E+00  0.51390855929E+00  0.11802826187E+01  0.00000000000E+00 0. -1.
         11    1    3    3    0    0 -0.68350932473E+01 -0.13660785815E+01  0.61763470319E+01  0.93129980838E+01  0.51100000000E-03 0. -1.
        -11    1    3    3    0    0  0.11016634632E+02  0.55123389887E+01  0.35716399196E+02  0.37781123481E+02  0.51100000000E-03 0.  1.
         12    1    3    3    0    0 -0.52317731853E+01 -0.39850828125E+01 -0.42406654787E+02  0.42913595816E+02  0.00000000000E+00 0. -1.
</event>
<event>
 7    1  0.2148778E-015  0.9000784E+02  0.7816164E-02  0.1186339E+00
        -11   -1    0    0    0    0  0.00000000000E+00  0.00000000000E+00  0.45593999997E+02  0.45594000000E+02  0.51100000000E-03 0. -1.
         11   -1    0    0    0    0 -0.00000000000E+00 -0.00000000000E+00 -0.45593999997E+02  0.45594000000E+02  0.51100000000E-03 0.  1.
    9900012    2    1    2    0    0 -0.95047440931E+00  0.56692367995E+00 -0.40983981676E+00  0.90007842071E+02  0.90000104786E+02 0.  0.
         12    1    1    2    0    0  0.95047440931E+00 -0.56692367995E+00  0.40983981676E+00  0.11801579289E+01  0.00000000000E+00 0. -1.
         11    1    3    3    0    0  0.20829735175E+02 -0.77018120708E+01  0.24954006099E+01  0.22347769489E+02  0.51100000000E-03 0. -1.
        -11    1    3    3    0    0 -0.87555268765E+01 -0.79945625409E+01 -0.30707372215E+02  0.32916788873E+02  0.51100000000E-03 0.  1.
         12    1    3    3    0    0 -0.13024682708E+02  0.16263298292E+02  0.27802131788E+02  0.34743283710E+02  0.00000000000E+00 0. -1.
</event>
<event>
 7    1  0.2148778E-015  0.9000771E+02  0.7816164E-02  0.1186339E+00
        -11   -1    0    0    0    0  0.00000000000E+00  0.00000000000E+00  0.45593999997E+02  0.45594000000E+02  0.51100000000E-03 0.  1.
         11   -1    0    0    0    0 -0.00000000000E+00 -0.00000000000E+00 -0.45593999997E+02  0.45594000000E+02  0.51100000000E-03 0. -1.
    9900012    2    1    2    0    0  0.52871356512E+00 -0.17323232116E+00  0.10409284302E+01  0.90007712125E+02  0.89999973125E+02 0.  0.
         12    1    1    2    0    0 -0.52871356512E+00  0.17323232116E+00 -0.10409284302E+01  0.11802878750E+01  0.00000000000E+00 0. -1.
         11    1    3    3    0    0 -0.81931172061E+01 -0.15086844060E+01  0.99758764021E+00  0.83903801792E+01  0.51100000000E-03 0. -1.
        -11    1    3    3    0    0  0.26163581774E+02  0.21177993348E+02  0.27536010040E+02  0.43488760188E+02  0.51100000000E-03 0.  1.
         12    1    3    3    0    0 -0.17441751003E+02 -0.19842541263E+02 -0.27492669250E+02  0.38128571758E+02  0.00000000000E+00 0. -1.
</event>
<event>
 7    1  0.2148778E-015  0.9000757E+02  0.7816164E-02  0.1186339E+00
        -11   -1    0    0    0    0  0.00000000000E+00  0.00000000000E+00  0.45593999997E+02  0.45594000000E+02  0.51100000000E-03 0.  1.
         11   -1    0    0    0    0 -0.00000000000E+00 -0.00000000000E+00 -0.45593999997E+02  0.45594000000E+02  0.51100000000E-03 0. -1.
    9900012    2    1    2    0    0  0.11038712565E+01  0.26641951082E+00 -0.32233823628E+00  0.90007570822E+02  0.89999829956E+02 0.  0.
         12    1    1    2    0    0 -0.11038712565E+01 -0.26641951082E+00  0.32233823628E+00  0.11804291784E+01  0.00000000000E+00 0. -1.
         11    1    3    3    0    0  0.69217054058E+01  0.65823079022E+01 -0.35275899918E+02  0.36546215923E+02  0.51100000000E-03 0. -1.
        -11    1    3    3    0    0  0.94824119640E+01  0.55644285275E+01 -0.25177935101E+01  0.11279108383E+02  0.51100000000E-03 0.  1.
        -12    1    3    3    0    0 -0.15300246113E+02 -0.11880316919E+02  0.37471355191E+02  0.42182246516E+02  0.00000000000E+00 0.  1.
</event>
<event>
 7    1  0.2148778E-015  0.9000775E+02  0.7816164E-02  0.1186339E+00
        -11   -1    0    0    0    0  0.00000000000E+00  0.00000000000E+00  0.45593999997E+02  0.45594000000E+02  0.51100000000E-03 0.  1.
         11   -1    0    0    0    0 -0.00000000000E+00 -0.00000000000E+00 -0.45593999997E+02  0.45594000000E+02  0.51100000000E-03 0. -1.
    9900012    2    1    2    0    0 -0.47930538369E+00  0.80199545859E+00  0.72115813130E+00  0.90007746037E+02  0.90000007485E+02 0.  0.
         12    1    1    2    0    0  0.47930538369E+00 -0.80199545859E+00 -0.72115813130E+00  0.11802539628E+01  0.00000000000E+00 0. -1.
         11    1    3    3    0    0 -0.15160922273E+02 -0.24223911275E+02 -0.26881953182E+02  0.39233797277E+02  0.51100000000E-03 0. -1.
        -11    1    3    3    0    0  0.72294226478E+01 -0.66290250392E+01  0.89816753201E+01  0.13299587084E+02  0.51100000000E-03 0.  1.
        -12    1    3    3    0    0  0.74521942410E+01  0.31654931773E+02  0.18621435993E+02  0.37474361676E+02  0.00000000000E+00 0.  1.
</event>
<event>
 7    1  0.2148778E-015  0.9000773E+02  0.7816164E-02  0.1186339E+00
        -11   -1    0    0    0    0  0.00000000000E+00  0.00000000000E+00  0.45593999997E+02  0.45594000000E+02  0.51100000000E-03 0. -1.
         11   -1    0    0    0    0 -0.00000000000E+00 -0.00000000000E+00 -0.45593999997E+02  0.45594000000E+02  0.51100000000E-03 0.  1.
    9900012    2    1    2    0    0 -0.13800601547E+00  0.60891272670E+00 -0.10016090749E+01  0.90007728375E+02  0.89999989590E+02 0.  0.
         12    1    1    2    0    0  0.13800601547E+00 -0.60891272670E+00  0.10016090749E+01  0.11802716246E+01  0.00000000000E+00 0. -1.
         11    1    3    3    0    0  0.42771364770E+01  0.82567102484E+01  0.92877050031E+01  0.13142626262E+02  0.51100000000E-03 0. -1.
        -11    1    3    3    0    0  0.78814538646E+01  0.26986321992E+02  0.15370901696E+02  0.32041278203E+02  0.51100000000E-03 0.  1.
         12    1    3    3    0    0 -0.12296596357E+02 -0.34634119514E+02 -0.25660215774E+02  0.44823823911E+02  0.00000000000E+00 0. -1.
</event>
<event>
 7    1  0.2148778E-015  0.9000777E+02  0.7816164E-02  0.1186339E+00
        -11   -1    0    0    0    0  0.00000000000E+00  0.00000000000E+00  0.45593999997E+02  0.45594000000E+02  0.51100000000E-03 0.  1.
         11   -1    0    0    0    0 -0.00000000000E+00 -0.00000000000E+00 -0.45593999997E+02  0.45594000000E+02  0.51100000000E-03 0. -1.
    9900012    2    1    2    0    0 -0.72780766798E+00  0.46465833004E+00  0.80457119446E+00  0.90007768594E+02  0.90000030339E+02 0.  0.
         12    1    1    2    0    0  0.72780766798E+00 -0.46465833004E+00 -0.80457119446E+00  0.11802314062E+01  0.00000000000E+00 0. -1.
         11    1    3    3    0    0 -0.13912663681E+02 -0.14728047549E+02 -0.64928079871E+01  0.21275200378E+02  0.51100000000E-03 0. -1.
        -11    1    3    3    0    0 -0.22034790675E+02 -0.99627506189E+01  0.79232557290E+01  0.25447325628E+02  0.51100000000E-03 0.  1.
        -12    1    3    3    0    0  0.35219646688E+02  0.25155456498E+02 -0.62587654746E+00  0.43285242588E+02  0.00000000000E+00 0.  1.
</event>
<event>
 7    1  0.2148778E-015  0.9000782E+02  0.7816164E-02  0.1186339E+00
        -11   -1    0    0    0    0  0.00000000000E+00  0.00000000000E+00  0.45593999997E+02  0.45594000000E+02  0.51100000000E-03 0.  1.
         11   -1    0    0    0    0 -0.00000000000E+00 -0.00000000000E+00 -0.45593999997E+02  0.45594000000E+02  0.51100000000E-03 0. -1.
    9900012    2    1    2    0    0 -0.38959061558E-01 -0.23411683597E+00  0.11560692030E+01  0.90007820139E+02  0.90000082565E+02 0.  0.
         12    1    1    2    0    0  0.38959061558E-01  0.23411683597E+00 -0.11560692030E+01  0.11801798606E+01  0.00000000000E+00 0. -1.
         11    1    3    3    0    0  0.38446063052E+00  0.72423508130E+01  0.24552497618E+00  0.72567029738E+01  0.51100000000E-03 0. -1.
        -11    1    3    3    0    0  0.37418719144E+02  0.93990864504E+00  0.16578789909E+02  0.40937760635E+02  0.51100000000E-03 0.  1.
         12    1    3    3    0    0 -0.37842138836E+02 -0.84163762940E+01 -0.15668245683E+02  0.41813356531E+02  0.00000000000E+00 0. -1.
</event>
<event>
 7    1  0.2148778E-015  0.9000775E+02  0.7816164E-02  0.1186339E+00
        -11   -1    0    0    0    0  0.00000000000E+00  0.00000000000E+00  0.45593999997E+02  0.45594000000E+02  0.51100000000E-03 0.  1.
         11   -1    0    0    0    0 -0.00000000000E+00 -0.00000000000E+00 -0.45593999997E+02  0.45594000000E+02  0.51100000000E-03 0. -1.
    9900012    2    1    2    0    0 -0.10418045345E+01 -0.55300758072E+00 -0.42688336470E-01  0.90007747329E+02  0.90000008794E+02 0.  0.
         12    1    1    2    0    0  0.10418045345E+01  0.55300758072E+00  0.42688336470E-01  0.11802526706E+01  0.00000000000E+00 0. -1.
         11    1    3    3    0    0 -0.20040376809E+02 -0.32641072298E+02  0.68754703316E+01  0.38914372614E+02  0.51100000000E-03 0. -1.
        -11    1    3    3    0    0  0.12831927905E+00 -0.19835968183E+01  0.88528555159E+01  0.90732669541E+01  0.51100000000E-03 0.  1.
        -12    1    3    3    0    0  0.18870252995E+02  0.34071661536E+02 -0.15771014184E+02  0.42020107761E+02  0.00000000000E+00 0.  1.
</event>
<event>
 7    1  0.2148778E-015  0.9000776E+02  0.7816164E-02  0.1186339E+00
        -11   -1    0    0    0    0  0.00000000000E+00  0.00000000000E+00  0.45593999997E+02  0.45594000000E+02  0.51100000000E-03 0.  1.
         11   -1    0    0    0    0 -0.00000000000E+00 -0.00000000000E+00 -0.45593999997E+02  0.45594000000E+02  0.51100000000E-03 0. -1.
    9900012    2    1    2    0    0 -0.22621736094E+00  0.10739901744E+01  0.43399011781E+00  0.90007755698E+02  0.90000017274E+02 0.  0.
         12    1    1    2    0    0  0.22621736094E+00 -0.10739901744E+01 -0.43399011781E+00  0.11802443016E+01  0.00000000000E+00 0. -1.
         11    1    3    3    0    0 -0.24688394013E+02  0.22926420360E+01 -0.28665052619E+02  0.37900636517E+02  0.51100000000E-03 0. -1.
        -11    1    3    3    0    0 -0.15418646147E+01 -0.87067397543E+01 -0.37006194615E+01  0.95853663623E+01  0.51100000000E-03 0.  1.
        -12    1    3    3    0    0  0.26004041267E+02  0.74880878928E+01  0.32799662198E+02  0.42521752819E+02  0.00000000000E+00 0.  1.
</event>
<event>
 7    1  0.2148778E-015  0.9000773E+02  0.7816164E-02  0.1186339E+00
        -11   -1    0    0    0    0  0.00000000000E+00  0.00000000000E+00  0.45593999997E+02  0.45594000000E+02  0.51100000000E-03 0.  1.
         11   -1    0    0    0    0 -0.00000000000E+00 -0.00000000000E+00 -0.45593999997E+02  0.45594000000E+02  0.51100000000E-03 0. -1.
    9900012    2    1    2    0    0  0.77972765903E-01 -0.99343302896E+00  0.63249420878E+00  0.90007729752E+02  0.89999990984E+02 0.  0.
         12    1    1    2    0    0 -0.77972765903E-01  0.99343302896E+00 -0.63249420878E+00  0.11802702485E+01  0.00000000000E+00 0. -1.
         11    1    3    3    0    0  0.21807437202E+00 -0.17018909308E+02  0.42252048031E+01  0.17536909259E+02  0.51100000000E-03 0. -1.
        -11    1    3    3    0    0  0.58249491985E+01 -0.26415971137E+02 -0.10580762052E+02  0.29046274979E+02  0.51100000000E-03 0.  1.
         12    1    3    3    0    0 -0.59650508046E+01  0.42441447416E+02  0.69880514576E+01  0.43424545514E+02  0.00000000000E+00 0. -1.
</event>
<event>
 7    1  0.2148778E-015  0.9000783E+02  0.7816164E-02  0.1186339E+00
        -11   -1    0    0    0    0  0.00000000000E+00  0.00000000000E+00  0.45593999997E+02  0.45594000000E+02  0.51100000000E-03 0.  1.
         11   -1    0    0    0    0 -0.00000000000E+00 -0.00000000000E+00 -0.45593999997E+02  0.45594000000E+02  0.51100000000E-03 0. -1.
    9900012    2    1    2    0    0  0.34425876472E-01 -0.68545718734E+00  0.96009154238E+00  0.90007825239E+02  0.90000087732E+02 0.  0.
         12    1    1    2    0    0 -0.34425876472E-01  0.68545718734E+00 -0.96009154238E+00  0.11801747610E+01  0.00000000000E+00 0. -1.
         11    1    3    3    0    0  0.16999371081E+02 -0.24736670388E+02 -0.26643391088E+02  0.40134172073E+02  0.51100000000E-03 0. -1.
        -11    1    3    3    0    0 -0.13026923164E+01  0.46385344048E+01 -0.62073919665E+01  0.78577811106E+01  0.51100000000E-03 0.  1.
        -12    1    3    3    0    0 -0.15662252888E+02  0.19412678796E+02  0.33810874597E+02  0.42015872055E+02  0.00000000000E+00 0.  1.
</event>
<event>
 7    1  0.2148778E-015  0.9000774E+02  0.7816164E-02  0.1186339E+00
        -11   -1    0    0    0    0  0.00000000000E+00  0.00000000000E+00  0.45593999997E+02  0.45594000000E+02  0.51100000000E-03 0.  1.
         11   -1    0    0    0    0 -0.00000000000E+00 -0.00000000000E+00 -0.45593999997E+02  0.45594000000E+02  0.51100000000E-03 0. -1.
    9900012    2    1    2    0    0  0.16232987713E+00 -0.48810807347E+00  0.10622716883E+01  0.90007736631E+02  0.89999997955E+02 0.  0.
         12    1    1    2    0    0 -0.16232987713E+00  0.48810807347E+00 -0.10622716883E+01  0.11802633690E+01  0.00000000000E+00 0. -1.
         11    1    3    3    0    0  0.10552518242E+01  0.88611134419E+01 -0.42531002869E+00  0.89338556472E+01  0.51100000000E-03 0. -1.
        -11    1    3    3    0    0 -0.33978702279E+02 -0.22710685499E+02 -0.12514935921E+02  0.42742848124E+02  0.51100000000E-03 0.  1.
         12    1    3    3    0    0  0.33085780332E+02  0.13361463984E+02  0.14002517638E+02  0.38331032860E+02  0.00000000000E+00 0. -1.
</event>
<event>
 7    1  0.2148778E-015  0.9000781E+02  0.7816164E-02  0.1186339E+00
        -11   -1    0    0    0    0  0.00000000000E+00  0.00000000000E+00  0.45593999997E+02  0.45594000000E+02  0.51100000000E-03 0.  1.
         11   -1    0    0    0    0 -0.00000000000E+00 -0.00000000000E+00 -0.45593999997E+02  0.45594000000E+02  0.51100000000E-03 0. -1.
    9900012    2    1    2    0    0 -0.74026803855E-01 -0.11749645762E+01  0.82620995244E-01  0.90007810205E+02  0.90000072500E+02 0.  0.
         12    1    1    2    0    0  0.74026803855E-01  0.11749645762E+01 -0.82620995244E-01  0.11801897948E+01  0.00000000000E+00 0. -1.
         11    1    3    3    0    0 -0.36935973054E+02 -0.12430489640E+02  0.14081881867E+02  0.41437695101E+02  0.51100000000E-03 0. -1.
        -11    1    3    3    0    0  0.16414430010E+02 -0.62415127497E+01  0.13076877184E+01  0.17609657617E+02  0.51100000000E-03 0.  1.
        -12    1    3    3    0    0  0.20447516240E+02  0.17497037814E+02 -0.15306948591E+02  0.30960457487E+02  0.00000000000E+00 0.  1.
</event>
<event>
 7    1  0.2148778E-015  0.9000793E+02  0.7816164E-02  0.1186339E+00
        -11   -1    0    0    0    0  0.00000000000E+00  0.00000000000E+00  0.45593999997E+02  0.45594000000E+02  0.51100000000E-03 0.  1.
         11   -1    0    0    0    0 -0.00000000000E+00 -0.00000000000E+00 -0.45593999997E+02  0.45594000000E+02  0.51100000000E-03 0. -1.
    9900012    2    1    2    0    0 -0.76704677466E+00 -0.78845121195E+00 -0.42726946741E+00  0.90007925737E+02  0.90000189557E+02 0.  0.
         12    1    1    2    0    0  0.76704677466E+00  0.78845121195E+00  0.42726946741E+00  0.11800742629E+01  0.00000000000E+00 0. -1.
         11    1    3    3    0    0 -0.11126897471E+02 -0.28011290959E+00  0.35180771509E+01  0.11673181986E+02  0.51100000000E-03 0. -1.
        -11    1    3    3    0    0 -0.24202482808E+02 -0.25458453467E+02  0.25340189070E+01  0.35218095904E+02  0.51100000000E-03 0.  1.
         12    1    3    3    0    0  0.34562333504E+02  0.24950115165E+02 -0.64793655253E+01  0.43116647848E+02  0.00000000000E+00 0. -1.
</event>
<event>
 7    1  0.2148778E-015  0.9000777E+02  0.7816164E-02  0.1186339E+00
        -11   -1    0    0    0    0  0.00000000000E+00  0.00000000000E+00  0.45593999997E+02  0.45594000000E+02  0.51100000000E-03 0.  1.
         11   -1    0    0    0    0 -0.00000000000E+00 -0.00000000000E+00 -0.45593999997E+02  0.45594000000E+02  0.51100000000E-03 0. -1.
    9900012    2    1    2    0    0 -0.51385768703E+00 -0.62255251802E+00  0.86100240643E+00  0.90007768453E+02  0.90000030197E+02 0.  0.
         12    1    1    2    0    0  0.51385768703E+00  0.62255251802E+00 -0.86100240643E+00  0.11802315468E+01  0.00000000000E+00 0. -1.
         11    1    3    3    0    0  0.89740456769E+01 -0.37783968863E+01  0.36949872050E+01  0.10414543175E+02  0.51100000000E-03 0. -1.
        -11    1    3    3    0    0 -0.12097344511E+02 -0.23148453603E+02  0.28460506574E+02  0.38628966892E+02  0.51100000000E-03 0.  1.
         12    1    3    3    0    0  0.26094411475E+01  0.26304297971E+02 -0.31294491372E+02  0.40964258386E+02  0.00000000000E+00 0. -1.
</event>
<event>
 7    1  0.2148778E-015  0.9000765E+02  0.7816164E-02  0.1186339E+00
        -11   -1    0    0    0    0  0.00000000000E+00  0.00000000000E+00  0.45593999997E+02  0.45594000000E+02  0.51100000000E-03 0. -1.
         11   -1    0    0    0    0 -0.00000000000E+00 -0.00000000000E+00 -0.45593999997E+02  0.45594000000E+02  0.51100000000E-03 0.  1.
    9900012    2    1    2    0    0  0.86646314363E+00  0.10186458701E+00  0.79503615446E+00  0.90007653754E+02  0.89999913984E+02 0.  0.
         12    1    1    2    0    0 -0.86646314363E+00 -0.10186458701E+00 -0.79503615446E+00  0.11803462459E+01  0.00000000000E+00 0. -1.
         11    1    3    3    0    0  0.60197916630E+01  0.43139597051E+01  0.44021681914E+01  0.86155223318E+01  0.51100000000E-03 0. -1.
        -11    1    3    3    0    0  0.73887560514E+01 -0.29494595840E+02 -0.30026789262E+02  0.42733277120E+02  0.51100000000E-03 0.  1.
         12    1    3    3    0    0 -0.12542084571E+02  0.25282500722E+02  0.26419657225E+02  0.38658854303E+02  0.00000000000E+00 0. -1.
</event>
<event>
 7    1  0.2148778E-015  0.9000771E+02  0.7816164E-02  0.1186339E+00
        -11   -1    0    0    0    0  0.00000000000E+00  0.00000000000E+00  0.45593999997E+02  0.45594000000E+02  0.51100000000E-03 0.  1.
         11   -1    0    0    0    0 -0.00000000000E+00 -0.00000000000E+00 -0.45593999997E+02  0.45594000000E+02  0.51100000000E-03 0. -1.
    9900012    2    1    2    0    0 -0.78619284761E+00  0.69233120833E+00  0.54374453397E+00  0.90007711978E+02  0.89999972977E+02 0.  0.
         12    1    1    2    0    0  0.78619284761E+00 -0.69233120833E+00 -0.54374453397E+00  0.11802880216E+01  0.00000000000E+00 0. -1.
         11    1    3    3    0    0 -0.54294147166E+01  0.69776177682E+01 -0.59482184568E+01  0.10655843324E+02  0.51100000000E-03 0. -1.
        -11    1    3    3    0    0  0.27942758701E+02  0.58951607706E+01 -0.25261056644E+02  0.38127046402E+02  0.51100000000E-03 0.  1.
         12    1    3    3    0    0 -0.23299536832E+02 -0.12180447330E+02  0.31753019635E+02  0.41224822252E+02  0.00000000000E+00 0. -1.
</event>
<event>
 7    1  0.2148778E-015  0.9000771E+02  0.7816164E-02  0.1186339E+00
        -11   -1    0    0    0    0  0.00000000000E+00  0.00000000000E+00  0.45593999997E+02  0.45594000000E+02  0.51100000000E-03 0. -1.
         11   -1    0    0    0    0 -0.00000000000E+00 -0.00000000000E+00 -0.45593999997E+02  0.45594000000E+02  0.51100000000E-03 0.  1.
    9900012    2    1    2    0    0 -0.35359120732E+00  0.83465191519E+00  0.75591787448E+00  0.90007710885E+02  0.89999971869E+02 0.  0.
         12    1    1    2    0    0  0.35359120732E+00 -0.83465191519E+00 -0.75591787448E+00  0.11802891147E+01  0.00000000000E+00 0. -1.
         11    1    3    3    0    0  0.85567757116E+01  0.10855019130E+01 -0.11977917698E+00  0.86261852690E+01  0.51100000000E-03 0. -1.
        -11    1    3    3    0    0  0.31742939246E+01 -0.37876945015E+01 -0.39130105474E+02  0.39440942258E+02  0.51100000000E-03 0.  1.
         12    1    3    3    0    0 -0.12084660844E+02  0.35368445037E+01  0.40005802525E+02  0.41940583358E+02  0.00000000000E+00 0. -1.
</event>
<event>
 7    1  0.2148778E-015  0.9000796E+02  0.7816164E-02  0.1186339E+00
        -11   -1    0    0    0    0  0.00000000000E+00  0.00000000000E+00  0.45593999997E+02  0.45594000000E+02  0.51100000000E-03 0. -1.
         11   -1    0    0    0    0 -0.00000000000E+00 -0.00000000000E+00 -0.45593999997E+02  0.45594000000E+02  0.51100000000E-03 0.  1.
    9900012    2    1    2    0    0  0.27319608695E+00  0.60091289718E-01 -0.11464016707E+01  0.90007964468E+02  0.90000228799E+02 0.  0.
         12    1    1    2    0    0 -0.27319608695E+00 -0.60091289718E-01  0.11464016707E+01  0.11800355315E+01  0.00000000000E+00 0. -1.
         11    1    3    3    0    0 -0.68166668670E+01 -0.14634193067E+01 -0.77552148262E+01  0.10428417929E+02  0.51100000000E-03 0. -1.
        -11    1    3    3    0    0 -0.15655498186E+02  0.30121586002E+02  0.21432600430E+02  0.40146742436E+02  0.51100000000E-03 0.  1.
         12    1    3    3    0    0  0.22745361140E+02 -0.28598075406E+02 -0.14823787274E+02  0.39432804104E+02  0.00000000000E+00 0. -1.
</event>
<event>
 7    1  0.2148778E-015  0.9000692E+02  0.7816164E-02  0.1186341E+00
        -11   -1    0    0    0    0  0.00000000000E+00  0.00000000000E+00  0.45593999997E+02  0.45594000000E+02  0.51100000000E-03 0.  1.
         11   -1    0    0    0    0 -0.00000000000E+00 -0.00000000000E+00 -0.45593999997E+02  0.45594000000E+02  0.51100000000E-03 0. -1.
    9900012    2    1    2    0    0 -0.10771237686E+01 -0.12181483891E+00  0.46894989297E+00  0.90006920633E+02  0.89999171182E+02 0.  0.
         12    1    1    2    0    0  0.10771237686E+01  0.12181483891E+00 -0.46894989297E+00  0.11810793665E+01  0.00000000000E+00 0. -1.
         11    1    3    3    0    0  0.99951331091E+00  0.95291200720E+01 -0.33328813133E+01  0.10144518437E+02  0.51100000000E-03 0. -1.
        -11    1    3    3    0    0 -0.13651666256E+01  0.15375210689E+02  0.35945139430E+02  0.39119225868E+02  0.51100000000E-03 0.  1.
         12    1    3    3    0    0 -0.71147045398E+00 -0.25026145599E+02 -0.32143308224E+02  0.40743176328E+02  0.00000000000E+00 0. -1.
</event>
<event>
 7    1  0.2148778E-015  0.9000778E+02  0.7816164E-02  0.1186339E+00
        -11   -1    0    0    0    0  0.00000000000E+00  0.00000000000E+00  0.45593999997E+02  0.45594000000E+02  0.51100000000E-03 0. -1.
         11   -1    0    0    0    0 -0.00000000000E+00 -0.00000000000E+00 -0.45593999997E+02  0.45594000000E+02  0.51100000000E-03 0.  1.
    9900012    2    1    2    0    0 -0.43550226805E-01  0.26149591886E+00 -0.11500605157E+01  0.90007781407E+02  0.90000043321E+02 0.  0.
         12    1    1    2    0    0  0.43550226805E-01 -0.26149591886E+00  0.11500605157E+01  0.11802185931E+01  0.00000000000E+00 0. -1.
         11    1    3    3    0    0  0.72496235179E+01 -0.19549479271E+01 -0.47080476191E+01  0.88625377400E+01  0.51100000000E-03 0. -1.
        -11    1    3    3    0    0  0.10579487652E+02 -0.14491912148E+02  0.36169986755E+02  0.40375846974E+02  0.51100000000E-03 0.  1.
         12    1    3    3    0    0 -0.17872661397E+02  0.16708355994E+02 -0.32611999652E+02  0.40769396693E+02  0.00000000000E+00 0. -1.
</event>
<event>
 7    1  0.2148778E-015  0.9000760E+02  0.7816164E-02  0.1186339E+00
        -11   -1    0    0    0    0  0.00000000000E+00  0.00000000000E+00  0.45593999997E+02  0.45594000000E+02  0.51100000000E-03 0. -1.
         11   -1    0    0    0    0 -0.00000000000E+00 -0.00000000000E+00 -0.45593999997E+02  0.45594000000E+02  0.51100000000E-03 0.  1.
    9900012    2    1    2    0    0  0.12763694112E+00 -0.10406337641E+01 -0.54233876217E+00  0.90007601274E+02  0.89999860811E+02 0.  0.
         12    1    1    2    0    0 -0.12763694112E+00  0.10406337641E+01  0.54233876217E+00  0.11803987261E+01  0.00000000000E+00 0. -1.
         11    1    3    3    0    0  0.99599033799E+00 -0.96556689823E+01  0.59448397267E+01  0.11382664885E+02  0.51100000000E-03 0. -1.
        -11    1    3    3    0    0  0.29916206153E+02 -0.14772412224E+02 -0.18487635899E+02  0.38144412892E+02  0.51100000000E-03 0.  1.
         12    1    3    3    0    0 -0.30784559550E+02  0.23387447442E+02  0.12000457410E+02  0.40480523497E+02  0.00000000000E+00 0. -1.
</event>
<event>
 7    1  0.2183884E-015  0.9000773E+02  0.7816164E-02  0.1186339E+00
        -11   -1    0    0    0    0  0.00000000000E+00  0.00000000000E+00  0.45593999997E+02  0.45594000000E+02  0.51100000000E-03 0. -1.
         11   -1    0    0    0    0 -0.00000000000E+00 -0.00000000000E+00 -0.45593999997E+02  0.45594000000E+02  0.51100000000E-03 0.  1.
    9900012    2    1    2    0    0  0.81838652790E-01  0.44834303135E+00 -0.10887319460E+01  0.90007726180E+02  0.89999987366E+02 0.  0.
         12    1    1    2    0    0 -0.81838652790E-01 -0.44834303135E+00  0.10887319460E+01  0.11802738196E+01  0.00000000000E+00 0. -1.
         11    1    3    3    0    0  0.92520752029E+01 -0.55644377513E+01  0.21399688047E+01  0.11006513062E+02  0.51100000000E-03 0. -1.
        -11    1    3    3    0    0 -0.26118249616E+02  0.58335553924E+01 -0.34361694629E+02  0.43553638075E+02  0.51100000000E-03 0.  1.
         12    1    3    3    0    0  0.16948013066E+02  0.17922539023E+00  0.31132993878E+02  0.35447575043E+02  0.00000000000E+00 0. -1.
</event>
<event>
 7    1  0.2148778E-015  0.9000779E+02  0.7816164E-02  0.1186339E+00
        -11   -1    0    0    0    0  0.00000000000E+00  0.00000000000E+00  0.45593999997E+02  0.45594000000E+02  0.51100000000E-03 0.  1.
         11   -1    0    0    0    0 -0.00000000000E+00 -0.00000000000E+00 -0.45593999997E+02  0.45594000000E+02  0.51100000000E-03 0. -1.
    9900012    2    1    2    0    0  0.10030575582E+01  0.37606436177E+00  0.49531738495E+00  0.90007793162E+02  0.90000055231E+02 0.  0.
         12    1    1    2    0    0 -0.10030575582E+01 -0.37606436177E+00 -0.49531738495E+00  0.11802068382E+01  0.00000000000E+00 0. -1.
         11    1    3    3    0    0  0.43852616670E+01  0.16555990996E+02 -0.35945721043E+02  0.39817411007E+02  0.51100000000E-03 0. -1.
        -11    1    3    3    0    0 -0.25913635758E+01  0.79533540427E+01  0.28822394800E+01  0.88475030597E+01  0.51100000000E-03 0.  1.
        -12    1    3    3    0    0 -0.79084053305E+00 -0.24133280677E+02  0.33558798948E+02  0.41342879095E+02  0.00000000000E+00 0.  1.
</event>
<event>
 7    1  0.2148778E-015  0.9000779E+02  0.7816164E-02  0.1186339E+00
        -11   -1    0    0    0    0  0.00000000000E+00  0.00000000000E+00  0.45593999997E+02  0.45594000000E+02  0.51100000000E-03 0. -1.
         11   -1    0    0    0    0 -0.00000000000E+00 -0.00000000000E+00 -0.45593999997E+02  0.45594000000E+02  0.51100000000E-03 0.  1.
    9900012    2    1    2    0    0 -0.56324060184E+00 -0.10051751248E+01 -0.25547568798E+00  0.90007794580E+02  0.90000056668E+02 0.  0.
         12    1    1    2    0    0  0.56324060184E+00  0.10051751248E+01  0.25547568798E+00  0.11802054204E+01  0.00000000000E+00 0. -1.
         11    1    3    3    0    0 -0.31250449075E+01  0.50802283126E+01  0.22751560084E+01  0.63836478996E+01  0.51100000000E-03 0. -1.
        -11    1    3    3    0    0 -0.16882679131E+02  0.29569736621E+02  0.17563096007E+02  0.38312615678E+02  0.51100000000E-03 0.  1.
         12    1    3    3    0    0  0.19444483437E+02 -0.35655140058E+02 -0.20093727703E+02  0.45311531002E+02  0.00000000000E+00 0. -1.
</event>
<event>
 7    1  0.2148778E-015  0.9000846E+02  0.7816164E-02  0.1186338E+00
        -11   -1    0    0    0    0  0.00000000000E+00  0.00000000000E+00  0.45593999997E+02  0.45594000000E+02  0.51100000000E-03 0.  1.
         11   -1    0    0    0    0 -0.00000000000E+00 -0.00000000000E+00 -0.45593999997E+02  0.45594000000E+02  0.51100000000E-03 0. -1.
    9900012    2    1    2    0    0 -0.20961673854E-02 -0.56350875667E+00  0.10362231279E+01  0.90008464124E+02  0.90000735047E+02 0.  0.
         12    1    1    2    0    0  0.20961673854E-02  0.56350875667E+00 -0.10362231279E+01  0.11795358764E+01  0.00000000000E+00 0. -1.
         11    1    3    3    0    0  0.67410360786E+01  0.63761280460E+01  0.24178627750E+01  0.95886723237E+01  0.51100000000E-03 0. -1.
        -11    1    3    3    0    0 -0.25385299880E+02 -0.21736080129E+02  0.27297417690E+02  0.43151125619E+02  0.51100000000E-03 0.  1.
         12    1    3    3    0    0  0.18642167634E+02  0.14796443326E+02 -0.28679057337E+02  0.37268666181E+02  0.00000000000E+00 0. -1.
</event>
<event>
 7    1  0.2148778E-015  0.9000771E+02  0.7816164E-02  0.1186339E+00
        -11   -1    0    0    0    0  0.00000000000E+00  0.00000000000E+00  0.45593999997E+02  0.45594000000E+02  0.51100000000E-03 0.  1.
         11   -1    0    0    0    0 -0.00000000000E+00 -0.00000000000E+00 -0.45593999997E+02  0.45594000000E+02  0.51100000000E-03 0. -1.
    9900012    2    1    2    0    0 -0.75681209581E+00 -0.59455273503E+00  0.68324927016E+00  0.90007708905E+02  0.89999969863E+02 0.  0.
         12    1    1    2    0    0  0.75681209581E+00  0.59455273503E+00 -0.68324927016E+00  0.11802910947E+01  0.00000000000E+00 0. -1.
         11    1    3    3    0    0  0.34612631793E+01  0.27879649376E+02 -0.29734510787E+01  0.28250603599E+02  0.51100000000E-03 0. -1.
        -11    1    3    3    0    0 -0.86156091973E+01  0.82867464397E+01  0.18370473184E+02  0.21917417130E+02  0.51100000000E-03 0.  1.
         12    1    3    3    0    0  0.43975339222E+01 -0.36760948551E+02 -0.14713772835E+02  0.39839688176E+02  0.00000000000E+00 0. -1.
</event>
<event>
 7    1  0.2148778E-015  0.9000765E+02  0.7816164E-02  0.1186339E+00
        -11   -1    0    0    0    0  0.00000000000E+00  0.00000000000E+00  0.45593999997E+02  0.45594000000E+02  0.51100000000E-03 0.  1.
         11   -1    0    0    0    0 -0.00000000000E+00 -0.00000000000E+00 -0.45593999997E+02  0.45594000000E+02  0.51100000000E-03 0. -1.
    9900012    2    1    2    0    0 -0.40210591627E+00 -0.11080100201E+01 -0.62033827877E-01  0.90007651082E+02  0.89999911276E+02 0.  0.
         12    1    1    2    0    0  0.40210591627E+00  0.11080100201E+01  0.62033827877E-01  0.11803489180E+01  0.00000000000E+00 0. -1.
         11    1    3    3    0    0  0.35282076858E+01  0.18782441628E+01 -0.39574341551E+02  0.39775677996E+02  0.51100000000E-03 0. -1.
        -11    1    3    3    0    0  0.40146100525E+00 -0.82310251178E+01 -0.17400707361E+01  0.84225169549E+01  0.51100000000E-03 0.  1.
        -12    1    3    3    0    0 -0.43317746073E+01  0.52447709348E+01  0.41252378459E+02  0.41809456131E+02  0.00000000000E+00 0.  1.
</event>
<event>
 7    1  0.2148778E-015  0.9000772E+02  0.7816164E-02  0.1186339E+00
        -11   -1    0    0    0    0  0.00000000000E+00  0.00000000000E+00  0.45593999997E+02  0.45594000000E+02  0.51100000000E-03 0.  1.
         11   -1    0    0    0    0 -0.00000000000E+00 -0.00000000000E+00 -0.45593999997E+02  0.45594000000E+02  0.51100000000E-03 0. -1.
    9900012    2    1    2    0    0  0.89035906934E+00  0.68485531920E+00  0.36234643200E+00  0.90007719941E+02  0.89999981044E+02 0.  0.
         12    1    1    2    0    0 -0.89035906934E+00 -0.68485531920E+00 -0.36234643200E+00  0.11802800589E+01  0.00000000000E+00 0. -1.
         11    1    3    3    0    0 -0.54468540146E+01  0.31276794138E+02 -0.24345455485E+02  0.40007590195E+02  0.51100000000E-03 0. -1.
        -11    1    3    3    0    0  0.96978958374E+01  0.19170928544E+01  0.16979344910E+01  0.10030324545E+02  0.51100000000E-03 0.  1.
        -12    1    3    3    0    0 -0.33606827535E+01 -0.32509031673E+02  0.23009867426E+02  0.39969805201E+02  0.00000000000E+00 0.  1.
</event>
<event>
 7    1  0.2148778E-015  0.9000678E+02  0.7816164E-02  0.1186341E+00
        -11   -1    0    0    0    0  0.00000000000E+00  0.00000000000E+00  0.45593999997E+02  0.45594000000E+02  0.51100000000E-03 0.  1.
         11   -1    0    0    0    0 -0.00000000000E+00 -0.00000000000E+00 -0.45593999997E+02  0.45594000000E+02  0.51100000000E-03 0. -1.
    9900012    2    1    2    0    0  0.80179112528E+00 -0.85451161765E+00  0.14906136588E+00  0.90006780967E+02  0.89999029670E+02 0.  0.
         12    1    1    2    0    0 -0.80179112528E+00  0.85451161765E+00 -0.14906136588E+00  0.11812190331E+01  0.00000000000E+00 0. -1.
         11    1    3    3    0    0  0.20073427209E+02  0.23939811280E+02 -0.11465192189E+02  0.33279237915E+02  0.51100000000E-03 0. -1.
        -11    1    3    3    0    0 -0.10745886049E+02  0.76277590273E+01 -0.10257406819E+02  0.16699436208E+02  0.51100000000E-03 0.  1.
        -12    1    3    3    0    0 -0.85257500347E+01 -0.32422081925E+02  0.21871660374E+02  0.40028106844E+02  0.00000000000E+00 0.  1.
</event>
<event>
 7    1  0.2148778E-015  0.9000771E+02  0.7816164E-02  0.1186339E+00
        -11   -1    0    0    0    0  0.00000000000E+00  0.00000000000E+00  0.45593999997E+02  0.45594000000E+02  0.51100000000E-03 0.  1.
         11   -1    0    0    0    0 -0.00000000000E+00 -0.00000000000E+00 -0.45593999997E+02  0.45594000000E+02  0.51100000000E-03 0. -1.
    9900012    2    1    2    0    0 -0.31159971302E+00  0.10989902963E+01 -0.29701933708E+00  0.90007705740E+02  0.89999966656E+02 0.  0.
         12    1    1    2    0    0  0.31159971302E+00 -0.10989902963E+01  0.29701933708E+00  0.11802942596E+01  0.00000000000E+00 0. -1.
         11    1    3    3    0    0 -0.26369823654E+02  0.17927781736E+02 -0.24704238116E+02  0.40336984749E+02  0.51100000000E-03 0. -1.
        -11    1    3    3    0    0 -0.62642516124E+01 -0.71798305929E+01  0.53335669771E+01  0.10919604048E+02  0.51100000000E-03 0.  1.
        -12    1    3    3    0    0  0.32322475553E+02 -0.96489608470E+01  0.19073651801E+02  0.38751116943E+02  0.00000000000E+00 0.  1.
</event>
<event>
 7    1  0.2148778E-015  0.9000773E+02  0.7816164E-02  0.1186339E+00
        -11   -1    0    0    0    0  0.00000000000E+00  0.00000000000E+00  0.45593999997E+02  0.45594000000E+02  0.51100000000E-03 0.  1.
         11   -1    0    0    0    0 -0.00000000000E+00 -0.00000000000E+00 -0.45593999997E+02  0.45594000000E+02  0.51100000000E-03 0. -1.
    9900012    2    1    2    0    0 -0.23928810351E+00 -0.22085284384E+00  0.11344610678E+01  0.90007730247E+02  0.89999991486E+02 0.  0.
         12    1    1    2    0    0  0.23928810351E+00  0.22085284384E+00 -0.11344610678E+01  0.11802697529E+01  0.00000000000E+00 0. -1.
         11    1    3    3    0    0  0.23649813176E+02 -0.20339054791E+02 -0.27180032821E+02  0.41373240113E+02  0.51100000000E-03 0. -1.
        -11    1    3    3    0    0 -0.10848850492E+01  0.67151663142E+01 -0.31773566221E+01  0.75077313193E+01  0.51100000000E-03 0.  1.
        -12    1    3    3    0    0 -0.22804216230E+02  0.13403035633E+02  0.31491850511E+02  0.41126758815E+02  0.00000000000E+00 0.  1.
</event>
<event>
 7    1  0.2148778E-015  0.9000753E+02  0.7816164E-02  0.1186339E+00
        -11   -1    0    0    0    0  0.00000000000E+00  0.00000000000E+00  0.45593999997E+02  0.45594000000E+02  0.51100000000E-03 0. -1.
         11   -1    0    0    0    0 -0.00000000000E+00 -0.00000000000E+00 -0.45593999997E+02  0.45594000000E+02  0.51100000000E-03 0.  1.
    9900012    2    1    2    0    0 -0.43232651646E+00  0.62852397553E+00 -0.90086847077E+00  0.90007528651E+02  0.89999787229E+02 0.  0.
         12    1    1    2    0    0  0.43232651646E+00 -0.62852397553E+00  0.90086847077E+00  0.11804713492E+01  0.00000000000E+00 0. -1.
         11    1    3    3    0    0  0.18010514645E+02  0.21288896738E+02  0.25217761999E+02  0.37596958422E+02  0.51100000000E-03 0. -1.
        -11    1    3    3    0    0  0.82158317119E+01  0.38413209136E+01 -0.35176967459E+01  0.97277863739E+01  0.51100000000E-03 0.  1.
        -12    1    3    3    0    0 -0.26658672873E+02 -0.24501693676E+02 -0.22600933724E+02  0.42682783854E+02  0.00000000000E+00 0.  1.
</event>
<event>
 7    1  0.2148778E-015  0.9000771E+02  0.7816164E-02  0.1186339E+00
        -11   -1    0    0    0    0  0.00000000000E+00  0.00000000000E+00  0.45593999997E+02  0.45594000000E+02  0.51100000000E-03 0. -1.
         11   -1    0    0    0    0 -0.00000000000E+00 -0.00000000000E+00 -0.45593999997E+02  0.45594000000E+02  0.51100000000E-03 0.  1.
    9900012    2    1    2    0    0  0.50040715160E+00  0.65643120614E+00  0.84367138293E+00  0.90007707389E+02  0.89999968326E+02 0.  0.
         12    1    1    2    0    0 -0.50040715160E+00 -0.65643120614E+00 -0.84367138293E+00  0.11802926112E+01  0.00000000000E+00 0. -1.
         11    1    3    3    0    0  0.51143825178E+01  0.96004536076E+01 -0.78650601265E+01  0.13423292780E+02  0.51100000000E-03 0. -1.
        -11    1    3    3    0    0 -0.13366241514E+02  0.23153602465E+02 -0.19398714552E+02  0.33031134492E+02  0.51100000000E-03 0.  1.
         12    1    3    3    0    0  0.87522661478E+01 -0.32097624866E+02  0.28107446062E+02  0.43553280116E+02  0.00000000000E+00 0. -1.
</event>
<event>
 7    1  0.2148778E-015  0.9000772E+02  0.7816164E-02  0.1186339E+00
        -11   -1    0    0    0    0  0.00000000000E+00  0.00000000000E+00  0.45593999997E+02  0.45594000000E+02  0.51100000000E-03 0.  1.
         11   -1    0    0    0    0 -0.00000000000E+00 -0.00000000000E+00 -0.45593999997E+02  0.45594000000E+02  0.51100000000E-03 0. -1.
    9900012    2    1    2    0    0 -0.17544659345E+00 -0.90874703532E+00  0.73243995108E+00  0.90007715728E+02  0.89999976775E+02 0.  0.
         12    1    1    2    0    0  0.17544659345E+00  0.90874703532E+00 -0.73243995108E+00  0.11802842722E+01  0.00000000000E+00 0. -1.
         11    1    3    3    0    0 -0.18057514724E+02  0.35236459865E+02 -0.80887725747E+01  0.40411757990E+02  0.51100000000E-03 0. -1.
        -11    1    3    3    0    0  0.89807711815E+01  0.23589943163E+01  0.16495780958E+01  0.94308119138E+01  0.51100000000E-03 0.  1.
        -12    1    3    3    0    0  0.89012969488E+01 -0.38504201216E+02  0.71716344300E+01  0.40165145824E+02  0.00000000000E+00 0.  1.
</event>
<event>
 7    1  0.2148778E-015  0.9000778E+02  0.7816164E-02  0.1186339E+00
        -11   -1    0    0    0    0  0.00000000000E+00  0.00000000000E+00  0.45593999997E+02  0.45594000000E+02  0.51100000000E-03 0.  1.
         11   -1    0    0    0    0 -0.00000000000E+00 -0.00000000000E+00 -0.45593999997E+02  0.45594000000E+02  0.51100000000E-03 0. -1.
    9900012    2    1    2    0    0 -0.11261790646E+01 -0.24517595089E+00 -0.25403084627E+00  0.90007778748E+02  0.90000040628E+02 0.  0.
         12    1    1    2    0    0  0.11261790646E+01  0.24517595089E+00  0.25403084627E+00  0.11802212519E+01  0.00000000000E+00 0. -1.
         11    1    3    3    0    0 -0.79086644076E+01 -0.31148279405E+01  0.87426244219E+01  0.12193547796E+02  0.51100000000E-03 0. -1.
        -11    1    3    3    0    0 -0.17509108891E+02  0.31325964836E+02  0.79238793877E+01  0.36751501083E+02  0.51100000000E-03 0.  1.
         12    1    3    3    0    0  0.24291594234E+02 -0.28456312847E+02 -0.16920534656E+02  0.41062729869E+02  0.00000000000E+00 0. -1.
</event>
<event>
 7    1  0.2148778E-015  0.9000770E+02  0.7816164E-02  0.1186339E+00
        -11   -1    0    0    0    0  0.00000000000E+00  0.00000000000E+00  0.45593999997E+02  0.45594000000E+02  0.51100000000E-03 0.  1.
         11   -1    0    0    0    0 -0.00000000000E+00 -0.00000000000E+00 -0.45593999997E+02  0.45594000000E+02  0.51100000000E-03 0. -1.
    9900012    2    1    2    0    0  0.58850743528E-01 -0.86270673395E+00  0.80336370991E+00  0.90007695137E+02  0.89999955913E+02 0.  0.
         12    1    1    2    0    0 -0.58850743528E-01  0.86270673395E+00 -0.80336370991E+00  0.11803048628E+01  0.00000000000E+00 0. -1.
         11    1    3    3    0    0 -0.26332011374E+01  0.81731499673E+01 -0.29241829526E+01  0.90711065929E+01  0.51100000000E-03 0. -1.
        -11    1    3    3    0    0 -0.74452158611E+01  0.33252553053E+02 -0.96906691214E+01  0.35427003712E+02  0.51100000000E-03 0.  1.
         12    1    3    3    0    0  0.10137267742E+02 -0.42288409754E+02  0.13418215784E+02  0.45509584832E+02  0.00000000000E+00 0. -1.
</event>
<event>
 7    1  0.5194585E-015  0.9000775E+02  0.7816164E-02  0.1186339E+00
        -11   -1    0    0    0    0  0.00000000000E+00  0.00000000000E+00  0.45593999997E+02  0.45594000000E+02  0.51100000000E-03 0. -1.
         11   -1    0    0    0    0 -0.00000000000E+00 -0.00000000000E+00 -0.45593999997E+02  0.45594000000E+02  0.51100000000E-03 0.  1.
    9900012    2    1    2    0    0 -0.12935449089E+00 -0.63790019427E+00 -0.98454875459E+00  0.90007751936E+02  0.90000013462E+02 0.  0.
         12    1    1    2    0    0  0.12935449089E+00  0.63790019427E+00  0.98454875459E+00  0.11802480639E+01  0.00000000000E+00 0. -1.
         11    1    3    3    0    0  0.17583306513E+00  0.80103404000E+01  0.44745551669E+01  0.91770428131E+01  0.51100000000E-03 0. -1.
        -11    1    3    3    0    0  0.12275165534E+02  0.15810137002E+02 -0.35092985759E+02  0.40399972409E+02  0.51100000000E-03 0.  1.
         12    1    3    3    0    0 -0.12580353091E+02 -0.24458377596E+02  0.29633881837E+02  0.40430736714E+02  0.00000000000E+00 0. -1.
</event>
<event>
 7    1  0.2148778E-015  0.9000772E+02  0.7816164E-02  0.1186339E+00
        -11   -1    0    0    0    0  0.00000000000E+00  0.00000000000E+00  0.45593999997E+02  0.45594000000E+02  0.51100000000E-03 0. -1.
         11   -1    0    0    0    0 -0.00000000000E+00 -0.00000000000E+00 -0.45593999997E+02  0.45594000000E+02  0.51100000000E-03 0.  1.
    9900012    2    1    2    0    0  0.26909739873E+00 -0.42301158705E+00 -0.10685059502E+01  0.90007721567E+02  0.89999982692E+02 0.  0.
         12    1    1    2    0    0 -0.26909739873E+00  0.42301158705E+00  0.10685059502E+01  0.11802784326E+01  0.00000000000E+00 0. -1.
         11    1    3    3    0    0  0.46292599316E+01  0.18371304674E+02  0.23193380327E+01  0.19087016846E+02  0.51100000000E-03 0. -1.
        -11    1    3    3    0    0  0.16088846151E+01  0.23599420782E+02  0.10545632791E+02  0.25898485326E+02  0.51100000000E-03 0.  1.
         12    1    3    3    0    0 -0.59690471479E+01 -0.42393737042E+02 -0.13933476774E+02  0.45022219395E+02  0.00000000000E+00 0. -1.
</event>
<event>
 7    1  0.2148778E-015  0.9000776E+02  0.7816164E-02  0.1186339E+00
        -11   -1    0    0    0    0  0.00000000000E+00  0.00000000000E+00  0.45593999997E+02  0.45594000000E+02  0.51100000000E-03 0.  1.
         11   -1    0    0    0    0 -0.00000000000E+00 -0.00000000000E+00 -0.45593999997E+02  0.45594000000E+02  0.51100000000E-03 0. -1.
    9900012    2    1    2    0    0  0.13367673545E+00 -0.11392598471E+01 -0.27784123621E+00  0.90007755016E+02  0.90000016583E+02 0.  0.
         12    1    1    2    0    0 -0.13367673545E+00  0.11392598471E+01  0.27784123621E+00  0.11802449836E+01  0.00000000000E+00 0. -1.
         11    1    3    3    0    0 -0.10127915651E+02 -0.18272136148E+02 -0.34692712892E+02  0.40497283402E+02  0.51100000000E-03 0. -1.
        -11    1    3    3    0    0  0.90508455012E+00  0.89615197817E+01 -0.34612509071E+01  0.96492628187E+01  0.51100000000E-03 0.  1.
        -12    1    3    3    0    0  0.93565078362E+01  0.81713565191E+01  0.37876122563E+02  0.39861208796E+02  0.00000000000E+00 0.  1.
</event>
<event>
 7    1  0.2148778E-015  0.9000777E+02  0.7816164E-02  0.1186339E+00
        -11   -1    0    0    0    0  0.00000000000E+00  0.00000000000E+00  0.45593999997E+02  0.45594000000E+02  0.51100000000E-03 0.  1.
         11   -1    0    0    0    0 -0.00000000000E+00 -0.00000000000E+00 -0.45593999997E+02  0.45594000000E+02  0.51100000000E-03 0. -1.
    9900012    2    1    2    0    0  0.62761951025E+00 -0.25718681578E+00  0.96586854840E+00  0.90007765548E+02  0.90000027254E+02 0.  0.
         12    1    1    2    0    0 -0.62761951025E+00  0.25718681578E+00 -0.96586854840E+00  0.11802344516E+01  0.00000000000E+00 0. -1.
         11    1    3    3    0    0 -0.96521702420E+01  0.16646111832E+00  0.19504062195E+01  0.98486640905E+01  0.51100000000E-03 0. -1.
        -11    1    3    3    0    0 -0.29827443642E+02  0.11465973221E+02  0.15096916356E+02  0.35342068698E+02  0.51100000000E-03 0.  1.
         12    1    3    3    0    0  0.40107233395E+02 -0.11889621155E+02 -0.16081454027E+02  0.44817032760E+02  0.00000000000E+00 0. -1.
</event>
<event>
 7    1  0.2148778E-015  0.9000743E+02  0.7816164E-02  0.1186340E+00
        -11   -1    0    0    0    0  0.00000000000E+00  0.00000000000E+00  0.45593999997E+02  0.45594000000E+02  0.51100000000E-03 0.  1.
         11   -1    0    0    0    0 -0.00000000000E+00 -0.00000000000E+00 -0.45593999997E+02  0.45594000000E+02  0.51100000000E-03 0. -1.
    9900012    2    1    2    0    0  0.59649083533E+00 -0.96771204444E-01  0.10141846955E+01  0.90007433789E+02  0.89999691114E+02 0.  0.
         12    1    1    2    0    0 -0.59649083533E+00  0.96771204444E-01 -0.10141846955E+01  0.11805662112E+01  0.00000000000E+00 0. -1.
         11    1    3    3    0    0 -0.31659600191E+00  0.86323552487E+01 -0.23785555466E+01  0.89596493747E+01  0.51100000000E-03 0. -1.
        -11    1    3    3    0    0  0.10814564287E+00  0.29584944345E+02  0.23488850583E+02  0.37775742605E+02  0.51100000000E-03 0.  1.
         12    1    3    3    0    0  0.80494119437E+00 -0.38314070798E+02 -0.20096110341E+02  0.43272041809E+02  0.00000000000E+00 0. -1.
</event>
<event>
 7    1  0.2148778E-015  0.9000779E+02  0.7816164E-02  0.1186339E+00
        -11   -1    0    0    0    0  0.00000000000E+00  0.00000000000E+00  0.45593999997E+02  0.45594000000E+02  0.51100000000E-03 0. -1.
         11   -1    0    0    0    0 -0.00000000000E+00 -0.00000000000E+00 -0.45593999997E+02  0.45594000000E+02  0.51100000000E-03 0.  1.
    9900012    2    1    2    0    0  0.67460341916E-01 -0.94437413083E+00  0.70463348452E+00  0.90007787416E+02  0.90000049410E+02 0.  0.
         12    1    1    2    0    0 -0.67460341916E-01  0.94437413083E+00 -0.70463348452E+00  0.11802125843E+01  0.00000000000E+00 0. -1.
         11    1    3    3    0    0 -0.60250082986E+01  0.70180767755E+01  0.45479068328E+01  0.10307161755E+02  0.51100000000E-03 0. -1.
        -11    1    3    3    0    0  0.36822210852E+01  0.27324016605E+02 -0.26056053694E+02  0.37935189072E+02  0.51100000000E-03 0.  1.
         12    1    3    3    0    0  0.24102475554E+01 -0.35286467512E+02  0.22212780346E+02  0.41765436588E+02  0.00000000000E+00 0. -1.
</event>
<event>
 7    1  0.2148778E-015  0.9000774E+02  0.7816164E-02  0.1186339E+00
        -11   -1    0    0    0    0  0.00000000000E+00  0.00000000000E+00  0.45593999997E+02  0.45594000000E+02  0.51100000000E-03 0.  1.
         11   -1    0    0    0    0 -0.00000000000E+00 -0.00000000000E+00 -0.45593999997E+02  0.45594000000E+02  0.51100000000E-03 0. -1.
    9900012    2    1    2    0    0  0.54633568758E+00 -0.10070444790E+01 -0.28355273928E+00  0.90007735868E+02  0.89999997181E+02 0.  0.
         12    1    1    2    0    0 -0.54633568758E+00  0.10070444790E+01  0.28355273928E+00  0.11802641323E+01  0.00000000000E+00 0. -1.
         11    1    3    3    0    0 -0.60097817102E+01 -0.30367746357E+01 -0.41248238491E+02  0.41794217965E+02  0.51100000000E-03 0. -1.
        -11    1    3    3    0    0 -0.83350471024E+01  0.20401723581E+01  0.68141050882E+01  0.10957524440E+02  0.51100000000E-03 0.  1.
        -12    1    3    3    0    0  0.14891164500E+02 -0.10442201301E-01  0.34150580664E+02  0.37255993463E+02  0.00000000000E+00 0.  1.
</event>
<event>
 7    1  0.2148778E-015  0.9000749E+02  0.7816164E-02  0.1186340E+00
        -11   -1    0    0    0    0  0.00000000000E+00  0.00000000000E+00  0.45593999997E+02  0.45594000000E+02  0.51100000000E-03 0.  1.
         11   -1    0    0    0    0 -0.00000000000E+00 -0.00000000000E+00 -0.45593999997E+02  0.45594000000E+02  0.51100000000E-03 0. -1.
    9900012    2    1    2    0    0 -0.92001819933E+00 -0.72231877515E+00 -0.15949192341E+00  0.90007485039E+02  0.89999743041E+02 0.  0.
         12    1    1    2    0    0  0.92001819933E+00  0.72231877515E+00  0.15949192341E+00  0.11805149612E+01  0.00000000000E+00 0. -1.
         11    1    3    3    0    0  0.44033729043E+01 -0.33671813431E+02  0.15297065049E+02  0.37244877662E+02  0.51100000000E-03 0. -1.
        -11    1    3    3    0    0  0.53979546774E+00 -0.84285755541E+01 -0.83421341663E+00  0.84869415754E+01  0.51100000000E-03 0.  1.
        -12    1    3    3    0    0 -0.58631865713E+01  0.41378070210E+02 -0.14622343556E+02  0.44275665801E+02  0.00000000000E+00 0.  1.
</event>
<event>
 7    1  0.2148778E-015  0.9000774E+02  0.7816164E-02  0.1186339E+00
        -11   -1    0    0    0    0  0.00000000000E+00  0.00000000000E+00  0.45593999997E+02  0.45594000000E+02  0.51100000000E-03 0. -1.
         11   -1    0    0    0    0 -0.00000000000E+00 -0.00000000000E+00 -0.45593999997E+02  0.45594000000E+02  0.51100000000E-03 0.  1.
    9900012    2    1    2    0    0 -0.17619901791E-01  0.38743148989E+00 -0.11147234236E+01  0.90007736499E+02  0.89999997821E+02 0.  0.
         12    1    1    2    0    0  0.17619901791E-01 -0.38743148989E+00  0.11147234236E+01  0.11802635009E+01  0.00000000000E+00 0. -1.
         11    1    3    3    0    0 -0.17539454746E+02 -0.10201898983E+02  0.11047997438E+02  0.23103451329E+02  0.51100000000E-03 0. -1.
        -11    1    3    3    0    0 -0.11799146615E+02 -0.10567077516E+02 -0.24090250755E+02  0.28830941187E+02  0.51100000000E-03 0.  1.
         12    1    3    3    0    0  0.29320981459E+02  0.21156407989E+02  0.11927529893E+02  0.38073343983E+02  0.00000000000E+00 0. -1.
</event>
<event>
 7    1  0.2148778E-015  0.9000790E+02  0.7816164E-02  0.1186339E+00
        -11   -1    0    0    0    0  0.00000000000E+00  0.00000000000E+00  0.45593999997E+02  0.45594000000E+02  0.51100000000E-03 0.  1.
         11   -1    0    0    0    0 -0.00000000000E+00 -0.00000000000E+00 -0.45593999997E+02  0.45594000000E+02  0.51100000000E-03 0. -1.
    9900012    2    1    2    0    0  0.74622488769E+00  0.72629799776E+00 -0.55523488421E+00  0.90007895707E+02  0.90000159131E+02 0.  0.
         12    1    1    2    0    0 -0.74622488769E+00 -0.72629799776E+00  0.55523488421E+00  0.11801042925E+01  0.00000000000E+00 0. -1.
         11    1    3    3    0    0 -0.32892778538E+02 -0.11980008633E+02  0.28447389324E+01  0.35121902378E+02  0.51100000000E-03 0. -1.
        -11    1    3    3    0    0 -0.66693012055E+01 -0.49580625168E+01  0.55273877409E+01  0.99806802368E+01  0.51100000000E-03 0.  1.
        -12    1    3    3    0    0  0.40308304631E+02  0.17664369148E+02 -0.89273615575E+01  0.44905313093E+02  0.00000000000E+00 0.  1.
</event>
<event>
 7    1  0.2148778E-015  0.9000786E+02  0.7816164E-02  0.1186339E+00
        -11   -1    0    0    0    0  0.00000000000E+00  0.00000000000E+00  0.45593999997E+02  0.45594000000E+02  0.51100000000E-03 0.  1.
         11   -1    0    0    0    0 -0.00000000000E+00 -0.00000000000E+00 -0.45593999997E+02  0.45594000000E+02  0.51100000000E-03 0. -1.
    9900012    2    1    2    0    0 -0.62354350297E-01 -0.96664819533E+00  0.67411597679E+00  0.90007860538E+02  0.90000123497E+02 0.  0.
         12    1    1    2    0    0  0.62354350297E-01  0.96664819533E+00 -0.67411597679E+00  0.11801394615E+01  0.00000000000E+00 0. -1.
         11    1    3    3    0    0 -0.46079854142E+01  0.53575611386E+01  0.77464733766E+01  0.10485458548E+02  0.51100000000E-03 0. -1.
        -11    1    3    3    0    0 -0.17772014677E+02  0.30961519513E+02 -0.17415525460E+01  0.35742036900E+02  0.51100000000E-03 0.  1.
         12    1    3    3    0    0  0.22317645741E+02 -0.37285728847E+02 -0.53308048538E+01  0.43780365090E+02  0.00000000000E+00 0. -1.
</event>
<event>
 7    1  0.2148778E-015  0.9000778E+02  0.7816164E-02  0.1186339E+00
        -11   -1    0    0    0    0  0.00000000000E+00  0.00000000000E+00  0.45593999997E+02  0.45594000000E+02  0.51100000000E-03 0. -1.
         11   -1    0    0    0    0 -0.00000000000E+00 -0.00000000000E+00 -0.45593999997E+02  0.45594000000E+02  0.51100000000E-03 0.  1.
    9900012    2    1    2    0    0  0.11100364630E+01 -0.36435369963E+00 -0.16730560780E+00  0.90007777252E+02  0.90000039112E+02 0.  0.
         12    1    1    2    0    0 -0.11100364630E+01  0.36435369963E+00  0.16730560780E+00  0.11802227476E+01  0.00000000000E+00 0. -1.
         11    1    3    3    0    0  0.32274872966E+02  0.40786926422E+01 -0.11302574289E+02  0.34439096162E+02  0.51100000000E-03 0. -1.
        -11    1    3    3    0    0 -0.43822080929E+01  0.81954479496E+01 -0.13946783964E+02  0.16759531559E+02  0.51100000000E-03 0.  1.
        -12    1    3    3    0    0 -0.26782628410E+02 -0.12638494291E+02  0.25082052645E+02  0.38809149532E+02  0.00000000000E+00 0.  1.
</event>
<event>
 7    1  0.2148778E-015  0.9000770E+02  0.7816164E-02  0.1186339E+00
        -11   -1    0    0    0    0  0.00000000000E+00  0.00000000000E+00  0.45593999997E+02  0.45594000000E+02  0.51100000000E-03 0.  1.
         11   -1    0    0    0    0 -0.00000000000E+00 -0.00000000000E+00 -0.45593999997E+02  0.45594000000E+02  0.51100000000E-03 0. -1.
    9900012    2    1    2    0    0  0.16733947331E+00 -0.11563478583E+01 -0.16719286397E+00  0.90007704985E+02  0.89999965891E+02 0.  0.
         12    1    1    2    0    0 -0.16733947331E+00  0.11563478583E+01  0.16719286397E+00  0.11802950150E+01  0.00000000000E+00 0. -1.
         11    1    3    3    0    0  0.36699104979E+02  0.78835442257E+01 -0.11080312498E+02  0.39137551036E+02  0.51100000000E-03 0. -1.
        -11    1    3    3    0    0 -0.34245471916E+00 -0.27749721197E+01 -0.87670583910E+01  0.92021225047E+01  0.51100000000E-03 0.  1.
        -12    1    3    3    0    0 -0.36189310786E+02 -0.62649199642E+01  0.19680178024E+02  0.41668031444E+02  0.00000000000E+00 0.  1.
</event>
<event>
 7    1  0.2148778E-015  0.9000796E+02  0.7816164E-02  0.1186339E+00
        -11   -1    0    0    0    0  0.00000000000E+00  0.00000000000E+00  0.45593999997E+02  0.45594000000E+02  0.51100000000E-03 0.  1.
         11   -1    0    0    0    0 -0.00000000000E+00 -0.00000000000E+00 -0.45593999997E+02  0.45594000000E+02  0.51100000000E-03 0. -1.
    9900012    2    1    2    0    0  0.82644172680E+00  0.81719896369E+00  0.20413346808E+00  0.90007961633E+02  0.90000225927E+02 0.  0.
         12    1    1    2    0    0 -0.82644172680E+00 -0.81719896369E+00 -0.20413346808E+00  0.11800383667E+01  0.00000000000E+00 0. -1.
         11    1    3    3    0    0 -0.33945337426E+02 -0.78706264697E+01 -0.13555156381E+02  0.37389503324E+02  0.51100000000E-03 0. -1.
        -11    1    3    3    0    0 -0.58614466928E+01 -0.29971315741E+01 -0.28753443109E+01  0.71837984501E+01  0.51100000000E-03 0.  1.
        -12    1    3    3    0    0  0.40633225846E+02  0.11684957008E+02  0.16634634160E+02  0.45434659860E+02  0.00000000000E+00 0.  1.
</event>
<event>
 7    1  0.2229661E-015  0.9000900E+02  0.7816164E-02  0.1186337E+00
        -11   -1    0    0    0    0  0.00000000000E+00  0.00000000000E+00  0.45593999997E+02  0.45594000000E+02  0.51100000000E-03 0.  1.
         11   -1    0    0    0    0 -0.00000000000E+00 -0.00000000000E+00 -0.45593999997E+02  0.45594000000E+02  0.51100000000E-03 0. -1.
    9900012    2    1    2    0    0  0.10225644830E+01 -0.23774243684E+00  0.53654800364E+00  0.90008999004E+02  0.90001276982E+02 0.  0.
         12    1    1    2    0    0 -0.10225644830E+01  0.23774243684E+00 -0.53654800364E+00  0.11790009959E+01  0.00000000000E+00 0. -1.
         11    1    3    3    0    0 -0.52406256465E+01  0.25624426734E+01 -0.81855405534E+01  0.10051534412E+02  0.51100000000E-03 0. -1.
        -11    1    3    3    0    0 -0.59648219040E+01  0.21133480824E+02  0.35676714814E+02  0.41893091223E+02  0.51100000000E-03 0.  1.
         12    1    3    3    0    0  0.12228012033E+02 -0.23933665934E+02 -0.26954626257E+02  0.38064373369E+02  0.00000000000E+00 0. -1.
</event>
<event>
 7    1  0.2148778E-015  0.9000777E+02  0.7816164E-02  0.1186339E+00
        -11   -1    0    0    0    0  0.00000000000E+00  0.00000000000E+00  0.45593999997E+02  0.45594000000E+02  0.51100000000E-03 0.  1.
         11   -1    0    0    0    0 -0.00000000000E+00 -0.00000000000E+00 -0.45593999997E+02  0.45594000000E+02  0.51100000000E-03 0. -1.
    9900012    2    1    2    0    0  0.62283290124E+00  0.19917750460E+00  0.98252464508E+00  0.90007768167E+02  0.90000029907E+02 0.  0.
         12    1    1    2    0    0 -0.62283290124E+00 -0.19917750460E+00 -0.98252464508E+00  0.11802318329E+01  0.00000000000E+00 0. -1.
         11    1    3    3    0    0  0.26869108820E+01  0.64942928989E+01  0.49862357774E+01  0.86173010759E+01  0.51100000000E-03 0. -1.
        -11    1    3    3    0    0 -0.86102976234E+01  0.25853363953E+02  0.25461051979E+02  0.37293415249E+02  0.51100000000E-03 0.  1.
         12    1    3    3    0    0  0.65462196427E+01 -0.32148479347E+02 -0.29464763111E+02  0.44097051842E+02  0.00000000000E+00 0. -1.
</event>
<event>
 7    1  0.2148778E-015  0.9000744E+02  0.7816164E-02  0.1186340E+00
        -11   -1    0    0    0    0  0.00000000000E+00  0.00000000000E+00  0.45593999997E+02  0.45594000000E+02  0.51100000000E-03 0.  1.
         11   -1    0    0    0    0 -0.00000000000E+00 -0.00000000000E+00 -0.45593999997E+02  0.45594000000E+02  0.51100000000E-03 0. -1.
    9900012    2    1    2    0    0 -0.37856640328E+00 -0.77083146792E+00  0.81008214762E+00  0.90007437948E+02  0.89999695328E+02 0.  0.
         12    1    1    2    0    0  0.37856640328E+00  0.77083146792E+00 -0.81008214762E+00  0.11805620524E+01  0.00000000000E+00 0. -1.
         11    1    3    3    0    0 -0.27702013943E+01  0.47070648667E+01  0.98426425005E+01  0.11256468677E+02  0.51100000000E-03 0. -1.
        -11    1    3    3    0    0  0.20236893207E+01  0.21270321635E+02  0.26647994380E+02  0.34156075677E+02  0.51100000000E-03 0.  1.
         12    1    3    3    0    0  0.36794567036E+00 -0.26748217970E+02 -0.35680554733E+02  0.44594893593E+02  0.00000000000E+00 0. -1.
</event>
<event>
 7    1  0.2148778E-015  0.9000774E+02  0.7816164E-02  0.1186339E+00
        -11   -1    0    0    0    0  0.00000000000E+00  0.00000000000E+00  0.45593999997E+02  0.45594000000E+02  0.51100000000E-03 0.  1.
         11   -1    0    0    0    0 -0.00000000000E+00 -0.00000000000E+00 -0.45593999997E+02  0.45594000000E+02  0.51100000000E-03 0. -1.
    9900012    2    1    2    0    0  0.47730655982E+00 -0.75660299197E+00  0.76989117495E+00  0.90007744917E+02  0.90000006350E+02 0.  0.
         12    1    1    2    0    0 -0.47730655982E+00  0.75660299197E+00 -0.76989117495E+00  0.11802550829E+01  0.00000000000E+00 0. -1.
         11    1    3    3    0    0 -0.10019863844E+02 -0.14857763586E+02 -0.33016966286E+02  0.37566885328E+02  0.51100000000E-03 0. -1.
        -11    1    3    3    0    0  0.19833961225E+01  0.61193808296E+01 -0.72993453191E+01  0.97293948560E+01  0.51100000000E-03 0.  1.
        -12    1    3    3    0    0  0.85137742812E+01  0.79817797645E+01  0.41086202780E+02  0.42711464733E+02  0.00000000000E+00 0.  1.
</event>
<event>
 7    1  0.2148778E-015  0.9000785E+02  0.7816164E-02  0.1186339E+00
        -11   -1    0    0    0    0  0.00000000000E+00  0.00000000000E+00  0.45593999997E+02  0.45594000000E+02  0.51100000000E-03 0.  1.
         11   -1    0    0    0    0 -0.00000000000E+00 -0.00000000000E+00 -0.45593999997E+02  0.45594000000E+02  0.51100000000E-03 0. -1.
    9900012    2    1    2    0    0  0.30801423376E-01  0.11790941655E+01  0.39394178625E-01  0.90007845908E+02  0.90000108674E+02 0.  0.
         12    1    1    2    0    0 -0.30801423376E-01 -0.11790941655E+01 -0.39394178625E-01  0.11801540917E+01  0.00000000000E+00 0. -1.
         11    1    3    3    0    0 -0.84893128855E+01 -0.29547858398E+01 -0.16269251570E+01  0.91348825036E+01  0.51100000000E-03 0. -1.
        -11    1    3    3    0    0 -0.17207681363E+02  0.10015421300E+02  0.33838217187E+02  0.39261150064E+02  0.51100000000E-03 0.  1.
         12    1    3    3    0    0  0.25727795672E+02 -0.58815412944E+01 -0.32171897851E+02  0.41611813341E+02  0.00000000000E+00 0. -1.
</event>
<event>
 7    1  0.2148778E-015  0.9000789E+02  0.7816164E-02  0.1186339E+00
        -11   -1    0    0    0    0  0.00000000000E+00  0.00000000000E+00  0.45593999997E+02  0.45594000000E+02  0.51100000000E-03 0. -1.
         11   -1    0    0    0    0 -0.00000000000E+00 -0.00000000000E+00 -0.45593999997E+02  0.45594000000E+02  0.51100000000E-03 0.  1.
    9900012    2    1    2    0    0 -0.62919467064E+00  0.95636872847E-01 -0.99379960354E+00  0.90007885600E+02  0.90000148890E+02 0.  0.
         12    1    1    2    0    0  0.62919467064E+00 -0.95636872847E-01  0.99379960354E+00  0.11801144000E+01  0.00000000000E+00 0. -1.
         11    1    3    3    0    0  0.14242458920E+00  0.70583607616E+01 -0.69395485797E+01  0.98993977673E+01  0.51100000000E-03 0. -1.
        -11    1    3    3    0    0 -0.15650701572E+02 -0.23838081962E+02 -0.27620397656E+02  0.39699936754E+02  0.51100000000E-03 0.  1.
         12    1    3    3    0    0  0.14879082312E+02  0.16875358073E+02  0.33566146632E+02  0.40408551079E+02  0.00000000000E+00 0. -1.
</event>
<event>
 7    1  0.2148778E-015  0.9000759E+02  0.7816164E-02  0.1186339E+00
        -11   -1    0    0    0    0  0.00000000000E+00  0.00000000000E+00  0.45593999997E+02  0.45594000000E+02  0.51100000000E-03 0.  1.
         11   -1    0    0    0    0 -0.00000000000E+00 -0.00000000000E+00 -0.45593999997E+02  0.45594000000E+02  0.51100000000E-03 0. -1.
    9900012    2    1    2    0    0  0.90716827651E-01 -0.77381609974E+00  0.88675929368E+00  0.90007592043E+02  0.89999851458E+02 0.  0.
         12    1    1    2    0    0 -0.90716827651E-01  0.77381609974E+00 -0.88675929368E+00  0.11804079566E+01  0.00000000000E+00 0. -1.
         11    1    3    3    0    0  0.28798172210E+02  0.23674372016E+02  0.34192136946E+00  0.37281731765E+02  0.51100000000E-03 0. -1.
        -11    1    3    3    0    0  0.50340395829E+01 -0.65650894750E+01  0.10397972226E+02  0.13287579953E+02  0.51100000000E-03 0.  1.
        -12    1    3    3    0    0 -0.33741494965E+02 -0.17883098640E+02 -0.98531343013E+01  0.39438280325E+02  0.00000000000E+00 0.  1.
</event>
<event>
 7    1  0.2148778E-015  0.9000766E+02  0.7816164E-02  0.1186339E+00
        -11   -1    0    0    0    0  0.00000000000E+00  0.00000000000E+00  0.45593999997E+02  0.45594000000E+02  0.51100000000E-03 0.  1.
         11   -1    0    0    0    0 -0.00000000000E+00 -0.00000000000E+00 -0.45593999997E+02  0.45594000000E+02  0.51100000000E-03 0. -1.
    9900012    2    1    2    0    0  0.23340432302E+00 -0.86962356373E-01  0.11537568057E+01  0.90007663270E+02  0.89999923625E+02 0.  0.
         12    1    1    2    0    0 -0.23340432302E+00  0.86962356373E-01 -0.11537568057E+01  0.11803367300E+01  0.00000000000E+00 0. -1.
         11    1    3    3    0    0 -0.14045610601E+02 -0.20022504053E+02 -0.23079547760E+02  0.33628044409E+02  0.51100000000E-03 0. -1.
        -11    1    3    3    0    0  0.75975831320E+00 -0.95845072769E+01 -0.65534261536E+01  0.11635609440E+02  0.51100000000E-03 0.  1.
        -12    1    3    3    0    0  0.13519256610E+02  0.29520048973E+02  0.30786730720E+02  0.44744009421E+02  0.00000000000E+00 0.  1.
</event>
<event>
 7    1  0.2267703E-015  0.9000774E+02  0.7816164E-02  0.1186339E+00
        -11   -1    0    0    0    0  0.00000000000E+00  0.00000000000E+00  0.45593999997E+02  0.45594000000E+02  0.51100000000E-03 0.  1.
         11   -1    0    0    0    0 -0.00000000000E+00 -0.00000000000E+00 -0.45593999997E+02  0.45594000000E+02  0.51100000000E-03 0. -1.
    9900012    2    1    2    0    0  0.37003215597E+00  0.79812666889E+00  0.78682588891E+00  0.90007735218E+02  0.89999996523E+02 0.  0.
         12    1    1    2    0    0 -0.37003215597E+00 -0.79812666889E+00 -0.78682588891E+00  0.11802647819E+01  0.00000000000E+00 0. -1.
         11    1    3    3    0    0  0.66544693783E+01 -0.58321822254E+01  0.45746769627E+01  0.99611235205E+01  0.51100000000E-03 0. -1.
        -11    1    3    3    0    0 -0.26290994481E+02  0.30589595853E+02  0.15661379610E+02  0.43269141161E+02  0.51100000000E-03 0.  1.
         12    1    3    3    0    0  0.20006557259E+02 -0.23959286958E+02 -0.19449230683E+02  0.36777470537E+02  0.00000000000E+00 0. -1.
</event>
<event>
 7    1  0.2148778E-015  0.9000767E+02  0.7816164E-02  0.1186339E+00
        -11   -1    0    0    0    0  0.00000000000E+00  0.00000000000E+00  0.45593999997E+02  0.45594000000E+02  0.51100000000E-03 0. -1.
         11   -1    0    0    0    0 -0.00000000000E+00 -0.00000000000E+00 -0.45593999997E+02  0.45594000000E+02  0.51100000000E-03 0.  1.
    9900012    2    1    2    0    0  0.90944829621E+00  0.67585823582E+00  0.33060152591E+00  0.90007670416E+02  0.89999930865E+02 0.  0.
         12    1    1    2    0    0 -0.90944829621E+00 -0.67585823582E+00 -0.33060152591E+00  0.11803295842E+01  0.00000000000E+00 0. -1.
         11    1    3    3    0    0  0.43175988662E+01 -0.60561643126E+00 -0.10531041902E+02  0.11397862739E+02  0.51100000000E-03 0. -1.
        -11    1    3    3    0    0  0.61230935354E+01  0.82556196861E+01 -0.32282018488E+02  0.33878846627E+02  0.51100000000E-03 0.  1.
         12    1    3    3    0    0 -0.95312441054E+01 -0.69741450190E+01  0.43143661915E+02  0.44730961050E+02  0.00000000000E+00 0. -1.
</event>
<event>
 7    1  0.2148778E-015  0.9000778E+02  0.7816164E-02  0.1186339E+00
        -11   -1    0    0    0    0  0.00000000000E+00  0.00000000000E+00  0.45593999997E+02  0.45594000000E+02  0.51100000000E-03 0.  1.
         11   -1    0    0    0    0 -0.00000000000E+00 -0.00000000000E+00 -0.45593999997E+02  0.45594000000E+02  0.51100000000E-03 0. -1.
    9900012    2    1    2    0    0 -0.11537658286E+01 -0.23464774468E+00 -0.81794184308E-01  0.90007777377E+02  0.90000039238E+02 0.  0.
         12    1    1    2    0    0  0.11537658286E+01  0.23464774468E+00  0.81794184308E-01  0.11802226230E+01  0.00000000000E+00 0. -1.
         11    1    3    3    0    0 -0.28583790702E+02 -0.15101809217E+02 -0.28235785343E+02  0.42922689882E+02  0.51100000000E-03 0. -1.
        -11    1    3    3    0    0  0.37387650814E+01  0.73057266329E+01 -0.15429538302E+01  0.83506115196E+01  0.51100000000E-03 0.  1.
        -12    1    3    3    0    0  0.23691259792E+02  0.75614348394E+01  0.29696944989E+02  0.38734475975E+02  0.00000000000E+00 0.  1.
</event>
<event>
 7    1  0.2148778E-015  0.9000765E+02  0.7816164E-02  0.1186339E+00
        -11   -1    0    0    0    0  0.00000000000E+00  0.00000000000E+00  0.45593999997E+02  0.45594000000E+02  0.51100000000E-03 0. -1.
         11   -1    0    0    0    0 -0.00000000000E+00 -0.00000000000E+00 -0.45593999997E+02  0.45594000000E+02  0.51100000000E-03 0.  1.
    9900012    2    1    2    0    0 -0.95964237859E+00  0.58023568110E+00 -0.36828695936E+00  0.90007651651E+02  0.89999911853E+02 0.  0.
         12    1    1    2    0    0  0.95964237859E+00 -0.58023568110E+00  0.36828695936E+00  0.11803483489E+01  0.00000000000E+00 0. -1.
         11    1    3    3    0    0  0.18896673950E+02  0.47071179722E+01 -0.21610823373E+02  0.29090701832E+02  0.51100000000E-03 0. -1.
        -11    1    3    3    0    0  0.11312953690E+02 -0.19271734081E+02  0.66436923273E+01  0.23313543353E+02  0.51100000000E-03 0.  1.
        -12    1    3    3    0    0 -0.31169270018E+02  0.15144851790E+02  0.14598844086E+02  0.37603406466E+02  0.00000000000E+00 0.  1.
</event>
<event>
 7    1  0.2148778E-015  0.9000783E+02  0.7816164E-02  0.1186339E+00
        -11   -1    0    0    0    0  0.00000000000E+00  0.00000000000E+00  0.45593999997E+02  0.45594000000E+02  0.51100000000E-03 0. -1.
         11   -1    0    0    0    0 -0.00000000000E+00 -0.00000000000E+00 -0.45593999997E+02  0.45594000000E+02  0.51100000000E-03 0.  1.
    9900012    2    1    2    0    0 -0.50143002898E+00 -0.73859373506E+00 -0.77191140991E+00  0.90007830519E+02  0.90000093082E+02 0.  0.
         12    1    1    2    0    0  0.50143002898E+00  0.73859373506E+00  0.77191140991E+00  0.11801694811E+01  0.00000000000E+00 0. -1.
         11    1    3    3    0    0  0.11771186900E+02  0.27719273738E+02  0.24085103256E+02  0.38561783889E+02  0.51100000000E-03 0. -1.
        -11    1    3    3    0    0  0.52392669006E+01 -0.66683888515E+01  0.55552984768E+01  0.10137981503E+02  0.51100000000E-03 0.  1.
        -12    1    3    3    0    0 -0.17511883830E+02 -0.21789478622E+02 -0.30412313142E+02  0.41308065127E+02  0.00000000000E+00 0.  1.
</event>
<event>
 7    1  0.2148778E-015  0.9000771E+02  0.7816164E-02  0.1186339E+00
        -11   -1    0    0    0    0  0.00000000000E+00  0.00000000000E+00  0.45593999997E+02  0.45594000000E+02  0.51100000000E-03 0.  1.
         11   -1    0    0    0    0 -0.00000000000E+00 -0.00000000000E+00 -0.45593999997E+02  0.45594000000E+02  0.51100000000E-03 0. -1.
    9900012    2    1    2    0    0 -0.75780270540E+00  0.23855809388E+00  0.87287296494E+00  0.90007711003E+02  0.89999971988E+02 0.  0.
         12    1    1    2    0    0  0.75780270540E+00 -0.23855809388E+00 -0.87287296494E+00  0.11802889974E+01  0.00000000000E+00 0. -1.
         11    1    3    3    0    0  0.41780613409E+02  0.38837083475E+01  0.42802106527E+01  0.42178466672E+02  0.51100000000E-03 0. -1.
        -11    1    3    3    0    0 -0.45306193402E+01 -0.36303878210E+01 -0.76299343133E+01  0.95876026839E+01  0.51100000000E-03 0.  1.
        -12    1    3    3    0    0 -0.38007796774E+02 -0.14762432583E-01  0.42225966255E+01  0.38241641646E+02  0.00000000000E+00 0.  1.
</event>
<event>
 7    1  0.2148778E-015  0.9000773E+02  0.7816164E-02  0.1186339E+00
        -11   -1    0    0    0    0  0.00000000000E+00  0.00000000000E+00  0.45593999997E+02  0.45594000000E+02  0.51100000000E-03 0.  1.
         11   -1    0    0    0    0 -0.00000000000E+00 -0.00000000000E+00 -0.45593999997E+02  0.45594000000E+02  0.51100000000E-03 0. -1.
    9900012    2    1    2    0    0  0.13058694904E+00 -0.10851279006E+01  0.44550230501E+00  0.90007734006E+02  0.89999995295E+02 0.  0.
         12    1    1    2    0    0 -0.13058694904E+00  0.10851279006E+01 -0.44550230501E+00  0.11802659936E+01  0.00000000000E+00 0. -1.
         11    1    3    3    0    0 -0.66036775936E+01  0.17111983365E+01  0.72704426366E+01  0.99697589691E+01  0.51100000000E-03 0. -1.
        -11    1    3    3    0    0 -0.81455736371E+01 -0.27759630363E+02  0.24061638959E+02  0.37628578467E+02  0.51100000000E-03 0.  1.
         12    1    3    3    0    0  0.14879838180E+02  0.24963304126E+02 -0.30886579291E+02  0.42409396570E+02  0.00000000000E+00 0. -1.
</event>
<event>
 7    1  0.2148778E-015  0.9000768E+02  0.7816164E-02  0.1186339E+00
        -11   -1    0    0    0    0  0.00000000000E+00  0.00000000000E+00  0.45593999997E+02  0.45594000000E+02  0.51100000000E-03 0. -1.
         11   -1    0    0    0    0 -0.00000000000E+00 -0.00000000000E+00 -0.45593999997E+02  0.45594000000E+02  0.51100000000E-03 0.  1.
    9900012    2    1    2    0    0  0.50104538316E+00 -0.10685586278E+01 -0.16808687216E-01  0.90007683708E+02  0.89999944333E+02 0.  0.
         12    1    1    2    0    0 -0.50104538316E+00  0.10685586278E+01  0.16808687216E-01  0.11803162919E+01  0.00000000000E+00 0. -1.
         11    1    3    3    0    0  0.19114177235E+01 -0.16259071527E+00 -0.83303235278E+01  0.85483474305E+01  0.51100000000E-03 0. -1.
        -11    1    3    3    0    0 -0.15223697012E+02  0.10778238092E+02 -0.32130869264E+02  0.37152713589E+02  0.51100000000E-03 0.  1.
         12    1    3    3    0    0  0.13813324671E+02 -0.11684206005E+02  0.40444384105E+02  0.44306622689E+02  0.00000000000E+00 0. -1.
</event>
<event>
 7    1  0.2148778E-015  0.9000769E+02  0.7816164E-02  0.1186339E+00
        -11   -1    0    0    0    0  0.00000000000E+00  0.00000000000E+00  0.45593999997E+02  0.45594000000E+02  0.51100000000E-03 0.  1.
         11   -1    0    0    0    0 -0.00000000000E+00 -0.00000000000E+00 -0.45593999997E+02  0.45594000000E+02  0.51100000000E-03 0. -1.
    9900012    2    1    2    0    0  0.97753641875E+00 -0.54636655747E-01 -0.65922309029E+00  0.90007687458E+02  0.89999948132E+02 0.  0.
         12    1    1    2    0    0 -0.97753641875E+00  0.54636655747E-01  0.65922309029E+00  0.11803125420E+01  0.00000000000E+00 0. -1.
         11    1    3    3    0    0  0.25655250320E+02 -0.20977580221E+02  0.82124224128E+01  0.34142270327E+02  0.51100000000E-03 0. -1.
        -11    1    3    3    0    0  0.11353990228E+02 -0.27380547863E+01  0.73267411766E+00  0.11702429224E+02  0.51100000000E-03 0.  1.
        -12    1    3    3    0    0 -0.36031704130E+02  0.23660998352E+02 -0.96043196208E+01  0.44162987907E+02  0.00000000000E+00 0.  1.
</event>
<event>
 7    1  0.2148778E-015  0.9000762E+02  0.7816164E-02  0.1186339E+00
        -11   -1    0    0    0    0  0.00000000000E+00  0.00000000000E+00  0.45593999997E+02  0.45594000000E+02  0.51100000000E-03 0. -1.
         11   -1    0    0    0    0 -0.00000000000E+00 -0.00000000000E+00 -0.45593999997E+02  0.45594000000E+02  0.51100000000E-03 0.  1.
    9900012    2    1    2    0    0 -0.47730112170E+00  0.74678933648E+00 -0.77961311592E+00  0.90007615620E+02  0.89999875346E+02 0.  0.
         12    1    1    2    0    0  0.47730112170E+00 -0.74678933648E+00  0.77961311592E+00  0.11803843799E+01  0.00000000000E+00 0. -1.
         11    1    3    3    0    0 -0.19520402836E+02 -0.26090624871E+02 -0.20704027021E+02  0.38606004302E+02  0.51100000000E-03 0. -1.
        -11    1    3    3    0    0  0.84325871910E+01 -0.16633803150E+01 -0.67659472181E+01  0.10938619786E+02  0.51100000000E-03 0.  1.
        -12    1    3    3    0    0  0.10610514523E+02  0.28500794522E+02  0.26690361123E+02  0.40462991532E+02  0.00000000000E+00 0.  1.
</event>
<event>
 7    1  0.2148778E-015  0.9000771E+02  0.7816164E-02  0.1186339E+00
        -11   -1    0    0    0    0  0.00000000000E+00  0.00000000000E+00  0.45593999997E+02  0.45594000000E+02  0.51100000000E-03 0. -1.
         11   -1    0    0    0    0 -0.00000000000E+00 -0.00000000000E+00 -0.45593999997E+02  0.45594000000E+02  0.51100000000E-03 0.  1.
    9900012    2    1    2    0    0  0.92913736191E-01  0.11297738963E+01  0.32872683023E+00  0.90007710481E+02  0.89999971460E+02 0.  0.
         12    1    1    2    0    0 -0.92913736191E-01 -0.11297738963E+01 -0.32872683023E+00  0.11802895188E+01  0.00000000000E+00 0. -1.
         11    1    3    3    0    0  0.34151976897E+02 -0.20895746334E+02 -0.16651095609E+02  0.43361834902E+02  0.51100000000E-03 0. -1.
        -11    1    3    3    0    0 -0.47710927036E+01  0.79614486190E+01 -0.12912975962E+01  0.93709892456E+01  0.51100000000E-03 0.  1.
        -12    1    3    3    0    0 -0.29287970458E+02  0.14064071611E+02  0.18271120036E+02  0.37274886333E+02  0.00000000000E+00 0.  1.
</event>
<event>
 7    1  0.2148778E-015  0.9000767E+02  0.7816164E-02  0.1186339E+00
        -11   -1    0    0    0    0  0.00000000000E+00  0.00000000000E+00  0.45593999997E+02  0.45594000000E+02  0.51100000000E-03 0. -1.
         11   -1    0    0    0    0 -0.00000000000E+00 -0.00000000000E+00 -0.45593999997E+02  0.45594000000E+02  0.51100000000E-03 0.  1.
    9900012    2    1    2    0    0  0.36942215357E+00 -0.11209834919E+01  0.96678454997E-02  0.90007673696E+02  0.89999934189E+02 0.  0.
         12    1    1    2    0    0 -0.36942215357E+00  0.11209834919E+01 -0.96678454997E-02  0.11803263040E+01  0.00000000000E+00 0. -1.
         11    1    3    3    0    0 -0.17761674402E+01  0.40362539319E+00 -0.90863310700E+01  0.92670975395E+01  0.51100000000E-03 0. -1.
        -11    1    3    3    0    0 -0.34952743403E+02 -0.11949781493E+02 -0.92223650905E+01  0.38072871802E+02  0.51100000000E-03 0.  1.
         12    1    3    3    0    0  0.37098332997E+02  0.10425172608E+02  0.18318364006E+02  0.42667704355E+02  0.00000000000E+00 0. -1.
</event>
<event>
 7    1  0.2148778E-015  0.9000776E+02  0.7816164E-02  0.1186339E+00
        -11   -1    0    0    0    0  0.00000000000E+00  0.00000000000E+00  0.45593999997E+02  0.45594000000E+02  0.51100000000E-03 0. -1.
         11   -1    0    0    0    0 -0.00000000000E+00 -0.00000000000E+00 -0.45593999997E+02  0.45594000000E+02  0.51100000000E-03 0.  1.
    9900012    2    1    2    0    0  0.54168546847E+00 -0.21366819677E+00  0.10265891086E+01  0.90007761701E+02  0.90000023355E+02 0.  0.
         12    1    1    2    0    0 -0.54168546847E+00  0.21366819677E+00 -0.10265891086E+01  0.11802382992E+01  0.00000000000E+00 0. -1.
         11    1    3    3    0    0  0.70172377665E+01 -0.31658930409E+01  0.45050861296E+01  0.89196583967E+01  0.51100000000E-03 0. -1.
        -11    1    3    3    0    0  0.16174800202E+02 -0.24302784109E+02 -0.26005061693E+02  0.39096198164E+02  0.51100000000E-03 0.  1.
         12    1    3    3    0    0 -0.22650352500E+02  0.27255008953E+02  0.22526564672E+02  0.41991905140E+02  0.00000000000E+00 0. -1.
</event>
<event>
 7    1  0.2148778E-015  0.9000757E+02  0.7816164E-02  0.1186339E+00
        -11   -1    0    0    0    0  0.00000000000E+00  0.00000000000E+00  0.45593999997E+02  0.45594000000E+02  0.51100000000E-03 0. -1.
         11   -1    0    0    0    0 -0.00000000000E+00 -0.00000000000E+00 -0.45593999997E+02  0.45594000000E+02  0.51100000000E-03 0.  1.
    9900012    2    1    2    0    0 -0.86970039931E+00 -0.49602849819E+00 -0.62529154579E+00  0.90007571022E+02  0.89999830159E+02 0.  0.
         12    1    1    2    0    0  0.86970039931E+00  0.49602849819E+00  0.62529154579E+00  0.11804289783E+01  0.00000000000E+00 0. -1.
         11    1    3    3    0    0  0.12890101442E+02 -0.49052971527E+01  0.14206664914E+01  0.13864881856E+02  0.51100000000E-03 0. -1.
        -11    1    3    3    0    0  0.41452935974E+01 -0.32907452307E+02 -0.85326837525E+01  0.34247489961E+02  0.51100000000E-03 0.  1.
         12    1    3    3    0    0 -0.17905095438E+02  0.37316720961E+02  0.64867257152E+01  0.41895199205E+02  0.00000000000E+00 0. -1.
</event>
<event>
 7    1  0.2148778E-015  0.9000753E+02  0.7816164E-02  0.1186339E+00
        -11   -1    0    0    0    0  0.00000000000E+00  0.00000000000E+00  0.45593999997E+02  0.45594000000E+02  0.51100000000E-03 0.  1.
         11   -1    0    0    0    0 -0.00000000000E+00 -0.00000000000E+00 -0.45593999997E+02  0.45594000000E+02  0.51100000000E-03 0. -1.
    9900012    2    1    2    0    0 -0.40298915214E+00  0.41530963015E+00  0.10288982599E+01  0.90007528071E+02  0.89999786641E+02 0.  0.
         12    1    1    2    0    0  0.40298915214E+00 -0.41530963015E+00 -0.10288982599E+01  0.11804719288E+01  0.00000000000E+00 0. -1.
         11    1    3    3    0    0 -0.48610194055E+01 -0.39829069331E+01  0.57600424998E+01  0.85247373660E+01  0.51100000000E-03 0. -1.
        -11    1    3    3    0    0 -0.20842743617E+02 -0.22288340378E+02  0.20609869336E+02  0.36823318598E+02  0.51100000000E-03 0.  1.
         12    1    3    3    0    0  0.25300773870E+02  0.26686556942E+02 -0.25341013576E+02  0.44659472107E+02  0.00000000000E+00 0. -1.
</event>
<event>
 7    1  0.2148778E-015  0.9000767E+02  0.7816164E-02  0.1186339E+00
        -11   -1    0    0    0    0  0.00000000000E+00  0.00000000000E+00  0.45593999997E+02  0.45594000000E+02  0.51100000000E-03 0. -1.
         11   -1    0    0    0    0 -0.00000000000E+00 -0.00000000000E+00 -0.45593999997E+02  0.45594000000E+02  0.51100000000E-03 0.  1.
    9900012    2    1    2    0    0 -0.43011203165E+00 -0.62499644568E+00 -0.90418602269E+00  0.90007674079E+02  0.89999934577E+02 0.  0.
         12    1    1    2    0    0  0.43011203165E+00  0.62499644568E+00  0.90418602269E+00  0.11803259213E+01  0.00000000000E+00 0. -1.
         11    1    3    3    0    0  0.62796846832E+01 -0.33964056275E+01 -0.74346805680E+00  0.71779353521E+01  0.51100000000E-03 0. -1.
        -11    1    3    3    0    0  0.31166288292E+02 -0.19220251084E+02 -0.99651939525E+01  0.37948131290E+02  0.51100000000E-03 0.  1.
         12    1    3    3    0    0 -0.37876085007E+02  0.21991660266E+02  0.98044759866E+01  0.44881607436E+02  0.00000000000E+00 0. -1.
</event>
<event>
 7    1  0.2148778E-015  0.9000774E+02  0.7816164E-02  0.1186339E+00
        -11   -1    0    0    0    0  0.00000000000E+00  0.00000000000E+00  0.45593999997E+02  0.45594000000E+02  0.51100000000E-03 0.  1.
         11   -1    0    0    0    0 -0.00000000000E+00 -0.00000000000E+00 -0.45593999997E+02  0.45594000000E+02  0.51100000000E-03 0. -1.
    9900012    2    1    2    0    0 -0.10024489557E+01  0.56019751034E+00 -0.27254303992E+00  0.90007743728E+02  0.90000005145E+02 0.  0.
         12    1    1    2    0    0  0.10024489557E+01 -0.56019751034E+00  0.27254303992E+00  0.11802562722E+01  0.00000000000E+00 0. -1.
         11    1    3    3    0    0  0.17934399526E+02 -0.12523191952E+02 -0.34087800219E+02  0.40502483221E+02  0.51100000000E-03 0. -1.
        -11    1    3    3    0    0 -0.53008591275E+01  0.45852069661E+01 -0.42439033764E+01  0.81935307738E+01  0.51100000000E-03 0.  1.
        -12    1    3    3    0    0 -0.13635989354E+02  0.84981824961E+01  0.38059160555E+02  0.41311729733E+02  0.00000000000E+00 0.  1.
</event>
<event>
 7    1  0.2148778E-015  0.9000760E+02  0.7816164E-02  0.1186339E+00
        -11   -1    0    0    0    0  0.00000000000E+00  0.00000000000E+00  0.45593999997E+02  0.45594000000E+02  0.51100000000E-03 0.  1.
         11   -1    0    0    0    0 -0.00000000000E+00 -0.00000000000E+00 -0.45593999997E+02  0.45594000000E+02  0.51100000000E-03 0. -1.
    9900012    2    1    2    0    0  0.29094010986E+00  0.25988578782E+00  0.11140758397E+01  0.90007596786E+02  0.89999856264E+02 0.  0.
         12    1    1    2    0    0 -0.29094010986E+00 -0.25988578782E+00 -0.11140758397E+01  0.11804032136E+01  0.00000000000E+00 0. -1.
         11    1    3    3    0    0  0.33499047791E+01 -0.23614900686E+01  0.88588924433E+01  0.97610692527E+01  0.51100000000E-03 0. -1.
        -11    1    3    3    0    0  0.18047954318E+02  0.14015839840E+01  0.31120713515E+02  0.36002665216E+02  0.51100000000E-03 0.  1.
         12    1    3    3    0    0 -0.21106918988E+02  0.12197918725E+01 -0.38865530119E+02  0.44243862317E+02  0.00000000000E+00 0. -1.
</event>
<event>
 7    1  0.2148778E-015  0.9000777E+02  0.7816164E-02  0.1186339E+00
        -11   -1    0    0    0    0  0.00000000000E+00  0.00000000000E+00  0.45593999997E+02  0.45594000000E+02  0.51100000000E-03 0. -1.
         11   -1    0    0    0    0 -0.00000000000E+00 -0.00000000000E+00 -0.45593999997E+02  0.45594000000E+02  0.51100000000E-03 0.  1.
    9900012    2    1    2    0    0 -0.22281713683E+00 -0.97169266760E+00 -0.63174944644E+00  0.90007770582E+02  0.90000032353E+02 0.  0.
         12    1    1    2    0    0  0.22281713683E+00  0.97169266760E+00  0.63174944644E+00  0.11802294183E+01  0.00000000000E+00 0. -1.
         11    1    3    3    0    0  0.75985728540E+01 -0.71002937111E+01  0.89492367607E-01  0.10400023526E+02  0.51100000000E-03 0. -1.
        -11    1    3    3    0    0 -0.33396007153E+02  0.79076933504E+01  0.25637442680E+02  0.42838106580E+02  0.51100000000E-03 0.  1.
         12    1    3    3    0    0  0.25574617163E+02 -0.17790923069E+01 -0.26358684494E+02  0.36769640476E+02  0.00000000000E+00 0. -1.
</event>
<event>
 7    1  0.2148778E-015  0.9000777E+02  0.7816164E-02  0.1186339E+00
        -11   -1    0    0    0    0  0.00000000000E+00  0.00000000000E+00  0.45593999997E+02  0.45594000000E+02  0.51100000000E-03 0.  1.
         11   -1    0    0    0    0 -0.00000000000E+00 -0.00000000000E+00 -0.45593999997E+02  0.45594000000E+02  0.51100000000E-03 0. -1.
    9900012    2    1    2    0    0 -0.76919759094E+00  0.14383587145E+00  0.88351551916E+00  0.90007765547E+02  0.90000027252E+02 0.  0.
         12    1    1    2    0    0  0.76919759094E+00 -0.14383587145E+00 -0.88351551916E+00  0.11802344532E+01  0.00000000000E+00 0. -1.
         11    1    3    3    0    0 -0.19466885896E+02 -0.97690266170E+01 -0.58247161201E+01  0.22545971828E+02  0.51100000000E-03 0. -1.
        -11    1    3    3    0    0 -0.11072370055E+02  0.25229954969E+02  0.17074463757E+02  0.32414276472E+02  0.51100000000E-03 0.  1.
        -12    1    3    3    0    0  0.29770058360E+02 -0.15317092481E+02 -0.10366232117E+02  0.35047517246E+02  0.00000000000E+00 0.  1.
</event>
<event>
 7    1  0.2148778E-015  0.9000769E+02  0.7816164E-02  0.1186339E+00
        -11   -1    0    0    0    0  0.00000000000E+00  0.00000000000E+00  0.45593999997E+02  0.45594000000E+02  0.51100000000E-03 0. -1.
         11   -1    0    0    0    0 -0.00000000000E+00 -0.00000000000E+00 -0.45593999997E+02  0.45594000000E+02  0.51100000000E-03 0.  1.
    9900012    2    1    2    0    0 -0.83524306044E-01  0.41433613019E+00 -0.11020399689E+01  0.90007685283E+02  0.89999945929E+02 0.  0.
         12    1    1    2    0    0  0.83524306044E-01 -0.41433613019E+00  0.11020399689E+01  0.11803147172E+01  0.00000000000E+00 0. -1.
         11    1    3    3    0    0  0.11045376227E+01 -0.42051771274E+01  0.10087564885E+02  0.10984647632E+02  0.51100000000E-03 0. -1.
        -11    1    3    3    0    0  0.26889458027E+01 -0.36612161594E+02 -0.72770720557E+01  0.37425079613E+02  0.51100000000E-03 0.  1.
         12    1    3    3    0    0 -0.38770077314E+01  0.41231674851E+02 -0.39125327982E+01  0.41597958037E+02  0.00000000000E+00 0. -1.
</event>
<event>
 7    1  0.2148778E-015  0.9000782E+02  0.7816164E-02  0.1186339E+00
        -11   -1    0    0    0    0  0.00000000000E+00  0.00000000000E+00  0.45593999997E+02  0.45594000000E+02  0.51100000000E-03 0.  1.
         11   -1    0    0    0    0 -0.00000000000E+00 -0.00000000000E+00 -0.45593999997E+02  0.45594000000E+02  0.51100000000E-03 0. -1.
    9900012    2    1    2    0    0 -0.68385346808E+00 -0.18516388532E+00  0.94386889646E+00  0.90007817928E+02  0.90000080324E+02 0.  0.
         12    1    1    2    0    0  0.68385346808E+00  0.18516388532E+00 -0.94386889646E+00  0.11801820724E+01  0.00000000000E+00 0. -1.
         11    1    3    3    0    0 -0.25791467606E+02 -0.84009230788E+01 -0.15535400683E+02  0.31258982461E+02  0.51100000000E-03 0. -1.
        -11    1    3    3    0    0 -0.59311566743E+01  0.20767654154E+02  0.38668650549E+00  0.21601472294E+02  0.51100000000E-03 0.  1.
        -12    1    3    3    0    0  0.31038770813E+02 -0.12551894961E+02  0.16092583074E+02  0.37147363172E+02  0.00000000000E+00 0.  1.
</event>
<event>
 7    1  0.2148778E-015  0.9000773E+02  0.7816164E-02  0.1186339E+00
        -11   -1    0    0    0    0  0.00000000000E+00  0.00000000000E+00  0.45593999997E+02  0.45594000000E+02  0.51100000000E-03 0.  1.
         11   -1    0    0    0    0 -0.00000000000E+00 -0.00000000000E+00 -0.45593999997E+02  0.45594000000E+02  0.51100000000E-03 0. -1.
    9900012    2    1    2    0    0  0.54001902952E+00  0.29448761153E+00  0.10073225990E+01  0.90007727860E+02  0.89999989068E+02 0.  0.
         12    1    1    2    0    0 -0.54001902952E+00 -0.29448761153E+00 -0.10073225990E+01  0.11802721399E+01  0.00000000000E+00 0. -1.
         11    1    3    3    0    0 -0.60956813409E+01  0.27515573280E+01  0.64724819953E+01  0.93070630265E+01  0.51100000000E-03 0. -1.
        -11    1    3    3    0    0 -0.19035185961E+02 -0.17978152311E+02  0.26229064733E+02  0.37060978159E+02  0.51100000000E-03 0.  1.
         12    1    3    3    0    0  0.25670886331E+02  0.15521082595E+02 -0.31694224129E+02  0.43639686675E+02  0.00000000000E+00 0. -1.
</event>
<event>
 7    1  0.2148778E-015  0.9000774E+02  0.7816164E-02  0.1186339E+00
        -11   -1    0    0    0    0  0.00000000000E+00  0.00000000000E+00  0.45593999997E+02  0.45594000000E+02  0.51100000000E-03 0.  1.
         11   -1    0    0    0    0 -0.00000000000E+00 -0.00000000000E+00 -0.45593999997E+02  0.45594000000E+02  0.51100000000E-03 0. -1.
    9900012    2    1    2    0    0  0.34936554099E+00 -0.11001146578E+00  0.11219872137E+01  0.90007739812E+02  0.90000001177E+02 0.  0.
         12    1    1    2    0    0 -0.34936554099E+00  0.11001146578E+00 -0.11219872137E+01  0.11802601881E+01  0.00000000000E+00 0. -1.
         11    1    3    3    0    0  0.10543494789E+02 -0.28449097494E+02  0.22623375147E+02  0.37846182554E+02  0.51100000000E-03 0. -1.
        -11    1    3    3    0    0 -0.19961368519E+01 -0.32211122182E+01  0.75769325328E+01  0.84717196083E+01  0.51100000000E-03 0.  1.
        -12    1    3    3    0    0 -0.81979923956E+01  0.31560198247E+02 -0.29078320466E+02  0.43689837650E+02  0.00000000000E+00 0.  1.
</event>
<event>
 7    1  0.2148778E-015  0.9000818E+02  0.7816164E-02  0.1186338E+00
        -11   -1    0    0    0    0  0.00000000000E+00  0.00000000000E+00  0.45593999997E+02  0.45594000000E+02  0.51100000000E-03 0.  1.
         11   -1    0    0    0    0 -0.00000000000E+00 -0.00000000000E+00 -0.45593999997E+02  0.45594000000E+02  0.51100000000E-03 0. -1.
    9900012    2    1    2    0    0  0.61929855673E+00  0.22925404703E+00  0.97769909627E+00  0.90008176436E+02  0.90000443563E+02 0.  0.
         12    1    1    2    0    0 -0.61929855673E+00 -0.22925404703E+00 -0.97769909627E+00  0.11798235645E+01  0.00000000000E+00 0. -1.
         11    1    3    3    0    0  0.13604374418E+02 -0.14285255245E+02 -0.25310649766E+02  0.32090131078E+02  0.51100000000E-03 0. -1.
        -11    1    3    3    0    0 -0.12782501268E+01  0.42716982192E+00 -0.13788290810E+02  0.13854001631E+02  0.51100000000E-03 0.  1.
        -12    1    3    3    0    0 -0.11706825735E+02  0.14087339470E+02  0.40076639673E+02  0.44064043727E+02  0.00000000000E+00 0.  1.
</event>
<event>
 7    1  0.2148778E-015  0.9000771E+02  0.7816164E-02  0.1186339E+00
        -11   -1    0    0    0    0  0.00000000000E+00  0.00000000000E+00  0.45593999997E+02  0.45594000000E+02  0.51100000000E-03 0.  1.
         11   -1    0    0    0    0 -0.00000000000E+00 -0.00000000000E+00 -0.45593999997E+02  0.45594000000E+02  0.51100000000E-03 0. -1.
    9900012    2    1    2    0    0  0.86702637898E+00 -0.51577754830E+00  0.61263500931E+00  0.90007710681E+02  0.89999971662E+02 0.  0.
         12    1    1    2    0    0 -0.86702637898E+00  0.51577754830E+00 -0.61263500931E+00  0.11802893187E+01  0.00000000000E+00 0. -1.
         11    1    3    3    0    0  0.81340430667E+01 -0.67742860721E+01 -0.42252357076E+00  0.10593966907E+02  0.51100000000E-03 0. -1.
        -11    1    3    3    0    0  0.25409282571E+02 -0.23922426082E+02  0.14749924076E+01  0.34929782612E+02  0.51100000000E-03 0.  1.
         12    1    3    3    0    0 -0.32676299259E+02  0.30180934605E+02 -0.43983382756E+00  0.44483961163E+02  0.00000000000E+00 0. -1.
</event>
<event>
 7    1  0.2148778E-015  0.9000772E+02  0.7816164E-02  0.1186339E+00
        -11   -1    0    0    0    0  0.00000000000E+00  0.00000000000E+00  0.45593999997E+02  0.45594000000E+02  0.51100000000E-03 0.  1.
         11   -1    0    0    0    0 -0.00000000000E+00 -0.00000000000E+00 -0.45593999997E+02  0.45594000000E+02  0.51100000000E-03 0. -1.
    9900012    2    1    2    0    0  0.11225751636E+01 -0.21374909629E+00 -0.29529020614E+00  0.90007720381E+02  0.89999981490E+02 0.  0.
         12    1    1    2    0    0 -0.11225751636E+01  0.21374909629E+00  0.29529020614E+00  0.11802796193E+01  0.00000000000E+00 0. -1.
         11    1    3    3    0    0  0.60214953365E+00 -0.62513346071E+01  0.61626616638E+01  0.87988730797E+01  0.51100000000E-03 0. -1.
        -11    1    3    3    0    0  0.77666208403E+01 -0.31364677817E+02  0.16956737202E+02  0.36491017396E+02  0.51100000000E-03 0.  1.
         12    1    3    3    0    0 -0.72461952104E+01  0.37402263328E+02 -0.23414689072E+02  0.44717829905E+02  0.00000000000E+00 0. -1.
</event>
<event>
 7    1  0.2148778E-015  0.9000758E+02  0.7816164E-02  0.1186339E+00
        -11   -1    0    0    0    0  0.00000000000E+00  0.00000000000E+00  0.45593999997E+02  0.45594000000E+02  0.51100000000E-03 0. -1.
         11   -1    0    0    0    0 -0.00000000000E+00 -0.00000000000E+00 -0.45593999997E+02  0.45594000000E+02  0.51100000000E-03 0.  1.
    9900012    2    1    2    0    0 -0.10181300967E+01 -0.25331866986E+00  0.54095275163E+00  0.90007580955E+02  0.89999840223E+02 0.  0.
         12    1    1    2    0    0  0.10181300967E+01  0.25331866986E+00 -0.54095275163E+00  0.11804190450E+01  0.00000000000E+00 0. -1.
         11    1    3    3    0    0  0.34796159044E+02  0.19717379186E+02  0.10667112904E+02  0.41392451294E+02  0.51100000000E-03 0. -1.
        -11    1    3    3    0    0 -0.24882766228E+01  0.12108540085E+01 -0.86696102606E+01  0.91005401111E+01  0.51100000000E-03 0.  1.
        -12    1    3    3    0    0 -0.33326012518E+02 -0.21181551864E+02 -0.14565498919E+01  0.39514589550E+02  0.00000000000E+00 0.  1.
</event>
<event>
 7    1  0.2148778E-015  0.9000778E+02  0.7816164E-02  0.1186339E+00
        -11   -1    0    0    0    0  0.00000000000E+00  0.00000000000E+00  0.45593999997E+02  0.45594000000E+02  0.51100000000E-03 0. -1.
         11   -1    0    0    0    0 -0.00000000000E+00 -0.00000000000E+00 -0.45593999997E+02  0.45594000000E+02  0.51100000000E-03 0.  1.
    9900012    2    1    2    0    0 -0.37988862567E+00  0.10919656595E+01  0.23710586997E+00  0.90007778172E+02  0.90000040044E+02 0.  0.
         12    1    1    2    0    0  0.37988862567E+00 -0.10919656595E+01 -0.23710586997E+00  0.11802218278E+01  0.00000000000E+00 0. -1.
         11    1    3    3    0    0 -0.28113750388E+02  0.52975909055E+01  0.27772946363E+02  0.39872095258E+02  0.51100000000E-03 0. -1.
        -11    1    3    3    0    0  0.14683539817E+02 -0.81969387529E+01  0.26351787740E+01  0.17021760012E+02  0.51100000000E-03 0.  1.
        -12    1    3    3    0    0  0.13050321946E+02  0.39913135068E+01 -0.30171019267E+02  0.33113922903E+02  0.00000000000E+00 0.  1.
</event>
<event>
 7    1  0.2148778E-015  0.9000743E+02  0.7816164E-02  0.1186340E+00
        -11   -1    0    0    0    0  0.00000000000E+00  0.00000000000E+00  0.45593999997E+02  0.45594000000E+02  0.51100000000E-03 0. -1.
         11   -1    0    0    0    0 -0.00000000000E+00 -0.00000000000E+00 -0.45593999997E+02  0.45594000000E+02  0.51100000000E-03 0.  1.
    9900012    2    1    2    0    0  0.12870114843E+00  0.77175748165E+00 -0.88406009985E+00  0.90007434095E+02  0.89999691424E+02 0.  0.
         12    1    1    2    0    0 -0.12870114843E+00 -0.77175748165E+00  0.88406009985E+00  0.11805659051E+01  0.00000000000E+00 0. -1.
         11    1    3    3    0    0 -0.17647401632E+02  0.26568775936E+02 -0.20230642675E+02  0.37770485070E+02  0.51100000000E-03 0. -1.
        -11    1    3    3    0    0 -0.84743498463E+01  0.31371995933E+01  0.64258039731E+01  0.11088173139E+02  0.51100000000E-03 0.  1.
        -12    1    3    3    0    0  0.26250452627E+02 -0.28934218048E+02  0.12920778602E+02  0.41148775885E+02  0.00000000000E+00 0.  1.
</event>
<event>
 7    1  0.2148778E-015  0.9000773E+02  0.7816164E-02  0.1186339E+00
        -11   -1    0    0    0    0  0.00000000000E+00  0.00000000000E+00  0.45593999997E+02  0.45594000000E+02  0.51100000000E-03 0.  1.
         11   -1    0    0    0    0 -0.00000000000E+00 -0.00000000000E+00 -0.45593999997E+02  0.45594000000E+02  0.51100000000E-03 0. -1.
    9900012    2    1    2    0    0 -0.10793604262E+01 -0.46599805241E+00 -0.10428571075E+00  0.90007725191E+02  0.89999986364E+02 0.  0.
         12    1    1    2    0    0  0.10793604262E+01  0.46599805241E+00  0.10428571075E+00  0.11802748087E+01  0.00000000000E+00 0. -1.
         11    1    3    3    0    0 -0.95677881280E+01 -0.32226311946E+01  0.27500972179E+01  0.10463792642E+02  0.51100000000E-03 0. -1.
        -11    1    3    3    0    0 -0.31720231465E+02 -0.10148130364E+02  0.11043042641E+02  0.35087126202E+02  0.51100000000E-03 0.  1.
         12    1    3    3    0    0  0.40208659167E+02  0.12904763506E+02 -0.13897425570E+02  0.44456806348E+02  0.00000000000E+00 0. -1.
</event>
<event>
 7    1  0.2148778E-015  0.9000770E+02  0.7816164E-02  0.1186339E+00
        -11   -1    0    0    0    0  0.00000000000E+00  0.00000000000E+00  0.45593999997E+02  0.45594000000E+02  0.51100000000E-03 0.  1.
         11   -1    0    0    0    0 -0.00000000000E+00 -0.00000000000E+00 -0.45593999997E+02  0.45594000000E+02  0.51100000000E-03 0. -1.
    9900012    2    1    2    0    0  0.48735485836E+00  0.72093259817E+00  0.79740181525E+00  0.90007699943E+02  0.89999960782E+02 0.  0.
         12    1    1    2    0    0 -0.48735485836E+00 -0.72093259817E+00 -0.79740181525E+00  0.11803000568E+01  0.00000000000E+00 0. -1.
         11    1    3    3    0    0  0.24953030641E+01 -0.19683858534E+02 -0.32600759949E+02  0.38163993156E+02  0.51100000000E-03 0. -1.
        -11    1    3    3    0    0 -0.14288000581E+01 -0.95532619658E+01  0.72962229074E+01  0.12105418323E+02  0.51100000000E-03 0.  1.
        -12    1    3    3    0    0 -0.57914814768E+00  0.29958053098E+02  0.26101938856E+02  0.39738288464E+02  0.00000000000E+00 0.  1.
</event>
<event>
 7    1  0.2148778E-015  0.9000776E+02  0.7816164E-02  0.1186339E+00
        -11   -1    0    0    0    0  0.00000000000E+00  0.00000000000E+00  0.45593999997E+02  0.45594000000E+02  0.51100000000E-03 0.  1.
         11   -1    0    0    0    0 -0.00000000000E+00 -0.00000000000E+00 -0.45593999997E+02  0.45594000000E+02  0.51100000000E-03 0. -1.
    9900012    2    1    2    0    0 -0.65514869756E+00 -0.78785539464E+00 -0.58569121395E+00  0.90007758441E+02  0.90000020053E+02 0.  0.
         12    1    1    2    0    0  0.65514869756E+00  0.78785539464E+00  0.58569121395E+00  0.11802415587E+01  0.00000000000E+00 0. -1.
         11    1    3    3    0    0  0.15137945482E+02  0.17210138421E+00 -0.26816602972E+02  0.30794759416E+02  0.51100000000E-03 0. -1.
        -11    1    3    3    0    0  0.57340082614E+01  0.20632015916E+02  0.48013806944E+01  0.21945664455E+02  0.51100000000E-03 0.  1.
        -12    1    3    3    0    0 -0.21527102441E+02 -0.21591972695E+02  0.21429531063E+02  0.37267334570E+02  0.00000000000E+00 0.  1.
</event>
<event>
 7    1  0.2148778E-015  0.9000766E+02  0.7816164E-02  0.1186339E+00
        -11   -1    0    0    0    0  0.00000000000E+00  0.00000000000E+00  0.45593999997E+02  0.45594000000E+02  0.51100000000E-03 0. -1.
         11   -1    0    0    0    0 -0.00000000000E+00 -0.00000000000E+00 -0.45593999997E+02  0.45594000000E+02  0.51100000000E-03 0.  1.
    9900012    2    1    2    0    0 -0.41908717450E+00  0.40826691051E+00 -0.10251320955E+01  0.90007656091E+02  0.89999916351E+02 0.  0.
         12    1    1    2    0    0  0.41908717450E+00 -0.40826691051E+00  0.10251320955E+01  0.11803439089E+01  0.00000000000E+00 0. -1.
         11    1    3    3    0    0  0.16724133810E+02  0.19324384840E+02  0.19260065415E+02  0.32001228433E+02  0.51100000000E-03 0. -1.
        -11    1    3    3    0    0  0.33998979288E+01  0.60311343791E+01  0.11019158041E+02  0.13013674809E+02  0.51100000000E-03 0.  1.
        -12    1    3    3    0    0 -0.20543118914E+02 -0.24947252309E+02 -0.31304355552E+02  0.44992752850E+02  0.00000000000E+00 0.  1.
</event>
<event>
 7    1  0.2148778E-015  0.9000783E+02  0.7816164E-02  0.1186339E+00
        -11   -1    0    0    0    0  0.00000000000E+00  0.00000000000E+00  0.45593999997E+02  0.45594000000E+02  0.51100000000E-03 0.  1.
         11   -1    0    0    0    0 -0.00000000000E+00 -0.00000000000E+00 -0.45593999997E+02  0.45594000000E+02  0.51100000000E-03 0. -1.
    9900012    2    1    2    0    0  0.73415893314E+00 -0.85391032265E+00  0.35305486672E+00  0.90007830556E+02  0.90000093119E+02 0.  0.
         12    1    1    2    0    0 -0.73415893314E+00  0.85391032265E+00 -0.35305486672E+00  0.11801694442E+01  0.00000000000E+00 0. -1.
         11    1    3    3    0    0  0.20443336760E+02  0.28314654024E+02  0.21566442712E+02  0.41045841469E+02  0.51100000000E-03 0. -1.
        -11    1    3    3    0    0  0.59702020658E+01 -0.89760237808E+01 -0.17090839470E+01  0.10914819459E+02  0.51100000000E-03 0.  1.
        -12    1    3    3    0    0 -0.25679379893E+02 -0.20192540566E+02 -0.19504303898E+02  0.38047169628E+02  0.00000000000E+00 0.  1.
</event>
<event>
 7    1  0.2148778E-015  0.9000780E+02  0.7816164E-02  0.1186339E+00
        -11   -1    0    0    0    0  0.00000000000E+00  0.00000000000E+00  0.45593999997E+02  0.45594000000E+02  0.51100000000E-03 0. -1.
         11   -1    0    0    0    0 -0.00000000000E+00 -0.00000000000E+00 -0.45593999997E+02  0.45594000000E+02  0.51100000000E-03 0.  1.
    9900012    2    1    2    0    0  0.10425710505E+01  0.45419960845E+00 -0.31562199147E+00  0.90007801321E+02  0.90000063499E+02 0.  0.
         12    1    1    2    0    0 -0.10425710505E+01 -0.45419960845E+00  0.31562199147E+00  0.11801986787E+01  0.00000000000E+00 0. -1.
         11    1    3    3    0    0  0.39543754910E+02  0.43339724592E+01  0.15749049539E+02  0.42784628447E+02  0.51100000000E-03 0. -1.
        -11    1    3    3    0    0 -0.59868148206E+01 -0.14221643170E+01  0.53987120699E+01  0.81859999582E+01  0.51100000000E-03 0.  1.
        -12    1    3    3    0    0 -0.32514369039E+02 -0.24576085338E+01 -0.21463383601E+02  0.39037172916E+02  0.00000000000E+00 0.  1.
</event>
<event>
 7    1  0.2148778E-015  0.9000768E+02  0.7816164E-02  0.1186339E+00
        -11   -1    0    0    0    0  0.00000000000E+00  0.00000000000E+00  0.45593999997E+02  0.45594000000E+02  0.51100000000E-03 0.  1.
         11   -1    0    0    0    0 -0.00000000000E+00 -0.00000000000E+00 -0.45593999997E+02  0.45594000000E+02  0.51100000000E-03 0. -1.
    9900012    2    1    2    0    0  0.85253680163E+00  0.78355453146E+00 -0.22887957151E+00  0.90007676926E+02  0.89999937461E+02 0.  0.
         12    1    1    2    0    0 -0.85253680163E+00 -0.78355453146E+00  0.22887957151E+00  0.11803230745E+01  0.00000000000E+00 0. -1.
         11    1    3    3    0    0  0.89905599041E+01 -0.25457976531E+01  0.40955255687E+01  0.10202185208E+02  0.51100000000E-03 0. -1.
        -11    1    3    3    0    0  0.67289992232E+01 -0.34202692330E+02  0.11110359474E+02  0.36586113228E+02  0.51100000000E-03 0.  1.
         12    1    3    3    0    0 -0.14867022326E+02  0.37532044515E+02 -0.15434764615E+02  0.43219378490E+02  0.00000000000E+00 0. -1.
</event>
<event>
 7    1  0.2148778E-015  0.9000768E+02  0.7816164E-02  0.1186339E+00
        -11   -1    0    0    0    0  0.00000000000E+00  0.00000000000E+00  0.45593999997E+02  0.45594000000E+02  0.51100000000E-03 0. -1.
         11   -1    0    0    0    0 -0.00000000000E+00 -0.00000000000E+00 -0.45593999997E+02  0.45594000000E+02  0.51100000000E-03 0.  1.
    9900012    2    1    2    0    0 -0.11606809811E-01 -0.79303983965E+00 -0.87412621653E+00  0.90007684979E+02  0.89999945621E+02 0.  0.
         12    1    1    2    0    0  0.11606809811E-01  0.79303983965E+00  0.87412621653E+00  0.11803150205E+01  0.00000000000E+00 0. -1.
         11    1    3    3    0    0  0.62985371711E+01 -0.82459816561E+01 -0.26214879033E+01  0.10702335402E+02  0.51100000000E-03 0. -1.
        -11    1    3    3    0    0  0.25798911731E+02 -0.13868095582E+02  0.21175117605E+02  0.36142682903E+02  0.51100000000E-03 0.  1.
         12    1    3    3    0    0 -0.32109055712E+02  0.21321037399E+02 -0.19427755918E+02  0.43162666675E+02  0.00000000000E+00 0. -1.
</event>
<event>
 7    1  0.2148778E-015  0.9000779E+02  0.7816164E-02  0.1186339E+00
        -11   -1    0    0    0    0  0.00000000000E+00  0.00000000000E+00  0.45593999997E+02  0.45594000000E+02  0.51100000000E-03 0. -1.
         11   -1    0    0    0    0 -0.00000000000E+00 -0.00000000000E+00 -0.45593999997E+02  0.45594000000E+02  0.51100000000E-03 0.  1.
    9900012    2    1    2    0    0  0.92044407718E+00 -0.70148544084E+00 -0.23150551877E+00  0.90007790727E+02  0.90000052765E+02 0.  0.
         12    1    1    2    0    0 -0.92044407718E+00  0.70148544084E+00  0.23150551877E+00  0.11802092730E+01  0.00000000000E+00 0. -1.
         11    1    3    3    0    0 -0.64607264617E+01  0.47096461802E+01  0.62453802429E+01  0.10145271223E+02  0.51100000000E-03 0. -1.
        -11    1    3    3    0    0 -0.15476290925E+02  0.26009499974E+02 -0.22622826693E+02  0.37786266784E+02  0.51100000000E-03 0.  1.
         12    1    3    3    0    0  0.22857461463E+02 -0.31420631595E+02  0.16145940931E+02  0.42076252719E+02  0.00000000000E+00 0. -1.
</event>
<event>
 7    1  0.2148778E-015  0.9000770E+02  0.7816164E-02  0.1186339E+00
        -11   -1    0    0    0    0  0.00000000000E+00  0.00000000000E+00  0.45593999997E+02  0.45594000000E+02  0.51100000000E-03 0.  1.
         11   -1    0    0    0    0 -0.00000000000E+00 -0.00000000000E+00 -0.45593999997E+02  0.45594000000E+02  0.51100000000E-03 0. -1.
    9900012    2    1    2    0    0  0.10497174327E+01  0.50364836222E+00  0.19372498492E+00  0.90007704388E+02  0.89999965286E+02 0.  0.
         12    1    1    2    0    0 -0.10497174327E+01 -0.50364836222E+00 -0.19372498492E+00  0.11802956118E+01  0.00000000000E+00 0. -1.
         11    1    3    3    0    0 -0.22838495248E+01  0.59173831758E+01 -0.57749499449E+01  0.85779624287E+01  0.51100000000E-03 0. -1.
        -11    1    3    3    0    0 -0.23106269433E+02  0.29333923888E+02 -0.13838470098E+00  0.37341637998E+02  0.51100000000E-03 0.  1.
         12    1    3    3    0    0  0.26439836390E+02 -0.34747658702E+02  0.61070596308E+01  0.44088103962E+02  0.00000000000E+00 0. -1.
</event>
<event>
 7    1  0.2148778E-015  0.9000774E+02  0.7816164E-02  0.1186339E+00
        -11   -1    0    0    0    0  0.00000000000E+00  0.00000000000E+00  0.45593999997E+02  0.45594000000E+02  0.51100000000E-03 0. -1.
         11   -1    0    0    0    0 -0.00000000000E+00 -0.00000000000E+00 -0.45593999997E+02  0.45594000000E+02  0.51100000000E-03 0.  1.
    9900012    2    1    2    0    0 -0.10531837902E+01 -0.52637881982E+00 -0.82180473947E-01  0.90007735458E+02  0.89999996766E+02 0.  0.
         12    1    1    2    0    0  0.10531837902E+01  0.52637881982E+00  0.82180473947E-01  0.11802645416E+01  0.00000000000E+00 0. -1.
         11    1    3    3    0    0 -0.50169564838E+00 -0.10432717236E+02  0.58527824378E+01  0.11972817127E+02  0.51100000000E-03 0. -1.
        -11    1    3    3    0    0 -0.23969929171E+02 -0.20006357132E+02 -0.20498464474E+02  0.37349683750E+02  0.51100000000E-03 0.  1.
         12    1    3    3    0    0  0.23418441029E+02  0.29912695548E+02  0.14563501562E+02  0.40685234581E+02  0.00000000000E+00 0. -1.
</event>
<event>
 7    1  0.2148778E-015  0.9000772E+02  0.7816164E-02  0.1186339E+00
        -11   -1    0    0    0    0  0.00000000000E+00  0.00000000000E+00  0.45593999997E+02  0.45594000000E+02  0.51100000000E-03 0.  1.
         11   -1    0    0    0    0 -0.00000000000E+00 -0.00000000000E+00 -0.45593999997E+02  0.45594000000E+02  0.51100000000E-03 0. -1.
    9900012    2    1    2    0    0 -0.48884158870E+00 -0.96346311872E+00  0.47522526259E+00  0.90007717690E+02  0.89999978764E+02 0.  0.
         12    1    1    2    0    0  0.48884158870E+00  0.96346311872E+00 -0.47522526259E+00  0.11802823095E+01  0.00000000000E+00 0. -1.
         11    1    3    3    0    0 -0.13735933768E+02  0.18587873298E+02 -0.10824934177E+02  0.25521835954E+02  0.51100000000E-03 0. -1.
        -11    1    3    3    0    0 -0.14316284706E+02  0.13012313759E+02 -0.28118217973E+01  0.19549492557E+02  0.51100000000E-03 0.  1.
        -12    1    3    3    0    0  0.27563376886E+02 -0.32563650176E+02  0.14111981237E+02  0.44936389180E+02  0.00000000000E+00 0.  1.
</event>
<event>
 7    1  0.2148778E-015  0.9000758E+02  0.7816164E-02  0.1186339E+00
        -11   -1    0    0    0    0  0.00000000000E+00  0.00000000000E+00  0.45593999997E+02  0.45594000000E+02  0.51100000000E-03 0. -1.
         11   -1    0    0    0    0 -0.00000000000E+00 -0.00000000000E+00 -0.45593999997E+02  0.45594000000E+02  0.51100000000E-03 0.  1.
    9900012    2    1    2    0    0  0.87426905777E+00  0.77576862791E+00  0.16504183826E+00  0.90007575433E+02  0.89999834629E+02 0.  0.
         12    1    1    2    0    0 -0.87426905777E+00 -0.77576862791E+00 -0.16504183826E+00  0.11804245668E+01  0.00000000000E+00 0. -1.
         11    1    3    3    0    0  0.91030587172E+01 -0.61188129825E+01  0.75170292626E+01  0.13297040254E+02  0.51100000000E-03 0. -1.
        -11    1    3    3    0    0  0.22370993129E+02  0.19869514341E+02 -0.25079433752E+02  0.39041477063E+02  0.51100000000E-03 0.  1.
         12    1    3    3    0    0 -0.30599782788E+02 -0.12974932730E+02  0.17727446328E+02  0.37669058116E+02  0.00000000000E+00 0. -1.
</event>
<event>
 7    1  0.2148778E-015  0.9000773E+02  0.7816164E-02  0.1186339E+00
        -11   -1    0    0    0    0  0.00000000000E+00  0.00000000000E+00  0.45593999997E+02  0.45594000000E+02  0.51100000000E-03 0. -1.
         11   -1    0    0    0    0 -0.00000000000E+00 -0.00000000000E+00 -0.45593999997E+02  0.45594000000E+02  0.51100000000E-03 0.  1.
    9900012    2    1    2    0    0 -0.29765035724E+00 -0.58397920780E+00 -0.98153584671E+00  0.90007728816E+02  0.89999990036E+02 0.  0.
         12    1    1    2    0    0  0.29765035724E+00  0.58397920780E+00  0.98153584671E+00  0.11802711844E+01  0.00000000000E+00 0. -1.
         11    1    3    3    0    0  0.24278786637E+02 -0.47333936807E+01  0.19282069711E+02  0.31363397599E+02  0.51100000000E-03 0. -1.
        -11    1    3    3    0    0  0.89803818969E+01 -0.21172854790E+01  0.95806360511E+01  0.13301080566E+02  0.51100000000E-03 0.  1.
        -12    1    3    3    0    0 -0.33556818891E+02  0.62666999519E+01 -0.29844241609E+02  0.45343250651E+02  0.00000000000E+00 0.  1.
</event>
<event>
 7    1  0.2148778E-015  0.9000777E+02  0.7816164E-02  0.1186339E+00
        -11   -1    0    0    0    0  0.00000000000E+00  0.00000000000E+00  0.45593999997E+02  0.45594000000E+02  0.51100000000E-03 0. -1.
         11   -1    0    0    0    0 -0.00000000000E+00 -0.00000000000E+00 -0.45593999997E+02  0.45594000000E+02  0.51100000000E-03 0.  1.
    9900012    2    1    2    0    0 -0.10298213870E+01 -0.12931973071E+00 -0.56186961401E+00  0.90007765640E+02  0.90000027346E+02 0.  0.
         12    1    1    2    0    0  0.10298213870E+01  0.12931973071E+00  0.56186961401E+00  0.11802343602E+01  0.00000000000E+00 0. -1.
         11    1    3    3    0    0  0.14746806458E+02 -0.14202525072E+02  0.13044187061E+02  0.24276137162E+02  0.51100000000E-03 0. -1.
        -11    1    3    3    0    0 -0.46350172832E+01 -0.15687074410E+02  0.15576370118E+02  0.22587407888E+02  0.51100000000E-03 0.  1.
        -12    1    3    3    0    0 -0.11141610562E+02  0.29760279751E+02 -0.29182426794E+02  0.43144220591E+02  0.00000000000E+00 0.  1.
</event>
<event>
 7    1  0.2148778E-015  0.9000771E+02  0.7816164E-02  0.1186339E+00
        -11   -1    0    0    0    0  0.00000000000E+00  0.00000000000E+00  0.45593999997E+02  0.45594000000E+02  0.51100000000E-03 0.  1.
         11   -1    0    0    0    0 -0.00000000000E+00 -0.00000000000E+00 -0.45593999997E+02  0.45594000000E+02  0.51100000000E-03 0. -1.
    9900012    2    1    2    0    0 -0.70193097102E+00  0.23399376171E+00  0.91957359622E+00  0.90007713693E+02  0.89999974713E+02 0.  0.
         12    1    1    2    0    0  0.70193097102E+00 -0.23399376171E+00 -0.91957359622E+00  0.11802863074E+01  0.00000000000E+00 0. -1.
         11    1    3    3    0    0 -0.14175245731E+02  0.32206768466E+02 -0.14711375004E+02  0.38139717898E+02  0.51100000000E-03 0. -1.
        -11    1    3    3    0    0 -0.10285663846E+02 -0.12382341150E+02 -0.22583724136E+01  0.16254768510E+02  0.51100000000E-03 0.  1.
        -12    1    3    3    0    0  0.23758978606E+02 -0.19590433554E+02  0.17889321014E+02  0.35613227284E+02  0.00000000000E+00 0.  1.
</event>
<event>
 7    1  0.2148778E-015  0.9000777E+02  0.7816164E-02  0.1186339E+00
        -11   -1    0    0    0    0  0.00000000000E+00  0.00000000000E+00  0.45593999997E+02  0.45594000000E+02  0.51100000000E-03 0.  1.
         11   -1    0    0    0    0 -0.00000000000E+00 -0.00000000000E+00 -0.45593999997E+02  0.45594000000E+02  0.51100000000E-03 0. -1.
    9900012    2    1    2    0    0  0.87374218217E+00 -0.78515786069E+00 -0.11423439467E+00  0.90007767919E+02  0.90000029656E+02 0.  0.
         12    1    1    2    0    0 -0.87374218217E+00  0.78515786069E+00  0.11423439467E+00  0.11802320806E+01  0.00000000000E+00 0. -1.
         11    1    3    3    0    0  0.68317688166E+01 -0.29997182537E+01 -0.90573234478E+01  0.11734840564E+02  0.51100000000E-03 0. -1.
        -11    1    3    3    0    0  0.27495990565E+02  0.18047767998E+02 -0.12862259588E+02  0.35315565248E+02  0.51100000000E-03 0.  1.
         12    1    3    3    0    0 -0.33454017199E+02 -0.15833207605E+02  0.21805348641E+02  0.42957362107E+02  0.00000000000E+00 0. -1.
</event>
<event>
 7    1  0.2148778E-015  0.9000746E+02  0.7816164E-02  0.1186340E+00
        -11   -1    0    0    0    0  0.00000000000E+00  0.00000000000E+00  0.45593999997E+02  0.45594000000E+02  0.51100000000E-03 0. -1.
         11   -1    0    0    0    0 -0.00000000000E+00 -0.00000000000E+00 -0.45593999997E+02  0.45594000000E+02  0.51100000000E-03 0.  1.
    9900012    2    1    2    0    0  0.58785030374E+00 -0.99615071618E+00 -0.23620861225E+00  0.90007458286E+02  0.89999715935E+02 0.  0.
         12    1    1    2    0    0 -0.58785030374E+00  0.99615071618E+00  0.23620861225E+00  0.11805417136E+01  0.00000000000E+00 0. -1.
         11    1    3    3    0    0 -0.85969736447E+01 -0.26103109811E+02  0.23943143284E+02  0.36449340299E+02  0.51100000000E-03 0. -1.
        -11    1    3    3    0    0  0.52925718863E+00 -0.10600029404E+02 -0.25212247820E+01  0.10908588873E+02  0.51100000000E-03 0.  1.
        -12    1    3    3    0    0  0.86555667598E+01  0.35706988499E+02 -0.21658127114E+02  0.42649529114E+02  0.00000000000E+00 0.  1.
</event>
<event>
 7    1  0.2148778E-015  0.9000774E+02  0.7816164E-02  0.1186339E+00
        -11   -1    0    0    0    0  0.00000000000E+00  0.00000000000E+00  0.45593999997E+02  0.45594000000E+02  0.51100000000E-03 0. -1.
         11   -1    0    0    0    0 -0.00000000000E+00 -0.00000000000E+00 -0.45593999997E+02  0.45594000000E+02  0.51100000000E-03 0.  1.
    9900012    2    1    2    0    0 -0.77929359909E-01  0.92487432061E-01 -0.11740511418E+01  0.90007736049E+02  0.89999997365E+02 0.  0.
         12    1    1    2    0    0  0.77929359909E-01 -0.92487432061E-01  0.11740511418E+01  0.11802639509E+01  0.00000000000E+00 0. -1.
         11    1    3    3    0    0 -0.55596542808E+00  0.25584536456E+02  0.25325134139E+02  0.36003333494E+02  0.51100000000E-03 0. -1.
        -11    1    3    3    0    0  0.25762516257E+01  0.82271809207E+01 -0.16754895942E+02  0.18842773592E+02  0.51100000000E-03 0.  1.
        -12    1    3    3    0    0 -0.20982155575E+01 -0.33719229945E+02 -0.97442893393E+01  0.35161628963E+02  0.00000000000E+00 0.  1.
</event>
<event>
 7    1  0.2148778E-015  0.9000774E+02  0.7816164E-02  0.1186339E+00
        -11   -1    0    0    0    0  0.00000000000E+00  0.00000000000E+00  0.45593999997E+02  0.45594000000E+02  0.51100000000E-03 0. -1.
         11   -1    0    0    0    0 -0.00000000000E+00 -0.00000000000E+00 -0.45593999997E+02  0.45594000000E+02  0.51100000000E-03 0.  1.
    9900012    2    1    2    0    0 -0.79092755700E-01  0.10848630540E+01 -0.45806946886E+00  0.90007741067E+02  0.90000002449E+02 0.  0.
         12    1    1    2    0    0  0.79092755700E-01 -0.10848630540E+01  0.45806946886E+00  0.11802589327E+01  0.00000000000E+00 0. -1.
         11    1    3    3    0    0  0.28783890464E+01  0.58567727136E+01 -0.40591682114E+01  0.76852948512E+01  0.51100000000E-03 0. -1.
        -11    1    3    3    0    0 -0.15934500725E+02 -0.40482128592E+02 -0.35889564369E+01  0.43653083022E+02  0.51100000000E-03 0.  1.
         12    1    3    3    0    0  0.12977018923E+02  0.35710218933E+02  0.71900551795E+01  0.38669363194E+02  0.00000000000E+00 0. -1.
</event>
<event>
 7    1  0.2148778E-015  0.9000740E+02  0.7816164E-02  0.1186340E+00
        -11   -1    0    0    0    0  0.00000000000E+00  0.00000000000E+00  0.45593999997E+02  0.45594000000E+02  0.51100000000E-03 0.  1.
         11   -1    0    0    0    0 -0.00000000000E+00 -0.00000000000E+00 -0.45593999997E+02  0.45594000000E+02  0.51100000000E-03 0. -1.
    9900012    2    1    2    0    0  0.12940413578E-01 -0.44257413147E+00  0.10944261516E+01  0.90007403576E+02  0.89999660502E+02 0.  0.
         12    1    1    2    0    0 -0.12940413578E-01  0.44257413147E+00 -0.10944261516E+01  0.11805964245E+01  0.00000000000E+00 0. -1.
         11    1    3    3    0    0  0.31077863476E+01 -0.63696615158E+01 -0.27658697204E+01  0.76079536920E+01  0.51100000000E-03 0. -1.
        -11    1    3    3    0    0 -0.22690045669E+02  0.31857287329E+02 -0.18179107594E+02  0.43130092530E+02  0.51100000000E-03 0.  1.
         12    1    3    3    0    0  0.19595199735E+02 -0.25930199945E+02  0.22039403466E+02  0.39269357354E+02  0.00000000000E+00 0. -1.
</event>
<event>
 7    1  0.2148778E-015  0.9000774E+02  0.7816164E-02  0.1186339E+00
        -11   -1    0    0    0    0  0.00000000000E+00  0.00000000000E+00  0.45593999997E+02  0.45594000000E+02  0.51100000000E-03 0.  1.
         11   -1    0    0    0    0 -0.00000000000E+00 -0.00000000000E+00 -0.45593999997E+02  0.45594000000E+02  0.51100000000E-03 0. -1.
    9900012    2    1    2    0    0  0.49109584546E+00 -0.10581595837E+01  0.17926896877E+00  0.90007739776E+02  0.90000001141E+02 0.  0.
         12    1    1    2    0    0 -0.49109584546E+00  0.10581595837E+01 -0.17926896877E+00  0.11802602243E+01  0.00000000000E+00 0. -1.
         11    1    3    3    0    0  0.69886216750E+01  0.18149833580E+01  0.53523782639E+01  0.89879336250E+01  0.51100000000E-03 0. -1.
        -11    1    3    3    0    0 -0.36623437214E+02  0.11109675330E+02  0.16162758417E+02  0.41544383486E+02  0.51100000000E-03 0.  1.
         12    1    3    3    0    0  0.30125911384E+02 -0.13982818272E+02 -0.21335867712E+02  0.39475422665E+02  0.00000000000E+00 0. -1.
</event>
<event>
 7    1  0.2148778E-015  0.9000771E+02  0.7816164E-02  0.1186339E+00
        -11   -1    0    0    0    0  0.00000000000E+00  0.00000000000E+00  0.45593999997E+02  0.45594000000E+02  0.51100000000E-03 0. -1.
         11   -1    0    0    0    0 -0.00000000000E+00 -0.00000000000E+00 -0.45593999997E+02  0.45594000000E+02  0.51100000000E-03 0.  1.
    9900012    2    1    2    0    0  0.56436871065E+00 -0.25933209219E+00 -0.10036515640E+01  0.90007711206E+02  0.89999972194E+02 0.  0.
         12    1    1    2    0    0 -0.56436871065E+00  0.25933209219E+00  0.10036515640E+01  0.11802887942E+01  0.00000000000E+00 0. -1.
         11    1    3    3    0    0  0.12528314573E+02  0.52195299170E-01  0.16708278217E+01  0.12639345563E+02  0.51100000000E-03 0. -1.
        -11    1    3    3    0    0  0.26173479508E+02  0.20830199779E+02 -0.43403682868E+01  0.33731099144E+02  0.51100000000E-03 0.  1.
         12    1    3    3    0    0 -0.38137425370E+02 -0.21141727170E+02  0.16658889011E+01  0.43637266498E+02  0.00000000000E+00 0. -1.
</event>
<event>
 7    1  0.2148778E-015  0.9000762E+02  0.7816164E-02  0.1186339E+00
        -11   -1    0    0    0    0  0.00000000000E+00  0.00000000000E+00  0.45593999997E+02  0.45594000000E+02  0.51100000000E-03 0. -1.
         11   -1    0    0    0    0 -0.00000000000E+00 -0.00000000000E+00 -0.45593999997E+02  0.45594000000E+02  0.51100000000E-03 0.  1.
    9900012    2    1    2    0    0  0.23941335475E+00 -0.33056868800E+00 -0.11075703056E+01  0.90007615997E+02  0.89999875728E+02 0.  0.
         12    1    1    2    0    0 -0.23941335475E+00  0.33056868800E+00  0.11075703056E+01  0.11803840027E+01  0.00000000000E+00 0. -1.
         11    1    3    3    0    0 -0.24815905885E+02  0.25309518920E+02 -0.32707659538E+01  0.35596331876E+02  0.51100000000E-03 0. -1.
        -11    1    3    3    0    0 -0.71885699774E+01 -0.59762988706E+01  0.12165426200E+02  0.15342401422E+02  0.51100000000E-03 0.  1.
        -12    1    3    3    0    0  0.32243889217E+02 -0.19663788737E+02 -0.10002230552E+02  0.39068882699E+02  0.00000000000E+00 0.  1.
</event>
<event>
 7    1  0.2148778E-015  0.9000783E+02  0.7816164E-02  0.1186339E+00
        -11   -1    0    0    0    0  0.00000000000E+00  0.00000000000E+00  0.45593999997E+02  0.45594000000E+02  0.51100000000E-03 0. -1.
         11   -1    0    0    0    0 -0.00000000000E+00 -0.00000000000E+00 -0.45593999997E+02  0.45594000000E+02  0.51100000000E-03 0.  1.
    9900012    2    1    2    0    0 -0.82253995782E+00  0.11816742587E+00 -0.83801653775E+00  0.90007827453E+02  0.90000089976E+02 0.  0.
         12    1    1    2    0    0  0.82253995782E+00 -0.11816742587E+00  0.83801653775E+00  0.11801725468E+01  0.00000000000E+00 0. -1.
         11    1    3    3    0    0  0.20941708481E+02 -0.94596601137E+01  0.16703942802E+02  0.28408837163E+02  0.51100000000E-03 0. -1.
        -11    1    3    3    0    0  0.99879315215E+01  0.60556393052E+00  0.13157820441E+02  0.16530387859E+02  0.51100000000E-03 0.  1.
        -12    1    3    3    0    0 -0.31752179960E+02  0.89722636090E+01 -0.30699779781E+02  0.45068602431E+02  0.00000000000E+00 0.  1.
</event>
<event>
 7    1  0.2148778E-015  0.9000777E+02  0.7816164E-02  0.1186339E+00
        -11   -1    0    0    0    0  0.00000000000E+00  0.00000000000E+00  0.45593999997E+02  0.45594000000E+02  0.51100000000E-03 0.  1.
         11   -1    0    0    0    0 -0.00000000000E+00 -0.00000000000E+00 -0.45593999997E+02  0.45594000000E+02  0.51100000000E-03 0. -1.
    9900012    2    1    2    0    0 -0.89034979124E+00  0.36087351801E-01  0.77389120267E+00  0.90007774326E+02  0.90000036147E+02 0.  0.
         12    1    1    2    0    0  0.89034979124E+00 -0.36087351801E-01 -0.77389120267E+00  0.11802256739E+01  0.00000000000E+00 0. -1.
         11    1    3    3    0    0  0.12900102908E+02  0.33089814101E+02  0.92011788946E+01  0.36688010925E+02  0.51100000000E-03 0. -1.
        -11    1    3    3    0    0  0.50408405222E+01  0.46699017019E+01 -0.87879757472E+01  0.11155562427E+02  0.51100000000E-03 0.  1.
        -12    1    3    3    0    0 -0.18831293222E+02 -0.37723628451E+02  0.36068805536E+00  0.42164200974E+02  0.00000000000E+00 0.  1.
</event>
<event>
 7    1  0.2148778E-015  0.9000780E+02  0.7816164E-02  0.1186339E+00
        -11   -1    0    0    0    0  0.00000000000E+00  0.00000000000E+00  0.45593999997E+02  0.45594000000E+02  0.51100000000E-03 0. -1.
         11   -1    0    0    0    0 -0.00000000000E+00 -0.00000000000E+00 -0.45593999997E+02  0.45594000000E+02  0.51100000000E-03 0.  1.
    9900012    2    1    2    0    0 -0.84654339052E+00 -0.26936308934E+00 -0.77697261796E+00  0.90007797206E+02  0.90000059329E+02 0.  0.
         12    1    1    2    0    0  0.84654339052E+00  0.26936308934E+00  0.77697261796E+00  0.11802027940E+01  0.00000000000E+00 0. -1.
         11    1    3    3    0    0  0.32507244450E+02 -0.22449343597E+01  0.16178269973E+02  0.36379899554E+02  0.51100000000E-03 0. -1.
        -11    1    3    3    0    0  0.73722823327E+01  0.65290431280E+01 -0.23608255592E+01  0.10126818283E+02  0.51100000000E-03 0.  1.
        -12    1    3    3    0    0 -0.40726070173E+02 -0.45534718577E+01 -0.14594417032E+02  0.43501079368E+02  0.00000000000E+00 0.  1.
</event>
<event>
 7    1  0.2148778E-015  0.9000774E+02  0.7816164E-02  0.1186339E+00
        -11   -1    0    0    0    0  0.00000000000E+00  0.00000000000E+00  0.45593999997E+02  0.45594000000E+02  0.51100000000E-03 0. -1.
         11   -1    0    0    0    0 -0.00000000000E+00 -0.00000000000E+00 -0.45593999997E+02  0.45594000000E+02  0.51100000000E-03 0.  1.
    9900012    2    1    2    0    0 -0.26912570900E+00 -0.39439363545E+00 -0.10793746145E+01  0.90007735392E+02  0.89999996699E+02 0.  0.
         12    1    1    2    0    0  0.26912570900E+00  0.39439363545E+00  0.10793746145E+01  0.11802646082E+01  0.00000000000E+00 0. -1.
         11    1    3    3    0    0 -0.25947905241E+01 -0.43916115225E+02 -0.15897305316E+01  0.44021419306E+02  0.51100000000E-03 0. -1.
        -11    1    3    3    0    0 -0.49658318070E+01  0.68808672722E+01 -0.12926782690E+01  0.85835212658E+01  0.51100000000E-03 0.  1.
        -12    1    3    3    0    0  0.72914966221E+01  0.36640854317E+02  0.18030341861E+01  0.37402794820E+02  0.00000000000E+00 0.  1.
</event>
<event>
 7    1  0.2148778E-015  0.9000748E+02  0.7816164E-02  0.1186340E+00
        -11   -1    0    0    0    0  0.00000000000E+00  0.00000000000E+00  0.45593999997E+02  0.45594000000E+02  0.51100000000E-03 0. -1.
         11   -1    0    0    0    0 -0.00000000000E+00 -0.00000000000E+00 -0.45593999997E+02  0.45594000000E+02  0.51100000000E-03 0.  1.
    9900012    2    1    2    0    0  0.11655716911E+01  0.18159464847E+00 -0.45726129978E-01  0.90007481105E+02  0.89999739055E+02 0.  0.
         12    1    1    2    0    0 -0.11655716911E+01 -0.18159464847E+00  0.45726129978E-01  0.11805188954E+01  0.00000000000E+00 0. -1.
         11    1    3    3    0    0 -0.48251458408E+01 -0.76537453574E+01  0.62315068880E+00  0.90691878039E+01  0.51100000000E-03 0. -1.
        -11    1    3    3    0    0 -0.12060838978E+02 -0.21238487687E+02 -0.27989965742E+02  0.37148019847E+02  0.51100000000E-03 0.  1.
         12    1    3    3    0    0  0.18051556510E+02  0.29073827693E+02  0.27321088923E+02  0.43790273453E+02  0.00000000000E+00 0. -1.
</event>
<event>
 7    1  0.2148778E-015  0.9000778E+02  0.7816164E-02  0.1186339E+00
        -11   -1    0    0    0    0  0.00000000000E+00  0.00000000000E+00  0.45593999997E+02  0.45594000000E+02  0.51100000000E-03 0.  1.
         11   -1    0    0    0    0 -0.00000000000E+00 -0.00000000000E+00 -0.45593999997E+02  0.45594000000E+02  0.51100000000E-03 0. -1.
    9900012    2    1    2    0    0 -0.10398470851E+00  0.10468789819E+01  0.53492113694E+00  0.90007784323E+02  0.90000046276E+02 0.  0.
         12    1    1    2    0    0  0.10398470851E+00 -0.10468789819E+01 -0.53492113694E+00  0.11802156774E+01  0.00000000000E+00 0. -1.
         11    1    3    3    0    0 -0.27771594728E+02 -0.25471617967E+02 -0.79137938649E+01  0.38505751897E+02  0.51100000000E-03 0. -1.
        -11    1    3    3    0    0 -0.77229424146E+01  0.30950489525E+01  0.59297675290E+00  0.83411503552E+01  0.51100000000E-03 0.  1.
        -12    1    3    3    0    0  0.35390552434E+02  0.23423447997E+02  0.78557382490E+01  0.43160882070E+02  0.00000000000E+00 0.  1.
</event>
<event>
 7    1  0.2148778E-015  0.9000776E+02  0.7816164E-02  0.1186339E+00
        -11   -1    0    0    0    0  0.00000000000E+00  0.00000000000E+00  0.45593999997E+02  0.45594000000E+02  0.51100000000E-03 0.  1.
         11   -1    0    0    0    0 -0.00000000000E+00 -0.00000000000E+00 -0.45593999997E+02  0.45594000000E+02  0.51100000000E-03 0. -1.
    9900012    2    1    2    0    0 -0.72219205671E+00  0.29727443763E+00  0.88488812685E+00  0.90007762543E+02  0.90000024208E+02 0.  0.
         12    1    1    2    0    0  0.72219205671E+00 -0.29727443763E+00 -0.88488812685E+00  0.11802374571E+01  0.00000000000E+00 0. -1.
         11    1    3    3    0    0  0.10204982335E+01  0.53654095603E+01 -0.98039048617E+01  0.11222548160E+02  0.51100000000E-03 0. -1.
        -11    1    3    3    0    0  0.35992431407E+02  0.11669118659E+01  0.17333026840E+02  0.39965617993E+02  0.51100000000E-03 0.  1.
         12    1    3    3    0    0 -0.37735121697E+02 -0.62350469886E+01 -0.66442338515E+01  0.38819596390E+02  0.00000000000E+00 0. -1.
</event>
<event>
 7    1  0.2148778E-015  0.9000774E+02  0.7816164E-02  0.1186339E+00
        -11   -1    0    0    0    0  0.00000000000E+00  0.00000000000E+00  0.45593999997E+02  0.45594000000E+02  0.51100000000E-03 0. -1.
         11   -1    0    0    0    0 -0.00000000000E+00 -0.00000000000E+00 -0.45593999997E+02  0.45594000000E+02  0.51100000000E-03 0.  1.
    9900012    2    1    2    0    0 -0.98362265224E-01 -0.11740059830E+01 -0.70986894817E-01  0.90007743959E+02  0.90000005379E+02 0.  0.
         12    1    1    2    0    0  0.98362265224E-01  0.11740059830E+01  0.70986894817E-01  0.11802560411E+01  0.00000000000E+00 0. -1.
         11    1    3    3    0    0 -0.73118997219E+01 -0.14660842378E+02  0.27999002443E+02  0.32439918540E+02  0.51100000000E-03 0. -1.
        -11    1    3    3    0    0  0.77899944753E+01 -0.17515735243E+02 -0.12339750959E+02  0.22798123805E+02  0.51100000000E-03 0.  1.
        -12    1    3    3    0    0 -0.57645701866E+00  0.31002571638E+02 -0.15730238379E+02  0.34769701614E+02  0.00000000000E+00 0.  1.
</event>
<event>
 7    1  0.2148778E-015  0.9000769E+02  0.7816164E-02  0.1186339E+00
        -11   -1    0    0    0    0  0.00000000000E+00  0.00000000000E+00  0.45593999997E+02  0.45594000000E+02  0.51100000000E-03 0.  1.
         11   -1    0    0    0    0 -0.00000000000E+00 -0.00000000000E+00 -0.45593999997E+02  0.45594000000E+02  0.51100000000E-03 0. -1.
    9900012    2    1    2    0    0  0.11094797881E+00 -0.11350950047E+01 -0.30393422392E+00  0.90007692355E+02  0.89999953094E+02 0.  0.
         12    1    1    2    0    0 -0.11094797881E+00  0.11350950047E+01  0.30393422392E+00  0.11803076448E+01  0.00000000000E+00 0. -1.
         11    1    3    3    0    0  0.44747452456E+01 -0.81522359940E+01  0.14515743616E+01  0.94121923643E+01  0.51100000000E-03 0. -1.
        -11    1    3    3    0    0  0.13033846191E+01 -0.31810825393E+02  0.18095426872E+02  0.36620648514E+02  0.51100000000E-03 0.  1.
         12    1    3    3    0    0 -0.56671818859E+01  0.38827966382E+02 -0.19850935457E+02  0.43974851477E+02  0.00000000000E+00 0. -1.
</event>
<event>
 7    1  0.2148778E-015  0.9000777E+02  0.7816164E-02  0.1186339E+00
        -11   -1    0    0    0    0  0.00000000000E+00  0.00000000000E+00  0.45593999997E+02  0.45594000000E+02  0.51100000000E-03 0.  1.
         11   -1    0    0    0    0 -0.00000000000E+00 -0.00000000000E+00 -0.45593999997E+02  0.45594000000E+02  0.51100000000E-03 0. -1.
    9900012    2    1    2    0    0  0.61023855181E+00  0.55298113131E+00 -0.84543282831E+00  0.90007772950E+02  0.90000034753E+02 0.  0.
         12    1    1    2    0    0 -0.61023855181E+00 -0.55298113131E+00  0.84543282831E+00  0.11802270497E+01  0.00000000000E+00 0. -1.
         11    1    3    3    0    0 -0.69648864856E+01  0.14595403242E+02 -0.81237488460E+00  0.16192448634E+02  0.51100000000E-03 0. -1.
        -11    1    3    3    0    0 -0.59394084287E+01  0.11140569192E+02  0.29883620014E+02  0.32441017243E+02  0.51100000000E-03 0.  1.
         12    1    3    3    0    0  0.13514533466E+02 -0.25182991303E+02 -0.29916677957E+02  0.41374307073E+02  0.00000000000E+00 0. -1.
</event>
<event>
 7    1  0.2148778E-015  0.9000782E+02  0.7816164E-02  0.1186339E+00
        -11   -1    0    0    0    0  0.00000000000E+00  0.00000000000E+00  0.45593999997E+02  0.45594000000E+02  0.51100000000E-03 0.  1.
         11   -1    0    0    0    0 -0.00000000000E+00 -0.00000000000E+00 -0.45593999997E+02  0.45594000000E+02  0.51100000000E-03 0. -1.
    9900012    2    1    2    0    0  0.75513755696E+00  0.76848544412E+00  0.48167906455E+00  0.90007823179E+02  0.90000085645E+02 0.  0.
         12    1    1    2    0    0 -0.75513755696E+00 -0.76848544412E+00 -0.48167906455E+00  0.11801768211E+01  0.00000000000E+00 0. -1.
         11    1    3    3    0    0 -0.15969430197E+02 -0.10936370609E+02 -0.12476098106E+01  0.19395448782E+02  0.51100000000E-03 0. -1.
        -11    1    3    3    0    0 -0.22600333471E+02 -0.89842055964E+01 -0.70424025187E+01  0.25319685161E+02  0.51100000000E-03 0.  1.
        -12    1    3    3    0    0  0.39324901225E+02  0.20689061650E+02  0.87716913938E+01  0.45292689236E+02  0.00000000000E+00 0.  1.
</event>
<event>
 7    1  0.2148778E-015  0.9000773E+02  0.7816164E-02  0.1186339E+00
        -11   -1    0    0    0    0  0.00000000000E+00  0.00000000000E+00  0.45593999997E+02  0.45594000000E+02  0.51100000000E-03 0.  1.
         11   -1    0    0    0    0 -0.00000000000E+00 -0.00000000000E+00 -0.45593999997E+02  0.45594000000E+02  0.51100000000E-03 0. -1.
    9900012    2    1    2    0    0 -0.81414934732E+00  0.54750183613E+00  0.65607533934E+00  0.90007732119E+02  0.89999993383E+02 0.  0.
         12    1    1    2    0    0  0.81414934732E+00 -0.54750183613E+00 -0.65607533934E+00  0.11802678811E+01  0.00000000000E+00 0. -1.
         11    1    3    3    0    0 -0.49880687506E+01 -0.50639336626E+01 -0.30037783792E+01  0.77166663017E+01  0.51100000000E-03 0. -1.
        -11    1    3    3    0    0 -0.24736463411E+02 -0.27784959810E+02 -0.41599682989E+01  0.37432632157E+02  0.51100000000E-03 0.  1.
         12    1    3    3    0    0  0.28910382814E+02  0.33396395309E+02  0.78198220174E+01  0.44858433660E+02  0.00000000000E+00 0. -1.
</event>
<event>
 7    1  0.2148778E-015  0.9000777E+02  0.7816164E-02  0.1186339E+00
        -11   -1    0    0    0    0  0.00000000000E+00  0.00000000000E+00  0.45593999997E+02  0.45594000000E+02  0.51100000000E-03 0.  1.
         11   -1    0    0    0    0 -0.00000000000E+00 -0.00000000000E+00 -0.45593999997E+02  0.45594000000E+02  0.51100000000E-03 0. -1.
    9900012    2    1    2    0    0  0.13224046199E+00 -0.87791930524E+00  0.77763243749E+00  0.90007770338E+02  0.90000032107E+02 0.  0.
         12    1    1    2    0    0 -0.13224046199E+00  0.87791930524E+00 -0.77763243749E+00  0.11802296616E+01  0.00000000000E+00 0. -1.
         11    1    3    3    0    0  0.13314305644E+02 -0.30454681959E+02  0.78633002306E+01  0.34155378475E+02  0.51100000000E-03 0. -1.
        -11    1    3    3    0    0  0.34377365275E+00 -0.11453314190E+02 -0.52698620066E+01  0.12612217572E+02  0.51100000000E-03 0.  1.
        -12    1    3    3    0    0 -0.13525838835E+02  0.41030076844E+02 -0.18158057865E+01  0.43240174291E+02  0.00000000000E+00 0.  1.
</event>
<event>
 7    1  0.2148778E-015  0.9000779E+02  0.7816164E-02  0.1186339E+00
        -11   -1    0    0    0    0  0.00000000000E+00  0.00000000000E+00  0.45593999997E+02  0.45594000000E+02  0.51100000000E-03 0.  1.
         11   -1    0    0    0    0 -0.00000000000E+00 -0.00000000000E+00 -0.45593999997E+02  0.45594000000E+02  0.51100000000E-03 0. -1.
    9900012    2    1    2    0    0  0.19428606680E+00  0.82616800203E+00 -0.82012398200E+00  0.90007786465E+02  0.90000048446E+02 0.  0.
         12    1    1    2    0    0 -0.19428606680E+00 -0.82616800203E+00  0.82012398200E+00  0.11802135354E+01  0.00000000000E+00 0. -1.
         11    1    3    3    0    0  0.82260819452E+01  0.33321589126E+02 -0.80232773971E+01  0.35247265234E+02  0.51100000000E-03 0. -1.
        -11    1    3    3    0    0  0.76714886166E+01  0.29454526232E+01 -0.94913592109E+01  0.12554414709E+02  0.51100000000E-03 0.  1.
        -12    1    3    3    0    0 -0.15703284495E+02 -0.35440873747E+02  0.16694512626E+02  0.42206106521E+02  0.00000000000E+00 0.  1.
</event>
<event>
 7    1  0.2148778E-015  0.9000768E+02  0.7816164E-02  0.1186339E+00
        -11   -1    0    0    0    0  0.00000000000E+00  0.00000000000E+00  0.45593999997E+02  0.45594000000E+02  0.51100000000E-03 0. -1.
         11   -1    0    0    0    0 -0.00000000000E+00 -0.00000000000E+00 -0.45593999997E+02  0.45594000000E+02  0.51100000000E-03 0.  1.
    9900012    2    1    2    0    0  0.37048659354E+00 -0.10733294107E+01  0.32226175019E+00  0.90007682680E+02  0.89999943292E+02 0.  0.
         12    1    1    2    0    0 -0.37048659354E+00  0.10733294107E+01 -0.32226175019E+00  0.11803173198E+01  0.00000000000E+00 0. -1.
         11    1    3    3    0    0  0.35886876019E+02 -0.77545053983E+01  0.13931637817E+02  0.39269463415E+02  0.51100000000E-03 0. -1.
        -11    1    3    3    0    0 -0.87182838025E+00 -0.95894330271E+01 -0.69813248020E+01  0.11893536344E+02  0.51100000000E-03 0.  1.
        -12    1    3    3    0    0 -0.34644561045E+02  0.16270609015E+02 -0.66280512645E+01  0.38844682922E+02  0.00000000000E+00 0.  1.
</event>
<event>
 7    1  0.2148778E-015  0.9000785E+02  0.7816164E-02  0.1186339E+00
        -11   -1    0    0    0    0  0.00000000000E+00  0.00000000000E+00  0.45593999997E+02  0.45594000000E+02  0.51100000000E-03 0.  1.
         11   -1    0    0    0    0 -0.00000000000E+00 -0.00000000000E+00 -0.45593999997E+02  0.45594000000E+02  0.51100000000E-03 0. -1.
    9900012    2    1    2    0    0 -0.11537359249E+01  0.20871676032E+00  0.13444648174E+00  0.90007853769E+02  0.90000116639E+02 0.  0.
         12    1    1    2    0    0  0.11537359249E+01 -0.20871676032E+00 -0.13444648174E+00  0.11801462311E+01  0.00000000000E+00 0. -1.
         11    1    3    3    0    0  0.26193403281E+01 -0.87587742041E+01  0.28280235564E+01  0.95694716055E+01  0.51100000000E-03 0. -1.
        -11    1    3    3    0    0 -0.14205781819E+02  0.22685966527E+02  0.31988543963E+02  0.41710001912E+02  0.51100000000E-03 0.  1.
         12    1    3    3    0    0  0.10432705566E+02 -0.13718475563E+02 -0.34682121038E+02  0.38728380251E+02  0.00000000000E+00 0. -1.
</event>
<event>
 7    1  0.2148778E-015  0.9000781E+02  0.7816164E-02  0.1186339E+00
        -11   -1    0    0    0    0  0.00000000000E+00  0.00000000000E+00  0.45593999997E+02  0.45594000000E+02  0.51100000000E-03 0.  1.
         11   -1    0    0    0    0 -0.00000000000E+00 -0.00000000000E+00 -0.45593999997E+02  0.45594000000E+02  0.51100000000E-03 0. -1.
    9900012    2    1    2    0    0  0.11350592357E+01  0.11120751613E+00  0.30353366569E+00  0.90007805412E+02  0.90000067643E+02 0.  0.
         12    1    1    2    0    0 -0.11350592357E+01 -0.11120751613E+00 -0.30353366569E+00  0.11801945884E+01  0.00000000000E+00 0. -1.
         11    1    3    3    0    0  0.19895117573E+02 -0.66448879975E+00  0.92845206168E+01  0.21964962371E+02  0.51100000000E-03 0. -1.
        -11    1    3    3    0    0 -0.40579788243E+01 -0.28583355804E+02  0.94647495389E+01  0.30381851577E+02  0.51100000000E-03 0.  1.
         12    1    3    3    0    0 -0.14702079513E+02  0.29359052120E+02 -0.18445736490E+02  0.37660991464E+02  0.00000000000E+00 0. -1.
</event>
<event>
 7    1  0.2148778E-015  0.9000789E+02  0.7816164E-02  0.1186339E+00
        -11   -1    0    0    0    0  0.00000000000E+00  0.00000000000E+00  0.45593999997E+02  0.45594000000E+02  0.51100000000E-03 0.  1.
         11   -1    0    0    0    0 -0.00000000000E+00 -0.00000000000E+00 -0.45593999997E+02  0.45594000000E+02  0.51100000000E-03 0. -1.
    9900012    2    1    2    0    0 -0.68284641718E+00 -0.51297472207E+00  0.81440063014E+00  0.90007885310E+02  0.90000148596E+02 0.  0.
         12    1    1    2    0    0  0.68284641718E+00  0.51297472207E+00 -0.81440063014E+00  0.11801146899E+01  0.00000000000E+00 0. -1.
         11    1    3    3    0    0  0.44041420395E+00  0.21067438441E+02  0.24438579975E+02  0.32268794811E+02  0.51100000000E-03 0.  1.
        -11    1    3    3    0    0 -0.19280346149E+02 -0.94868514788E+01  0.46913563658E+01  0.21994111108E+02  0.51100000000E-03 0. -1.
        -12    1    3    3    0    0  0.18157085528E+02 -0.12093561684E+02 -0.28315535710E+02  0.35744979391E+02  0.00000000000E+00 0.  1.
</event>
<event>
 7    1  0.2148778E-015  0.9000771E+02  0.7816164E-02  0.1186339E+00
        -11   -1    0    0    0    0  0.00000000000E+00  0.00000000000E+00  0.45593999997E+02  0.45594000000E+02  0.51100000000E-03 0.  1.
         11   -1    0    0    0    0 -0.00000000000E+00 -0.00000000000E+00 -0.45593999997E+02  0.45594000000E+02  0.51100000000E-03 0. -1.
    9900012    2    1    2    0    0 -0.34428144191E+00  0.70056437472E+00  0.88530441571E+00  0.90007710178E+02  0.89999971153E+02 0.  0.
         12    1    1    2    0    0  0.34428144191E+00 -0.70056437472E+00 -0.88530441571E+00  0.11802898215E+01  0.00000000000E+00 0. -1.
         11    1    3    3    0    0  0.12556963419E+02  0.32465449427E+02 -0.17220498439E+02  0.38835915124E+02  0.51100000000E-03 0. -1.
        -11    1    3    3    0    0  0.52809745651E+01  0.45450126786E+01  0.47153242513E+01  0.84130919204E+01  0.51100000000E-03 0.  1.
        -12    1    3    3    0    0 -0.18182219426E+02 -0.36309897731E+02  0.13390478604E+02  0.42758703134E+02  0.00000000000E+00 0.  1.
</event>
<event>
 7    1  0.2148778E-015  0.9000766E+02  0.7816164E-02  0.1186339E+00
        -11   -1    0    0    0    0  0.00000000000E+00  0.00000000000E+00  0.45593999997E+02  0.45594000000E+02  0.51100000000E-03 0. -1.
         11   -1    0    0    0    0 -0.00000000000E+00 -0.00000000000E+00 -0.45593999997E+02  0.45594000000E+02  0.51100000000E-03 0.  1.
    9900012    2    1    2    0    0 -0.14260789029E+00 -0.11061403587E+01 -0.38640954379E+00  0.90007662828E+02  0.89999923178E+02 0.  0.
         12    1    1    2    0    0  0.14260789029E+00  0.11061403587E+01  0.38640954379E+00  0.11803371718E+01  0.00000000000E+00 0. -1.
         11    1    3    3    0    0  0.11924935984E+02 -0.61028129558E+01 -0.87024291783E+01  0.15974376296E+02  0.51100000000E-03 0. -1.
        -11    1    3    3    0    0  0.79414924489E+01 -0.22160246880E+02 -0.19298304603E+02  0.30439586148E+02  0.51100000000E-03 0.  1.
         12    1    3    3    0    0 -0.20009036323E+02  0.27156919477E+02  0.27614324237E+02  0.43593700384E+02  0.00000000000E+00 0. -1.
</event>
<event>
 7    1  0.2148778E-015  0.9000780E+02  0.7816164E-02  0.1186339E+00
        -11   -1    0    0    0    0  0.00000000000E+00  0.00000000000E+00  0.45593999997E+02  0.45594000000E+02  0.51100000000E-03 0.  1.
         11   -1    0    0    0    0 -0.00000000000E+00 -0.00000000000E+00 -0.45593999997E+02  0.45594000000E+02  0.51100000000E-03 0. -1.
    9900012    2    1    2    0    0 -0.13360790925E+00 -0.67039845180E+00  0.96207997185E+00  0.90007795344E+02  0.90000057443E+02 0.  0.
         12    1    1    2    0    0  0.13360790925E+00  0.67039845180E+00 -0.96207997185E+00  0.11802046559E+01  0.00000000000E+00 0. -1.
         11    1    3    3    0    0 -0.14571594902E+02 -0.73718034081E+01 -0.68065782387E+01  0.17691929546E+02  0.51100000000E-03 0. -1.
        -11    1    3    3    0    0 -0.20106705540E+02 -0.51509000247E+01 -0.18117418955E+02  0.27550902864E+02  0.51100000000E-03 0.  1.
        -12    1    3    3    0    0  0.34544692533E+02  0.11852304981E+02  0.25886077165E+02  0.44764962935E+02  0.00000000000E+00 0.  1.
</event>
<event>
 7    1  0.2148778E-015  0.9000777E+02  0.7816164E-02  0.1186339E+00
        -11   -1    0    0    0    0  0.00000000000E+00  0.00000000000E+00  0.45593999997E+02  0.45594000000E+02  0.51100000000E-03 0.  1.
         11   -1    0    0    0    0 -0.00000000000E+00 -0.00000000000E+00 -0.45593999997E+02  0.45594000000E+02  0.51100000000E-03 0. -1.
    9900012    2    1    2    0    0 -0.81827488576E+00 -0.76727869143E+00  0.36696477651E+00  0.90007765478E+02  0.90000027183E+02 0.  0.
         12    1    1    2    0    0  0.81827488576E+00  0.76727869143E+00 -0.36696477651E+00  0.11802345217E+01  0.00000000000E+00 0. -1.
         11    1    3    3    0    0  0.75135851776E+01  0.40667605054E+01 -0.61465539727E+01  0.10524857682E+02  0.51100000000E-03 0. -1.
        -11    1    3    3    0    0  0.72021055263E+01  0.30438273037E+02 -0.15700483323E+02  0.34998056607E+02  0.51100000000E-03 0.  1.
         12    1    3    3    0    0 -0.15533965590E+02 -0.35272312233E+02  0.22214002072E+02  0.44484851189E+02  0.00000000000E+00 0. -1.
</event>
<event>
 7    1  0.2148778E-015  0.9000765E+02  0.7816164E-02  0.1186339E+00
        -11   -1    0    0    0    0  0.00000000000E+00  0.00000000000E+00  0.45593999997E+02  0.45594000000E+02  0.51100000000E-03 0.  1.
         11   -1    0    0    0    0 -0.00000000000E+00 -0.00000000000E+00 -0.45593999997E+02  0.45594000000E+02  0.51100000000E-03 0. -1.
    9900012    2    1    2    0    0  0.83964237420E+00  0.69328191544E+00  0.45561919530E+00  0.90007649212E+02  0.89999909382E+02 0.  0.
         12    1    1    2    0    0 -0.83964237420E+00 -0.69328191544E+00 -0.45561919530E+00  0.11803507877E+01  0.00000000000E+00 0. -1.
         11    1    3    3    0    0  0.10461407771E+02 -0.76228318473E+01 -0.83189230196E+01  0.15386783237E+02  0.51100000000E-03 0. -1.
        -11    1    3    3    0    0 -0.61612531808E+01  0.40845280246E+02  0.66501158690E+01  0.41839239960E+02  0.51100000000E-03 0.  1.
         12    1    3    3    0    0 -0.34605122159E+01 -0.32529166483E+02  0.21244263459E+01  0.32781626015E+02  0.00000000000E+00 0. -1.
</event>
<event>
 7    1  0.2148778E-015  0.9000771E+02  0.7816164E-02  0.1186339E+00
        -11   -1    0    0    0    0  0.00000000000E+00  0.00000000000E+00  0.45593999997E+02  0.45594000000E+02  0.51100000000E-03 0. -1.
         11   -1    0    0    0    0 -0.00000000000E+00 -0.00000000000E+00 -0.45593999997E+02  0.45594000000E+02  0.51100000000E-03 0.  1.
    9900012    2    1    2    0    0  0.51871904561E+00 -0.10367921245E+01  0.22154332067E+00  0.90007708171E+02  0.89999969119E+02 0.  0.
         12    1    1    2    0    0 -0.51871904561E+00  0.10367921245E+01 -0.22154332067E+00  0.11802918286E+01  0.00000000000E+00 0. -1.
         11    1    3    3    0    0 -0.35615627998E+02  0.48978260794E+01 -0.20778789834E+02  0.41523725329E+02  0.51100000000E-03 0. -1.
        -11    1    3    3    0    0  0.16166132353E+01  0.58384907119E+00  0.12133136537E+02  0.12254277644E+02  0.51100000000E-03 0.  1.
        -12    1    3    3    0    0  0.34517733809E+02 -0.65184672750E+01  0.88671966171E+01  0.36229705198E+02  0.00000000000E+00 0.  1.
</event>
<event>
 7    1  0.2148778E-015  0.9000769E+02  0.7816164E-02  0.1186339E+00
        -11   -1    0    0    0    0  0.00000000000E+00  0.00000000000E+00  0.45593999997E+02  0.45594000000E+02  0.51100000000E-03 0. -1.
         11   -1    0    0    0    0 -0.00000000000E+00 -0.00000000000E+00 -0.45593999997E+02  0.45594000000E+02  0.51100000000E-03 0.  1.
    9900012    2    1    2    0    0 -0.53428596791E+00 -0.29627727419E+00 -0.10098948387E+01  0.90007691013E+02  0.89999951735E+02 0.  0.
         12    1    1    2    0    0  0.53428596791E+00  0.29627727419E+00  0.10098948387E+01  0.11803089866E+01  0.00000000000E+00 0. -1.
         11    1    3    3    0    0 -0.22120803784E+02 -0.36323507868E+02  0.41128928835E+01  0.42727544652E+02  0.51100000000E-03 0. -1.
        -11    1    3    3    0    0  0.14313076878E+02  0.50434719996E+01 -0.16070807427E+01  0.15260520578E+02  0.51100000000E-03 0.  1.
        -12    1    3    3    0    0  0.72734409376E+01  0.30983758594E+02 -0.35157069794E+01  0.32019625783E+02  0.00000000000E+00 0.  1.
</event>
<event>
 7    1  0.2148778E-015  0.9000777E+02  0.7816164E-02  0.1186339E+00
        -11   -1    0    0    0    0  0.00000000000E+00  0.00000000000E+00  0.45593999997E+02  0.45594000000E+02  0.51100000000E-03 0. -1.
         11   -1    0    0    0    0 -0.00000000000E+00 -0.00000000000E+00 -0.45593999997E+02  0.45594000000E+02  0.51100000000E-03 0.  1.
    9900012    2    1    2    0    0  0.35565487955E+00 -0.10079689667E+01  0.50045304050E+00  0.90007769058E+02  0.90000030809E+02 0.  0.
         12    1    1    2    0    0 -0.35565487955E+00  0.10079689667E+01 -0.50045304050E+00  0.11802309422E+01  0.00000000000E+00 0. -1.
         11    1    3    3    0    0  0.16446925690E+02 -0.30715067329E+02 -0.22053938761E+01  0.34911036766E+02  0.51100000000E-03 0. -1.
        -11    1    3    3    0    0  0.63751211421E+01 -0.85272265042E+01  0.13233867763E+01  0.10728798360E+02  0.51100000000E-03 0.  1.
        -12    1    3    3    0    0 -0.22466391953E+02  0.38234324866E+02  0.13824601403E+01  0.44367933932E+02  0.00000000000E+00 0.  1.
</event>
<event>
 7    1  0.2148778E-015  0.9000773E+02  0.7816164E-02  0.1186339E+00
        -11   -1    0    0    0    0  0.00000000000E+00  0.00000000000E+00  0.45593999997E+02  0.45594000000E+02  0.51100000000E-03 0.  1.
         11   -1    0    0    0    0 -0.00000000000E+00 -0.00000000000E+00 -0.45593999997E+02  0.45594000000E+02  0.51100000000E-03 0. -1.
    9900012    2    1    2    0    0 -0.17882961118E-01  0.11148067994E+01  0.38720106969E+00  0.90007729409E+02  0.89999990637E+02 0.  0.
         12    1    1    2    0    0  0.17882961118E-01 -0.11148067994E+01 -0.38720106969E+00  0.11802705912E+01  0.00000000000E+00 0. -1.
         11    1    3    3    0    0  0.38098854389E+01  0.54745531961E+01 -0.39664608281E+01  0.77600754839E+01  0.51100000000E-03 0. -1.
        -11    1    3    3    0    0  0.30134700553E+02  0.20728805895E+02 -0.95345841686E+01  0.37798040515E+02  0.51100000000E-03 0.  1.
         12    1    3    3    0    0 -0.33962468953E+02 -0.25088552292E+02  0.13888246066E+02  0.44449613410E+02  0.00000000000E+00 0. -1.
</event>
<event>
 7    1  0.2148778E-015  0.9000768E+02  0.7816164E-02  0.1186339E+00
        -11   -1    0    0    0    0  0.00000000000E+00  0.00000000000E+00  0.45593999997E+02  0.45594000000E+02  0.51100000000E-03 0. -1.
         11   -1    0    0    0    0 -0.00000000000E+00 -0.00000000000E+00 -0.45593999997E+02  0.45594000000E+02  0.51100000000E-03 0.  1.
    9900012    2    1    2    0    0 -0.97734634418E-02  0.73434109777E+00 -0.92402076123E+00  0.90007675157E+02  0.89999935669E+02 0.  0.
         12    1    1    2    0    0  0.97734634418E-02 -0.73434109777E+00  0.92402076123E+00  0.11803248433E+01  0.00000000000E+00 0. -1.
         11    1    3    3    0    0 -0.59227464259E+01  0.63750065157E+01 -0.12218099019E+01  0.87870616817E+01  0.51100000000E-03 0. -1.
        -11    1    3    3    0    0  0.29513352386E+02  0.16323446541E+02 -0.23536452366E+02  0.41127332351E+02  0.51100000000E-03 0.  1.
         12    1    3    3    0    0 -0.23600379424E+02 -0.21964111959E+02  0.23834241507E+02  0.40093281124E+02  0.00000000000E+00 0. -1.
</event>
<event>
 7    1  0.2148778E-015  0.9000785E+02  0.7816164E-02  0.1186339E+00
        -11   -1    0    0    0    0  0.00000000000E+00  0.00000000000E+00  0.45593999997E+02  0.45594000000E+02  0.51100000000E-03 0. -1.
         11   -1    0    0    0    0 -0.00000000000E+00 -0.00000000000E+00 -0.45593999997E+02  0.45594000000E+02  0.51100000000E-03 0.  1.
    9900012    2    1    2    0    0  0.11737590193E+01  0.39130744520E-01 -0.11622544485E+00  0.90007851787E+02  0.90000114631E+02 0.  0.
         12    1    1    2    0    0 -0.11737590193E+01 -0.39130744520E-01  0.11622544485E+00  0.11801482129E+01  0.00000000000E+00 0. -1.
         11    1    3    3    0    0 -0.24352186410E+02 -0.32825486651E+01  0.29022352306E+02  0.38027635245E+02  0.51100000000E-03 0. -1.
        -11    1    3    3    0    0 -0.69817845593E+01 -0.55603606366E+01 -0.33026843173E+01  0.95168613524E+01  0.51100000000E-03 0.  1.
        -12    1    3    3    0    0  0.32507729989E+02  0.88820400462E+01 -0.25835893434E+02  0.42463355189E+02  0.00000000000E+00 0.  1.
</event>
<event>
 7    1  0.2148778E-015  0.9000775E+02  0.7816164E-02  0.1186339E+00
        -11   -1    0    0    0    0  0.00000000000E+00  0.00000000000E+00  0.45593999997E+02  0.45594000000E+02  0.51100000000E-03 0. -1.
         11   -1    0    0    0    0 -0.00000000000E+00 -0.00000000000E+00 -0.45593999997E+02  0.45594000000E+02  0.51100000000E-03 0.  1.
    9900012    2    1    2    0    0  0.10299860217E+01  0.52343242905E+00  0.24113933027E+00  0.90007745413E+02  0.90000006853E+02 0.  0.
         12    1    1    2    0    0 -0.10299860217E+01 -0.52343242905E+00 -0.24113933027E+00  0.11802545866E+01  0.00000000000E+00 0. -1.
         11    1    3    3    0    0  0.84721735561E+01  0.80947999844E+00 -0.27247813464E-01  0.85108005110E+01  0.51100000000E-03 0. -1.
        -11    1    3    3    0    0 -0.99723010552E+01 -0.69944460251E+01 -0.39372128214E+02  0.41213269027E+02  0.51100000000E-03 0.  1.
         12    1    3    3    0    0  0.25301135208E+01  0.67083984557E+01  0.39640515357E+02  0.40283675876E+02  0.00000000000E+00 0. -1.
</event>
<event>
 7    1  0.2148778E-015  0.9000784E+02  0.7816164E-02  0.1186339E+00
        -11   -1    0    0    0    0  0.00000000000E+00  0.00000000000E+00  0.45593999997E+02  0.45594000000E+02  0.51100000000E-03 0. -1.
         11   -1    0    0    0    0 -0.00000000000E+00 -0.00000000000E+00 -0.45593999997E+02  0.45594000000E+02  0.51100000000E-03 0.  1.
    9900012    2    1    2    0    0  0.41101965810E+00 -0.64131584347E+00 -0.90141967095E+00  0.90007838743E+02  0.90000101414E+02 0.  0.
         12    1    1    2    0    0 -0.41101965810E+00  0.64131584347E+00  0.90141967095E+00  0.11801612575E+01  0.00000000000E+00 0. -1.
         11    1    3    3    0    0  0.38510672195E+01  0.92526945019E+01  0.18792802617E+01  0.10196801893E+02  0.51100000000E-03 0. -1.
        -11    1    3    3    0    0  0.31757294770E+01  0.34518855059E+02  0.15536000974E+01  0.34699427745E+02  0.51100000000E-03 0.  1.
         12    1    3    3    0    0 -0.66157770384E+01 -0.44412865405E+02 -0.43343000301E+01  0.45111609105E+02  0.00000000000E+00 0. -1.
</event>
<event>
 7    1  0.2148778E-015  0.9000765E+02  0.7816164E-02  0.1186339E+00
        -11   -1    0    0    0    0  0.00000000000E+00  0.00000000000E+00  0.45593999997E+02  0.45594000000E+02  0.51100000000E-03 0.  1.
         11   -1    0    0    0    0 -0.00000000000E+00 -0.00000000000E+00 -0.45593999997E+02  0.45594000000E+02  0.51100000000E-03 0. -1.
    9900012    2    1    2    0    0 -0.66826069782E+00  0.95471128415E+00  0.18756748316E+00  0.90007649392E+02  0.89999909564E+02 0.  0.
         12    1    1    2    0    0  0.66826069782E+00 -0.95471128415E+00 -0.18756748316E+00  0.11803506077E+01  0.00000000000E+00 0. -1.
         11    1    3    3    0    0 -0.31427256098E+02  0.30576822628E+00 -0.83400747659E+01  0.32516499926E+02  0.51100000000E-03 0. -1.
        -11    1    3    3    0    0 -0.69569295196E+01 -0.12878178457E+02 -0.45739708826E+01  0.15335173902E+02  0.51100000000E-03 0.  1.
        -12    1    3    3    0    0  0.37715924920E+02  0.13527121515E+02  0.13101613132E+02  0.42155975564E+02  0.00000000000E+00 0.  1.
</event>
<event>
 7    1  0.2148778E-015  0.9000771E+02  0.7816164E-02  0.1186339E+00
        -11   -1    0    0    0    0  0.00000000000E+00  0.00000000000E+00  0.45593999997E+02  0.45594000000E+02  0.51100000000E-03 0.  1.
         11   -1    0    0    0    0 -0.00000000000E+00 -0.00000000000E+00 -0.45593999997E+02  0.45594000000E+02  0.51100000000E-03 0. -1.
    9900012    2    1    2    0    0  0.10245329048E+01  0.51211292504E+00  0.28487483958E+00  0.90007711478E+02  0.89999972469E+02 0.  0.
         12    1    1    2    0    0 -0.10245329048E+01 -0.51211292504E+00 -0.28487483958E+00  0.11802885220E+01  0.00000000000E+00 0. -1.
         11    1    3    3    0    0 -0.22379518942E+02 -0.61767810151E+01 -0.28550580598E+02  0.36798520956E+02  0.51100000000E-03 0. -1.
        -11    1    3    3    0    0 -0.94745786537E+01  0.25236588252E+01  0.86652628719E+00  0.98431378432E+01  0.51100000000E-03 0.  1.
        -12    1    3    3    0    0  0.32878630501E+02  0.41652351150E+01  0.27968929150E+02  0.43366052679E+02  0.00000000000E+00 0.  1.
</event>
<event>
 7    1  0.2233417E-015  0.9000782E+02  0.7816164E-02  0.1186339E+00
        -11   -1    0    0    0    0  0.00000000000E+00  0.00000000000E+00  0.45593999997E+02  0.45594000000E+02  0.51100000000E-03 0. -1.
         11   -1    0    0    0    0 -0.00000000000E+00 -0.00000000000E+00 -0.45593999997E+02  0.45594000000E+02  0.51100000000E-03 0.  1.
    9900012    2    1    2    0    0  0.43333206335E+00  0.32031297897E+00 -0.10499700829E+01  0.90007824481E+02  0.90000086964E+02 0.  0.
         12    1    1    2    0    0 -0.43333206335E+00 -0.32031297897E+00  0.10499700829E+01  0.11801755194E+01  0.00000000000E+00 0. -1.
         11    1    3    3    0    0  0.52767854444E+01  0.35635532084E+01 -0.84645538327E+01  0.10592074770E+02  0.51100000000E-03 0. -1.
        -11    1    3    3    0    0 -0.22084493530E+02  0.90519371367E+01 -0.28836583980E+02  0.37432752989E+02  0.51100000000E-03 0.  1.
         12    1    3    3    0    0  0.17241040149E+02 -0.12295177366E+02  0.36251167730E+02  0.41982996721E+02  0.00000000000E+00 0. -1.
</event>
<event>
 7    1  0.2148778E-015  0.9000879E+02  0.7816164E-02  0.1186337E+00
        -11   -1    0    0    0    0  0.00000000000E+00  0.00000000000E+00  0.45593999997E+02  0.45594000000E+02  0.51100000000E-03 0.  1.
         11   -1    0    0    0    0 -0.00000000000E+00 -0.00000000000E+00 -0.45593999997E+02  0.45594000000E+02  0.51100000000E-03 0. -1.
    9900012    2    1    2    0    0 -0.54631399000E+00  0.86351063716E+00  0.58857759856E+00  0.90008791288E+02  0.90001066527E+02 0.  0.
         12    1    1    2    0    0  0.54631399000E+00 -0.86351063716E+00 -0.58857759856E+00  0.11792087117E+01  0.00000000000E+00 0. -1.
         11    1    3    3    0    0  0.10618058301E+02 -0.41344365363E+01 -0.31991227686E+01  0.11835164313E+02  0.51100000000E-03 0. -1.
        -11    1    3    3    0    0  0.25699454528E+02  0.60851279485E+01  0.24372765901E+02  0.35937758181E+02  0.51100000000E-03 0.  1.
         12    1    3    3    0    0 -0.36863826819E+02 -0.10871807751E+01 -0.20585065534E+02  0.42235868794E+02  0.00000000000E+00 0. -1.
</event>
<event>
 7    1  0.2148778E-015  0.9000768E+02  0.7816164E-02  0.1186339E+00
        -11   -1    0    0    0    0  0.00000000000E+00  0.00000000000E+00  0.45593999997E+02  0.45594000000E+02  0.51100000000E-03 0.  1.
         11   -1    0    0    0    0 -0.00000000000E+00 -0.00000000000E+00 -0.45593999997E+02  0.45594000000E+02  0.51100000000E-03 0. -1.
    9900012    2    1    2    0    0 -0.16253783468E+00 -0.96049448932E+00  0.66647763415E+00  0.90007677735E+02  0.89999938281E+02 0.  0.
         12    1    1    2    0    0  0.16253783468E+00  0.96049448932E+00 -0.66647763415E+00  0.11803222647E+01  0.00000000000E+00 0. -1.
         11    1    3    3    0    0  0.11644835838E+02  0.28537118937E+02 -0.19718298326E+02  0.36589351567E+02  0.51100000000E-03 0. -1.
        -11    1    3    3    0    0  0.53346601361E+01 -0.11966242167E+01 -0.80906109723E+01  0.97646553677E+01  0.51100000000E-03 0.  1.
        -12    1    3    3    0    0 -0.17142033809E+02 -0.28300989210E+02  0.28475386933E+02  0.43653670800E+02  0.00000000000E+00 0.  1.
</event>
<event>
 7    1  0.2148778E-015  0.9000775E+02  0.7816164E-02  0.1186339E+00
        -11   -1    0    0    0    0  0.00000000000E+00  0.00000000000E+00  0.45593999997E+02  0.45594000000E+02  0.51100000000E-03 0. -1.
         11   -1    0    0    0    0 -0.00000000000E+00 -0.00000000000E+00 -0.45593999997E+02  0.45594000000E+02  0.51100000000E-03 0.  1.
    9900012    2    1    2    0    0  0.42626955950E+00  0.63128870862E+00  0.90153246645E+00  0.90007749197E+02  0.90000010686E+02 0.  0.
         12    1    1    2    0    0 -0.42626955950E+00 -0.63128870862E+00 -0.90153246645E+00  0.11802508035E+01  0.00000000000E+00 0. -1.
         11    1    3    3    0    0  0.69339510154E+01  0.48875740521E+01 -0.66289127551E+01  0.10766175801E+02  0.51100000000E-03 0. -1.
        -11    1    3    3    0    0 -0.26197697531E+02  0.26985890402E+02  0.16760810390E+02  0.41176235889E+02  0.51100000000E-03 0.  1.
         12    1    3    3    0    0  0.19690016075E+02 -0.31242175746E+02 -0.92303651688E+01  0.38065337507E+02  0.00000000000E+00 0. -1.
</event>
<event>
 7    1  0.2148778E-015  0.9000778E+02  0.7816164E-02  0.1186339E+00
        -11   -1    0    0    0    0  0.00000000000E+00  0.00000000000E+00  0.45593999997E+02  0.45594000000E+02  0.51100000000E-03 0.  1.
         11   -1    0    0    0    0 -0.00000000000E+00 -0.00000000000E+00 -0.45593999997E+02  0.45594000000E+02  0.51100000000E-03 0. -1.
    9900012    2    1    2    0    0 -0.61965981492E+00  0.56808068918E+00  0.82838918131E+00  0.90007778584E+02  0.90000040461E+02 0.  0.
         12    1    1    2    0    0  0.61965981492E+00 -0.56808068918E+00 -0.82838918131E+00  0.11802214162E+01  0.00000000000E+00 0. -1.
         11    1    3    3    0    0  0.69090721211E+01 -0.32986520410E+01  0.41808659126E+01  0.87233034398E+01  0.51100000000E-03 0. -1.
        -11    1    3    3    0    0  0.33646528418E+02 -0.74932109426E+00  0.13887609244E+02  0.36407637214E+02  0.51100000000E-03 0.  1.
         12    1    3    3    0    0 -0.41175260354E+02  0.46160538244E+01 -0.17240085976E+02  0.44876837930E+02  0.00000000000E+00 0. -1.
</event>
<event>
 7    1  0.2148778E-015  0.9000772E+02  0.7816164E-02  0.1186339E+00
        -11   -1    0    0    0    0  0.00000000000E+00  0.00000000000E+00  0.45593999997E+02  0.45594000000E+02  0.51100000000E-03 0.  1.
         11   -1    0    0    0    0 -0.00000000000E+00 -0.00000000000E+00 -0.45593999997E+02  0.45594000000E+02  0.51100000000E-03 0. -1.
    9900012    2    1    2    0    0 -0.10701929613E+01 -0.44097629083E+00 -0.23084962914E+00  0.90007718417E+02  0.89999979500E+02 0.  0.
         12    1    1    2    0    0  0.10701929613E+01  0.44097629083E+00  0.23084962914E+00  0.11802815828E+01  0.00000000000E+00 0. -1.
         11    1    3    3    0    0 -0.72692536325E+01  0.10956939856E+02 -0.17945233159E+01  0.13270904023E+02  0.51100000000E-03 0. -1.
        -11    1    3    3    0    0 -0.84470056658E+01  0.26701784536E+02 -0.16051928906E+02  0.32280049938E+02  0.51100000000E-03 0.  1.
         12    1    3    3    0    0  0.14646066337E+02 -0.38099700683E+02  0.17615602592E+02  0.44456764457E+02  0.00000000000E+00 0. -1.
</event>
<event>
 7    1  0.2148778E-015  0.9000773E+02  0.7816164E-02  0.1186339E+00
        -11   -1    0    0    0    0  0.00000000000E+00  0.00000000000E+00  0.45593999997E+02  0.45594000000E+02  0.51100000000E-03 0. -1.
         11   -1    0    0    0    0 -0.00000000000E+00 -0.00000000000E+00 -0.45593999997E+02  0.45594000000E+02  0.51100000000E-03 0.  1.
    9900012    2    1    2    0    0 -0.39190749687E+00  0.64135776430E+00  0.91000524438E+00  0.90007728500E+02  0.89999989717E+02 0.  0.
         12    1    1    2    0    0  0.39190749687E+00 -0.64135776430E+00 -0.91000524438E+00  0.11802714996E+01  0.00000000000E+00 0. -1.
         11    1    3    3    0    0 -0.15645602694E+02  0.24741640547E+02  0.31603273763E+02  0.43077843184E+02  0.51100000000E-03 0. -1.
        -11    1    3    3    0    0  0.11604485871E+01  0.37928251012E+01 -0.55394974186E+01  0.68130899805E+01  0.51100000000E-03 0.  1.
        -12    1    3    3    0    0  0.14093246610E+02 -0.27893107884E+02 -0.25153771100E+02  0.40116795335E+02  0.00000000000E+00 0.  1.
</event>
<event>
 7    1  0.2148778E-015  0.9000690E+02  0.7816164E-02  0.1186341E+00
        -11   -1    0    0    0    0  0.00000000000E+00  0.00000000000E+00  0.45593999997E+02  0.45594000000E+02  0.51100000000E-03 0. -1.
         11   -1    0    0    0    0 -0.00000000000E+00 -0.00000000000E+00 -0.45593999997E+02  0.45594000000E+02  0.51100000000E-03 0.  1.
    9900012    2    1    2    0    0  0.28549329585E+00  0.10567533648E+01  0.44357749219E+00  0.90006900899E+02  0.89999151186E+02 0.  0.
         12    1    1    2    0    0 -0.28549329585E+00 -0.10567533648E+01 -0.44357749219E+00  0.11810991015E+01  0.00000000000E+00 0. -1.
         11    1    3    3    0    0 -0.10516961472E+01 -0.61775961774E+01  0.13728677786E+02  0.15091234321E+02  0.51100000000E-03 0. -1.
        -11    1    3    3    0    0 -0.33006650543E+02  0.16247395670E+01 -0.21155011968E+02  0.39237906294E+02  0.51100000000E-03 0.  1.
         12    1    3    3    0    0  0.34343839986E+02  0.56096099752E+01  0.78699116745E+01  0.35677760283E+02  0.00000000000E+00 0. -1.
</event>
<event>
 7    1  0.2148778E-015  0.9000768E+02  0.7816164E-02  0.1186339E+00
        -11   -1    0    0    0    0  0.00000000000E+00  0.00000000000E+00  0.45593999997E+02  0.45594000000E+02  0.51100000000E-03 0. -1.
         11   -1    0    0    0    0 -0.00000000000E+00 -0.00000000000E+00 -0.45593999997E+02  0.45594000000E+02  0.51100000000E-03 0.  1.
    9900012    2    1    2    0    0 -0.88770495287E+00 -0.55658771041E+00 -0.54344917986E+00  0.90007683528E+02  0.89999944151E+02 0.  0.
         12    1    1    2    0    0  0.88770495287E+00  0.55658771041E+00  0.54344917986E+00  0.11803164719E+01  0.00000000000E+00 0. -1.
         11    1    3    3    0    0 -0.22766802556E+02  0.59432917329E+01  0.30153569818E+02  0.38247716119E+02  0.51100000000E-03 0. -1.
        -11    1    3    3    0    0 -0.91758941607E+01  0.95547171902E+00 -0.36960144933E+01  0.99383340279E+01  0.51100000000E-03 0.  1.
        -12    1    3    3    0    0  0.31054991764E+02 -0.74553511624E+01 -0.27001004505E+02  0.41821633381E+02  0.00000000000E+00 0.  1.
</event>
<event>
 7    1  0.2148778E-015  0.9000777E+02  0.7816164E-02  0.1186339E+00
        -11   -1    0    0    0    0  0.00000000000E+00  0.00000000000E+00  0.45593999997E+02  0.45594000000E+02  0.51100000000E-03 0.  1.
         11   -1    0    0    0    0 -0.00000000000E+00 -0.00000000000E+00 -0.45593999997E+02  0.45594000000E+02  0.51100000000E-03 0. -1.
    9900012    2    1    2    0    0 -0.76874943710E+00  0.73355467984E+00  0.51367362021E+00  0.90007771737E+02  0.90000033524E+02 0.  0.
         12    1    1    2    0    0  0.76874943710E+00 -0.73355467984E+00 -0.51367362021E+00  0.11802282633E+01  0.00000000000E+00 0. -1.
         11    1    3    3    0    0  0.10884245172E+02  0.46953246446E+01 -0.21477181402E+01  0.12046807044E+02  0.51100000000E-03 0. -1.
        -11    1    3    3    0    0  0.30176405438E+02  0.12791184209E+02 -0.62886890235E+00  0.32781478230E+02  0.51100000000E-03 0.  1.
         12    1    3    3    0    0 -0.41829400047E+02 -0.16752954174E+02  0.32902606628E+01  0.45179486463E+02  0.00000000000E+00 0. -1.
</event>
<event>
 7    1  0.2148778E-015  0.9000770E+02  0.7816164E-02  0.1186339E+00
        -11   -1    0    0    0    0  0.00000000000E+00  0.00000000000E+00  0.45593999997E+02  0.45594000000E+02  0.51100000000E-03 0. -1.
         11   -1    0    0    0    0 -0.00000000000E+00 -0.00000000000E+00 -0.45593999997E+02  0.45594000000E+02  0.51100000000E-03 0.  1.
    9900012    2    1    2    0    0 -0.35228635267E+00  0.91133473159E+00 -0.66216394084E+00  0.90007704379E+02  0.89999965277E+02 0.  0.
         12    1    1    2    0    0  0.35228635267E+00 -0.91133473159E+00  0.66216394084E+00  0.11802956205E+01  0.00000000000E+00 0. -1.
         11    1    3    3    0    0 -0.17764382337E+02 -0.32084011148E+02  0.73892624579E+01  0.37410670283E+02  0.51100000000E-03 0. -1.
        -11    1    3    3    0    0 -0.75399743991E+01 -0.26442232986E+01  0.13052857136E+01  0.80961041154E+01  0.51100000000E-03 0.  1.
         12    1    3    3    0    0  0.24952070383E+02  0.35639569178E+02 -0.93567121123E+01  0.44500929981E+02  0.00000000000E+00 0. -1.
</event>
<event>
 7    1  0.2148778E-015  0.9000773E+02  0.7816164E-02  0.1186339E+00
        -11   -1    0    0    0    0  0.00000000000E+00  0.00000000000E+00  0.45593999997E+02  0.45594000000E+02  0.51100000000E-03 0.  1.
         11   -1    0    0    0    0 -0.00000000000E+00 -0.00000000000E+00 -0.45593999997E+02  0.45594000000E+02  0.51100000000E-03 0. -1.
    9900012    2    1    2    0    0 -0.99236285416E+00 -0.61036827972E+00 -0.18895023888E+00  0.90007730682E+02  0.89999991927E+02 0.  0.
         12    1    1    2    0    0  0.99236285416E+00  0.61036827972E+00  0.18895023888E+00  0.11802693184E+01  0.00000000000E+00 0. -1.
         11    1    3    3    0    0 -0.17590263512E+02  0.26643973119E+02 -0.47207961607E+01  0.32273899526E+02  0.51100000000E-03 0. -1.
        -11    1    3    3    0    0 -0.13392667419E+02  0.26823175058E+01 -0.45500360424E+01  0.14396568899E+02  0.51100000000E-03 0.  1.
        -12    1    3    3    0    0  0.29990568077E+02 -0.29936658904E+02  0.90818819641E+01  0.43337262257E+02  0.00000000000E+00 0.  1.
</event>
<event>
 7    1  0.2148778E-015  0.9000779E+02  0.7816164E-02  0.1186339E+00
        -11   -1    0    0    0    0  0.00000000000E+00  0.00000000000E+00  0.45593999997E+02  0.45594000000E+02  0.51100000000E-03 0.  1.
         11   -1    0    0    0    0 -0.00000000000E+00 -0.00000000000E+00 -0.45593999997E+02  0.45594000000E+02  0.51100000000E-03 0. -1.
    9900012    2    1    2    0    0  0.69298435599E+00 -0.92515830649E+00 -0.23824745759E+00  0.90007785163E+02  0.90000047127E+02 0.  0.
         12    1    1    2    0    0 -0.69298435599E+00  0.92515830649E+00  0.23824745759E+00  0.11802148367E+01  0.00000000000E+00 0. -1.
         11    1    3    3    0    0  0.69990651614E+01  0.52996976107E+01  0.28940897768E+01  0.92438879156E+01  0.51100000000E-03 0. -1.
        -11    1    3    3    0    0  0.13265130016E+02 -0.23092232285E+02 -0.32257678762E+02  0.41830284551E+02  0.51100000000E-03 0.  1.
         12    1    3    3    0    0 -0.19571210822E+02  0.16867376367E+02  0.29125341527E+02  0.38933612697E+02  0.00000000000E+00 0. -1.
</event>
<event>
 7    1  0.2148778E-015  0.9000772E+02  0.7816164E-02  0.1186339E+00
        -11   -1    0    0    0    0  0.00000000000E+00  0.00000000000E+00  0.45593999997E+02  0.45594000000E+02  0.51100000000E-03 0.  1.
         11   -1    0    0    0    0 -0.00000000000E+00 -0.00000000000E+00 -0.45593999997E+02  0.45594000000E+02  0.51100000000E-03 0. -1.
    9900012    2    1    2    0    0 -0.18301709931E+00  0.11030646853E+01  0.37790204124E+00  0.90007721681E+02  0.89999982807E+02 0.  0.
         12    1    1    2    0    0  0.18301709931E+00 -0.11030646853E+01 -0.37790204124E+00  0.11802783194E+01  0.00000000000E+00 0. -1.
         11    1    3    3    0    0 -0.30579020464E+02  0.13206377924E+02  0.11280215313E+02  0.35167146148E+02  0.51100000000E-03 0. -1.
        -11    1    3    3    0    0 -0.10318392895E+02  0.14304838234E+01 -0.49206055326E+01  0.11520758438E+02  0.51100000000E-03 0.  1.
        -12    1    3    3    0    0  0.40714396259E+02 -0.13533797062E+02 -0.59817077393E+01  0.43319817095E+02  0.00000000000E+00 0.  1.
</event>
<event>
 7    1  0.2148778E-015  0.9000778E+02  0.7816164E-02  0.1186339E+00
        -11   -1    0    0    0    0  0.00000000000E+00  0.00000000000E+00  0.45593999997E+02  0.45594000000E+02  0.51100000000E-03 0.  1.
         11   -1    0    0    0    0 -0.00000000000E+00 -0.00000000000E+00 -0.45593999997E+02  0.45594000000E+02  0.51100000000E-03 0. -1.
    9900012    2    1    2    0    0 -0.67789642938E+00  0.80128701703E+00  0.53974392120E+00  0.90007776312E+02  0.90000038160E+02 0.  0.
         12    1    1    2    0    0  0.67789642938E+00 -0.80128701703E+00 -0.53974392120E+00  0.11802236877E+01  0.00000000000E+00 0. -1.
         11    1    3    3    0    0 -0.58686635215E+01  0.66064890119E+01  0.57187069390E+01  0.10525707478E+02  0.51100000000E-03 0. -1.
        -11    1    3    3    0    0 -0.30266125310E+02  0.13625563713E+02 -0.17088630919E+02  0.37332501051E+02  0.51100000000E-03 0.  1.
         12    1    3    3    0    0  0.35456892402E+02 -0.19430765708E+02  0.11909667901E+02  0.42149567783E+02  0.00000000000E+00 0. -1.
</event>
<event>
 7    1  0.2148778E-015  0.9000773E+02  0.7816164E-02  0.1186339E+00
        -11   -1    0    0    0    0  0.00000000000E+00  0.00000000000E+00  0.45593999997E+02  0.45594000000E+02  0.51100000000E-03 0.  1.
         11   -1    0    0    0    0 -0.00000000000E+00 -0.00000000000E+00 -0.45593999997E+02  0.45594000000E+02  0.51100000000E-03 0. -1.
    9900012    2    1    2    0    0  0.69315484774E-01 -0.11188215647E+01  0.36942611934E+00  0.90007728003E+02  0.89999989212E+02 0.  0.
         12    1    1    2    0    0 -0.69315484774E-01  0.11188215647E+01 -0.36942611934E+00  0.11802719973E+01  0.00000000000E+00 0. -1.
         11    1    3    3    0    0 -0.36458976880E+01  0.77143679719E+01 -0.23304710236E+01  0.88450629512E+01  0.51100000000E-03 0. -1.
        -11    1    3    3    0    0 -0.29633733359E+02  0.18444843956E+02 -0.98854452557E+01  0.36277988499E+02  0.51100000000E-03 0.  1.
         12    1    3    3    0    0  0.33348946532E+02 -0.27278033492E+02  0.12585342399E+02  0.44884676553E+02  0.00000000000E+00 0. -1.
</event>
<event>
 7    1  0.2148778E-015  0.9000780E+02  0.7816164E-02  0.1186339E+00
        -11   -1    0    0    0    0  0.00000000000E+00  0.00000000000E+00  0.45593999997E+02  0.45594000000E+02  0.51100000000E-03 0.  1.
         11   -1    0    0    0    0 -0.00000000000E+00 -0.00000000000E+00 -0.45593999997E+02  0.45594000000E+02  0.51100000000E-03 0. -1.
    9900012    2    1    2    0    0  0.10844920519E+01  0.25499031548E+00 -0.38951225993E+00  0.90007803884E+02  0.90000066095E+02 0.  0.
         12    1    1    2    0    0 -0.10844920519E+01 -0.25499031548E+00  0.38951225993E+00  0.11801961160E+01  0.00000000000E+00 0. -1.
         11    1    3    3    0    0  0.89107717196E+01  0.36575419871E+01 -0.27681246120E+01  0.10022074643E+02  0.51100000000E-03 0. -1.
        -11    1    3    3    0    0 -0.22490576764E+01  0.25941544686E+02  0.29705159490E+02  0.39502132875E+02  0.51100000000E-03 0.  1.
         12    1    3    3    0    0 -0.55772219913E+01 -0.29344096358E+02 -0.27326547138E+02  0.40483596365E+02  0.00000000000E+00 0. -1.
</event>
<event>
 7    1  0.2148778E-015  0.9000771E+02  0.7816164E-02  0.1186339E+00
        -11   -1    0    0    0    0  0.00000000000E+00  0.00000000000E+00  0.45593999997E+02  0.45594000000E+02  0.51100000000E-03 0.  1.
         11   -1    0    0    0    0 -0.00000000000E+00 -0.00000000000E+00 -0.45593999997E+02  0.45594000000E+02  0.51100000000E-03 0. -1.
    9900012    2    1    2    0    0  0.98516266390E-01  0.35982908553E+00  0.11197778814E+01  0.90007709811E+02  0.89999970781E+02 0.  0.
         12    1    1    2    0    0 -0.98516266390E-01 -0.35982908553E+00 -0.11197778814E+01  0.11802901885E+01  0.00000000000E+00 0. -1.
         11    1    3    3    0    0 -0.29947989138E+02 -0.77715221606E+01 -0.16371473565E+02  0.35004339117E+02  0.51100000000E-03 0. -1.
        -11    1    3    3    0    0 -0.54036630533E+01  0.73638801564E+01 -0.73377315592E+01  0.11716168744E+02  0.51100000000E-03 0.  1.
        -12    1    3    3    0    0  0.35450168458E+02  0.76747108981E+00  0.24828983005E+02  0.43287201950E+02  0.00000000000E+00 0.  1.
</event>
<event>
 7    1  0.2148778E-015  0.9000776E+02  0.7816164E-02  0.1186339E+00
        -11   -1    0    0    0    0  0.00000000000E+00  0.00000000000E+00  0.45593999997E+02  0.45594000000E+02  0.51100000000E-03 0. -1.
         11   -1    0    0    0    0 -0.00000000000E+00 -0.00000000000E+00 -0.45593999997E+02  0.45594000000E+02  0.51100000000E-03 0.  1.
    9900012    2    1    2    0    0  0.16863358902E-01  0.10209927761E+01  0.59182267489E+00  0.90007760745E+02  0.90000022386E+02 0.  0.
         12    1    1    2    0    0 -0.16863358902E-01 -0.10209927761E+01 -0.59182267489E+00  0.11802392555E+01  0.00000000000E+00 0. -1.
         11    1    3    3    0    0 -0.18566108139E+02  0.29126906602E+02  0.95975961123E+01  0.35849559426E+02  0.51100000000E-03 0. -1.
        -11    1    3    3    0    0 -0.33698175167E+01  0.64529502877E+01  0.70938466511E+01  0.10164590404E+02  0.51100000000E-03 0.  1.
        -12    1    3    3    0    0  0.21952789015E+02 -0.34558864113E+02 -0.16099620089E+02  0.43993610915E+02  0.00000000000E+00 0.  1.
</event>
<event>
 7    1  0.2148778E-015  0.9000784E+02  0.7816164E-02  0.1186339E+00
        -11   -1    0    0    0    0  0.00000000000E+00  0.00000000000E+00  0.45593999997E+02  0.45594000000E+02  0.51100000000E-03 0. -1.
         11   -1    0    0    0    0 -0.00000000000E+00 -0.00000000000E+00 -0.45593999997E+02  0.45594000000E+02  0.51100000000E-03 0.  1.
    9900012    2    1    2    0    0  0.95661127725E+00  0.69111433382E+00 -0.58381182588E-02  0.90007839739E+02  0.90000102423E+02 0.  0.
         12    1    1    2    0    0 -0.95661127725E+00 -0.69111433382E+00  0.58381182588E-02  0.11801602611E+01  0.00000000000E+00 0. -1.
         11    1    3    3    0    0 -0.29757958143E+01  0.86410248159E+01 -0.91315294848E+00  0.91845805112E+01  0.51100000000E-03 0. -1.
        -11    1    3    3    0    0  0.11331784711E+02  0.31324800879E+02 -0.16567777426E+02  0.37204082356E+02  0.51100000000E-03 0.  1.
         12    1    3    3    0    0 -0.73993776193E+01 -0.39274711361E+02  0.17475092257E+02  0.43619176872E+02  0.00000000000E+00 0. -1.
</event>
<event>
 7    1  0.2148778E-015  0.9000772E+02  0.7816164E-02  0.1186339E+00
        -11   -1    0    0    0    0  0.00000000000E+00  0.00000000000E+00  0.45593999997E+02  0.45594000000E+02  0.51100000000E-03 0. -1.
         11   -1    0    0    0    0 -0.00000000000E+00 -0.00000000000E+00 -0.45593999997E+02  0.45594000000E+02  0.51100000000E-03 0.  1.
    9900012    2    1    2    0    0  0.10800952681E+01  0.46285551260E+00 -0.11057160928E+00  0.90007717367E+02  0.89999978436E+02 0.  0.
         12    1    1    2    0    0 -0.10800952681E+01 -0.46285551260E+00  0.11057160928E+00  0.11802826333E+01  0.00000000000E+00 0. -1.
         11    1    3    3    0    0 -0.95064746063E+01 -0.61789586222E+01  0.31760597236E+02  0.33723702734E+02  0.51100000000E-03 0. -1.
        -11    1    3    3    0    0 -0.45673789349E+01  0.21514215261E+01  0.10178629156E+02  0.11361956551E+02  0.51100000000E-03 0.  1.
        -12    1    3    3    0    0  0.15153948809E+02  0.44903926087E+01 -0.42049798001E+02  0.44922058081E+02  0.00000000000E+00 0.  1.
</event>
<event>
 7    1  0.2148778E-015  0.9000771E+02  0.7816164E-02  0.1186339E+00
        -11   -1    0    0    0    0  0.00000000000E+00  0.00000000000E+00  0.45593999997E+02  0.45594000000E+02  0.51100000000E-03 0. -1.
         11   -1    0    0    0    0 -0.00000000000E+00 -0.00000000000E+00 -0.45593999997E+02  0.45594000000E+02  0.51100000000E-03 0.  1.
    9900012    2    1    2    0    0 -0.34651397899E+00 -0.11282749570E+01  0.16956242710E-02  0.90007712242E+02  0.89999973244E+02 0.  0.
         12    1    1    2    0    0  0.34651397899E+00  0.11282749570E+01 -0.16956242710E-02  0.11802877579E+01  0.00000000000E+00 0. -1.
         11    1    3    3    0    0  0.89131557691E+01 -0.33017930366E+01 -0.23796746516E+01  0.97984200119E+01  0.51100000000E-03 0. -1.
        -11    1    3    3    0    0 -0.30240548074E+02 -0.28999892656E+02 -0.40227145765E+01  0.42091171933E+02  0.51100000000E-03 0.  1.
         12    1    3    3    0    0  0.20980878326E+02  0.31173410735E+02  0.64040848524E+01  0.38118120297E+02  0.00000000000E+00 0. -1.
</event>
<event>
 7    1  0.2148778E-015  0.9000765E+02  0.7816164E-02  0.1186339E+00
        -11   -1    0    0    0    0  0.00000000000E+00  0.00000000000E+00  0.45593999997E+02  0.45594000000E+02  0.51100000000E-03 0.  1.
         11   -1    0    0    0    0 -0.00000000000E+00 -0.00000000000E+00 -0.45593999997E+02  0.45594000000E+02  0.51100000000E-03 0. -1.
    9900012    2    1    2    0    0  0.52120235763E+00  0.10353721569E+01  0.22265034539E+00  0.90007652349E+02  0.89999912560E+02 0.  0.
         12    1    1    2    0    0 -0.52120235763E+00 -0.10353721569E+01 -0.22265034539E+00  0.11803476510E+01  0.00000000000E+00 0. -1.
         11    1    3    3    0    0 -0.14284402709E+01 -0.11926397310E+02  0.84435239247E-01  0.12011932566E+02  0.51100000000E-03 0. -1.
        -11    1    3    3    0    0 -0.59338900516E+00 -0.28602712157E+02  0.16762333868E+02  0.33157851110E+02  0.51100000000E-03 0.  1.
         12    1    3    3    0    0  0.25430316337E+01  0.41564481624E+02 -0.16624118761E+02  0.44837868673E+02  0.00000000000E+00 0. -1.
</event>
<event>
 7    1  0.2148778E-015  0.9000769E+02  0.7816164E-02  0.1186339E+00
        -11   -1    0    0    0    0  0.00000000000E+00  0.00000000000E+00  0.45593999997E+02  0.45594000000E+02  0.51100000000E-03 0.  1.
         11   -1    0    0    0    0 -0.00000000000E+00 -0.00000000000E+00 -0.45593999997E+02  0.45594000000E+02  0.51100000000E-03 0. -1.
    9900012    2    1    2    0    0  0.37992561732E+00  0.68737181709E+00  0.88108461804E+00  0.90007689196E+02  0.89999949893E+02 0.  0.
         12    1    1    2    0    0 -0.37992561732E+00 -0.68737181709E+00 -0.88108461804E+00  0.11803108039E+01  0.00000000000E+00 0. -1.
         11    1    3    3    0    0 -0.38793058542E+02 -0.53350628467E+01  0.17379520644E+02  0.42841708937E+02  0.51100000000E-03 0. -1.
        -11    1    3    3    0    0  0.90877900525E+01 -0.56174385449E+01  0.51452205104E+00  0.10696180489E+02  0.51100000000E-03 0.  1.
        -12    1    3    3    0    0  0.30085194107E+02  0.11639873209E+02 -0.17012958077E+02  0.36469799770E+02  0.00000000000E+00 0.  1.
</event>
<event>
 7    1  0.2148778E-015  0.9000756E+02  0.7816164E-02  0.1186339E+00
        -11   -1    0    0    0    0  0.00000000000E+00  0.00000000000E+00  0.45593999997E+02  0.45594000000E+02  0.51100000000E-03 0.  1.
         11   -1    0    0    0    0 -0.00000000000E+00 -0.00000000000E+00 -0.45593999997E+02  0.45594000000E+02  0.51100000000E-03 0. -1.
    9900012    2    1    2    0    0  0.83621020986E+00 -0.82937308744E+00  0.79510384255E-01  0.90007564007E+02  0.89999823051E+02 0.  0.
         12    1    1    2    0    0 -0.83621020986E+00  0.82937308744E+00 -0.79510384255E-01  0.11804359934E+01  0.00000000000E+00 0. -1.
         11    1    3    3    0    0 -0.26688085086E+02 -0.12946832861E+02  0.13104537046E+02  0.32428432866E+02  0.51100000000E-03 0. -1.
        -11    1    3    3    0    0 -0.60893137377E+01 -0.66313797446E+01  0.94146607599E+01  0.13026541237E+02  0.51100000000E-03 0.  1.
        -12    1    3    3    0    0  0.33613609034E+02  0.18748839518E+02 -0.22439687421E+02  0.44552589904E+02  0.00000000000E+00 0.  1.
</event>
<event>
 7    1  0.2148778E-015  0.9000771E+02  0.7816164E-02  0.1186339E+00
        -11   -1    0    0    0    0  0.00000000000E+00  0.00000000000E+00  0.45593999997E+02  0.45594000000E+02  0.51100000000E-03 0. -1.
         11   -1    0    0    0    0 -0.00000000000E+00 -0.00000000000E+00 -0.45593999997E+02  0.45594000000E+02  0.51100000000E-03 0.  1.
    9900012    2    1    2    0    0  0.40829966519E+00 -0.11018865171E+01 -0.11054793596E+00  0.90007710477E+02  0.89999971455E+02 0.  0.
         12    1    1    2    0    0 -0.40829966519E+00  0.11018865171E+01  0.11054793596E+00  0.11802895235E+01  0.00000000000E+00 0. -1.
         11    1    3    3    0    0  0.55501427445E+01  0.72485041228E+01  0.55754345036E+01  0.10697213033E+02  0.51100000000E-03 0. -1.
        -11    1    3    3    0    0  0.33471148747E+02  0.12525021695E+01 -0.17518424272E+02  0.37799229481E+02  0.51100000000E-03 0.  1.
         12    1    3    3    0    0 -0.38612991827E+02 -0.96028928093E+01  0.11832441832E+02  0.41511267962E+02  0.00000000000E+00 0. -1.
</event>
<event>
 7    1  0.2148778E-015  0.9000772E+02  0.7816164E-02  0.1186339E+00
        -11   -1    0    0    0    0  0.00000000000E+00  0.00000000000E+00  0.45593999997E+02  0.45594000000E+02  0.51100000000E-03 0. -1.
         11   -1    0    0    0    0 -0.00000000000E+00 -0.00000000000E+00 -0.45593999997E+02  0.45594000000E+02  0.51100000000E-03 0.  1.
    9900012    2    1    2    0    0 -0.46462968209E+00 -0.86213149153E-01 -0.10815506337E+01  0.90007718160E+02  0.89999979240E+02 0.  0.
         12    1    1    2    0    0  0.46462968209E+00  0.86213149153E-01  0.10815506337E+01  0.11802818400E+01  0.00000000000E+00 0. -1.
         11    1    3    3    0    0 -0.78482112443E+01 -0.12381576846E+02 -0.29526743893E+01  0.14953800562E+02  0.51100000000E-03 0. -1.
        -11    1    3    3    0    0 -0.24785244155E+02  0.18659701067E+02 -0.18813608528E+02  0.36282842196E+02  0.51100000000E-03 0.  1.
         12    1    3    3    0    0  0.32168825717E+02 -0.63643373700E+01  0.20684732284E+02  0.38771075402E+02  0.00000000000E+00 0. -1.
</event>
<event>
 7    1  0.2148778E-015  0.9000773E+02  0.7816164E-02  0.1186339E+00
        -11   -1    0    0    0    0  0.00000000000E+00  0.00000000000E+00  0.45593999997E+02  0.45594000000E+02  0.51100000000E-03 0. -1.
         11   -1    0    0    0    0 -0.00000000000E+00 -0.00000000000E+00 -0.45593999997E+02  0.45594000000E+02  0.51100000000E-03 0.  1.
    9900012    2    1    2    0    0 -0.11085550463E+01 -0.27227983572E+00  0.30002729194E+00  0.90007725890E+02  0.89999987071E+02 0.  0.
         12    1    1    2    0    0  0.11085550463E+01  0.27227983572E+00 -0.30002729194E+00  0.11802741103E+01  0.00000000000E+00 0. -1.
         11    1    3    3    0    0  0.12376887145E+02 -0.22709796115E+02 -0.11966665460E+02  0.28497776361E+02  0.51100000000E-03 0. -1.
        -11    1    3    3    0    0  0.15929564730E+02 -0.47633518016E+01  0.13514871097E+02  0.21426439132E+02  0.51100000000E-03 0.  1.
        -12    1    3    3    0    0 -0.29415006921E+02  0.27200868081E+02 -0.12481783444E+01  0.40083510397E+02  0.00000000000E+00 0.  1.
</event>
<event>
 7    1  0.2148778E-015  0.9000770E+02  0.7816164E-02  0.1186339E+00
        -11   -1    0    0    0    0  0.00000000000E+00  0.00000000000E+00  0.45593999997E+02  0.45594000000E+02  0.51100000000E-03 0. -1.
         11   -1    0    0    0    0 -0.00000000000E+00 -0.00000000000E+00 -0.45593999997E+02  0.45594000000E+02  0.51100000000E-03 0.  1.
    9900012    2    1    2    0    0 -0.26904966766E+00 -0.11434464478E+01 -0.11510315636E+00  0.90007700784E+02  0.89999961634E+02 0.  0.
         12    1    1    2    0    0  0.26904966766E+00  0.11434464478E+01  0.11510315636E+00  0.11802992160E+01  0.00000000000E+00 0. -1.
         11    1    3    3    0    0 -0.14199492783E+01  0.12616667269E+02  0.87973685920E+00  0.12726762594E+02  0.51100000000E-03 0. -1.
        -11    1    3    3    0    0  0.13783093674E+02  0.21871433145E+02 -0.22076491775E+02  0.33995657787E+02  0.51100000000E-03 0.  1.
         12    1    3    3    0    0 -0.12632194063E+02 -0.35631546862E+02  0.21081651760E+02  0.43285280402E+02  0.00000000000E+00 0. -1.
</event>
<event>
 7    1  0.2148778E-015  0.9000764E+02  0.7816164E-02  0.1186339E+00
        -11   -1    0    0    0    0  0.00000000000E+00  0.00000000000E+00  0.45593999997E+02  0.45594000000E+02  0.51100000000E-03 0.  1.
         11   -1    0    0    0    0 -0.00000000000E+00 -0.00000000000E+00 -0.45593999997E+02  0.45594000000E+02  0.51100000000E-03 0. -1.
    9900012    2    1    2    0    0 -0.13808586677E+00  0.35147089335E-01  0.11717303259E+01  0.90007637775E+02  0.89999897794E+02 0.  0.
         12    1    1    2    0    0  0.13808586677E+00 -0.35147089335E-01 -0.11717303259E+01  0.11803622245E+01  0.00000000000E+00 0. -1.
         11    1    3    3    0    0 -0.25971550554E+01  0.92100766542E+01  0.45292014831E+01  0.10586991673E+02  0.51100000000E-03 0. -1.
        -11    1    3    3    0    0 -0.29195796564E+02  0.18190755079E+02 -0.12481569961E+02  0.36593547195E+02  0.51100000000E-03 0.  1.
         12    1    3    3    0    0  0.31654865752E+02 -0.27365684644E+02  0.91240988039E+01  0.42827098907E+02  0.00000000000E+00 0. -1.
</event>
<event>
 7    1  0.2148778E-015  0.9000776E+02  0.7816164E-02  0.1186339E+00
        -11   -1    0    0    0    0  0.00000000000E+00  0.00000000000E+00  0.45593999997E+02  0.45594000000E+02  0.51100000000E-03 0.  1.
         11   -1    0    0    0    0 -0.00000000000E+00 -0.00000000000E+00 -0.45593999997E+02  0.45594000000E+02  0.51100000000E-03 0. -1.
    9900012    2    1    2    0    0  0.62620658106E+00  0.76016182857E+00  0.65036637547E+00  0.90007763960E+02  0.90000025644E+02 0.  0.
         12    1    1    2    0    0 -0.62620658106E+00 -0.76016182857E+00 -0.65036637547E+00  0.11802360400E+01  0.00000000000E+00 0. -1.
         11    1    3    3    0    0  0.28802130117E+02 -0.21457814019E+02 -0.11337578691E+01  0.35934466587E+02  0.51100000000E-03 0. -1.
        -11    1    3    3    0    0  0.49768375024E+01 -0.73038583315E+01  0.38340239050E+01  0.96340540593E+01  0.51100000000E-03 0.  1.
        -12    1    3    3    0    0 -0.33152761038E+02  0.29521834179E+02 -0.20498996604E+01  0.44439243314E+02  0.00000000000E+00 0.  1.
</event>
<event>
 7    1  0.2148778E-015  0.9000765E+02  0.7816164E-02  0.1186339E+00
        -11   -1    0    0    0    0  0.00000000000E+00  0.00000000000E+00  0.45593999997E+02  0.45594000000E+02  0.51100000000E-03 0. -1.
         11   -1    0    0    0    0 -0.00000000000E+00 -0.00000000000E+00 -0.45593999997E+02  0.45594000000E+02  0.51100000000E-03 0.  1.
    9900012    2    1    2    0    0 -0.65098789113E+00 -0.74290810350E+00  0.64616117252E+00  0.90007651769E+02  0.89999911973E+02 0.  0.
         12    1    1    2    0    0  0.65098789113E+00  0.74290810350E+00 -0.64616117252E+00  0.11803482306E+01  0.00000000000E+00 0. -1.
         11    1    3    3    0    0 -0.13832272773E+02 -0.16549502872E+02  0.35713928203E+02  0.41721726754E+02  0.51100000000E-03 0. -1.
        -11    1    3    3    0    0 -0.58845773645E+01 -0.27816858819E+01 -0.80448911483E+01  0.10348251106E+02  0.51100000000E-03 0.  1.
        -12    1    3    3    0    0  0.19065862247E+02  0.18588280650E+02 -0.27022875882E+02  0.37937673910E+02  0.00000000000E+00 0.  1.
</event>
<event>
 7    1  0.2148778E-015  0.9000748E+02  0.7816164E-02  0.1186340E+00
        -11   -1    0    0    0    0  0.00000000000E+00  0.00000000000E+00  0.45593999997E+02  0.45594000000E+02  0.51100000000E-03 0. -1.
         11   -1    0    0    0    0 -0.00000000000E+00 -0.00000000000E+00 -0.45593999997E+02  0.45594000000E+02  0.51100000000E-03 0.  1.
    9900012    2    1    2    0    0  0.16163249371E+00 -0.10958012832E+01 -0.40832439803E+00  0.90007477095E+02  0.89999734992E+02 0.  0.
         12    1    1    2    0    0 -0.16163249371E+00  0.10958012832E+01  0.40832439803E+00  0.11805229051E+01  0.00000000000E+00 0. -1.
         11    1    3    3    0    0  0.24849965851E+00 -0.93137561542E+01 -0.41611264654E+01  0.10204057012E+02  0.51100000000E-03 0. -1.
        -11    1    3    3    0    0 -0.98846861867E+01 -0.25980784262E+02 -0.22359279024E+02  0.35674157742E+02  0.51100000000E-03 0.  1.
         12    1    3    3    0    0  0.97978190219E+01  0.34198739132E+02  0.26112081092E+02  0.44129262341E+02  0.00000000000E+00 0. -1.
</event>
<event>
 7    1  0.2148778E-015  0.9000791E+02  0.7816164E-02  0.1186339E+00
        -11   -1    0    0    0    0  0.00000000000E+00  0.00000000000E+00  0.45593999997E+02  0.45594000000E+02  0.51100000000E-03 0.  1.
         11   -1    0    0    0    0 -0.00000000000E+00 -0.00000000000E+00 -0.45593999997E+02  0.45594000000E+02  0.51100000000E-03 0. -1.
    9900012    2    1    2    0    0 -0.50555351958E+00  0.41502684822E+00  0.98223069010E+00  0.90007911540E+02  0.90000175172E+02 0.  0.
         12    1    1    2    0    0  0.50555351958E+00 -0.41502684822E+00 -0.98223069010E+00  0.11800884604E+01  0.00000000000E+00 0. -1.
         11    1    3    3    0    0  0.88386649291E+01 -0.25291762444E+02 -0.25172828631E+02  0.36762297899E+02  0.51100000000E-03 0. -1.
        -11    1    3    3    0    0  0.31521674427E+01  0.11675665821E+01 -0.84071282355E+01  0.90542352929E+01  0.51100000000E-03 0.  1.
        -12    1    3    3    0    0 -0.12496385891E+02  0.24539222710E+02  0.34562187557E+02  0.44191378348E+02  0.00000000000E+00 0.  1.
</event>
<event>
 7    1  0.2148778E-015  0.9000775E+02  0.7816164E-02  0.1186339E+00
        -11   -1    0    0    0    0  0.00000000000E+00  0.00000000000E+00  0.45593999997E+02  0.45594000000E+02  0.51100000000E-03 0.  1.
         11   -1    0    0    0    0 -0.00000000000E+00 -0.00000000000E+00 -0.45593999997E+02  0.45594000000E+02  0.51100000000E-03 0. -1.
    9900012    2    1    2    0    0  0.83802038280E+00 -0.66809242761E+00  0.49432433097E+00  0.90007753332E+02  0.90000014876E+02 0.  0.
         12    1    1    2    0    0 -0.83802038280E+00  0.66809242761E+00 -0.49432433097E+00  0.11802466683E+01  0.00000000000E+00 0. -1.
         11    1    3    3    0    0 -0.10624062226E+02  0.36345926251E+02 -0.38962229262E+01  0.38066751984E+02  0.51100000000E-03 0. -1.
        -11    1    3    3    0    0 -0.92277117613E+01 -0.14380290521E+01 -0.36158275988E+01  0.10014629369E+02  0.51100000000E-03 0.  1.
        -12    1    3    3    0    0  0.20689794370E+02 -0.35575989627E+02  0.80063748560E+01  0.41926371979E+02  0.00000000000E+00 0.  1.
</event>
<event>
 7    1  0.2148778E-015  0.9000785E+02  0.7816164E-02  0.1186339E+00
        -11   -1    0    0    0    0  0.00000000000E+00  0.00000000000E+00  0.45593999997E+02  0.45594000000E+02  0.51100000000E-03 0. -1.
         11   -1    0    0    0    0 -0.00000000000E+00 -0.00000000000E+00 -0.45593999997E+02  0.45594000000E+02  0.51100000000E-03 0.  1.
    9900012    2    1    2    0    0 -0.92696166652E+00  0.72553361402E+00  0.84231813368E-01  0.90007850876E+02  0.90000113708E+02 0.  0.
         12    1    1    2    0    0  0.92696166652E+00 -0.72553361402E+00 -0.84231813368E-01  0.11801491239E+01  0.00000000000E+00 0. -1.
         11    1    3    3    0    0  0.12179118752E+02  0.10209838722E+02  0.36873709244E+02  0.40152735573E+02  0.51100000000E-03 0. -1.
        -11    1    3    3    0    0  0.18396884742E+01 -0.86033632061E+01  0.13328628511E+01  0.88982490289E+01  0.51100000000E-03 0.  1.
        -12    1    3    3    0    0 -0.14945768893E+02 -0.88094190172E+00 -0.38122340282E+02  0.40956866274E+02  0.00000000000E+00 0.  1.
</event>
<event>
 7    1  0.2148778E-015  0.9000774E+02  0.7816164E-02  0.1186339E+00
        -11   -1    0    0    0    0  0.00000000000E+00  0.00000000000E+00  0.45593999997E+02  0.45594000000E+02  0.51100000000E-03 0.  1.
         11   -1    0    0    0    0 -0.00000000000E+00 -0.00000000000E+00 -0.45593999997E+02  0.45594000000E+02  0.51100000000E-03 0. -1.
    9900012    2    1    2    0    0 -0.38149592096E-01  0.11061540481E+01 -0.40985965727E+00  0.90007738542E+02  0.89999999891E+02 0.  0.
         12    1    1    2    0    0  0.38149592096E-01 -0.11061540481E+01  0.40985965727E+00  0.11802614576E+01  0.00000000000E+00 0. -1.
         11    1    3    3    0    0 -0.20761843173E+02 -0.20994247717E+02 -0.25900599008E+02  0.39276629162E+02  0.51100000000E-03 0. -1.
        -11    1    3    3    0    0  0.13249010978E+02 -0.85140007245E+00 -0.27727908016E+01  0.13562799972E+02  0.51100000000E-03 0.  1.
        -12    1    3    3    0    0  0.74746826024E+01  0.22951801837E+02  0.28263530152E+02  0.37168309408E+02  0.00000000000E+00 0.  1.
</event>
<event>
 7    1  0.2148778E-015  0.9000771E+02  0.7816164E-02  0.1186339E+00
        -11   -1    0    0    0    0  0.00000000000E+00  0.00000000000E+00  0.45593999997E+02  0.45594000000E+02  0.51100000000E-03 0.  1.
         11   -1    0    0    0    0 -0.00000000000E+00 -0.00000000000E+00 -0.45593999997E+02  0.45594000000E+02  0.51100000000E-03 0. -1.
    9900012    2    1    2    0    0 -0.16866982528E+00  0.75185365625E+00  0.89406459527E+00  0.90007709811E+02  0.89999970780E+02 0.  0.
         12    1    1    2    0    0  0.16866982528E+00 -0.75185365625E+00 -0.89406459527E+00  0.11802901893E+01  0.00000000000E+00 0. -1.
         11    1    3    3    0    0  0.12810972532E+02  0.31549588944E+02 -0.15843410719E+02  0.37556773600E+02  0.51100000000E-03 0. -1.
        -11    1    3    3    0    0 -0.43295220991E+01  0.84444770899E+01  0.24332351995E+01  0.97966621216E+01  0.51100000000E-03 0.  1.
        -12    1    3    3    0    0 -0.86501202580E+01 -0.39242212378E+02  0.14304240115E+02  0.42654274089E+02  0.00000000000E+00 0.  1.
</event>
<event>
 7    1  0.2148778E-015  0.9000772E+02  0.7816164E-02  0.1186339E+00
        -11   -1    0    0    0    0  0.00000000000E+00  0.00000000000E+00  0.45593999997E+02  0.45594000000E+02  0.51100000000E-03 0. -1.
         11   -1    0    0    0    0 -0.00000000000E+00 -0.00000000000E+00 -0.45593999997E+02  0.45594000000E+02  0.51100000000E-03 0.  1.
    9900012    2    1    2    0    0  0.38497681234E+00  0.29342760980E-01 -0.11153486005E+01  0.90007715863E+02  0.89999976912E+02 0.  0.
         12    1    1    2    0    0 -0.38497681234E+00 -0.29342760980E-01  0.11153486005E+01  0.11802841371E+01  0.00000000000E+00 0. -1.
         11    1    3    3    0    0 -0.41801658030E+01 -0.49246143162E+01  0.80505493371E+01  0.10321674147E+02  0.51100000000E-03 0. -1.
        -11    1    3    3    0    0  0.32711373596E+02  0.11940913649E+02 -0.28359161207E+02  0.44909480134E+02  0.51100000000E-03 0.  1.
         12    1    3    3    0    0 -0.28146230980E+02 -0.69869565722E+01  0.19193263269E+02  0.34776561582E+02  0.00000000000E+00 0. -1.
</event>
<event>
 7    1  0.2148778E-015  0.9000778E+02  0.7816164E-02  0.1186339E+00
        -11   -1    0    0    0    0  0.00000000000E+00  0.00000000000E+00  0.45593999997E+02  0.45594000000E+02  0.51100000000E-03 0. -1.
         11   -1    0    0    0    0 -0.00000000000E+00 -0.00000000000E+00 -0.45593999997E+02  0.45594000000E+02  0.51100000000E-03 0.  1.
    9900012    2    1    2    0    0  0.91910037909E+00 -0.21887255848E+00 -0.70728956318E+00  0.90007784244E+02  0.90000046196E+02 0.  0.
         12    1    1    2    0    0 -0.91910037909E+00  0.21887255848E+00  0.70728956318E+00  0.11802157557E+01  0.00000000000E+00 0. -1.
         11    1    3    3    0    0 -0.27988549414E+01  0.97721833596E+01  0.44088052933E+01  0.11080014484E+02  0.51100000000E-03 0. -1.
        -11    1    3    3    0    0 -0.17483986205E+02 -0.33783407313E+02  0.15386740366E+02  0.41033646713E+02  0.51100000000E-03 0.  1.
         12    1    3    3    0    0  0.21201941525E+02  0.23792351395E+02 -0.20502835222E+02  0.37894123047E+02  0.00000000000E+00 0. -1.
</event>
<event>
 7    1  0.2148778E-015  0.9000764E+02  0.7816164E-02  0.1186339E+00
        -11   -1    0    0    0    0  0.00000000000E+00  0.00000000000E+00  0.45593999997E+02  0.45594000000E+02  0.51100000000E-03 0.  1.
         11   -1    0    0    0    0 -0.00000000000E+00 -0.00000000000E+00 -0.45593999997E+02  0.45594000000E+02  0.51100000000E-03 0. -1.
    9900012    2    1    2    0    0 -0.11011381590E+01  0.33751154340E+00 -0.25851373161E+00  0.90007640463E+02  0.89999900517E+02 0.  0.
         12    1    1    2    0    0  0.11011381590E+01 -0.33751154340E+00  0.25851373161E+00  0.11803595370E+01  0.00000000000E+00 0. -1.
         11    1    3    3    0    0  0.53617960812E+01 -0.39144550077E+01 -0.31565717503E+02  0.32256260431E+02  0.51100000000E-03 0. -1.
        -11    1    3    3    0    0  0.46191937936E+01 -0.20607691247E+02  0.11147114349E+02  0.23880369520E+02  0.51100000000E-03 0.  1.
        -12    1    3    3    0    0 -0.11082128034E+02  0.24859657798E+02  0.20160089423E+02  0.33871010512E+02  0.00000000000E+00 0.  1.
</event>
<event>
 7    1  0.2148778E-015  0.9000775E+02  0.7816164E-02  0.1186339E+00
        -11   -1    0    0    0    0  0.00000000000E+00  0.00000000000E+00  0.45593999997E+02  0.45594000000E+02  0.51100000000E-03 0.  1.
         11   -1    0    0    0    0 -0.00000000000E+00 -0.00000000000E+00 -0.45593999997E+02  0.45594000000E+02  0.51100000000E-03 0. -1.
    9900012    2    1    2    0    0  0.10987489291E-01 -0.75689932640E+00  0.90551812353E+00  0.90007754099E+02  0.90000015653E+02 0.  0.
         12    1    1    2    0    0 -0.10987489291E-01  0.75689932640E+00 -0.90551812353E+00  0.11802459012E+01  0.00000000000E+00 0. -1.
         11    1    3    3    0    0  0.57730149943E+01  0.48425605966E+01  0.50631903986E+01  0.90782152722E+01  0.51100000000E-03 0. -1.
        -11    1    3    3    0    0 -0.13767582409E+02  0.32993082867E+02  0.12867452208E+02  0.37995541436E+02  0.51100000000E-03 0.  1.
         12    1    3    3    0    0  0.80055549042E+01 -0.38592542790E+02 -0.17025124483E+02  0.42933997391E+02  0.00000000000E+00 0. -1.
</event>
<event>
 7    1  0.2148778E-015  0.9000777E+02  0.7816164E-02  0.1186339E+00
        -11   -1    0    0    0    0  0.00000000000E+00  0.00000000000E+00  0.45593999997E+02  0.45594000000E+02  0.51100000000E-03 0.  1.
         11   -1    0    0    0    0 -0.00000000000E+00 -0.00000000000E+00 -0.45593999997E+02  0.45594000000E+02  0.51100000000E-03 0. -1.
    9900012    2    1    2    0    0  0.66038439101E+00  0.77342036103E+00  0.59887836688E+00  0.90007770405E+02  0.90000032174E+02 0.  0.
         12    1    1    2    0    0 -0.66038439101E+00 -0.77342036103E+00 -0.59887836688E+00  0.11802295951E+01  0.00000000000E+00 0. -1.
         11    1    3    3    0    0  0.55792559563E-01  0.14273620630E+02 -0.36752089988E+02  0.39426583386E+02  0.51100000000E-03 0. -1.
        -11    1    3    3    0    0  0.91377795590E+01 -0.16399925624E+01 -0.11936744085E+01  0.93602056457E+01  0.51100000000E-03 0.  1.
        -12    1    3    3    0    0 -0.85331877276E+01 -0.11860207707E+02  0.38544642764E+02  0.41220981374E+02  0.00000000000E+00 0.  1.
</event>
<event>
 7    1  0.2148778E-015  0.9000775E+02  0.7816164E-02  0.1186339E+00
        -11   -1    0    0    0    0  0.00000000000E+00  0.00000000000E+00  0.45593999997E+02  0.45594000000E+02  0.51100000000E-03 0.  1.
         11   -1    0    0    0    0 -0.00000000000E+00 -0.00000000000E+00 -0.45593999997E+02  0.45594000000E+02  0.51100000000E-03 0. -1.
    9900012    2    1    2    0    0  0.57910395785E+00  0.53327944792E+00  0.87933765551E+00  0.90007752960E+02  0.90000014499E+02 0.  0.
         12    1    1    2    0    0 -0.57910395785E+00 -0.53327944792E+00 -0.87933765551E+00  0.11802470402E+01  0.00000000000E+00 0. -1.
         11    1    3    3    0    0 -0.80777984691E+01  0.29755495802E+01 -0.23591758206E+01  0.89258296099E+01  0.51100000000E-03 0. -1.
        -11    1    3    3    0    0  0.22919636472E+02  0.19138124202E+02 -0.27717227282E+02  0.40740915827E+02  0.51100000000E-03 0.  1.
         12    1    3    3    0    0 -0.14262734045E+02 -0.21580394334E+02  0.30955740758E+02  0.40341007523E+02  0.00000000000E+00 0. -1.
</event>
<event>
 7    1  0.2148778E-015  0.9000779E+02  0.7816164E-02  0.1186339E+00
        -11   -1    0    0    0    0  0.00000000000E+00  0.00000000000E+00  0.45593999997E+02  0.45594000000E+02  0.51100000000E-03 0. -1.
         11   -1    0    0    0    0 -0.00000000000E+00 -0.00000000000E+00 -0.45593999997E+02  0.45594000000E+02  0.51100000000E-03 0.  1.
    9900012    2    1    2    0    0  0.53995804735E+00  0.74301311694E+00 -0.74112220209E+00  0.90007794381E+02  0.90000056467E+02 0.  0.
         12    1    1    2    0    0 -0.53995804735E+00 -0.74301311694E+00  0.74112220209E+00  0.11802056191E+01  0.00000000000E+00 0. -1.
         11    1    3    3    0    0  0.14048496014E+02 -0.91739728614E+01  0.33841117350E+02  0.37772254924E+02  0.51100000000E-03 0. -1.
        -11    1    3    3    0    0 -0.27278798230E+01 -0.92437913089E+01  0.17245567983E+01  0.97909704576E+01  0.51100000000E-03 0.  1.
        -12    1    3    3    0    0 -0.10780658144E+02  0.19160777287E+02 -0.36306796350E+02  0.42444568999E+02  0.00000000000E+00 0.  1.
</event>
<event>
 7    1  0.2148778E-015  0.9000849E+02  0.7816164E-02  0.1186338E+00
        -11   -1    0    0    0    0  0.00000000000E+00  0.00000000000E+00  0.45593999997E+02  0.45594000000E+02  0.51100000000E-03 0. -1.
         11   -1    0    0    0    0 -0.00000000000E+00 -0.00000000000E+00 -0.45593999997E+02  0.45594000000E+02  0.51100000000E-03 0.  1.
    9900012    2    1    2    0    0 -0.54811487472E-01  0.76721490035E+00 -0.89420961392E+00  0.90008494241E+02  0.90000765561E+02 0.  0.
         12    1    1    2    0    0  0.54811487472E-01 -0.76721490035E+00  0.89420961392E+00  0.11795057593E+01  0.00000000000E+00 0. -1.
         11    1    3    3    0    0 -0.72098531049E+01  0.77248027687E+00 -0.41033781474E+01  0.83316517002E+01  0.51100000000E-03 0. -1.
        -11    1    3    3    0    0 -0.17730003006E+02  0.55014143381E+01 -0.32723816885E+02  0.37622689405E+02  0.51100000000E-03 0.  1.
         12    1    3    3    0    0  0.24885044623E+02 -0.55066797147E+01  0.35932985419E+02  0.44054153135E+02  0.00000000000E+00 0. -1.
</event>
<event>
 7    1  0.2148778E-015  0.9000773E+02  0.7816164E-02  0.1186339E+00
        -11   -1    0    0    0    0  0.00000000000E+00  0.00000000000E+00  0.45593999997E+02  0.45594000000E+02  0.51100000000E-03 0. -1.
         11   -1    0    0    0    0 -0.00000000000E+00 -0.00000000000E+00 -0.45593999997E+02  0.45594000000E+02  0.51100000000E-03 0.  1.
    9900012    2    1    2    0    0 -0.57040740481E+00 -0.98516161855E+00  0.31164431054E+00  0.90007732997E+02  0.89999994273E+02 0.  0.
         12    1    1    2    0    0  0.57040740481E+00  0.98516161855E+00 -0.31164431054E+00  0.11802670030E+01  0.00000000000E+00 0. -1.
         11    1    3    3    0    0  0.29828452017E+00 -0.21522170464E+01 -0.92936012534E+01  0.95442148126E+01  0.51100000000E-03 0. -1.
        -11    1    3    3    0    0  0.31225633823E+02  0.76140963243E+01 -0.18702555193E+02  0.37186022125E+02  0.51100000000E-03 0.  1.
         12    1    3    3    0    0 -0.32094325748E+02 -0.64470408965E+01  0.28307800757E+02  0.43277496060E+02  0.00000000000E+00 0. -1.
</event>
<event>
 7    1  0.2148778E-015  0.9000740E+02  0.7816164E-02  0.1186340E+00
        -11   -1    0    0    0    0  0.00000000000E+00  0.00000000000E+00  0.45593999997E+02  0.45594000000E+02  0.51100000000E-03 0.  1.
         11   -1    0    0    0    0 -0.00000000000E+00 -0.00000000000E+00 -0.45593999997E+02  0.45594000000E+02  0.51100000000E-03 0. -1.
    9900012    2    1    2    0    0 -0.86375168560E+00  0.77800996624E+00 -0.20601234698E+00  0.90007403723E+02  0.89999660652E+02 0.  0.
         12    1    1    2    0    0  0.86375168560E+00 -0.77800996624E+00  0.20601234698E+00  0.11805962769E+01  0.00000000000E+00 0. -1.
         11    1    3    3    0    0  0.35085294409E+02 -0.22434156896E+01 -0.13767151858E+02  0.37756393740E+02  0.51100000000E-03 0. -1.
        -11    1    3    3    0    0 -0.15422314100E+01 -0.61612001882E+01 -0.83105330834E+01  0.10459628381E+02  0.51100000000E-03 0.  1.
        -12    1    3    3    0    0 -0.34406814684E+02  0.91826258440E+01  0.21871672595E+02  0.41791381602E+02  0.00000000000E+00 0.  1.
</event>
<event>
 7    1  0.2148778E-015  0.9000777E+02  0.7816164E-02  0.1186339E+00
        -11   -1    0    0    0    0  0.00000000000E+00  0.00000000000E+00  0.45593999997E+02  0.45594000000E+02  0.51100000000E-03 0.  1.
         11   -1    0    0    0    0 -0.00000000000E+00 -0.00000000000E+00 -0.45593999997E+02  0.45594000000E+02  0.51100000000E-03 0. -1.
    9900012    2    1    2    0    0  0.69380206205E+00 -0.48651404976E+00  0.82150805688E+00  0.90007774297E+02  0.90000036118E+02 0.  0.
         12    1    1    2    0    0 -0.69380206205E+00  0.48651404976E+00 -0.82150805688E+00  0.11802257028E+01  0.00000000000E+00 0. -1.
         11    1    3    3    0    0 -0.14246071281E+02  0.92141154397E+01 -0.33771637607E+02  0.37793835175E+02  0.51100000000E-03 0. -1.
        -11    1    3    3    0    0 -0.52237712873E+01  0.21321651105E+01 -0.41218701174E+01  0.69873978022E+01  0.51100000000E-03 0.  1.
        -12    1    3    3    0    0  0.20163644631E+02 -0.11832794600E+02  0.38715015781E+02  0.45226541320E+02  0.00000000000E+00 0.  1.
</event>
<event>
 7    1  0.2148778E-015  0.9000767E+02  0.7816164E-02  0.1186339E+00
        -11   -1    0    0    0    0  0.00000000000E+00  0.00000000000E+00  0.45593999997E+02  0.45594000000E+02  0.51100000000E-03 0.  1.
         11   -1    0    0    0    0 -0.00000000000E+00 -0.00000000000E+00 -0.45593999997E+02  0.45594000000E+02  0.51100000000E-03 0. -1.
    9900012    2    1    2    0    0  0.31231151534E+00 -0.66480439849E+00  0.92394184406E+00  0.90007672968E+02  0.89999933451E+02 0.  0.
         12    1    1    2    0    0 -0.31231151534E+00  0.66480439849E+00 -0.92394184406E+00  0.11803270318E+01  0.00000000000E+00 0. -1.
         11    1    3    3    0    0 -0.36841504689E+02  0.10587943967E+02  0.13637804047E+02  0.40686493148E+02  0.51100000000E-03 0. -1.
        -11    1    3    3    0    0  0.41386148793E+01 -0.29266329502E+01  0.79969883757E+01  0.94681115798E+01  0.51100000000E-03 0.  1.
        -12    1    3    3    0    0  0.33015201326E+02 -0.83261154149E+01 -0.20710850578E+02  0.39853068240E+02  0.00000000000E+00 0.  1.
</event>
<event>
 7    1  0.2148778E-015  0.9000771E+02  0.7816164E-02  0.1186339E+00
        -11   -1    0    0    0    0  0.00000000000E+00  0.00000000000E+00  0.45593999997E+02  0.45594000000E+02  0.51100000000E-03 0.  1.
         11   -1    0    0    0    0 -0.00000000000E+00 -0.00000000000E+00 -0.45593999997E+02  0.45594000000E+02  0.51100000000E-03 0. -1.
    9900012    2    1    2    0    0 -0.49809372132E+00 -0.96429982245E+00 -0.46379840812E+00  0.90007711702E+02  0.89999972697E+02 0.  0.
         12    1    1    2    0    0  0.49809372132E+00  0.96429982245E+00  0.46379840812E+00  0.11802882979E+01  0.00000000000E+00 0. -1.
         11    1    3    3    0    0  0.77812855227E+01 -0.63429954675E+01  0.17034445555E+01  0.10182520292E+02  0.51100000000E-03 0. -1.
        -11    1    3    3    0    0 -0.37333013512E+02 -0.35122221093E+01  0.19731414965E+02  0.42372377073E+02  0.51100000000E-03 0.  1.
         12    1    3    3    0    0  0.29053634268E+02  0.88909177544E+01 -0.21898657929E+02  0.37452814337E+02  0.00000000000E+00 0. -1.
</event>
<event>
 7    1  0.2148778E-015  0.9000779E+02  0.7816164E-02  0.1186339E+00
        -11   -1    0    0    0    0  0.00000000000E+00  0.00000000000E+00  0.45593999997E+02  0.45594000000E+02  0.51100000000E-03 0.  1.
         11   -1    0    0    0    0 -0.00000000000E+00 -0.00000000000E+00 -0.45593999997E+02  0.45594000000E+02  0.51100000000E-03 0. -1.
    9900012    2    1    2    0    0  0.52643377145E+00  0.10554626889E+01  0.42096942842E-01  0.90007785547E+02  0.90000047516E+02 0.  0.
         12    1    1    2    0    0 -0.52643377145E+00 -0.10554626889E+01 -0.42096942842E-01  0.11802144534E+01  0.00000000000E+00 0. -1.
         11    1    3    3    0    0  0.70229769335E+00  0.36860344769E+01 -0.79830152570E+01  0.88209186069E+01  0.51100000000E-03 0. -1.
        -11    1    3    3    0    0 -0.38607803202E+02 -0.12829248012E+02  0.77976196012E+01  0.41424086524E+02  0.51100000000E-03 0.  1.
         12    1    3    3    0    0  0.38431939280E+02  0.10198676224E+02  0.22749259862E+00  0.39762780416E+02  0.00000000000E+00 0. -1.
</event>
<event>
 7    1  0.5931232E-015  0.9000777E+02  0.7816164E-02  0.1186339E+00
        -11   -1    0    0    0    0  0.00000000000E+00  0.00000000000E+00  0.45593999997E+02  0.45594000000E+02  0.51100000000E-03 0. -1.
         11   -1    0    0    0    0 -0.00000000000E+00 -0.00000000000E+00 -0.45593999997E+02  0.45594000000E+02  0.51100000000E-03 0.  1.
    9900012    2    1    2    0    0 -0.42965747064E+00  0.76618780723E-01 -0.10965696812E+01  0.90007770766E+02  0.90000032540E+02 0.  0.
         12    1    1    2    0    0  0.42965747064E+00 -0.76618780723E-01  0.10965696812E+01  0.11802292342E+01  0.00000000000E+00 0. -1.
         11    1    3    3    0    0 -0.88244515913E+01 -0.16362879946E+01  0.32406509685E+01  0.95420230166E+01  0.51100000000E-03 0. -1.
        -11    1    3    3    0    0 -0.10947539053E+01 -0.26286988479E+02 -0.30996305833E+02  0.40656798017E+02  0.51100000000E-03 0.  1.
         12    1    3    3    0    0  0.94895480259E+01  0.27999895255E+02  0.26659085183E+02  0.39808949733E+02  0.00000000000E+00 0. -1.
</event>
<event>
 7    1  0.2148778E-015  0.9000767E+02  0.7816164E-02  0.1186339E+00
        -11   -1    0    0    0    0  0.00000000000E+00  0.00000000000E+00  0.45593999997E+02  0.45594000000E+02  0.51100000000E-03 0. -1.
         11   -1    0    0    0    0 -0.00000000000E+00 -0.00000000000E+00 -0.45593999997E+02  0.45594000000E+02  0.51100000000E-03 0.  1.
    9900012    2    1    2    0    0  0.25956555398E+00 -0.73139775130E+00 -0.88930326966E+00  0.90007670702E+02  0.89999931155E+02 0.  0.
         12    1    1    2    0    0 -0.25956555398E+00  0.73139775130E+00  0.88930326966E+00  0.11803292985E+01  0.00000000000E+00 0. -1.
         11    1    3    3    0    0 -0.32757713935E+02 -0.18779286496E+00 -0.16351872832E+02  0.36612659474E+02  0.51100000000E-03 0. -1.
        -11    1    3    3    0    0 -0.86938080136E+01  0.26313087204E+01  0.45711594895E+01  0.10168656878E+02  0.51100000000E-03 0.  1.
        -12    1    3    3    0    0  0.41711087502E+02 -0.31749136068E+01  0.10891410072E+02  0.43226354350E+02  0.00000000000E+00 0.  1.
</event>
<event>
 7    1  0.2148778E-015  0.9000772E+02  0.7816164E-02  0.1186339E+00
        -11   -1    0    0    0    0  0.00000000000E+00  0.00000000000E+00  0.45593999997E+02  0.45594000000E+02  0.51100000000E-03 0.  1.
         11   -1    0    0    0    0 -0.00000000000E+00 -0.00000000000E+00 -0.45593999997E+02  0.45594000000E+02  0.51100000000E-03 0. -1.
    9900012    2    1    2    0    0 -0.11312934796E+01  0.31171441090E+00 -0.12675387138E+00  0.90007721493E+02  0.89999982616E+02 0.  0.
         12    1    1    2    0    0  0.11312934796E+01 -0.31171441090E+00  0.12675387138E+00  0.11802785073E+01  0.00000000000E+00 0. -1.
         11    1    3    3    0    0  0.81732934917E+01  0.43393452533E+01 -0.11033840939E+01  0.93193401294E+01  0.51100000000E-03 0. -1.
        -11    1    3    3    0    0  0.32227842669E+02  0.92081751590E+01 -0.11352439131E+02  0.35387882211E+02  0.51100000000E-03 0.  1.
         12    1    3    3    0    0 -0.41532429641E+02 -0.13235806001E+02  0.12329069353E+02  0.45300499153E+02  0.00000000000E+00 0. -1.
</event>
<event>
 7    1  0.2466277E-015  0.9000775E+02  0.7816164E-02  0.1186339E+00
        -11   -1    0    0    0    0  0.00000000000E+00  0.00000000000E+00  0.45593999997E+02  0.45594000000E+02  0.51100000000E-03 0.  1.
         11   -1    0    0    0    0 -0.00000000000E+00 -0.00000000000E+00 -0.45593999997E+02  0.45594000000E+02  0.51100000000E-03 0. -1.
    9900012    2    1    2    0    0  0.99877832863E+00 -0.62638696778E+00  0.55463491664E-01  0.90007747916E+02  0.90000009388E+02 0.  0.
         12    1    1    2    0    0 -0.99877832863E+00  0.62638696778E+00 -0.55463491664E-01  0.11802520841E+01  0.00000000000E+00 0. -1.
         11    1    3    3    0    0  0.47924762962E+01  0.45904207091E+01  0.63874644587E+01  0.92108356737E+01  0.51100000000E-03 0. -1.
        -11    1    3    3    0    0 -0.29371955925E+01  0.34111896227E+02  0.13425210145E+02  0.36776145120E+02  0.51100000000E-03 0.  1.
         12    1    3    3    0    0 -0.85650237511E+00 -0.39328703904E+02 -0.19757211112E+02  0.44020767122E+02  0.00000000000E+00 0. -1.
</event>
<event>
 7    1  0.2148778E-015  0.9000774E+02  0.7816164E-02  0.1186339E+00
        -11   -1    0    0    0    0  0.00000000000E+00  0.00000000000E+00  0.45593999997E+02  0.45594000000E+02  0.51100000000E-03 0. -1.
         11   -1    0    0    0    0 -0.00000000000E+00 -0.00000000000E+00 -0.45593999997E+02  0.45594000000E+02  0.51100000000E-03 0.  1.
    9900012    2    1    2    0    0  0.98409636628E+00  0.64827453920E+00  0.65602534341E-01  0.90007741880E+02  0.90000003273E+02 0.  0.
         12    1    1    2    0    0 -0.98409636628E+00 -0.64827453920E+00 -0.65602534341E-01  0.11802581196E+01  0.00000000000E+00 0. -1.
         11    1    3    3    0    0 -0.11382786434E+02 -0.31151322079E+02  0.25988958352E+02  0.42135479715E+02  0.51100000000E-03 0. -1.
        -11    1    3    3    0    0 -0.18489202510E+01  0.10598349016E+02  0.95949738089E+00  0.10801117694E+02  0.51100000000E-03 0.  1.
        -12    1    3    3    0    0  0.14215803052E+02  0.21201247603E+02 -0.26882853199E+02  0.37071144471E+02  0.00000000000E+00 0.  1.
</event>
<event>
 7    1  0.2148778E-015  0.9000788E+02  0.7816164E-02  0.1186339E+00
        -11   -1    0    0    0    0  0.00000000000E+00  0.00000000000E+00  0.45593999997E+02  0.45594000000E+02  0.51100000000E-03 0.  1.
         11   -1    0    0    0    0 -0.00000000000E+00 -0.00000000000E+00 -0.45593999997E+02  0.45594000000E+02  0.51100000000E-03 0. -1.
    9900012    2    1    2    0    0  0.10161710550E+01 -0.46687889441E+00  0.37697448429E+00  0.90007877431E+02  0.90000140613E+02 0.  0.
         12    1    1    2    0    0 -0.10161710550E+01  0.46687889441E+00 -0.37697448429E+00  0.11801225686E+01  0.00000000000E+00 0. -1.
         11    1    3    3    0    0  0.66233796250E+01 -0.90827207606E+01 -0.36602088897E+02  0.38289396522E+02  0.51100000000E-03 0. -1.
        -11    1    3    3    0    0 -0.77675397388E+01 -0.12371979107E+02  0.11209307126E+02  0.18413286158E+02  0.51100000000E-03 0.  1.
         12    1    3    3    0    0  0.21603311688E+01  0.20987820974E+02  0.25769756256E+02  0.33305194752E+02  0.00000000000E+00 0. -1.
</event>
<event>
 7    1  0.2148778E-015  0.9000775E+02  0.7816164E-02  0.1186339E+00
        -11   -1    0    0    0    0  0.00000000000E+00  0.00000000000E+00  0.45593999997E+02  0.45594000000E+02  0.51100000000E-03 0.  1.
         11   -1    0    0    0    0 -0.00000000000E+00 -0.00000000000E+00 -0.45593999997E+02  0.45594000000E+02  0.51100000000E-03 0. -1.
    9900012    2    1    2    0    0 -0.11016718072E+00  0.10902263021E+01  0.43847847224E+00  0.90007748515E+02  0.90000009995E+02 0.  0.
         12    1    1    2    0    0  0.11016718072E+00 -0.10902263021E+01 -0.43847847224E+00  0.11802514851E+01  0.00000000000E+00 0. -1.
         11    1    3    3    0    0  0.11051968774E+02 -0.15961744612E+01  0.12807649859E+01  0.11239846347E+02  0.51100000000E-03 0. -1.
        -11    1    3    3    0    0  0.31362086511E+02 -0.10821395327E+02  0.57321272973E+01  0.33668090988E+02  0.51100000000E-03 0.  1.
         12    1    3    3    0    0 -0.42524222466E+02  0.13507796091E+02 -0.65744138110E+01  0.45099811180E+02  0.00000000000E+00 0. -1.
</event>
<event>
 7    1  0.2148778E-015  0.9000774E+02  0.7816164E-02  0.1186339E+00
        -11   -1    0    0    0    0  0.00000000000E+00  0.00000000000E+00  0.45593999997E+02  0.45594000000E+02  0.51100000000E-03 0. -1.
         11   -1    0    0    0    0 -0.00000000000E+00 -0.00000000000E+00 -0.45593999997E+02  0.45594000000E+02  0.51100000000E-03 0.  1.
    9900012    2    1    2    0    0 -0.78548088682E+00  0.82102747662E-01 -0.87709585226E+00  0.90007738072E+02  0.89999999415E+02 0.  0.
         12    1    1    2    0    0  0.78548088682E+00 -0.82102747662E-01  0.87709585226E+00  0.11802619280E+01  0.00000000000E+00 0. -1.
         11    1    3    3    0    0  0.34482785260E+01 -0.84648708686E+01 -0.32575131309E+01  0.97034043342E+01  0.51100000000E-03 0. -1.
        -11    1    3    3    0    0  0.72656563672E+01 -0.32861373164E+02  0.12929385892E+02  0.36053136181E+02  0.51100000000E-03 0.  1.
         12    1    3    3    0    0 -0.11499415780E+02  0.41408346781E+02 -0.10548968613E+02  0.44251197557E+02  0.00000000000E+00 0. -1.
</event>
<event>
 7    1  0.2217966E-015  0.9000774E+02  0.7816164E-02  0.1186339E+00
        -11   -1    0    0    0    0  0.00000000000E+00  0.00000000000E+00  0.45593999997E+02  0.45594000000E+02  0.51100000000E-03 0.  1.
         11   -1    0    0    0    0 -0.00000000000E+00 -0.00000000000E+00 -0.45593999997E+02  0.45594000000E+02  0.51100000000E-03 0. -1.
    9900012    2    1    2    0    0 -0.60446376942E+00 -0.98667072135E+00  0.23262754693E+00  0.90007741072E+02  0.90000002454E+02 0.  0.
         12    1    1    2    0    0  0.60446376942E+00  0.98667072135E+00 -0.23262754693E+00  0.11802589277E+01  0.00000000000E+00 0. -1.
         11    1    3    3    0    0 -0.51721170701E+01  0.12759140043E-01  0.77068215168E+01  0.92814899631E+01  0.51100000000E-03 0. -1.
        -11    1    3    3    0    0 -0.11570714277E+02 -0.74296949282E+01  0.33504933811E+02  0.36216879842E+02  0.51100000000E-03 0.  1.
         12    1    3    3    0    0  0.16138367578E+02  0.64302650668E+01 -0.40979127780E+02  0.44509371267E+02  0.00000000000E+00 0. -1.
</event>
<event>
 7    1  0.2148778E-015  0.9000773E+02  0.7816164E-02  0.1186339E+00
        -11   -1    0    0    0    0  0.00000000000E+00  0.00000000000E+00  0.45593999997E+02  0.45594000000E+02  0.51100000000E-03 0.  1.
         11   -1    0    0    0    0 -0.00000000000E+00 -0.00000000000E+00 -0.45593999997E+02  0.45594000000E+02  0.51100000000E-03 0. -1.
    9900012    2    1    2    0    0  0.91462492337E+00 -0.25329578047E+00  0.70166626556E+00  0.90007731789E+02  0.89999993048E+02 0.  0.
         12    1    1    2    0    0 -0.91462492337E+00  0.25329578047E+00 -0.70166626556E+00  0.11802682115E+01  0.00000000000E+00 0. -1.
         11    1    3    3    0    0 -0.37900471982E+01 -0.33400289092E+02 -0.13241880379E+02  0.36128813507E+02  0.51100000000E-03 0. -1.
        -11    1    3    3    0    0 -0.12823006738E+01 -0.54247279422E+01 -0.74987434739E+01  0.93436139803E+01  0.51100000000E-03 0.  1.
        -12    1    3    3    0    0  0.59869727954E+01  0.38571721253E+02  0.21442290118E+02  0.44535304301E+02  0.00000000000E+00 0.  1.
</event>
<event>
 7    1  0.2148778E-015  0.9000773E+02  0.7816164E-02  0.1186339E+00
        -11   -1    0    0    0    0  0.00000000000E+00  0.00000000000E+00  0.45593999997E+02  0.45594000000E+02  0.51100000000E-03 0.  1.
         11   -1    0    0    0    0 -0.00000000000E+00 -0.00000000000E+00 -0.45593999997E+02  0.45594000000E+02  0.51100000000E-03 0. -1.
    9900012    2    1    2    0    0 -0.53194113879E-02  0.45990286404E+00  0.10869652992E+01  0.90007732021E+02  0.89999993284E+02 0.  0.
         12    1    1    2    0    0  0.53194113879E-02 -0.45990286404E+00 -0.10869652992E+01  0.11802679790E+01  0.00000000000E+00 0. -1.
         11    1    3    3    0    0 -0.29614364510E+01  0.85013000597E+01 -0.43039230775E+01  0.99782745340E+01  0.51100000000E-03 0. -1.
        -11    1    3    3    0    0 -0.33607739816E+02  0.48640281361E+01  0.19029321986E+02  0.38926264151E+02  0.51100000000E-03 0.  1.
         12    1    3    3    0    0  0.36563856855E+02 -0.12905425332E+02 -0.13638433610E+02  0.41103193336E+02  0.00000000000E+00 0. -1.
</event>
<event>
 7    1  0.2148778E-015  0.9000765E+02  0.7816164E-02  0.1186339E+00
        -11   -1    0    0    0    0  0.00000000000E+00  0.00000000000E+00  0.45593999997E+02  0.45594000000E+02  0.51100000000E-03 0.  1.
         11   -1    0    0    0    0 -0.00000000000E+00 -0.00000000000E+00 -0.45593999997E+02  0.45594000000E+02  0.51100000000E-03 0. -1.
    9900012    2    1    2    0    0  0.11509059726E+01  0.23303208045E+00 -0.11969068448E+00  0.90007654979E+02  0.89999915225E+02 0.  0.
         12    1    1    2    0    0 -0.11509059726E+01 -0.23303208045E+00  0.11969068448E+00  0.11803450209E+01  0.00000000000E+00 0. -1.
         11    1    3    3    0    0 -0.16248068614E+02 -0.25892887162E+02 -0.23608160419E+02  0.38623653089E+02  0.51100000000E-03 0. -1.
        -11    1    3    3    0    0  0.14642853734E+02  0.45468645432E+01 -0.44589509865E+01  0.15967760858E+02  0.51100000000E-03 0.  1.
        -12    1    3    3    0    0  0.27561208519E+01  0.21579054700E+02  0.27947420721E+02  0.35416241032E+02  0.00000000000E+00 0.  1.
</event>
<event>
 7    1  0.2148778E-015  0.9000784E+02  0.7816164E-02  0.1186339E+00
        -11   -1    0    0    0    0  0.00000000000E+00  0.00000000000E+00  0.45593999997E+02  0.45594000000E+02  0.51100000000E-03 0. -1.
         11   -1    0    0    0    0 -0.00000000000E+00 -0.00000000000E+00 -0.45593999997E+02  0.45594000000E+02  0.51100000000E-03 0.  1.
    9900012    2    1    2    0    0 -0.12236437226E+00  0.89532271576E+00 -0.75907711174E+00  0.90007841593E+02  0.90000104302E+02 0.  0.
         12    1    1    2    0    0  0.12236437226E+00 -0.89532271576E+00  0.75907711174E+00  0.11801584074E+01  0.00000000000E+00 0. -1.
         11    1    3    3    0    0  0.33542213769E+02  0.89067002636E+01  0.23545285099E+02  0.41937928713E+02  0.51100000000E-03 0. -1.
        -11    1    3    3    0    0 -0.59606858082E+01  0.71342018613E+01 -0.22755232245E+01  0.95710301278E+01  0.51100000000E-03 0.  1.
        -12    1    3    3    0    0 -0.27703892333E+02 -0.15145579409E+02 -0.22028838987E+02  0.38498882752E+02  0.00000000000E+00 0.  1.
</event>
<event>
 7    1  0.2148778E-015  0.9000775E+02  0.7816164E-02  0.1186339E+00
        -11   -1    0    0    0    0  0.00000000000E+00  0.00000000000E+00  0.45593999997E+02  0.45594000000E+02  0.51100000000E-03 0. -1.
         11   -1    0    0    0    0 -0.00000000000E+00 -0.00000000000E+00 -0.45593999997E+02  0.45594000000E+02  0.51100000000E-03 0.  1.
    9900012    2    1    2    0    0 -0.11485994718E+01  0.76274758392E-01  0.26056182309E+00  0.90007749582E+02  0.90000011077E+02 0.  0.
         12    1    1    2    0    0  0.11485994718E+01 -0.76274758392E-01 -0.26056182309E+00  0.11802504180E+01  0.00000000000E+00 0. -1.
         11    1    3    3    0    0  0.21657836056E+02  0.26242223744E+02 -0.11539337357E+02  0.35928713817E+02  0.51100000000E-03 0. -1.
        -11    1    3    3    0    0  0.92766212322E+01  0.68189878561E+00 -0.28900696374E+01  0.97402869675E+01  0.51100000000E-03 0.  1.
        -12    1    3    3    0    0 -0.32083056760E+02 -0.26847847771E+02  0.14689968817E+02  0.44338748797E+02  0.00000000000E+00 0.  1.
</event>
<event>
 7    1  0.2148778E-015  0.9000776E+02  0.7816164E-02  0.1186339E+00
        -11   -1    0    0    0    0  0.00000000000E+00  0.00000000000E+00  0.45593999997E+02  0.45594000000E+02  0.51100000000E-03 0. -1.
         11   -1    0    0    0    0 -0.00000000000E+00 -0.00000000000E+00 -0.45593999997E+02  0.45594000000E+02  0.51100000000E-03 0.  1.
    9900012    2    1    2    0    0  0.50544521665E+00 -0.10352555575E+01 -0.25641023951E+00  0.90007756319E+02  0.90000017902E+02 0.  0.
         12    1    1    2    0    0 -0.50544521665E+00  0.10352555575E+01  0.25641023951E+00  0.11802436813E+01  0.00000000000E+00 0. -1.
         11    1    3    3    0    0  0.86118667939E+01  0.50195967040E+01  0.31502140822E+00  0.99729554043E+01  0.51100000000E-03 0. -1.
        -11    1    3    3    0    0 -0.23519549625E+02 -0.31175304272E+02 -0.20841009809E+02  0.44265296804E+02  0.51100000000E-03 0.  1.
         12    1    3    3    0    0  0.15413128048E+02  0.25120452011E+02  0.20269578161E+02  0.35769504110E+02  0.00000000000E+00 0. -1.
</event>
<event>
 7    1  0.2148778E-015  0.9000780E+02  0.7816164E-02  0.1186339E+00
        -11   -1    0    0    0    0  0.00000000000E+00  0.00000000000E+00  0.45593999997E+02  0.45594000000E+02  0.51100000000E-03 0. -1.
         11   -1    0    0    0    0 -0.00000000000E+00 -0.00000000000E+00 -0.45593999997E+02  0.45594000000E+02  0.51100000000E-03 0.  1.
    9900012    2    1    2    0    0 -0.82981294811E+00  0.69289604154E+00 -0.47347198065E+00  0.90007800792E+02  0.90000062963E+02 0.  0.
         12    1    1    2    0    0  0.82981294811E+00 -0.69289604154E+00  0.47347198065E+00  0.11801992076E+01  0.00000000000E+00 0. -1.
         11    1    3    3    0    0 -0.18992310239E+02  0.51584186174E+01  0.24511100401E+02  0.31434235699E+02  0.51100000000E-03 0. -1.
        -11    1    3    3    0    0 -0.14348368553E+02 -0.58818273540E+01  0.28315375563E+01  0.15763539525E+02  0.51100000000E-03 0.  1.
        -12    1    3    3    0    0  0.32510865843E+02  0.14163047781E+01 -0.27816109938E+02  0.42810025569E+02  0.00000000000E+00 0.  1.
</event>
<event>
 7    1  0.2148778E-015  0.9000777E+02  0.7816164E-02  0.1186339E+00
        -11   -1    0    0    0    0  0.00000000000E+00  0.00000000000E+00  0.45593999997E+02  0.45594000000E+02  0.51100000000E-03 0.  1.
         11   -1    0    0    0    0 -0.00000000000E+00 -0.00000000000E+00 -0.45593999997E+02  0.45594000000E+02  0.51100000000E-03 0. -1.
    9900012    2    1    2    0    0 -0.36029705407E+00  0.12338598899E+00  0.11170946304E+01  0.90007771851E+02  0.90000033640E+02 0.  0.
         12    1    1    2    0    0  0.36029705407E+00 -0.12338598899E+00 -0.11170946304E+01  0.11802281486E+01  0.00000000000E+00 0. -1.
         11    1    3    3    0    0 -0.19205764513E+02  0.93122210624E+01  0.14507362279E+02  0.25807797507E+02  0.51100000000E-03 0. -1.
        -11    1    3    3    0    0 -0.10131957383E+02  0.47250544312E+01  0.16747910610E+02  0.20136415020E+02  0.51100000000E-03 0.  1.
        -12    1    3    3    0    0  0.28977424842E+02 -0.13913889505E+02 -0.30138178258E+02  0.44063559324E+02  0.00000000000E+00 0.  1.
</event>
<event>
 7    1  0.2148778E-015  0.9000771E+02  0.7816164E-02  0.1186339E+00
        -11   -1    0    0    0    0  0.00000000000E+00  0.00000000000E+00  0.45593999997E+02  0.45594000000E+02  0.51100000000E-03 0. -1.
         11   -1    0    0    0    0 -0.00000000000E+00 -0.00000000000E+00 -0.45593999997E+02  0.45594000000E+02  0.51100000000E-03 0.  1.
    9900012    2    1    2    0    0  0.47925390514E+00 -0.38502707825E+00 -0.10075507069E+01  0.90007708263E+02  0.89999969212E+02 0.  0.
         12    1    1    2    0    0 -0.47925390514E+00  0.38502707825E+00  0.10075507069E+01  0.11802917366E+01  0.00000000000E+00 0. -1.
         11    1    3    3    0    0  0.96868935109E+01 -0.17038241861E+01 -0.31398253622E+00  0.98406050649E+01  0.51100000000E-03 0. -1.
        -11    1    3    3    0    0 -0.20399320407E+02  0.37198808445E+02  0.21120616997E+01  0.42477575586E+02  0.51100000000E-03 0.  1.
         12    1    3    3    0    0  0.11191680801E+02 -0.35880011337E+02 -0.28056298704E+01  0.37689527613E+02  0.00000000000E+00 0. -1.
</event>
<event>
 7    1  0.2148778E-015  0.9000773E+02  0.7816164E-02  0.1186339E+00
        -11   -1    0    0    0    0  0.00000000000E+00  0.00000000000E+00  0.45593999997E+02  0.45594000000E+02  0.51100000000E-03 0.  1.
         11   -1    0    0    0    0 -0.00000000000E+00 -0.00000000000E+00 -0.45593999997E+02  0.45594000000E+02  0.51100000000E-03 0. -1.
    9900012    2    1    2    0    0  0.11693785761E+01 -0.15499892604E+00  0.39548085839E-01  0.90007730975E+02  0.89999992223E+02 0.  0.
         12    1    1    2    0    0 -0.11693785761E+01  0.15499892604E+00 -0.39548085839E-01  0.11802690255E+01  0.00000000000E+00 0. -1.
         11    1    3    3    0    0 -0.73727691149E+01 -0.28403881358E+01 -0.65962786306E+00  0.79284701149E+01  0.51100000000E-03 0. -1.
        -11    1    3    3    0    0 -0.18864792174E+02 -0.20464829558E+01  0.33850587818E+02  0.38806323868E+02  0.51100000000E-03 0.  1.
         12    1    3    3    0    0  0.27406939865E+02  0.47318721656E+01 -0.33151411869E+02  0.43272936992E+02  0.00000000000E+00 0. -1.
</event>
<event>
 7    1  0.2148778E-015  0.9000775E+02  0.7816164E-02  0.1186339E+00
        -11   -1    0    0    0    0  0.00000000000E+00  0.00000000000E+00  0.45593999997E+02  0.45594000000E+02  0.51100000000E-03 0.  1.
         11   -1    0    0    0    0 -0.00000000000E+00 -0.00000000000E+00 -0.45593999997E+02  0.45594000000E+02  0.51100000000E-03 0. -1.
    9900012    2    1    2    0    0  0.86826512702E+00  0.59508199810E-01  0.79722310180E+00  0.90007749929E+02  0.90000011428E+02 0.  0.
         12    1    1    2    0    0 -0.86826512702E+00 -0.59508199810E-01 -0.79722310180E+00  0.11802500712E+01  0.00000000000E+00 0. -1.
         11    1    3    3    0    0  0.26981182895E+01  0.66971862015E+01  0.52064348121E+01  0.89016351888E+01  0.51100000000E-03 0. -1.
        -11    1    3    3    0    0  0.12932346915E+01  0.30973801292E+02  0.19317206519E+02  0.36526747602E+02  0.51100000000E-03 0.  1.
         12    1    3    3    0    0 -0.31230878539E+01 -0.37611479294E+02 -0.23726418229E+02  0.44579367138E+02  0.00000000000E+00 0. -1.
</event>
<event>
 7    1  0.2148778E-015  0.9000767E+02  0.7816164E-02  0.1186339E+00
        -11   -1    0    0    0    0  0.00000000000E+00  0.00000000000E+00  0.45593999997E+02  0.45594000000E+02  0.51100000000E-03 0.  1.
         11   -1    0    0    0    0 -0.00000000000E+00 -0.00000000000E+00 -0.45593999997E+02  0.45594000000E+02  0.51100000000E-03 0. -1.
    9900012    2    1    2    0    0 -0.68351666215E+00 -0.47096159439E+00  0.83915197109E+00  0.90007671282E+02  0.89999931743E+02 0.  0.
         12    1    1    2    0    0  0.68351666215E+00  0.47096159439E+00 -0.83915197109E+00  0.11803287175E+01  0.00000000000E+00 0. -1.
         11    1    3    3    0    0  0.25331791116E+02  0.28208043466E+02 -0.21320405947E+01  0.37972871299E+02  0.51100000000E-03 0. -1.
        -11    1    3    3    0    0 -0.47214938025E+01  0.76533538963E+01  0.41539684816E+01  0.99056440475E+01  0.51100000000E-03 0.  1.
        -12    1    3    3    0    0 -0.21293813976E+02 -0.36332358957E+02 -0.11827759158E+01  0.42129155936E+02  0.00000000000E+00 0.  1.
</event>
<event>
 7    1  0.2148778E-015  0.9000777E+02  0.7816164E-02  0.1186339E+00
        -11   -1    0    0    0    0  0.00000000000E+00  0.00000000000E+00  0.45593999997E+02  0.45594000000E+02  0.51100000000E-03 0.  1.
         11   -1    0    0    0    0 -0.00000000000E+00 -0.00000000000E+00 -0.45593999997E+02  0.45594000000E+02  0.51100000000E-03 0. -1.
    9900012    2    1    2    0    0  0.32210857423E+00  0.10904719525E+01  0.31630577665E+00  0.90007774447E+02  0.90000036269E+02 0.  0.
         12    1    1    2    0    0 -0.32210857423E+00 -0.10904719525E+01 -0.31630577665E+00  0.11802255535E+01  0.00000000000E+00 0. -1.
         11    1    3    3    0    0  0.14160799902E+02 -0.19621810687E+02 -0.23969675310E+02  0.34060079906E+02  0.51100000000E-03 0. -1.
        -11    1    3    3    0    0 -0.87187146019E+01  0.53252757860E+01 -0.12263951974E+02  0.15961800174E+02  0.51100000000E-03 0.  1.
        -12    1    3    3    0    0 -0.51199767257E+01  0.15387006854E+02  0.36549933060E+02  0.39985894367E+02  0.00000000000E+00 0.  1.
</event>
<event>
 7    1  0.2148778E-015  0.9000773E+02  0.7816164E-02  0.1186339E+00
        -11   -1    0    0    0    0  0.00000000000E+00  0.00000000000E+00  0.45593999997E+02  0.45594000000E+02  0.51100000000E-03 0.  1.
         11   -1    0    0    0    0 -0.00000000000E+00 -0.00000000000E+00 -0.45593999997E+02  0.45594000000E+02  0.51100000000E-03 0. -1.
    9900012    2    1    2    0    0  0.90998582013E+00 -0.32878657542E+00  0.67592226740E+00  0.90007726423E+02  0.89999987612E+02 0.  0.
         12    1    1    2    0    0 -0.90998582013E+00  0.32878657542E+00 -0.67592226740E+00  0.11802735770E+01  0.00000000000E+00 0. -1.
         11    1    3    3    0    0 -0.45329647022E+01  0.13553975212E+01  0.89196439901E+01  0.10096777734E+02  0.51100000000E-03 0. -1.
        -11    1    3    3    0    0  0.39264445094E+02 -0.39066848687E+00  0.11257980714E+02  0.40848395322E+02  0.51100000000E-03 0.  1.
         12    1    3    3    0    0 -0.33821494571E+02 -0.12935156098E+01 -0.19501702436E+02  0.39062553367E+02  0.00000000000E+00 0. -1.
</event>
<event>
 7    1  0.2148778E-015  0.9000776E+02  0.7816164E-02  0.1186339E+00
        -11   -1    0    0    0    0  0.00000000000E+00  0.00000000000E+00  0.45593999997E+02  0.45594000000E+02  0.51100000000E-03 0.  1.
         11   -1    0    0    0    0 -0.00000000000E+00 -0.00000000000E+00 -0.45593999997E+02  0.45594000000E+02  0.51100000000E-03 0. -1.
    9900012    2    1    2    0    0  0.95978454227E+00  0.56602682853E-01 -0.68453041029E+00  0.90007757604E+02  0.90000019204E+02 0.  0.
         12    1    1    2    0    0 -0.95978454227E+00 -0.56602682853E-01  0.68453041029E+00  0.11802423962E+01  0.00000000000E+00 0. -1.
         11    1    3    3    0    0 -0.33821463037E+01  0.80487715137E+01 -0.28243817352E+01  0.91759887177E+01  0.51100000000E-03 0. -1.
        -11    1    3    3    0    0 -0.94140165936E+01 -0.13726145695E+02  0.38278611866E+02  0.41740662557E+02  0.51100000000E-03 0.  1.
         12    1    3    3    0    0  0.13755947440E+02  0.57339768638E+01 -0.36138760541E+02  0.39091106329E+02  0.00000000000E+00 0. -1.
</event>
<event>
 7    1  0.2148778E-015  0.9000773E+02  0.7816164E-02  0.1186339E+00
        -11   -1    0    0    0    0  0.00000000000E+00  0.00000000000E+00  0.45593999997E+02  0.45594000000E+02  0.51100000000E-03 0.  1.
         11   -1    0    0    0    0 -0.00000000000E+00 -0.00000000000E+00 -0.45593999997E+02  0.45594000000E+02  0.51100000000E-03 0. -1.
    9900012    2    1    2    0    0  0.11130262072E+01 -0.41731215955E-01  0.39046536812E+00  0.90007732218E+02  0.89999993484E+02 0.  0.
         12    1    1    2    0    0 -0.11130262072E+01  0.41731215955E-01 -0.39046536812E+00  0.11802677815E+01  0.00000000000E+00 0. -1.
         11    1    3    3    0    0  0.21627428313E+01 -0.36248150320E+01  0.11533695985E+02  0.12281811101E+02  0.51100000000E-03 0. -1.
        -11    1    3    3    0    0 -0.10063935660E+00 -0.30165874767E+01  0.32971904488E+02  0.33109763124E+02  0.51100000000E-03 0.  1.
         12    1    3    3    0    0 -0.94907726744E+00  0.65996712927E+01 -0.44115135105E+02  0.44616157994E+02  0.00000000000E+00 0. -1.
</event>
<event>
 7    1  0.2148778E-015  0.9000755E+02  0.7816164E-02  0.1186339E+00
        -11   -1    0    0    0    0  0.00000000000E+00  0.00000000000E+00  0.45593999997E+02  0.45594000000E+02  0.51100000000E-03 0.  1.
         11   -1    0    0    0    0 -0.00000000000E+00 -0.00000000000E+00 -0.45593999997E+02  0.45594000000E+02  0.51100000000E-03 0. -1.
    9900012    2    1    2    0    0 -0.19399062525E+00  0.69306012092E+00  0.93568475610E+00  0.90007546419E+02  0.89999805232E+02 0.  0.
         12    1    1    2    0    0  0.19399062525E+00 -0.69306012092E+00 -0.93568475610E+00  0.11804535809E+01  0.00000000000E+00 0. -1.
         11    1    3    3    0    0  0.31071463603E+02 -0.44483989492E+01 -0.16636903516E+01  0.31432339548E+02  0.51100000000E-03 0. -1.
        -11    1    3    3    0    0  0.13008649984E+02 -0.27324043591E+01 -0.17024831079E+01  0.13401099096E+02  0.51100000000E-03 0.  1.
        -12    1    3    3    0    0 -0.44274104212E+02  0.78738634292E+01  0.43018582156E+01  0.45174107774E+02  0.00000000000E+00 0.  1.
</event>
<event>
 7    1  0.2148778E-015  0.9000775E+02  0.7816164E-02  0.1186339E+00
        -11   -1    0    0    0    0  0.00000000000E+00  0.00000000000E+00  0.45593999997E+02  0.45594000000E+02  0.51100000000E-03 0. -1.
         11   -1    0    0    0    0 -0.00000000000E+00 -0.00000000000E+00 -0.45593999997E+02  0.45594000000E+02  0.51100000000E-03 0.  1.
    9900012    2    1    2    0    0 -0.78390288254E+00  0.88075146722E+00  0.52633658500E-01  0.90007746985E+02  0.90000008446E+02 0.  0.
         12    1    1    2    0    0  0.78390288254E+00 -0.88075146722E+00 -0.52633658500E-01  0.11802530145E+01  0.00000000000E+00 0. -1.
         11    1    3    3    0    0  0.39896225107E+01 -0.42053906981E+01 -0.61771481348E+01  0.84711013477E+01  0.51100000000E-03 0. -1.
        -11    1    3    3    0    0  0.16966117629E+02  0.37919807141E+02  0.71206599128E+01  0.42148128297E+02  0.51100000000E-03 0.  1.
         12    1    3    3    0    0 -0.21739643023E+02 -0.32833664976E+02 -0.89087811956E+00  0.39388517341E+02  0.00000000000E+00 0. -1.
</event>
<event>
 7    1  0.2148778E-015  0.9000773E+02  0.7816164E-02  0.1186339E+00
        -11   -1    0    0    0    0  0.00000000000E+00  0.00000000000E+00  0.45593999997E+02  0.45594000000E+02  0.51100000000E-03 0.  1.
         11   -1    0    0    0    0 -0.00000000000E+00 -0.00000000000E+00 -0.45593999997E+02  0.45594000000E+02  0.51100000000E-03 0. -1.
    9900012    2    1    2    0    0  0.11785515195E+01 -0.13468477095E-01 -0.62162579538E-01  0.90007733390E+02  0.89999994671E+02 0.  0.
         12    1    1    2    0    0 -0.11785515195E+01  0.13468477095E-01  0.62162579538E-01  0.11802666098E+01  0.00000000000E+00 0. -1.
         11    1    3    3    0    0  0.39065056995E+01  0.10277214654E+02  0.81410150734E+01  0.13680572156E+02  0.51100000000E-03 0. -1.
        -11    1    3    3    0    0  0.67217852667E+01 -0.34478603620E+02  0.17969993143E+02  0.39457282706E+02  0.51100000000E-03 0.  1.
         12    1    3    3    0    0 -0.94497394467E+01  0.24187920488E+02 -0.26173170796E+02  0.36869878528E+02  0.00000000000E+00 0. -1.
</event>
<event>
 7    1  0.2148778E-015  0.9000869E+02  0.7816164E-02  0.1186337E+00
        -11   -1    0    0    0    0  0.00000000000E+00  0.00000000000E+00  0.45593999997E+02  0.45594000000E+02  0.51100000000E-03 0.  1.
         11   -1    0    0    0    0 -0.00000000000E+00 -0.00000000000E+00 -0.45593999997E+02  0.45594000000E+02  0.51100000000E-03 0. -1.
    9900012    2    1    2    0    0  0.37037584304E+00  0.37148349049E+00  0.10562122977E+01  0.90008693989E+02  0.90000967945E+02 0.  0.
         12    1    1    2    0    0 -0.37037584304E+00 -0.37148349049E+00 -0.10562122977E+01  0.11793060106E+01  0.00000000000E+00 0. -1.
         11    1    3    3    0    0 -0.41277693221E+02  0.42829254410E+01 -0.10746459257E+02  0.42868144290E+02  0.51100000000E-03 0. -1.
        -11    1    3    3    0    0  0.68955982539E+00  0.28672128958E+01 -0.17979754721E+01  0.34538556140E+01  0.51100000000E-03 0.  1.
        -12    1    3    3    0    0  0.40958509239E+02 -0.67786548464E+01  0.13600647027E+02  0.43686694086E+02  0.00000000000E+00 0.  1.
</event>
<event>
 7    1  0.2148778E-015  0.9000776E+02  0.7816164E-02  0.1186339E+00
        -11   -1    0    0    0    0  0.00000000000E+00  0.00000000000E+00  0.45593999997E+02  0.45594000000E+02  0.51100000000E-03 0. -1.
         11   -1    0    0    0    0 -0.00000000000E+00 -0.00000000000E+00 -0.45593999997E+02  0.45594000000E+02  0.51100000000E-03 0.  1.
    9900012    2    1    2    0    0  0.23704874402E+00  0.95911437183E+00 -0.64565590302E+00  0.90007761028E+02  0.90000022674E+02 0.  0.
         12    1    1    2    0    0 -0.23704874402E+00 -0.95911437183E+00  0.64565590302E+00  0.11802389717E+01  0.00000000000E+00 0. -1.
         11    1    3    3    0    0 -0.59005189136E+01  0.69963795355E+01 -0.61151191981E+01  0.11007276372E+02  0.51100000000E-03 0. -1.
        -11    1    3    3    0    0 -0.66307804100E+01 -0.41024740846E+02  0.34888053522E+01  0.41703337676E+02  0.51100000000E-03 0.  1.
         12    1    3    3    0    0  0.12768348068E+02  0.34987475682E+02  0.19806579429E+01  0.37297146980E+02  0.00000000000E+00 0. -1.
</event>
<event>
 7    1  0.2148778E-015  0.9000775E+02  0.7816164E-02  0.1186339E+00
        -11   -1    0    0    0    0  0.00000000000E+00  0.00000000000E+00  0.45593999997E+02  0.45594000000E+02  0.51100000000E-03 0.  1.
         11   -1    0    0    0    0 -0.00000000000E+00 -0.00000000000E+00 -0.45593999997E+02  0.45594000000E+02  0.51100000000E-03 0. -1.
    9900012    2    1    2    0    0  0.28802211976E+00  0.11082735040E+01 -0.28594554984E+00  0.90007749281E+02  0.90000010772E+02 0.  0.
         12    1    1    2    0    0 -0.28802211976E+00 -0.11082735040E+01  0.28594554984E+00  0.11802507185E+01  0.00000000000E+00 0. -1.
         11    1    3    3    0    0 -0.22174837999E+01  0.13673521469E+02 -0.36061555110E+01  0.14313866759E+02  0.51100000000E-03 0. -1.
        -11    1    3    3    0    0 -0.29877518194E+02  0.14372757994E+02  0.50423200416E+01  0.33536059062E+02  0.51100000000E-03 0.  1.
         12    1    3    3    0    0  0.32383024113E+02 -0.26938005959E+02 -0.17221100804E+01  0.42157823460E+02  0.00000000000E+00 0. -1.
</event>
<event>
 7    1  0.2148778E-015  0.9000785E+02  0.7816164E-02  0.1186339E+00
        -11   -1    0    0    0    0  0.00000000000E+00  0.00000000000E+00  0.45593999997E+02  0.45594000000E+02  0.51100000000E-03 0.  1.
         11   -1    0    0    0    0 -0.00000000000E+00 -0.00000000000E+00 -0.45593999997E+02  0.45594000000E+02  0.51100000000E-03 0. -1.
    9900012    2    1    2    0    0  0.44007341518E+00  0.10927901356E+01  0.70012144389E-01  0.90007848912E+02  0.90000111717E+02 0.  0.
         12    1    1    2    0    0 -0.44007341518E+00 -0.10927901356E+01 -0.70012144389E-01  0.11801510885E+01  0.00000000000E+00 0. -1.
         11    1    3    3    0    0  0.28059616888E+02  0.17383418647E+02 -0.17173626013E+02  0.37208315932E+02  0.51100000000E-03 0. -1.
        -11    1    3    3    0    0  0.95031800573E+01 -0.33105128128E+01  0.55540373037E+00  0.10078611008E+02  0.51100000000E-03 0.  1.
        -12    1    3    3    0    0 -0.37122723530E+02 -0.12980115699E+02  0.16688234427E+02  0.42720921972E+02  0.00000000000E+00 0.  1.
</event>
<event>
 7    1  0.2148778E-015  0.9000790E+02  0.7816164E-02  0.1186339E+00
        -11   -1    0    0    0    0  0.00000000000E+00  0.00000000000E+00  0.45593999997E+02  0.45594000000E+02  0.51100000000E-03 0.  1.
         11   -1    0    0    0    0 -0.00000000000E+00 -0.00000000000E+00 -0.45593999997E+02  0.45594000000E+02  0.51100000000E-03 0. -1.
    9900012    2    1    2    0    0 -0.10016856386E+01  0.48933992529E+00  0.38706149767E+00  0.90007896494E+02  0.90000159928E+02 0.  0.
         12    1    1    2    0    0  0.10016856386E+01 -0.48933992529E+00 -0.38706149767E+00  0.11801035056E+01  0.00000000000E+00 0. -1.
         11    1    3    3    0    0  0.73740822443E+01  0.54994614772E+00  0.64799768787E+01  0.98320715172E+01  0.51100000000E-03 0. -1.
        -11    1    3    3    0    0  0.17830577515E+02 -0.63241670074E+01  0.29797919516E+02  0.35296467112E+02  0.51100000000E-03 0.  1.
         12    1    3    3    0    0 -0.26206345398E+02  0.62635607849E+01 -0.35890834897E+02  0.44879357865E+02  0.00000000000E+00 0. -1.
</event>
<event>
 7    1  0.2148778E-015  0.9000776E+02  0.7816164E-02  0.1186339E+00
        -11   -1    0    0    0    0  0.00000000000E+00  0.00000000000E+00  0.45593999997E+02  0.45594000000E+02  0.51100000000E-03 0.  1.
         11   -1    0    0    0    0 -0.00000000000E+00 -0.00000000000E+00 -0.45593999997E+02  0.45594000000E+02  0.51100000000E-03 0. -1.
    9900012    2    1    2    0    0 -0.11041301784E+01  0.17641579310E+00 -0.37780965374E+00  0.90007760144E+02  0.90000021778E+02 0.  0.
         12    1    1    2    0    0  0.11041301784E+01 -0.17641579310E+00  0.37780965374E+00  0.11802398558E+01  0.00000000000E+00 0. -1.
         11    1    3    3    0    0 -0.33000205622E+01  0.25679562642E+01 -0.10021566397E+02  0.10858928510E+02  0.51100000000E-03 0. -1.
        -11    1    3    3    0    0  0.24944391450E+02  0.29967648352E+02  0.55112968700E+01  0.39378382471E+02  0.51100000000E-03 0.  1.
         12    1    3    3    0    0 -0.22748501066E+02 -0.32359188823E+02  0.41324598733E+01  0.39770449163E+02  0.00000000000E+00 0. -1.
</event>
<event>
 7    1  0.2148778E-015  0.9000774E+02  0.7816164E-02  0.1186339E+00
        -11   -1    0    0    0    0  0.00000000000E+00  0.00000000000E+00  0.45593999997E+02  0.45594000000E+02  0.51100000000E-03 0. -1.
         11   -1    0    0    0    0 -0.00000000000E+00 -0.00000000000E+00 -0.45593999997E+02  0.45594000000E+02  0.51100000000E-03 0.  1.
    9900012    2    1    2    0    0 -0.59458405838E+00  0.59984412166E+00 -0.82441706665E+00  0.90007742963E+02  0.90000004370E+02 0.  0.
         12    1    1    2    0    0  0.59458405838E+00 -0.59984412166E+00  0.82441706665E+00  0.11802570366E+01  0.00000000000E+00 0. -1.
         11    1    3    3    0    0  0.11841990689E+02  0.31660338737E+00 -0.22395255562E+01  0.12056054751E+02  0.51100000000E-03 0. -1.
        -11    1    3    3    0    0 -0.29897186178E+02 -0.25839696898E+02 -0.15283771612E+02  0.42368919648E+02  0.51100000000E-03 0.  1.
         12    1    3    3    0    0  0.17460611431E+02  0.26122937633E+02  0.16698880101E+02  0.35582768565E+02  0.00000000000E+00 0. -1.
</event>
<event>
 7    1  0.2148778E-015  0.9000772E+02  0.7816164E-02  0.1186339E+00
        -11   -1    0    0    0    0  0.00000000000E+00  0.00000000000E+00  0.45593999997E+02  0.45594000000E+02  0.51100000000E-03 0. -1.
         11   -1    0    0    0    0 -0.00000000000E+00 -0.00000000000E+00 -0.45593999997E+02  0.45594000000E+02  0.51100000000E-03 0.  1.
    9900012    2    1    2    0    0 -0.11296554872E+01  0.23593119117E+00 -0.24753192411E+00  0.90007721601E+02  0.89999982726E+02 0.  0.
         12    1    1    2    0    0  0.11296554872E+01 -0.23593119117E+00  0.24753192411E+00  0.11802783995E+01  0.00000000000E+00 0. -1.
         11    1    3    3    0    0 -0.11167207852E+02 -0.15659280300E+01  0.55225183762E+01  0.12556148744E+02  0.51100000000E-03 0. -1.
        -11    1    3    3    0    0  0.56011841080E+00 -0.35546130553E+02 -0.13723743641E+02  0.38107509361E+02  0.51100000000E-03 0.  1.
         12    1    3    3    0    0  0.94774339540E+01  0.37347989774E+02  0.79536933407E+01  0.39344063495E+02  0.00000000000E+00 0. -1.
</event>
<event>
 7    1  0.2148778E-015  0.9000779E+02  0.7816164E-02  0.1186339E+00
        -11   -1    0    0    0    0  0.00000000000E+00  0.00000000000E+00  0.45593999997E+02  0.45594000000E+02  0.51100000000E-03 0. -1.
         11   -1    0    0    0    0 -0.00000000000E+00 -0.00000000000E+00 -0.45593999997E+02  0.45594000000E+02  0.51100000000E-03 0.  1.
    9900012    2    1    2    0    0  0.27437500611E+00 -0.11367253366E+01  0.15958786289E+00  0.90007790518E+02  0.90000052553E+02 0.  0.
         12    1    1    2    0    0 -0.27437500611E+00  0.11367253366E+01 -0.15958786289E+00  0.11802094817E+01  0.00000000000E+00 0. -1.
         11    1    3    3    0    0  0.96049609320E+01  0.24612887932E+02  0.33406303687E+02  0.42591438730E+02  0.51100000000E-03 0. -1.
        -11    1    3    3    0    0 -0.75184941343E+01  0.34496880415E+00 -0.58034962986E+01  0.95040689745E+01  0.51100000000E-03 0.  1.
        -12    1    3    3    0    0 -0.18120917916E+01 -0.26094582073E+02 -0.27443219525E+02  0.37912282813E+02  0.00000000000E+00 0.  1.
</event>
<event>
 7    1  0.2148778E-015  0.9000791E+02  0.7816164E-02  0.1186339E+00
        -11   -1    0    0    0    0  0.00000000000E+00  0.00000000000E+00  0.45593999997E+02  0.45594000000E+02  0.51100000000E-03 0.  1.
         11   -1    0    0    0    0 -0.00000000000E+00 -0.00000000000E+00 -0.45593999997E+02  0.45594000000E+02  0.51100000000E-03 0. -1.
    9900012    2    1    2    0    0  0.48172679513E+00  0.89591801035E+00  0.59822727881E+00  0.90007912858E+02  0.90000176507E+02 0.  0.
         12    1    1    2    0    0 -0.48172679513E+00 -0.89591801035E+00 -0.59822727881E+00  0.11800871423E+01  0.00000000000E+00 0. -1.
         11    1    3    3    0    0 -0.27216708431E+02  0.98866073638E+01  0.25558448505E+02  0.38622901409E+02  0.51100000000E-03 0. -1.
        -11    1    3    3    0    0 -0.76818102230E+01 -0.24257686894E+01 -0.91737165300E+00  0.81077822521E+01  0.51100000000E-03 0.  1.
        -12    1    3    3    0    0  0.35380245449E+02 -0.65649206641E+01 -0.24042849573E+02  0.43277229197E+02  0.00000000000E+00 0.  1.
</event>
<event>
 7    1  0.2148778E-015  0.9000786E+02  0.7816164E-02  0.1186339E+00
        -11   -1    0    0    0    0  0.00000000000E+00  0.00000000000E+00  0.45593999997E+02  0.45594000000E+02  0.51100000000E-03 0. -1.
         11   -1    0    0    0    0 -0.00000000000E+00 -0.00000000000E+00 -0.45593999997E+02  0.45594000000E+02  0.51100000000E-03 0.  1.
    9900012    2    1    2    0    0 -0.10305791063E+01 -0.26740670776E+00 -0.50903866730E+00  0.90007864412E+02  0.90000127422E+02 0.  0.
         12    1    1    2    0    0  0.10305791063E+01  0.26740670776E+00  0.50903866730E+00  0.11801355882E+01  0.00000000000E+00 0. -1.
         11    1    3    3    0    0 -0.16816421923E+02  0.31835358557E+02 -0.10965150615E+02  0.37636639449E+02  0.51100000000E-03 0. -1.
        -11    1    3    3    0    0 -0.68256380740E+01  0.40822596416E+01  0.49014452544E+01  0.93422879822E+01  0.51100000000E-03 0.  1.
        -12    1    3    3    0    0  0.22611480891E+02 -0.36185024907E+02  0.55546666935E+01  0.43028936980E+02  0.00000000000E+00 0.  1.
</event>
<event>
 7    1  0.2774782E-015  0.9000770E+02  0.7816164E-02  0.1186339E+00
        -11   -1    0    0    0    0  0.00000000000E+00  0.00000000000E+00  0.45593999997E+02  0.45594000000E+02  0.51100000000E-03 0. -1.
         11   -1    0    0    0    0 -0.00000000000E+00 -0.00000000000E+00 -0.45593999997E+02  0.45594000000E+02  0.51100000000E-03 0.  1.
    9900012    2    1    2    0    0  0.96137849858E+00 -0.30558363301E+00 -0.61276183030E+00  0.90007700447E+02  0.89999961293E+02 0.  0.
         12    1    1    2    0    0 -0.96137849858E+00  0.30558363301E+00  0.61276183030E+00  0.11802995531E+01  0.00000000000E+00 0. -1.
         11    1    3    3    0    0 -0.17939105547E+01  0.20128527847E+01 -0.92189982778E+01  0.96051871881E+01  0.51100000000E-03 0. -1.
        -11    1    3    3    0    0 -0.84186961548E+01 -0.71587191626E+01 -0.34177431354E+02  0.35919611903E+02  0.51100000000E-03 0.  1.
         12    1    3    3    0    0  0.11173985208E+02  0.48402827448E+01  0.42783667802E+02  0.44482901356E+02  0.00000000000E+00 0. -1.
</event>
<event>
 7    1  0.2148778E-015  0.9000773E+02  0.7816164E-02  0.1186339E+00
        -11   -1    0    0    0    0  0.00000000000E+00  0.00000000000E+00  0.45593999997E+02  0.45594000000E+02  0.51100000000E-03 0.  1.
         11   -1    0    0    0    0 -0.00000000000E+00 -0.00000000000E+00 -0.45593999997E+02  0.45594000000E+02  0.51100000000E-03 0. -1.
    9900012    2    1    2    0    0  0.88864402393E+00 -0.23486838921E-01  0.77640478579E+00  0.90007727055E+02  0.89999988252E+02 0.  0.
         12    1    1    2    0    0 -0.88864402393E+00  0.23486838921E-01 -0.77640478579E+00  0.11802729448E+01  0.00000000000E+00 0. -1.
         11    1    3    3    0    0 -0.10838872532E+02  0.40092539897E+00 -0.35580334284E+02  0.37196802106E+02  0.51100000000E-03 0. -1.
        -11    1    3    3    0    0  0.14677617179E+01  0.53024227689E+01 -0.64170091462E+01  0.84526929629E+01  0.51100000000E-03 0.  1.
        -12    1    3    3    0    0  0.10259754838E+02 -0.57268350068E+01  0.42773748216E+02  0.44358231986E+02  0.00000000000E+00 0.  1.
</event>
<event>
 7    1  0.2148778E-015  0.9000779E+02  0.7816164E-02  0.1186339E+00
        -11   -1    0    0    0    0  0.00000000000E+00  0.00000000000E+00  0.45593999997E+02  0.45594000000E+02  0.51100000000E-03 0. -1.
         11   -1    0    0    0    0 -0.00000000000E+00 -0.00000000000E+00 -0.45593999997E+02  0.45594000000E+02  0.51100000000E-03 0.  1.
    9900012    2    1    2    0    0  0.87885596382E+00 -0.68794753912E+00 -0.38371521578E+00  0.90007789430E+02  0.90000051451E+02 0.  0.
         12    1    1    2    0    0 -0.87885596382E+00  0.68794753912E+00  0.38371521578E+00  0.11802105696E+01  0.00000000000E+00 0. -1.
         11    1    3    3    0    0  0.24499682157E+02 -0.26871320974E+02 -0.11216012974E+02  0.38053925736E+02  0.51100000000E-03 0. -1.
        -11    1    3    3    0    0  0.88578212792E+01  0.25797457708E+00 -0.51162915532E+00  0.88763344546E+01  0.51100000000E-03 0.  1.
        -12    1    3    3    0    0 -0.32478647472E+02  0.25925398858E+02  0.11343926913E+02  0.43077529239E+02  0.00000000000E+00 0.  1.
</event>
<event>
 7    1  0.2148778E-015  0.9000769E+02  0.7816164E-02  0.1186339E+00
        -11   -1    0    0    0    0  0.00000000000E+00  0.00000000000E+00  0.45593999997E+02  0.45594000000E+02  0.51100000000E-03 0.  1.
         11   -1    0    0    0    0 -0.00000000000E+00 -0.00000000000E+00 -0.45593999997E+02  0.45594000000E+02  0.51100000000E-03 0. -1.
    9900012    2    1    2    0    0  0.26352847175E+00  0.92188676299E+00  0.68832983911E+00  0.90007694774E+02  0.89999955545E+02 0.  0.
         12    1    1    2    0    0 -0.26352847175E+00 -0.92188676299E+00 -0.68832983911E+00  0.11803052260E+01  0.00000000000E+00 0. -1.
         11    1    3    3    0    0 -0.21094139411E+02 -0.17937036443E+02  0.23101551218E+01  0.27785550396E+02  0.51100000000E-03 0. -1.
        -11    1    3    3    0    0 -0.87822105083E+01  0.27862661958E+02  0.60733525153E+01  0.29838578449E+02  0.51100000000E-03 0.  1.
         12    1    3    3    0    0  0.30139878391E+02 -0.90037387523E+01 -0.76951777980E+01  0.32383565929E+02  0.00000000000E+00 0. -1.
</event>
<event>
 7    1  0.2148778E-015  0.9000775E+02  0.7816164E-02  0.1186339E+00
        -11   -1    0    0    0    0  0.00000000000E+00  0.00000000000E+00  0.45593999997E+02  0.45594000000E+02  0.51100000000E-03 0.  1.
         11   -1    0    0    0    0 -0.00000000000E+00 -0.00000000000E+00 -0.45593999997E+02  0.45594000000E+02  0.51100000000E-03 0. -1.
    9900012    2    1    2    0    0 -0.31839691122E+00 -0.75027194844E-01  0.11340155170E+01  0.90007747118E+02  0.90000008580E+02 0.  0.
         12    1    1    2    0    0  0.31839691122E+00  0.75027194844E-01 -0.11340155170E+01  0.11802528822E+01  0.00000000000E+00 0. -1.
         11    1    3    3    0    0  0.27905552332E+01  0.66997713301E+01 -0.10900771346E+01  0.73391009535E+01  0.51100000000E-03 0. -1.
        -11    1    3    3    0    0  0.26316506175E+02  0.25216732420E+02  0.11509108385E+02  0.38221743384E+02  0.51100000000E-03 0.  1.
         12    1    3    3    0    0 -0.29425458320E+02 -0.31991530945E+02 -0.92850157337E+01  0.44446902780E+02  0.00000000000E+00 0. -1.
</event>
<event>
 7    1  0.2148778E-015  0.9000772E+02  0.7816164E-02  0.1186339E+00
        -11   -1    0    0    0    0  0.00000000000E+00  0.00000000000E+00  0.45593999997E+02  0.45594000000E+02  0.51100000000E-03 0.  1.
         11   -1    0    0    0    0 -0.00000000000E+00 -0.00000000000E+00 -0.45593999997E+02  0.45594000000E+02  0.51100000000E-03 0. -1.
    9900012    2    1    2    0    0  0.74813382971E+00 -0.81368654832E+00  0.41383812407E+00  0.90007723753E+02  0.89999984907E+02 0.  0.
         12    1    1    2    0    0 -0.74813382971E+00  0.81368654832E+00 -0.41383812407E+00  0.11802762469E+01  0.00000000000E+00 0. -1.
         11    1    3    3    0    0  0.78259065649E+01  0.76591395160E+01 -0.43053240220E+01  0.11766182341E+02  0.51100000000E-03 0. -1.
        -11    1    3    3    0    0  0.65536928278E+01  0.20359291214E+02  0.30486466427E+02  0.37240787638E+02  0.51100000000E-03 0.  1.
         12    1    3    3    0    0 -0.13631465563E+02 -0.28832117279E+02 -0.25767304281E+02  0.41000753774E+02  0.00000000000E+00 0. -1.
</event>
<event>
 7    1  0.2148778E-015  0.9000776E+02  0.7816164E-02  0.1186339E+00
        -11   -1    0    0    0    0  0.00000000000E+00  0.00000000000E+00  0.45593999997E+02  0.45594000000E+02  0.51100000000E-03 0.  1.
         11   -1    0    0    0    0 -0.00000000000E+00 -0.00000000000E+00 -0.45593999997E+02  0.45594000000E+02  0.51100000000E-03 0. -1.
    9900012    2    1    2    0    0 -0.39651723121E+00  0.74983974105E+00  0.82065865447E+00  0.90007760118E+02  0.90000021752E+02 0.  0.
         12    1    1    2    0    0  0.39651723121E+00 -0.74983974105E+00 -0.82065865447E+00  0.11802398820E+01  0.00000000000E+00 0. -1.
         11    1    3    3    0    0  0.70972237032E+00  0.71486387470E+01  0.57316377363E+01  0.91901258522E+01  0.51100000000E-03 0. -1.
        -11    1    3    3    0    0  0.48808497199E+01 -0.66063392848E+01  0.37294914439E+02  0.38188703251E+02  0.51100000000E-03 0.  1.
         12    1    3    3    0    0 -0.59870893214E+01  0.20754027880E+00 -0.42205893521E+02  0.42628931014E+02  0.00000000000E+00 0. -1.
</event>
<event>
 7    1  0.2148778E-015  0.9000784E+02  0.7816164E-02  0.1186339E+00
        -11   -1    0    0    0    0  0.00000000000E+00  0.00000000000E+00  0.45593999997E+02  0.45594000000E+02  0.51100000000E-03 0.  1.
         11   -1    0    0    0    0 -0.00000000000E+00 -0.00000000000E+00 -0.45593999997E+02  0.45594000000E+02  0.51100000000E-03 0. -1.
    9900012    2    1    2    0    0 -0.11177060317E+01  0.37392240536E+00 -0.60745129923E-01  0.90007841236E+02  0.90000103940E+02 0.  0.
         12    1    1    2    0    0  0.11177060317E+01 -0.37392240536E+00  0.60745129923E-01  0.11801587644E+01  0.00000000000E+00 0. -1.
         11    1    3    3    0    0 -0.54301638940E+01  0.28855331524E+02 -0.21361590288E+02  0.36310251682E+02  0.51100000000E-03 0. -1.
        -11    1    3    3    0    0 -0.79968537783E+01  0.33352452575E+01 -0.55446903474E+01  0.10286744995E+02  0.51100000000E-03 0.  1.
        -12    1    3    3    0    0  0.12309311641E+02 -0.31816654376E+02  0.26845535506E+02  0.43410844559E+02  0.00000000000E+00 0.  1.
</event>
<event>
 7    1  0.2148778E-015  0.9000775E+02  0.7816164E-02  0.1186339E+00
        -11   -1    0    0    0    0  0.00000000000E+00  0.00000000000E+00  0.45593999997E+02  0.45594000000E+02  0.51100000000E-03 0. -1.
         11   -1    0    0    0    0 -0.00000000000E+00 -0.00000000000E+00 -0.45593999997E+02  0.45594000000E+02  0.51100000000E-03 0.  1.
    9900012    2    1    2    0    0 -0.22188829015E+00  0.10726939311E+01 -0.43941703927E+00  0.90007748325E+02  0.90000009802E+02 0.  0.
         12    1    1    2    0    0  0.22188829015E+00 -0.10726939311E+01  0.43941703927E+00  0.11802516755E+01  0.00000000000E+00 0. -1.
         11    1    3    3    0    0  0.46139244278E+01 -0.17328339151E+01  0.88177819787E+00  0.50068498134E+01  0.51100000000E-03 0. -1.
        -11    1    3    3    0    0 -0.30325218518E+02 -0.30435085701E+02  0.17519505384E+01  0.42999798264E+02  0.51100000000E-03 0.  1.
         12    1    3    3    0    0  0.25489405800E+02  0.33240613547E+02 -0.30731457755E+01  0.42001100247E+02  0.00000000000E+00 0. -1.
</event>
<event>
 7    1  0.2148778E-015  0.9000777E+02  0.7816164E-02  0.1186339E+00
        -11   -1    0    0    0    0  0.00000000000E+00  0.00000000000E+00  0.45593999997E+02  0.45594000000E+02  0.51100000000E-03 0. -1.
         11   -1    0    0    0    0 -0.00000000000E+00 -0.00000000000E+00 -0.45593999997E+02  0.45594000000E+02  0.51100000000E-03 0.  1.
    9900012    2    1    2    0    0  0.55223418639E+00 -0.20936863289E+00 -0.10218306711E+01  0.90007773013E+02  0.90000034817E+02 0.  0.
         12    1    1    2    0    0 -0.55223418639E+00  0.20936863289E+00  0.10218306711E+01  0.11802269872E+01  0.00000000000E+00 0. -1.
         11    1    3    3    0    0  0.11842325502E+02  0.13233200596E+02  0.21049083672E+02  0.27539466135E+02  0.51100000000E-03 0. -1.
        -11    1    3    3    0    0 -0.87861244574E+00  0.20090575911E+02 -0.18236592372E+02  0.27147311136E+02  0.51100000000E-03 0.  1.
         12    1    3    3    0    0 -0.10411478870E+02 -0.33533145140E+02 -0.38343219707E+01  0.35320995742E+02  0.00000000000E+00 0. -1.
</event>
<event>
 7    1  0.2148778E-015  0.9000759E+02  0.7816164E-02  0.1186339E+00
        -11   -1    0    0    0    0  0.00000000000E+00  0.00000000000E+00  0.45593999997E+02  0.45594000000E+02  0.51100000000E-03 0. -1.
         11   -1    0    0    0    0 -0.00000000000E+00 -0.00000000000E+00 -0.45593999997E+02  0.45594000000E+02  0.51100000000E-03 0.  1.
    9900012    2    1    2    0    0 -0.31798507670E+00  0.76572739078E+00 -0.84019230775E+00  0.90007586488E+02  0.89999845829E+02 0.  0.
         12    1    1    2    0    0  0.31798507670E+00 -0.76572739078E+00  0.84019230775E+00  0.11804135123E+01  0.00000000000E+00 0. -1.
         11    1    3    3    0    0  0.10532064720E+02  0.23616960872E+02  0.30976196779E+02  0.40351084189E+02  0.51100000000E-03 0. -1.
        -11    1    3    3    0    0 -0.90488783562E+00 -0.46056619032E+01  0.53243226698E+01  0.70978416237E+01  0.51100000000E-03 0.  1.
        -12    1    3    3    0    0 -0.99451619611E+01 -0.18245571578E+02 -0.37140711756E+02  0.42558660675E+02  0.00000000000E+00 0.  1.
</event>
<event>
 7    1  0.2148778E-015  0.9000716E+02  0.7816164E-02  0.1186340E+00
        -11   -1    0    0    0    0  0.00000000000E+00  0.00000000000E+00  0.45593999997E+02  0.45594000000E+02  0.51100000000E-03 0.  1.
         11   -1    0    0    0    0 -0.00000000000E+00 -0.00000000000E+00 -0.45593999997E+02  0.45594000000E+02  0.51100000000E-03 0. -1.
    9900012    2    1    2    0    0  0.85885029815E+00  0.74723082241E+00  0.31371354947E+00  0.90007155418E+02  0.89999409067E+02 0.  0.
         12    1    1    2    0    0 -0.85885029815E+00 -0.74723082241E+00 -0.31371354947E+00  0.11808445824E+01  0.00000000000E+00 0. -1.
         11    1    3    3    0    0  0.58254993359E+01  0.32312081139E+01 -0.52296030177E+01  0.84691142613E+01  0.51100000000E-03 0. -1.
        -11    1    3    3    0    0  0.26958969475E+01  0.96754192228E+01  0.41561653174E+02  0.42758070727E+02  0.51100000000E-03 0.  1.
         12    1    3    3    0    0 -0.76625459852E+01 -0.12159396514E+02 -0.36018336607E+02  0.38779970429E+02  0.00000000000E+00 0. -1.
</event>
<event>
 7    1  0.2148778E-015  0.9000775E+02  0.7816164E-02  0.1186339E+00
        -11   -1    0    0    0    0  0.00000000000E+00  0.00000000000E+00  0.45593999997E+02  0.45594000000E+02  0.51100000000E-03 0.  1.
         11   -1    0    0    0    0 -0.00000000000E+00 -0.00000000000E+00 -0.45593999997E+02  0.45594000000E+02  0.51100000000E-03 0. -1.
    9900012    2    1    2    0    0 -0.11620017286E+00 -0.10105728113E+01  0.59851699131E+00  0.90007753214E+02  0.90000014756E+02 0.  0.
         12    1    1    2    0    0  0.11620017286E+00  0.10105728113E+01 -0.59851699131E+00  0.11802467861E+01  0.00000000000E+00 0. -1.
         11    1    3    3    0    0 -0.19477551436E+00 -0.70462825829E+01 -0.28195175765E+01  0.75919506956E+01  0.51100000000E-03 0. -1.
        -11    1    3    3    0    0 -0.34280479452E+02 -0.15523639223E+02  0.14560611317E+02  0.40350291800E+02  0.51100000000E-03 0.  1.
         12    1    3    3    0    0  0.34359054793E+02  0.21559348995E+02 -0.11142576749E+02  0.42065510718E+02  0.00000000000E+00 0. -1.
</event>
<event>
 7    1  0.2148778E-015  0.9000777E+02  0.7816164E-02  0.1186339E+00
        -11   -1    0    0    0    0  0.00000000000E+00  0.00000000000E+00  0.45593999997E+02  0.45594000000E+02  0.51100000000E-03 0.  1.
         11   -1    0    0    0    0 -0.00000000000E+00 -0.00000000000E+00 -0.45593999997E+02  0.45594000000E+02  0.51100000000E-03 0. -1.
    9900012    2    1    2    0    0 -0.40147504129E+00  0.25399107517E-01  0.11095562926E+01  0.90007770154E+02  0.90000031920E+02 0.  0.
         12    1    1    2    0    0  0.40147504129E+00 -0.25399107517E-01 -0.11095562926E+01  0.11802298462E+01  0.00000000000E+00 0. -1.
         11    1    3    3    0    0 -0.96384699812E+01 -0.14279669677E+01 -0.16065003283E+01  0.98752233801E+01  0.51100000000E-03 0. -1.
        -11    1    3    3    0    0 -0.10319378919E+02  0.57183764623E+01  0.37877901852E+02  0.39672721858E+02  0.51100000000E-03 0.  1.
         12    1    3    3    0    0  0.19556373859E+02 -0.42650103871E+01 -0.35161845232E+02  0.40459824916E+02  0.00000000000E+00 0. -1.
</event>
<event>
 7    1  0.2148778E-015  0.9000770E+02  0.7816164E-02  0.1186339E+00
        -11   -1    0    0    0    0  0.00000000000E+00  0.00000000000E+00  0.45593999997E+02  0.45594000000E+02  0.51100000000E-03 0. -1.
         11   -1    0    0    0    0 -0.00000000000E+00 -0.00000000000E+00 -0.45593999997E+02  0.45594000000E+02  0.51100000000E-03 0.  1.
    9900012    2    1    2    0    0 -0.11053333316E+01 -0.31432459371E+00  0.26935868251E+00  0.90007696724E+02  0.89999957521E+02 0.  0.
         12    1    1    2    0    0  0.11053333316E+01  0.31432459371E+00 -0.26935868251E+00  0.11803032762E+01  0.00000000000E+00 0. -1.
         11    1    3    3    0    0 -0.54528214461E+01 -0.18679608989E+02 -0.63691594860E+01  0.20475039598E+02  0.51100000000E-03 0. -1.
        -11    1    3    3    0    0  0.26952891144E+02 -0.85151757508E+01  0.16911704736E+02  0.32938917961E+02  0.51100000000E-03 0.  1.
         12    1    3    3    0    0 -0.22605403030E+02  0.26880460146E+02 -0.10273186567E+02  0.36593739165E+02  0.00000000000E+00 0. -1.
</event>
<event>
 7    1  0.2148778E-015  0.9000775E+02  0.7816164E-02  0.1186339E+00
        -11   -1    0    0    0    0  0.00000000000E+00  0.00000000000E+00  0.45593999997E+02  0.45594000000E+02  0.51100000000E-03 0.  1.
         11   -1    0    0    0    0 -0.00000000000E+00 -0.00000000000E+00 -0.45593999997E+02  0.45594000000E+02  0.51100000000E-03 0. -1.
    9900012    2    1    2    0    0 -0.28286710472E+00  0.31637916171E+00  0.11013125582E+01  0.90007746246E+02  0.90000007696E+02 0.  0.
         12    1    1    2    0    0  0.28286710472E+00 -0.31637916171E+00 -0.11013125582E+01  0.11802537540E+01  0.00000000000E+00 0. -1.
         11    1    3    3    0    0 -0.57750287392E+01 -0.11511788580E+01  0.27314281616E+01  0.64912918410E+01  0.51100000000E-03 0. -1.
        -11    1    3    3    0    0  0.96019556147E+01  0.44644563133E+01  0.40101497588E+02  0.41476005484E+02  0.51100000000E-03 0.  1.
         12    1    3    3    0    0 -0.41097939802E+01 -0.29968982935E+01 -0.41731613192E+02  0.42040448921E+02  0.00000000000E+00 0. -1.
</event>
<event>
 7    1  0.2148778E-015  0.9000770E+02  0.7816164E-02  0.1186339E+00
        -11   -1    0    0    0    0  0.00000000000E+00  0.00000000000E+00  0.45593999997E+02  0.45594000000E+02  0.51100000000E-03 0.  1.
         11   -1    0    0    0    0 -0.00000000000E+00 -0.00000000000E+00 -0.45593999997E+02  0.45594000000E+02  0.51100000000E-03 0. -1.
    9900012    2    1    2    0    0 -0.73067135832E-01  0.38352961180E+00  0.11138520133E+01  0.90007703395E+02  0.89999964279E+02 0.  0.
         12    1    1    2    0    0  0.73067135832E-01 -0.38352961180E+00 -0.11138520133E+01  0.11802966055E+01  0.00000000000E+00 0. -1.
         11    1    3    3    0    0  0.14993863335E+02 -0.28875613224E+02 -0.22296360175E+02  0.39442929076E+02  0.51100000000E-03 0. -1.
        -11    1    3    3    0    0  0.38490479925E+01 -0.31551137269E+01  0.91517761927E+01  0.10417529497E+02  0.51100000000E-03 0.  1.
        -12    1    3    3    0    0 -0.18915978463E+02  0.32414256563E+02  0.14258435996E+02  0.40147244822E+02  0.00000000000E+00 0.  1.
</event>
<event>
 7    1  0.2148778E-015  0.9000775E+02  0.7816164E-02  0.1186339E+00
        -11   -1    0    0    0    0  0.00000000000E+00  0.00000000000E+00  0.45593999997E+02  0.45594000000E+02  0.51100000000E-03 0.  1.
         11   -1    0    0    0    0 -0.00000000000E+00 -0.00000000000E+00 -0.45593999997E+02  0.45594000000E+02  0.51100000000E-03 0. -1.
    9900012    2    1    2    0    0  0.99890870043E+00 -0.18377872661E+00  0.60116980802E+00  0.90007746489E+02  0.90000007943E+02 0.  0.
         12    1    1    2    0    0 -0.99890870043E+00  0.18377872661E+00 -0.60116980802E+00  0.11802535110E+01  0.00000000000E+00 0. -1.
         11    1    3    3    0    0  0.32367608278E+02  0.11297663269E+02 -0.80546605654E+01  0.35216144282E+02  0.51100000000E-03 0. -1.
        -11    1    3    3    0    0  0.95500352507E+01 -0.64958602599E+01  0.70654991615E+01  0.13539595728E+02  0.51100000000E-03 0.  1.
        -12    1    3    3    0    0 -0.40918734829E+02 -0.49855817359E+01  0.15903312119E+01  0.41252006479E+02  0.00000000000E+00 0.  1.
</event>
<event>
 7    1  0.2148778E-015  0.9000775E+02  0.7816164E-02  0.1186339E+00
        -11   -1    0    0    0    0  0.00000000000E+00  0.00000000000E+00  0.45593999997E+02  0.45594000000E+02  0.51100000000E-03 0.  1.
         11   -1    0    0    0    0 -0.00000000000E+00 -0.00000000000E+00 -0.45593999997E+02  0.45594000000E+02  0.51100000000E-03 0. -1.
    9900012    2    1    2    0    0  0.89116607161E+00 -0.55009999320E+00 -0.54424239335E+00  0.90007751402E+02  0.90000012921E+02 0.  0.
         12    1    1    2    0    0 -0.89116607161E+00  0.55009999320E+00  0.54424239335E+00  0.11802485977E+01  0.00000000000E+00 0. -1.
         11    1    3    3    0    0  0.74108901411E+01  0.55614233777E+01 -0.36971852626E+01  0.99759662086E+01  0.51100000000E-03 0. -1.
        -11    1    3    3    0    0 -0.14073781486E+02  0.24354562052E+02  0.28233207392E+02  0.39853858257E+02  0.51100000000E-03 0.  1.
         12    1    3    3    0    0  0.75540574164E+01 -0.30466085422E+02 -0.25080264523E+02  0.40177926937E+02  0.00000000000E+00 0. -1.
</event>
<event>
 7    1  0.2148778E-015  0.9000749E+02  0.7816164E-02  0.1186340E+00
        -11   -1    0    0    0    0  0.00000000000E+00  0.00000000000E+00  0.45593999997E+02  0.45594000000E+02  0.51100000000E-03 0.  1.
         11   -1    0    0    0    0 -0.00000000000E+00 -0.00000000000E+00 -0.45593999997E+02  0.45594000000E+02  0.51100000000E-03 0. -1.
    9900012    2    1    2    0    0  0.75032154956E+00 -0.58478350850E+00 -0.69904149421E+00  0.90007486048E+02  0.89999744064E+02 0.  0.
         12    1    1    2    0    0 -0.75032154956E+00  0.58478350850E+00  0.69904149421E+00  0.11805139517E+01  0.00000000000E+00 0. -1.
         11    1    3    3    0    0 -0.17664131926E+02  0.33472964969E+02  0.11832829674E+02  0.39654467578E+02  0.51100000000E-03 0. -1.
        -11    1    3    3    0    0  0.11007532093E+02  0.12685409135E+01  0.23230114567E+01  0.11321278254E+02  0.51100000000E-03 0.  1.
        -12    1    3    3    0    0  0.74069213828E+01 -0.35326289391E+02 -0.14854882625E+02  0.39031740216E+02  0.00000000000E+00 0.  1.
</event>
<event>
 7    1  0.2148778E-015  0.9000775E+02  0.7816164E-02  0.1186339E+00
        -11   -1    0    0    0    0  0.00000000000E+00  0.00000000000E+00  0.45593999997E+02  0.45594000000E+02  0.51100000000E-03 0.  1.
         11   -1    0    0    0    0 -0.00000000000E+00 -0.00000000000E+00 -0.45593999997E+02  0.45594000000E+02  0.51100000000E-03 0. -1.
    9900012    2    1    2    0    0  0.49709799625E+00  0.31538988982E+00  0.10229430971E+01  0.90007750120E+02  0.90000011621E+02 0.  0.
         12    1    1    2    0    0 -0.49709799625E+00 -0.31538988982E+00 -0.10229430971E+01  0.11802498805E+01  0.00000000000E+00 0. -1.
         11    1    3    3    0    0 -0.18873040886E+02 -0.37589975980E+02  0.90439231521E+01  0.43023139270E+02  0.51100000000E-03 0. -1.
        -11    1    3    3    0    0 -0.20755202227E+01  0.10474207284E+02  0.17499743876E+01  0.10820314831E+02  0.51100000000E-03 0.  1.
        -12    1    3    3    0    0  0.21445659104E+02  0.27431158586E+02 -0.97709544426E+01  0.36164296019E+02  0.00000000000E+00 0.  1.
</event>
<event>
 7    1  0.2148778E-015  0.9000768E+02  0.7816164E-02  0.1186339E+00
        -11   -1    0    0    0    0  0.00000000000E+00  0.00000000000E+00  0.45593999997E+02  0.45594000000E+02  0.51100000000E-03 0.  1.
         11   -1    0    0    0    0 -0.00000000000E+00 -0.00000000000E+00 -0.45593999997E+02  0.45594000000E+02  0.51100000000E-03 0. -1.
    9900012    2    1    2    0    0 -0.53039010854E+00 -0.27043667790E+00  0.10191655699E+01  0.90007683041E+02  0.89999943657E+02 0.  0.
         12    1    1    2    0    0  0.53039010854E+00  0.27043667790E+00 -0.10191655699E+01  0.11803169586E+01  0.00000000000E+00 0. -1.
         11    1    3    3    0    0 -0.22575807743E+02 -0.74625092489E+01 -0.26144762872E+02  0.35339846709E+02  0.51100000000E-03 0. -1.
        -11    1    3    3    0    0 -0.75146329510E+01 -0.20302741919E+01 -0.55980117100E+01  0.95879850359E+01  0.51100000000E-03 0.  1.
        -12    1    3    3    0    0  0.29560050585E+02  0.92223467629E+01  0.32761940152E+02  0.45079851297E+02  0.00000000000E+00 0.  1.
</event>
<event>
 7    1  0.2148778E-015  0.9000773E+02  0.7816164E-02  0.1186339E+00
        -11   -1    0    0    0    0  0.00000000000E+00  0.00000000000E+00  0.45593999997E+02  0.45594000000E+02  0.51100000000E-03 0.  1.
         11   -1    0    0    0    0 -0.00000000000E+00 -0.00000000000E+00 -0.45593999997E+02  0.45594000000E+02  0.51100000000E-03 0. -1.
    9900012    2    1    2    0    0  0.57161174250E-01  0.11698276513E+01 -0.14582307535E+00  0.90007733715E+02  0.89999995000E+02 0.  0.
         12    1    1    2    0    0 -0.57161174250E-01 -0.11698276513E+01  0.14582307535E+00  0.11802662847E+01  0.00000000000E+00 0. -1.
         11    1    3    3    0    0 -0.51610595212E+01  0.31810480282E+01 -0.84226625242E+01  0.10377709102E+02  0.51100000000E-03 0. -1.
        -11    1    3    3    0    0 -0.90076917355E+01 -0.10568255986E+02  0.40809006998E+02  0.43106862533E+02  0.51100000000E-03 0.  1.
         12    1    3    3    0    0  0.14225912431E+02  0.85570356087E+01 -0.32532167550E+02  0.36523162081E+02  0.00000000000E+00 0. -1.
</event>
<event>
 7    1  0.2148778E-015  0.9000775E+02  0.7816164E-02  0.1186339E+00
        -11   -1    0    0    0    0  0.00000000000E+00  0.00000000000E+00  0.45593999997E+02  0.45594000000E+02  0.51100000000E-03 0.  1.
         11   -1    0    0    0    0 -0.00000000000E+00 -0.00000000000E+00 -0.45593999997E+02  0.45594000000E+02  0.51100000000E-03 0. -1.
    9900012    2    1    2    0    0  0.69516991304E+00 -0.13632006147E+00 -0.94400026538E+00  0.90007753895E+02  0.90000015446E+02 0.  0.
         12    1    1    2    0    0 -0.69516991304E+00  0.13632006147E+00  0.94400026538E+00  0.11802461049E+01  0.00000000000E+00 0. -1.
         11    1    3    3    0    0  0.82242428883E+01 -0.17638301583E+02 -0.29821762502E+02  0.35610186363E+02  0.51100000000E-03 0. -1.
        -11    1    3    3    0    0 -0.12686223265E+02  0.12292906899E+01 -0.70897409700E+01  0.14584781233E+02  0.51100000000E-03 0.  1.
        -12    1    3    3    0    0  0.51571502894E+01  0.16272690831E+02  0.35967503207E+02  0.39812786299E+02  0.00000000000E+00 0.  1.
</event>
<event>
 7    1  0.2148778E-015  0.9000807E+02  0.7816164E-02  0.1186338E+00
        -11   -1    0    0    0    0  0.00000000000E+00  0.00000000000E+00  0.45593999997E+02  0.45594000000E+02  0.51100000000E-03 0.  1.
         11   -1    0    0    0    0 -0.00000000000E+00 -0.00000000000E+00 -0.45593999997E+02  0.45594000000E+02  0.51100000000E-03 0. -1.
    9900012    2    1    2    0    0 -0.57847048333E+00 -0.35679959014E+00  0.96452593651E+00  0.90008065964E+02  0.90000331634E+02 0.  0.
         12    1    1    2    0    0  0.57847048333E+00  0.35679959014E+00 -0.96452593651E+00  0.11799340362E+01  0.00000000000E+00 0. -1.
         11    1    3    3    0    0 -0.25822986581E+02 -0.28567812577E+02 -0.20984646918E+02  0.43855466683E+02  0.51100000000E-03 0. -1.
        -11    1    3    3    0    0  0.11961614122E+02  0.34004808720E+01  0.60436888956E+01  0.13826411620E+02  0.51100000000E-03 0.  1.
        -12    1    3    3    0    0  0.13282901976E+02  0.24810532115E+02  0.15905483959E+02  0.32326187661E+02  0.00000000000E+00 0.  1.
</event>
<event>
 7    1  0.2148778E-015  0.9000753E+02  0.7816164E-02  0.1186339E+00
        -11   -1    0    0    0    0  0.00000000000E+00  0.00000000000E+00  0.45593999997E+02  0.45594000000E+02  0.51100000000E-03 0. -1.
         11   -1    0    0    0    0 -0.00000000000E+00 -0.00000000000E+00 -0.45593999997E+02  0.45594000000E+02  0.51100000000E-03 0.  1.
    9900012    2    1    2    0    0  0.74876244988E+00  0.37813223545E+00 -0.83059614739E+00  0.90007525877E+02  0.89999784419E+02 0.  0.
         12    1    1    2    0    0 -0.74876244988E+00 -0.37813223545E+00  0.83059614739E+00  0.11804741225E+01  0.00000000000E+00 0. -1.
         11    1    3    3    0    0 -0.94032646049E+01 -0.14188880286E+02 -0.32830848119E+02  0.36981215468E+02  0.51100000000E-03 0. -1.
        -11    1    3    3    0    0 -0.43717426957E+01 -0.47899949235E+01 -0.54274211678E+01  0.84565410399E+01  0.51100000000E-03 0.  1.
        -12    1    3    3    0    0  0.14523769751E+02  0.19357007445E+02  0.37427673140E+02  0.44569769369E+02  0.00000000000E+00 0.  1.
</event>
<event>
 7    1  0.2148778E-015  0.9000775E+02  0.7816164E-02  0.1186339E+00
        -11   -1    0    0    0    0  0.00000000000E+00  0.00000000000E+00  0.45593999997E+02  0.45594000000E+02  0.51100000000E-03 0. -1.
         11   -1    0    0    0    0 -0.00000000000E+00 -0.00000000000E+00 -0.45593999997E+02  0.45594000000E+02  0.51100000000E-03 0.  1.
    9900012    2    1    2    0    0 -0.30919425529E+00  0.11286372820E+01  0.15352145286E+00  0.90007749163E+02  0.90000010652E+02 0.  0.
         12    1    1    2    0    0  0.30919425529E+00 -0.11286372820E+01 -0.15352145286E+00  0.11802508370E+01  0.00000000000E+00 0. -1.
         11    1    3    3    0    0 -0.21618687385E+01 -0.57326343224E+01 -0.91603134314E-02  0.61267329703E+01  0.51100000000E-03 0. -1.
        -11    1    3    3    0    0 -0.35241133675E+02  0.20141679289E+01 -0.20827805394E+02  0.40985263851E+02  0.51100000000E-03 0.  1.
         12    1    3    3    0    0  0.37093808158E+02  0.48471036755E+01  0.20990487160E+02  0.42895752342E+02  0.00000000000E+00 0. -1.
</event>
<event>
 7    1  0.2148778E-015  0.9000766E+02  0.7816164E-02  0.1186339E+00
        -11   -1    0    0    0    0  0.00000000000E+00  0.00000000000E+00  0.45593999997E+02  0.45594000000E+02  0.51100000000E-03 0. -1.
         11   -1    0    0    0    0 -0.00000000000E+00 -0.00000000000E+00 -0.45593999997E+02  0.45594000000E+02  0.51100000000E-03 0.  1.
    9900012    2    1    2    0    0 -0.44347178091E+00 -0.96414909144E+00 -0.51667547076E+00  0.90007659272E+02  0.89999919575E+02 0.  0.
         12    1    1    2    0    0  0.44347178091E+00  0.96414909144E+00  0.51667547076E+00  0.11803407275E+01  0.00000000000E+00 0. -1.
         11    1    3    3    0    0  0.59862079800E+01  0.84813655441E+01 -0.24467631029E+01  0.10665594096E+02  0.51100000000E-03 0. -1.
        -11    1    3    3    0    0 -0.11958577166E+02  0.30326292697E+02  0.16612338810E+02  0.36587721951E+02  0.51100000000E-03 0.  1.
         12    1    3    3    0    0  0.55288974050E+01 -0.39771807332E+02 -0.14682251178E+02  0.42754343226E+02  0.00000000000E+00 0. -1.
</event>
<event>
 7    1  0.2148778E-015  0.9000767E+02  0.7816164E-02  0.1186339E+00
        -11   -1    0    0    0    0  0.00000000000E+00  0.00000000000E+00  0.45593999997E+02  0.45594000000E+02  0.51100000000E-03 0.  1.
         11   -1    0    0    0    0 -0.00000000000E+00 -0.00000000000E+00 -0.45593999997E+02  0.45594000000E+02  0.51100000000E-03 0. -1.
    9900012    2    1    2    0    0  0.19053248880E+00 -0.43187041485E+00  0.10818346069E+01  0.90007669198E+02  0.89999929632E+02 0.  0.
         12    1    1    2    0    0 -0.19053248880E+00  0.43187041485E+00 -0.10818346069E+01  0.11803308016E+01  0.00000000000E+00 0. -1.
         11    1    3    3    0    0 -0.20564384476E+02  0.30831672116E+02 -0.83570361926E+01  0.37991130130E+02  0.51100000000E-03 0. -1.
        -11    1    3    3    0    0 -0.61820711174E+01 -0.10947019141E+01 -0.60392550033E+01  0.87114279448E+01  0.51100000000E-03 0.  1.
        -12    1    3    3    0    0  0.26936988082E+02 -0.30168840617E+02  0.15478125803E+02  0.43305111124E+02  0.00000000000E+00 0.  1.
</event>
<event>
 7    1  0.2148778E-015  0.9000780E+02  0.7816164E-02  0.1186339E+00
        -11   -1    0    0    0    0  0.00000000000E+00  0.00000000000E+00  0.45593999997E+02  0.45594000000E+02  0.51100000000E-03 0. -1.
         11   -1    0    0    0    0 -0.00000000000E+00 -0.00000000000E+00 -0.45593999997E+02  0.45594000000E+02  0.51100000000E-03 0.  1.
    9900012    2    1    2    0    0  0.29136681602E+00  0.11159043108E+01 -0.25046932510E+00  0.90007800044E+02  0.90000062205E+02 0.  0.
         12    1    1    2    0    0 -0.29136681602E+00 -0.11159043108E+01  0.25046932510E+00  0.11801999556E+01  0.00000000000E+00 0. -1.
         11    1    3    3    0    0 -0.11220666058E+02 -0.49604117726E+01  0.37752813329E+02  0.39696145232E+02  0.51100000000E-03 0. -1.
        -11    1    3    3    0    0 -0.70041838229E+01  0.59683049876E+01 -0.14224557818E+01  0.93114250339E+01  0.51100000000E-03 0.  1.
        -12    1    3    3    0    0  0.18516216697E+02  0.10801109578E+00 -0.36580826873E+02  0.41000229778E+02  0.00000000000E+00 0.  1.
</event>
<event>
 7    1  0.2148778E-015  0.9000774E+02  0.7816164E-02  0.1186339E+00
        -11   -1    0    0    0    0  0.00000000000E+00  0.00000000000E+00  0.45593999997E+02  0.45594000000E+02  0.51100000000E-03 0. -1.
         11   -1    0    0    0    0 -0.00000000000E+00 -0.00000000000E+00 -0.45593999997E+02  0.45594000000E+02  0.51100000000E-03 0.  1.
    9900012    2    1    2    0    0  0.46758793101E+00 -0.88507362455E+00  0.62531255579E+00  0.90007741729E+02  0.90000003120E+02 0.  0.
         12    1    1    2    0    0 -0.46758793101E+00  0.88507362455E+00 -0.62531255579E+00  0.11802582711E+01  0.00000000000E+00 0. -1.
         11    1    3    3    0    0  0.52999620621E+01 -0.93087652891E+01 -0.48466384245E+01  0.11757236637E+02  0.51100000000E-03 0. -1.
        -11    1    3    3    0    0 -0.33194835657E+01 -0.33910094460E+02 -0.54476261168E+01  0.34504928750E+02  0.51100000000E-03 0.  1.
         12    1    3    3    0    0 -0.15128905654E+01  0.42333786125E+02  0.10919577097E+02  0.43745576342E+02  0.00000000000E+00 0. -1.
</event>
<event>
 7    1  0.2148778E-015  0.9000775E+02  0.7816164E-02  0.1186339E+00
        -11   -1    0    0    0    0  0.00000000000E+00  0.00000000000E+00  0.45593999997E+02  0.45594000000E+02  0.51100000000E-03 0. -1.
         11   -1    0    0    0    0 -0.00000000000E+00 -0.00000000000E+00 -0.45593999997E+02  0.45594000000E+02  0.51100000000E-03 0.  1.
    9900012    2    1    2    0    0  0.79148019511E+00  0.87545724071E+00  0.11492967963E-01  0.90007746482E+02  0.90000007935E+02 0.  0.
         12    1    1    2    0    0 -0.79148019511E+00 -0.87545724071E+00 -0.11492967963E-01  0.11802535185E+01  0.00000000000E+00 0. -1.
         11    1    3    3    0    0  0.15518441064E+02 -0.33646640119E+02  0.61279980972E+01  0.37556234706E+02  0.51100000000E-03 0. -1.
        -11    1    3    3    0    0  0.12855963746E+01 -0.50300385730E+01 -0.82277197821E+01  0.97287933044E+01  0.51100000000E-03 0.  1.
        -12    1    3    3    0    0 -0.16012557243E+02  0.39552135933E+02  0.21112146529E+01  0.42722718472E+02  0.00000000000E+00 0.  1.
</event>
<event>
 7    1  0.2148778E-015  0.9000774E+02  0.7816164E-02  0.1186339E+00
        -11   -1    0    0    0    0  0.00000000000E+00  0.00000000000E+00  0.45593999997E+02  0.45594000000E+02  0.51100000000E-03 0. -1.
         11   -1    0    0    0    0 -0.00000000000E+00 -0.00000000000E+00 -0.45593999997E+02  0.45594000000E+02  0.51100000000E-03 0.  1.
    9900012    2    1    2    0    0  0.59168719904E+00 -0.52105087236E+00 -0.87830235768E+00  0.90007744610E+02  0.90000006039E+02 0.  0.
         12    1    1    2    0    0 -0.59168719904E+00  0.52105087236E+00  0.87830235768E+00  0.11802553896E+01  0.00000000000E+00 0. -1.
         11    1    3    3    0    0  0.10992876923E+02  0.68505415326E+01  0.97973467319E+00  0.12989732199E+02  0.51100000000E-03 0. -1.
        -11    1    3    3    0    0  0.57297268789E+01  0.13482940869E+02 -0.33064772119E+02  0.36164881033E+02  0.51100000000E-03 0.  1.
         12    1    3    3    0    0 -0.16130916602E+02 -0.20854533274E+02  0.31206735088E+02  0.40853131378E+02  0.00000000000E+00 0. -1.
</event>
<event>
 7    1  0.2148778E-015  0.9000782E+02  0.7816164E-02  0.1186339E+00
        -11   -1    0    0    0    0  0.00000000000E+00  0.00000000000E+00  0.45593999997E+02  0.45594000000E+02  0.51100000000E-03 0.  1.
         11   -1    0    0    0    0 -0.00000000000E+00 -0.00000000000E+00 -0.45593999997E+02  0.45594000000E+02  0.51100000000E-03 0. -1.
    9900012    2    1    2    0    0 -0.87893974634E-01  0.10271813525E+01 -0.57445362610E+00  0.90007820416E+02  0.90000082846E+02 0.  0.
         12    1    1    2    0    0  0.87893974634E-01 -0.10271813525E+01  0.57445362610E+00  0.11801795839E+01  0.00000000000E+00 0. -1.
         11    1    3    3    0    0  0.14301464685E+02  0.20437621800E+02 -0.22029072747E+02  0.33279247638E+02  0.51100000000E-03 0. -1.
        -11    1    3    3    0    0  0.94933806236E+01 -0.13223374369E+02 -0.81393724581E+01  0.18199760703E+02  0.51100000000E-03 0.  1.
        -12    1    3    3    0    0 -0.23882739283E+02 -0.61870660783E+01  0.29593991579E+02  0.38528812075E+02  0.00000000000E+00 0.  1.
</event>
<event>
 7    1  0.2148778E-015  0.9000771E+02  0.7816164E-02  0.1186339E+00
        -11   -1    0    0    0    0  0.00000000000E+00  0.00000000000E+00  0.45593999997E+02  0.45594000000E+02  0.51100000000E-03 0. -1.
         11   -1    0    0    0    0 -0.00000000000E+00 -0.00000000000E+00 -0.45593999997E+02  0.45594000000E+02  0.51100000000E-03 0.  1.
    9900012    2    1    2    0    0 -0.62710090607E+00 -0.19255896598E+00 -0.98119276919E+00  0.90007714546E+02  0.89999975578E+02 0.  0.
         12    1    1    2    0    0  0.62710090607E+00  0.19255896598E+00  0.98119276919E+00  0.11802854536E+01  0.00000000000E+00 0. -1.
         11    1    3    3    0    0 -0.97185471863E+01 -0.19404671151E+01 -0.17158450243E+01  0.10057817678E+02  0.51100000000E-03 0. -1.
        -11    1    3    3    0    0 -0.28376600941E+02  0.20431044070E+02 -0.10666926463E+02  0.36557384523E+02  0.51100000000E-03 0.  1.
         12    1    3    3    0    0  0.37468047221E+02 -0.18683135920E+02  0.11401578718E+02  0.43392512345E+02  0.00000000000E+00 0. -1.
</event>
<event>
 7    1  0.2148778E-015  0.9000773E+02  0.7816164E-02  0.1186339E+00
        -11   -1    0    0    0    0  0.00000000000E+00  0.00000000000E+00  0.45593999997E+02  0.45594000000E+02  0.51100000000E-03 0.  1.
         11   -1    0    0    0    0 -0.00000000000E+00 -0.00000000000E+00 -0.45593999997E+02  0.45594000000E+02  0.51100000000E-03 0. -1.
    9900012    2    1    2    0    0 -0.60704896057E+00 -0.84428561012E+00  0.55830339507E+00  0.90007733372E+02  0.89999994653E+02 0.  0.
         12    1    1    2    0    0  0.60704896057E+00  0.84428561012E+00 -0.55830339507E+00  0.11802666279E+01  0.00000000000E+00 0. -1.
         11    1    3    3    0    0  0.22200386215E+02  0.74913282970E+01 -0.28869142786E+02  0.37180701355E+02  0.51100000000E-03 0. -1.
        -11    1    3    3    0    0 -0.47806820448E+00 -0.35166639444E+01 -0.81284539678E+01  0.88694553763E+01  0.51100000000E-03 0.  1.
        -12    1    3    3    0    0 -0.22329366972E+02 -0.48189499628E+01  0.37555900149E+02  0.43957576641E+02  0.00000000000E+00 0.  1.
</event>
<event>
 7    1  0.2148778E-015  0.9000772E+02  0.7816164E-02  0.1186339E+00
        -11   -1    0    0    0    0  0.00000000000E+00  0.00000000000E+00  0.45593999997E+02  0.45594000000E+02  0.51100000000E-03 0.  1.
         11   -1    0    0    0    0 -0.00000000000E+00 -0.00000000000E+00 -0.45593999997E+02  0.45594000000E+02  0.51100000000E-03 0. -1.
    9900012    2    1    2    0    0  0.12819161404E+00  0.38655278653E+00  0.11077912609E+01  0.90007721378E+02  0.89999982501E+02 0.  0.
         12    1    1    2    0    0 -0.12819161404E+00 -0.38655278653E+00 -0.11077912609E+01  0.11802786215E+01  0.00000000000E+00 0. -1.
         11    1    3    3    0    0  0.36403315351E+01 -0.17953393536E+02 -0.17390165359E+02  0.25258547160E+02  0.51100000000E-03 0. -1.
        -11    1    3    3    0    0 -0.48990001147E+00 -0.20144314909E+02 -0.32977120002E+01  0.20418333180E+02  0.51100000000E-03 0.  1.
        -12    1    3    3    0    0 -0.30222399096E+01  0.38484261231E+02  0.21795668620E+02  0.44330841039E+02  0.00000000000E+00 0.  1.
</event>
<event>
 7    1  0.2148778E-015  0.9000773E+02  0.7816164E-02  0.1186339E+00
        -11   -1    0    0    0    0  0.00000000000E+00  0.00000000000E+00  0.45593999997E+02  0.45594000000E+02  0.51100000000E-03 0.  1.
         11   -1    0    0    0    0 -0.00000000000E+00 -0.00000000000E+00 -0.45593999997E+02  0.45594000000E+02  0.51100000000E-03 0. -1.
    9900012    2    1    2    0    0 -0.48602238850E+00  0.50081037542E+00  0.95184150634E+00  0.90007732637E+02  0.89999993908E+02 0.  0.
         12    1    1    2    0    0  0.48602238850E+00 -0.50081037542E+00 -0.95184150634E+00  0.11802673627E+01  0.00000000000E+00 0. -1.
         11    1    3    3    0    0  0.20179600241E+02  0.23112906779E+02 -0.25351479949E+02  0.39801008298E+02  0.51100000000E-03 0. -1.
        -11    1    3    3    0    0  0.22273616195E+01  0.54206877694E+01  0.71936858520E+01  0.92786912911E+01  0.51100000000E-03 0.  1.
        -12    1    3    3    0    0 -0.22892984249E+02 -0.28032784173E+02  0.19109635603E+02  0.40928033048E+02  0.00000000000E+00 0.  1.
</event>
<event>
 7    1  0.2148778E-015  0.9000772E+02  0.7816164E-02  0.1186339E+00
        -11   -1    0    0    0    0  0.00000000000E+00  0.00000000000E+00  0.45593999997E+02  0.45594000000E+02  0.51100000000E-03 0.  1.
         11   -1    0    0    0    0 -0.00000000000E+00 -0.00000000000E+00 -0.45593999997E+02  0.45594000000E+02  0.51100000000E-03 0. -1.
    9900012    2    1    2    0    0 -0.47943512245E+00 -0.17078370572E+00  0.10649089211E+01  0.90007722015E+02  0.89999983146E+02 0.  0.
         12    1    1    2    0    0  0.47943512245E+00  0.17078370572E+00 -0.10649089211E+01  0.11802779847E+01  0.00000000000E+00 0. -1.
         11    1    3    3    0    0 -0.78626038077E+01 -0.40225854340E+01 -0.34246544360E+01  0.94725915397E+01  0.51100000000E-03 0. -1.
        -11    1    3    3    0    0 -0.16360125543E+01 -0.12254298708E+02  0.39264294172E+02  0.41164659248E+02  0.51100000000E-03 0.  1.
         12    1    3    3    0    0  0.90191812395E+01  0.16106100436E+02 -0.34774730815E+02  0.39370471228E+02  0.00000000000E+00 0. -1.
</event>
<event>
 7    1  0.2148778E-015  0.9000780E+02  0.7816164E-02  0.1186339E+00
        -11   -1    0    0    0    0  0.00000000000E+00  0.00000000000E+00  0.45593999997E+02  0.45594000000E+02  0.51100000000E-03 0.  1.
         11   -1    0    0    0    0 -0.00000000000E+00 -0.00000000000E+00 -0.45593999997E+02  0.45594000000E+02  0.51100000000E-03 0. -1.
    9900012    2    1    2    0    0 -0.11226278380E+01  0.12177055253E-01  0.36391798040E+00  0.90007797543E+02  0.90000059670E+02 0.  0.
         12    1    1    2    0    0  0.11226278380E+01 -0.12177055253E-01 -0.36391798040E+00  0.11802024571E+01  0.00000000000E+00 0. -1.
         11    1    3    3    0    0 -0.83559687922E+01 -0.44214554003E+01 -0.11449184813E+01  0.95227265478E+01  0.51100000000E-03 0. -1.
        -11    1    3    3    0    0  0.86385182744E+01 -0.31818157075E+01  0.40090511984E+02  0.41133892358E+02  0.51100000000E-03 0.  1.
         12    1    3    3    0    0 -0.14051773202E+01  0.76154481630E+01 -0.38581675522E+02  0.39351178637E+02  0.00000000000E+00 0. -1.
</event>
<event>
 7    1  0.2148778E-015  0.9000767E+02  0.7816164E-02  0.1186339E+00
        -11   -1    0    0    0    0  0.00000000000E+00  0.00000000000E+00  0.45593999997E+02  0.45594000000E+02  0.51100000000E-03 0.  1.
         11   -1    0    0    0    0 -0.00000000000E+00 -0.00000000000E+00 -0.45593999997E+02  0.45594000000E+02  0.51100000000E-03 0. -1.
    9900012    2    1    2    0    0 -0.81991677823E+00 -0.82195890259E+00 -0.21283011235E+00  0.90007670971E+02  0.89999931427E+02 0.  0.
         12    1    1    2    0    0  0.81991677823E+00  0.82195890259E+00  0.21283011235E+00  0.11803290293E+01  0.00000000000E+00 0. -1.
         11    1    3    3    0    0  0.39222758779E+00  0.38418851078E+02  0.47581071980E+00  0.38423799353E+02  0.51100000000E-03 0. -1.
        -11    1    3    3    0    0  0.65768836075E+01  0.21793506306E+01  0.56800583012E+01  0.89592426981E+01  0.51100000000E-03 0.  1.
        -12    1    3    3    0    0 -0.77890279735E+01 -0.41420160611E+02 -0.63686991333E+01  0.42624628919E+02  0.00000000000E+00 0.  1.
</event>
<event>
 7    1  0.2148778E-015  0.9000778E+02  0.7816164E-02  0.1186339E+00
        -11   -1    0    0    0    0  0.00000000000E+00  0.00000000000E+00  0.45593999997E+02  0.45594000000E+02  0.51100000000E-03 0.  1.
         11   -1    0    0    0    0 -0.00000000000E+00 -0.00000000000E+00 -0.45593999997E+02  0.45594000000E+02  0.51100000000E-03 0. -1.
    9900012    2    1    2    0    0 -0.33699603555E+00 -0.74923451292E+00  0.84734560301E+00  0.90007782539E+02  0.90000044469E+02 0.  0.
         12    1    1    2    0    0  0.33699603555E+00  0.74923451292E+00 -0.84734560301E+00  0.11802174606E+01  0.00000000000E+00 0. -1.
         11    1    3    3    0    0 -0.17531220075E+02 -0.27053973195E+02 -0.19261757215E+02  0.37553647416E+02  0.51100000000E-03 0. -1.
        -11    1    3    3    0    0 -0.82187629098E+01 -0.37087654249E+01  0.51069951491E+01  0.10362644665E+02  0.51100000000E-03 0.  1.
        -12    1    3    3    0    0  0.25412986949E+02  0.30013504107E+02  0.15002107669E+02  0.42091490458E+02  0.00000000000E+00 0.  1.
</event>
<event>
 7    1  0.2148778E-015  0.9000788E+02  0.7816164E-02  0.1186339E+00
        -11   -1    0    0    0    0  0.00000000000E+00  0.00000000000E+00  0.45593999997E+02  0.45594000000E+02  0.51100000000E-03 0.  1.
         11   -1    0    0    0    0 -0.00000000000E+00 -0.00000000000E+00 -0.45593999997E+02  0.45594000000E+02  0.51100000000E-03 0. -1.
    9900012    2    1    2    0    0 -0.45111685660E-01 -0.10840919894E+01  0.46411562050E+00  0.90007875509E+02  0.90000138665E+02 0.  0.
         12    1    1    2    0    0  0.45111685660E-01  0.10840919894E+01 -0.46411562050E+00  0.11801244912E+01  0.00000000000E+00 0. -1.
         11    1    3    3    0    0 -0.36867769726E+01 -0.48789460076E+01 -0.32833425757E+02  0.33398058114E+02  0.51100000000E-03 0. -1.
        -11    1    3    3    0    0 -0.20686919868E+01  0.93613529055E+01 -0.92496127424E+01  0.13321777318E+02  0.51100000000E-03 0.  1.
        -12    1    3    3    0    0  0.57103572738E+01 -0.55664988872E+01  0.42547154120E+02  0.43288040077E+02  0.00000000000E+00 0.  1.
</event>
<event>
 7    1  0.2148778E-015  0.9000776E+02  0.7816164E-02  0.1186339E+00
        -11   -1    0    0    0    0  0.00000000000E+00  0.00000000000E+00  0.45593999997E+02  0.45594000000E+02  0.51100000000E-03 0.  1.
         11   -1    0    0    0    0 -0.00000000000E+00 -0.00000000000E+00 -0.45593999997E+02  0.45594000000E+02  0.51100000000E-03 0. -1.
    9900012    2    1    2    0    0  0.68233137843E+00 -0.85841005159E+00 -0.43649921735E+00  0.90007756172E+02  0.90000017754E+02 0.  0.
         12    1    1    2    0    0 -0.68233137843E+00  0.85841005159E+00  0.43649921735E+00  0.11802438279E+01  0.00000000000E+00 0. -1.
         11    1    3    3    0    0  0.27849931966E+02 -0.16168178646E+02 -0.24275191738E+02  0.40327579216E+02  0.51100000000E-03 0. -1.
        -11    1    3    3    0    0 -0.89533422635E+01  0.56327021725E+00 -0.66919310649E+01  0.11192030766E+02  0.51100000000E-03 0.  1.
        -12    1    3    3    0    0 -0.18214258324E+02  0.14746498377E+02  0.30530623586E+02  0.38488146191E+02  0.00000000000E+00 0.  1.
</event>
<event>
 7    1  0.2148778E-015  0.9000774E+02  0.7816164E-02  0.1186339E+00
        -11   -1    0    0    0    0  0.00000000000E+00  0.00000000000E+00  0.45593999997E+02  0.45594000000E+02  0.51100000000E-03 0.  1.
         11   -1    0    0    0    0 -0.00000000000E+00 -0.00000000000E+00 -0.45593999997E+02  0.45594000000E+02  0.51100000000E-03 0. -1.
    9900012    2    1    2    0    0  0.13579008158E+00  0.68471538906E+00  0.95169977807E+00  0.90007743003E+02  0.90000004411E+02 0.  0.
         12    1    1    2    0    0 -0.13579008158E+00 -0.68471538906E+00 -0.95169977807E+00  0.11802569965E+01  0.00000000000E+00 0. -1.
         11    1    3    3    0    0 -0.53737337872E+01  0.12412951768E+01 -0.92693950822E+01  0.10786079639E+02  0.51100000000E-03 0. -1.
        -11    1    3    3    0    0 -0.32194827347E+02 -0.17983463302E+02  0.72146651763E+01  0.37576099506E+02  0.51100000000E-03 0.  1.
         12    1    3    3    0    0  0.37704351216E+02  0.17426883514E+02  0.30064296839E+01  0.41645563858E+02  0.00000000000E+00 0. -1.
</event>
<event>
 7    1  0.2148778E-015  0.9000773E+02  0.7816164E-02  0.1186339E+00
        -11   -1    0    0    0    0  0.00000000000E+00  0.00000000000E+00  0.45593999997E+02  0.45594000000E+02  0.51100000000E-03 0.  1.
         11   -1    0    0    0    0 -0.00000000000E+00 -0.00000000000E+00 -0.45593999997E+02  0.45594000000E+02  0.51100000000E-03 0. -1.
    9900012    2    1    2    0    0 -0.10398863980E+01 -0.67445688598E-02 -0.55823220502E+00  0.90007732062E+02  0.89999993326E+02 0.  0.
         12    1    1    2    0    0  0.10398863980E+01  0.67445688598E-02  0.55823220502E+00  0.11802679376E+01  0.00000000000E+00 0. -1.
         11    1    3    3    0    0  0.22475291254E+01  0.36184042446E+01  0.79314345324E+01  0.90028823412E+01  0.51100000000E-03 0. -1.
        -11    1    3    3    0    0  0.35045475995E+02  0.27130440746E+01  0.11920754333E+02  0.37116712947E+02  0.51100000000E-03 0.  1.
         12    1    3    3    0    0 -0.38332891518E+02 -0.63381928881E+01 -0.20410421070E+02  0.43888136774E+02  0.00000000000E+00 0. -1.
</event>
<event>
 7    1  0.2148778E-015  0.9000780E+02  0.7816164E-02  0.1186339E+00
        -11   -1    0    0    0    0  0.00000000000E+00  0.00000000000E+00  0.45593999997E+02  0.45594000000E+02  0.51100000000E-03 0.  1.
         11   -1    0    0    0    0 -0.00000000000E+00 -0.00000000000E+00 -0.45593999997E+02  0.45594000000E+02  0.51100000000E-03 0. -1.
    9900012    2    1    2    0    0 -0.22293835468E+00  0.33426168707E+00  0.11097052623E+01  0.90007797410E+02  0.90000059535E+02 0.  0.
         12    1    1    2    0    0  0.22293835468E+00 -0.33426168707E+00 -0.11097052623E+01  0.11802025904E+01  0.00000000000E+00 0. -1.
         11    1    3    3    0    0  0.79969932276E+01  0.17060083885E+01  0.22927402491E+01  0.84922920001E+01  0.51100000000E-03 0. -1.
        -11    1    3    3    0    0  0.25261386747E+01 -0.33691868584E+02  0.21997056157E+02  0.40316173741E+02  0.51100000000E-03 0.  1.
         12    1    3    3    0    0 -0.10746070257E+02  0.32320121883E+02 -0.23180091144E+02  0.41199331668E+02  0.00000000000E+00 0. -1.
</event>
<event>
 7    1  0.2148778E-015  0.9000765E+02  0.7816164E-02  0.1186339E+00
        -11   -1    0    0    0    0  0.00000000000E+00  0.00000000000E+00  0.45593999997E+02  0.45594000000E+02  0.51100000000E-03 0.  1.
         11   -1    0    0    0    0 -0.00000000000E+00 -0.00000000000E+00 -0.45593999997E+02  0.45594000000E+02  0.51100000000E-03 0. -1.
    9900012    2    1    2    0    0  0.17836195683E+00 -0.38787154677E+00  0.11004359273E+01  0.90007654053E+02  0.89999914286E+02 0.  0.
         12    1    1    2    0    0 -0.17836195683E+00  0.38787154677E+00 -0.11004359273E+01  0.11803459470E+01  0.00000000000E+00 0. -1.
         11    1    3    3    0    0 -0.98534263539E+01  0.37840914110E+01 -0.42496727273E+02  0.43787911435E+02  0.51100000000E-03 0. -1.
        -11    1    3    3    0    0  0.19821032592E+01 -0.32418017095E+01  0.30545825575E+01  0.48752934799E+01  0.51100000000E-03 0.  1.
        -12    1    3    3    0    0  0.80496850515E+01 -0.93016124834E+00  0.40542580642E+02  0.41344449138E+02  0.00000000000E+00 0.  1.
</event>
<event>
 7    1  0.2148778E-015  0.9000768E+02  0.7816164E-02  0.1186339E+00
        -11   -1    0    0    0    0  0.00000000000E+00  0.00000000000E+00  0.45593999997E+02  0.45594000000E+02  0.51100000000E-03 0. -1.
         11   -1    0    0    0    0 -0.00000000000E+00 -0.00000000000E+00 -0.45593999997E+02  0.45594000000E+02  0.51100000000E-03 0.  1.
    9900012    2    1    2    0    0  0.10260045063E+01  0.57782525783E+00  0.81212828191E-01  0.90007676824E+02  0.89999937358E+02 0.  0.
         12    1    1    2    0    0 -0.10260045063E+01 -0.57782525783E+00 -0.81212828191E-01  0.11803231756E+01  0.00000000000E+00 0. -1.
         11    1    3    3    0    0  0.26534124588E+02  0.26334756878E+02 -0.40273503927E+01  0.37600515142E+02  0.51100000000E-03 0. -1.
        -11    1    3    3    0    0  0.83124633403E+01  0.19004899871E+01  0.21310117850E-01  0.85269785597E+01  0.51100000000E-03 0.  1.
        -12    1    3    3    0    0 -0.33820583422E+02 -0.27657421608E+02  0.40872531030E+01  0.43880183123E+02  0.00000000000E+00 0.  1.
</event>
<event>
 7    1  0.2148778E-015  0.9000774E+02  0.7816164E-02  0.1186339E+00
        -11   -1    0    0    0    0  0.00000000000E+00  0.00000000000E+00  0.45593999997E+02  0.45594000000E+02  0.51100000000E-03 0.  1.
         11   -1    0    0    0    0 -0.00000000000E+00 -0.00000000000E+00 -0.45593999997E+02  0.45594000000E+02  0.51100000000E-03 0. -1.
    9900012    2    1    2    0    0 -0.96342642736E+00  0.46778274510E+00 -0.49598491936E+00  0.90007740614E+02  0.90000001990E+02 0.  0.
         12    1    1    2    0    0  0.96342642736E+00 -0.46778274510E+00  0.49598491936E+00  0.11802593858E+01  0.00000000000E+00 0. -1.
         11    1    3    3    0    0  0.76183058092E+01 -0.11174570550E+01  0.68907102969E+01  0.10332917416E+02  0.51100000000E-03 0. -1.
        -11    1    3    3    0    0  0.29904681215E+02 -0.19201634081E+02 -0.47433804927E+01  0.35853763662E+02  0.51100000000E-03 0.  1.
         12    1    3    3    0    0 -0.38486413452E+02  0.20786873881E+02 -0.26433147236E+01  0.43821059536E+02  0.00000000000E+00 0. -1.
</event>
<event>
 7    1  0.2148778E-015  0.9000767E+02  0.7816164E-02  0.1186339E+00
        -11   -1    0    0    0    0  0.00000000000E+00  0.00000000000E+00  0.45593999997E+02  0.45594000000E+02  0.51100000000E-03 0.  1.
         11   -1    0    0    0    0 -0.00000000000E+00 -0.00000000000E+00 -0.45593999997E+02  0.45594000000E+02  0.51100000000E-03 0. -1.
    9900012    2    1    2    0    0  0.45528822090E-01 -0.11344350048E+01 -0.32273346830E+00  0.90007672696E+02  0.89999933175E+02 0.  0.
         12    1    1    2    0    0 -0.45528822090E-01  0.11344350048E+01  0.32273346830E+00  0.11803273044E+01  0.00000000000E+00 0. -1.
         11    1    3    3    0    0 -0.39811176201E+01 -0.38877444823E+02 -0.70871129954E+01  0.39718159378E+02  0.51100000000E-03 0. -1.
        -11    1    3    3    0    0 -0.88198522832E+01  0.18127992034E+01 -0.50766613281E+01  0.10336756055E+02  0.51100000000E-03 0.  1.
        -12    1    3    3    0    0  0.12846498725E+02  0.35930210615E+02  0.11841040855E+02  0.39952757262E+02  0.00000000000E+00 0.  1.
</event>
<event>
 7    1  0.2148778E-015  0.9000771E+02  0.7816164E-02  0.1186339E+00
        -11   -1    0    0    0    0  0.00000000000E+00  0.00000000000E+00  0.45593999997E+02  0.45594000000E+02  0.51100000000E-03 0. -1.
         11   -1    0    0    0    0 -0.00000000000E+00 -0.00000000000E+00 -0.45593999997E+02  0.45594000000E+02  0.51100000000E-03 0.  1.
    9900012    2    1    2    0    0  0.10076517789E+01  0.17504036490E+00 -0.58912958106E+00  0.90007714060E+02  0.89999975086E+02 0.  0.
         12    1    1    2    0    0 -0.10076517789E+01 -0.17504036490E+00  0.58912958106E+00  0.11802859400E+01  0.00000000000E+00 0. -1.
         11    1    3    3    0    0 -0.25058326778E+02 -0.21922651989E+02  0.23832756517E+02  0.40945362309E+02  0.51100000000E-03 0. -1.
        -11    1    3    3    0    0 -0.24416557147E+01 -0.95654189385E+00  0.24635158378E+01  0.35979946592E+01  0.51100000000E-03 0.  1.
        -12    1    3    3    0    0  0.28507634272E+02  0.23054234248E+02 -0.26885401936E+02  0.45464357092E+02  0.00000000000E+00 0.  1.
</event>
<event>
 7    1  0.2792900E-015  0.9000778E+02  0.7816164E-02  0.1186339E+00
        -11   -1    0    0    0    0  0.00000000000E+00  0.00000000000E+00  0.45593999997E+02  0.45594000000E+02  0.51100000000E-03 0.  1.
         11   -1    0    0    0    0 -0.00000000000E+00 -0.00000000000E+00 -0.45593999997E+02  0.45594000000E+02  0.51100000000E-03 0. -1.
    9900012    2    1    2    0    0 -0.98961343971E+00  0.37519862483E+00  0.52231678858E+00  0.90007778158E+02  0.90000040030E+02 0.  0.
         12    1    1    2    0    0  0.98961343971E+00 -0.37519862483E+00 -0.52231678858E+00  0.11802218418E+01  0.00000000000E+00 0. -1.
         11    1    3    3    0    0  0.61415155389E+01 -0.26167578911E+01  0.70511624542E+01  0.97100219975E+01  0.51100000000E-03 0. -1.
        -11    1    3    3    0    0 -0.40106553675E+01 -0.92364840032E+01  0.35247037657E+02  0.36657218349E+02  0.51100000000E-03 0.  1.
         12    1    3    3    0    0 -0.31204736111E+01  0.12228440519E+02 -0.41775883323E+02  0.43640537812E+02  0.00000000000E+00 0. -1.
</event>
<event>
 7    1  0.2148778E-015  0.9000779E+02  0.7816164E-02  0.1186339E+00
        -11   -1    0    0    0    0  0.00000000000E+00  0.00000000000E+00  0.45593999997E+02  0.45594000000E+02  0.51100000000E-03 0. -1.
         11   -1    0    0    0    0 -0.00000000000E+00 -0.00000000000E+00 -0.45593999997E+02  0.45594000000E+02  0.51100000000E-03 0.  1.
    9900012    2    1    2    0    0 -0.59223325965E+00  0.76480751761E+00 -0.67617904224E+00  0.90007792870E+02  0.90000054936E+02 0.  0.
         12    1    1    2    0    0  0.59223325965E+00 -0.76480751761E+00  0.67617904224E+00  0.11802071301E+01  0.00000000000E+00 0. -1.
         11    1    3    3    0    0  0.15044792064E+02  0.52378551780E+01  0.36193954896E+02  0.39544699599E+02  0.51100000000E-03 0. -1.
        -11    1    3    3    0    0  0.60670814562E-01 -0.10772583185E+02 -0.10174032218E+01  0.10820690320E+02  0.51100000000E-03 0.  1.
        -12    1    3    3    0    0 -0.15697696139E+02  0.62995355249E+01 -0.35852730716E+02  0.39642402951E+02  0.00000000000E+00 0.  1.
</event>
<event>
 7    1  0.2148778E-015  0.9000775E+02  0.7816164E-02  0.1186339E+00
        -11   -1    0    0    0    0  0.00000000000E+00  0.00000000000E+00  0.45593999997E+02  0.45594000000E+02  0.51100000000E-03 0.  1.
         11   -1    0    0    0    0 -0.00000000000E+00 -0.00000000000E+00 -0.45593999997E+02  0.45594000000E+02  0.51100000000E-03 0. -1.
    9900012    2    1    2    0    0 -0.31689213190E+00  0.93382498855E+00  0.64848253463E+00  0.90007754547E+02  0.90000016107E+02 0.  0.
         12    1    1    2    0    0  0.31689213190E+00 -0.93382498855E+00 -0.64848253463E+00  0.11802454534E+01  0.00000000000E+00 0. -1.
         11    1    3    3    0    0 -0.51610143916E+01 -0.28719771971E+01 -0.21324470806E+00  0.59101434955E+01  0.51100000000E-03 0. -1.
        -11    1    3    3    0    0 -0.36838579272E+02 -0.11231397169E+02 -0.68567469336E+01  0.39118284522E+02  0.51100000000E-03 0.  1.
         12    1    3    3    0    0  0.41682701532E+02  0.15037199355E+02  0.77184741763E+01  0.44979326529E+02  0.00000000000E+00 0. -1.
</event>
<event>
 7    1  0.2148778E-015  0.9000786E+02  0.7816164E-02  0.1186339E+00
        -11   -1    0    0    0    0  0.00000000000E+00  0.00000000000E+00  0.45593999997E+02  0.45594000000E+02  0.51100000000E-03 0.  1.
         11   -1    0    0    0    0 -0.00000000000E+00 -0.00000000000E+00 -0.45593999997E+02  0.45594000000E+02  0.51100000000E-03 0. -1.
    9900012    2    1    2    0    0 -0.11413266489E+01  0.21079506513E+00  0.21368421214E+00  0.90007863558E+02  0.90000126557E+02 0.  0.
         12    1    1    2    0    0  0.11413266489E+01 -0.21079506513E+00 -0.21368421214E+00  0.11801364419E+01  0.00000000000E+00 0. -1.
         11    1    3    3    0    0  0.12331405230E+02  0.56965011042E+01 -0.34913018100E+02  0.37462414670E+02  0.51100000000E-03 0. -1.
        -11    1    3    3    0    0 -0.33268366858E+01  0.79702036776E+01 -0.43148014664E+01  0.96545067689E+01  0.51100000000E-03 0.  1.
        -12    1    3    3    0    0 -0.10145895193E+02 -0.13455909717E+02  0.39441503779E+02  0.42890942119E+02  0.00000000000E+00 0.  1.
</event>
<event>
 7    1  0.2148778E-015  0.9000786E+02  0.7816164E-02  0.1186339E+00
        -11   -1    0    0    0    0  0.00000000000E+00  0.00000000000E+00  0.45593999997E+02  0.45594000000E+02  0.51100000000E-03 0.  1.
         11   -1    0    0    0    0 -0.00000000000E+00 -0.00000000000E+00 -0.45593999997E+02  0.45594000000E+02  0.51100000000E-03 0. -1.
    9900012    2    1    2    0    0  0.31628832826E+00 -0.95148596296E+00 -0.62238230907E+00  0.90007862897E+02  0.90000125887E+02 0.  0.
         12    1    1    2    0    0 -0.31628832826E+00  0.95148596296E+00  0.62238230907E+00  0.11801371035E+01  0.00000000000E+00 0. -1.
         11    1    3    3    0    0 -0.22251817173E+02  0.20185703696E+02 -0.22931632009E+02  0.37795049253E+02  0.51100000000E-03 0. -1.
        -11    1    3    3    0    0  0.52977738598E+01  0.94552019980E+01  0.47245258799E+00  0.10848523605E+02  0.51100000000E-03 0.  1.
        -12    1    3    3    0    0  0.17270331641E+02 -0.30592391657E+02  0.21836797112E+02  0.41364290039E+02  0.00000000000E+00 0.  1.
</event>
<event>
 7    1  0.2148778E-015  0.9000788E+02  0.7816164E-02  0.1186339E+00
        -11   -1    0    0    0    0  0.00000000000E+00  0.00000000000E+00  0.45593999997E+02  0.45594000000E+02  0.51100000000E-03 0.  1.
         11   -1    0    0    0    0 -0.00000000000E+00 -0.00000000000E+00 -0.45593999997E+02  0.45594000000E+02  0.51100000000E-03 0. -1.
    9900012    2    1    2    0    0 -0.10056197816E+01  0.58871376450E+00 -0.18659655912E+00  0.90007884193E+02  0.90000147464E+02 0.  0.
         12    1    1    2    0    0  0.10056197816E+01 -0.58871376450E+00  0.18659655912E+00  0.11801158068E+01  0.00000000000E+00 0. -1.
         11    1    3    3    0    0  0.27607723170E+01 -0.67681062396E+01  0.91736527096E+01  0.11729664537E+02  0.51100000000E-03 0. -1.
        -11    1    3    3    0    0  0.14162620285E+02 -0.12693571713E+02  0.27015279055E+02  0.33038339529E+02  0.51100000000E-03 0.  1.
         12    1    3    3    0    0 -0.17929012384E+02  0.20050391717E+02 -0.36375528323E+02  0.45239880127E+02  0.00000000000E+00 0. -1.
</event>
<event>
 7    1  0.2148778E-015  0.9000775E+02  0.7816164E-02  0.1186339E+00
        -11   -1    0    0    0    0  0.00000000000E+00  0.00000000000E+00  0.45593999997E+02  0.45594000000E+02  0.51100000000E-03 0.  1.
         11   -1    0    0    0    0 -0.00000000000E+00 -0.00000000000E+00 -0.45593999997E+02  0.45594000000E+02  0.51100000000E-03 0. -1.
    9900012    2    1    2    0    0  0.72420229237E+00 -0.11382438671E+00  0.92496432442E+00  0.90007752588E+02  0.90000014123E+02 0.  0.
         12    1    1    2    0    0 -0.72420229237E+00  0.11382438671E+00 -0.92496432442E+00  0.11802474117E+01  0.00000000000E+00 0. -1.
         11    1    3    3    0    0 -0.23385857999E+02 -0.16006796661E+02 -0.18638173217E+02  0.33918982809E+02  0.51100000000E-03 0. -1.
        -11    1    3    3    0    0 -0.11625575159E+02  0.10544926436E+02  0.17193507006E+01  0.15789415391E+02  0.51100000000E-03 0.  1.
        -12    1    3    3    0    0  0.35735635450E+02  0.53480458383E+01  0.17843786841E+02  0.40299354388E+02  0.00000000000E+00 0.  1.
</event>
<event>
 7    1  0.2148778E-015  0.9000779E+02  0.7816164E-02  0.1186339E+00
        -11   -1    0    0    0    0  0.00000000000E+00  0.00000000000E+00  0.45593999997E+02  0.45594000000E+02  0.51100000000E-03 0.  1.
         11   -1    0    0    0    0 -0.00000000000E+00 -0.00000000000E+00 -0.45593999997E+02  0.45594000000E+02  0.51100000000E-03 0. -1.
    9900012    2    1    2    0    0 -0.16219427538E+00 -0.20992396360E+00  0.11500067580E+01  0.90007792138E+02  0.90000054195E+02 0.  0.
         12    1    1    2    0    0  0.16219427538E+00  0.20992396360E+00 -0.11500067580E+01  0.11802078617E+01  0.00000000000E+00 0. -1.
         11    1    3    3    0    0 -0.67267593827E+01  0.10777242908E+01 -0.48908356057E+01  0.83863612266E+01  0.51100000000E-03 0. -1.
        -11    1    3    3    0    0 -0.11778283058E+02 -0.29010805725E+02  0.27816495384E+02  0.41882122873E+02  0.51100000000E-03 0.  1.
         12    1    3    3    0    0  0.18342848166E+02  0.27723157470E+02 -0.21775653020E+02  0.39739308039E+02  0.00000000000E+00 0. -1.
</event>
<event>
 7    1  0.2148778E-015  0.9000781E+02  0.7816164E-02  0.1186339E+00
        -11   -1    0    0    0    0  0.00000000000E+00  0.00000000000E+00  0.45593999997E+02  0.45594000000E+02  0.51100000000E-03 0.  1.
         11   -1    0    0    0    0 -0.00000000000E+00 -0.00000000000E+00 -0.45593999997E+02  0.45594000000E+02  0.51100000000E-03 0. -1.
    9900012    2    1    2    0    0 -0.11752614923E+01  0.10609866457E+00 -0.19065914493E-01  0.90007805096E+02  0.90000067323E+02 0.  0.
         12    1    1    2    0    0  0.11752614923E+01 -0.10609866457E+00  0.19065914493E-01  0.11801949038E+01  0.00000000000E+00 0. -1.
         11    1    3    3    0    0  0.45996186295E+01  0.15316541925E+02 -0.34497795915E+02  0.38024345772E+02  0.51100000000E-03 0. -1.
        -11    1    3    3    0    0 -0.17268269672E+02 -0.87807995565E+01  0.54774025975E+01  0.20132002330E+02  0.51100000000E-03 0.  1.
        -12    1    3    3    0    0  0.11493389551E+02 -0.64296437043E+01  0.29001327403E+02  0.31851456995E+02  0.00000000000E+00 0.  1.
</event>
<event>
 7    1  0.3008044E-015  0.9000775E+02  0.7816164E-02  0.1186339E+00
        -11   -1    0    0    0    0  0.00000000000E+00  0.00000000000E+00  0.45593999997E+02  0.45594000000E+02  0.51100000000E-03 0. -1.
         11   -1    0    0    0    0 -0.00000000000E+00 -0.00000000000E+00 -0.45593999997E+02  0.45594000000E+02  0.51100000000E-03 0.  1.
    9900012    2    1    2    0    0 -0.27772835624E+00 -0.59218568206E-01 -0.11455806285E+01  0.90007747970E+02  0.90000009443E+02 0.  0.
         12    1    1    2    0    0  0.27772835624E+00  0.59218568206E-01  0.11455806285E+01  0.11802520303E+01  0.00000000000E+00 0. -1.
         11    1    3    3    0    0 -0.43442311259E+01  0.71176978556E+01  0.36509998312E+01  0.91029537441E+01  0.51100000000E-03 0. -1.
        -11    1    3    3    0    0  0.23061563149E+02  0.54255131743E+01 -0.35490843977E+02  0.42671675553E+02  0.51100000000E-03 0.  1.
         12    1    3    3    0    0 -0.18995060379E+02 -0.12602429598E+02  0.30694263517E+02  0.38233118672E+02  0.00000000000E+00 0. -1.
</event>
<event>
 7    1  0.2148778E-015  0.9000774E+02  0.7816164E-02  0.1186339E+00
        -11   -1    0    0    0    0  0.00000000000E+00  0.00000000000E+00  0.45593999997E+02  0.45594000000E+02  0.51100000000E-03 0. -1.
         11   -1    0    0    0    0 -0.00000000000E+00 -0.00000000000E+00 -0.45593999997E+02  0.45594000000E+02  0.51100000000E-03 0.  1.
    9900012    2    1    2    0    0  0.67462042315E+00 -0.96817822748E+00 -0.23191650253E-01  0.90007737466E+02  0.89999998801E+02 0.  0.
         12    1    1    2    0    0 -0.67462042315E+00  0.96817822748E+00  0.23191650253E-01  0.11802625336E+01  0.00000000000E+00 0. -1.
         11    1    3    3    0    0 -0.32700912874E+02 -0.18322132399E+02 -0.18966781832E+02  0.42009392423E+02  0.51100000000E-03 0. -1.
        -11    1    3    3    0    0 -0.51008968136E+00  0.41344173278E+00  0.87392184670E+01  0.87638499088E+01  0.51100000000E-03 0.  1.
        -12    1    3    3    0    0  0.33885622979E+02  0.16940512439E+02  0.10204371715E+02  0.39234495134E+02  0.00000000000E+00 0.  1.
</event>
<event>
 7    1  0.2148778E-015  0.9000775E+02  0.7816164E-02  0.1186339E+00
        -11   -1    0    0    0    0  0.00000000000E+00  0.00000000000E+00  0.45593999997E+02  0.45594000000E+02  0.51100000000E-03 0. -1.
         11   -1    0    0    0    0 -0.00000000000E+00 -0.00000000000E+00 -0.45593999997E+02  0.45594000000E+02  0.51100000000E-03 0.  1.
    9900012    2    1    2    0    0  0.56255957861E+00  0.16439295899E+00 -0.10244460971E+01  0.90007750819E+02  0.90000012329E+02 0.  0.
         12    1    1    2    0    0 -0.56255957861E+00 -0.16439295899E+00  0.10244460971E+01  0.11802491814E+01  0.00000000000E+00 0. -1.
         11    1    3    3    0    0  0.42997427402E+01  0.82950689816E+01 -0.11022340341E+02  0.14449496320E+02  0.51100000000E-03 0. -1.
        -11    1    3    3    0    0 -0.33307674698E+02  0.34639449841E+00 -0.14406922276E+02  0.36291604989E+02  0.51100000000E-03 0.  1.
         12    1    3    3    0    0  0.29570491537E+02 -0.84770705210E+01  0.24404816520E+02  0.39266649510E+02  0.00000000000E+00 0. -1.
</event>
<event>
 7    1  0.2148778E-015  0.9000751E+02  0.7816164E-02  0.1186340E+00
        -11   -1    0    0    0    0  0.00000000000E+00  0.00000000000E+00  0.45593999997E+02  0.45594000000E+02  0.51100000000E-03 0. -1.
         11   -1    0    0    0    0 -0.00000000000E+00 -0.00000000000E+00 -0.45593999997E+02  0.45594000000E+02  0.51100000000E-03 0.  1.
    9900012    2    1    2    0    0 -0.87273340970E-01 -0.11196803458E+01 -0.36366973118E+00  0.90007510108E+02  0.89999768441E+02 0.  0.
         12    1    1    2    0    0  0.87273340970E-01  0.11196803458E+01  0.36366973118E+00  0.11804898924E+01  0.00000000000E+00 0. -1.
         11    1    3    3    0    0 -0.21753036757E+01 -0.98761982873E+01  0.16498153151E+01  0.10246615516E+02  0.51100000000E-03 0. -1.
        -11    1    3    3    0    0 -0.26932724632E+02 -0.31248734177E+01 -0.28042749612E+02  0.39006823711E+02  0.51100000000E-03 0.  1.
         12    1    3    3    0    0  0.29020754967E+02  0.11881391359E+02  0.26029264566E+02  0.40754070880E+02  0.00000000000E+00 0. -1.
</event>
<event>
 7    1  0.2148778E-015  0.9000773E+02  0.7816164E-02  0.1186339E+00
        -11   -1    0    0    0    0  0.00000000000E+00  0.00000000000E+00  0.45593999997E+02  0.45594000000E+02  0.51100000000E-03 0.  1.
         11   -1    0    0    0    0 -0.00000000000E+00 -0.00000000000E+00 -0.45593999997E+02  0.45594000000E+02  0.51100000000E-03 0. -1.
    9900012    2    1    2    0    0 -0.57301745667E+00 -0.51053182220E+00  0.89668220306E+00  0.90007732776E+02  0.89999994048E+02 0.  0.
         12    1    1    2    0    0  0.57301745667E+00  0.51053182220E+00 -0.89668220306E+00  0.11802672242E+01  0.00000000000E+00 0. -1.
         11    1    3    3    0    0 -0.37039214065E+02 -0.22197775305E+01 -0.11384567140E+01  0.37123131263E+02  0.51100000000E-03 0. -1.
        -11    1    3    3    0    0 -0.27053345906E+01 -0.42674726786E+01 -0.10225927613E+02  0.11406127920E+02  0.51100000000E-03 0.  1.
        -12    1    3    3    0    0  0.39171531199E+02  0.59767183869E+01  0.12261066530E+02  0.41478473593E+02  0.00000000000E+00 0.  1.
</event>
<event>
 7    1  0.2148778E-015  0.9000773E+02  0.7816164E-02  0.1186339E+00
        -11   -1    0    0    0    0  0.00000000000E+00  0.00000000000E+00  0.45593999997E+02  0.45594000000E+02  0.51100000000E-03 0. -1.
         11   -1    0    0    0    0 -0.00000000000E+00 -0.00000000000E+00 -0.45593999997E+02  0.45594000000E+02  0.51100000000E-03 0.  1.
    9900012    2    1    2    0    0  0.55287605275E+00  0.86727363029E+00  0.57896619277E+00  0.90007729975E+02  0.89999991211E+02 0.  0.
         12    1    1    2    0    0 -0.55287605275E+00 -0.86727363029E+00 -0.57896619277E+00  0.11802700250E+01  0.00000000000E+00 0. -1.
         11    1    3    3    0    0 -0.73047091975E+01  0.55275159478E+01 -0.28659772632E+01  0.95982308239E+01  0.51100000000E-03 0. -1.
        -11    1    3    3    0    0 -0.17733831350E+02 -0.35823734913E+02  0.29528328325E+01  0.40081766172E+02  0.51100000000E-03 0.  1.
         12    1    3    3    0    0  0.25591416601E+02  0.31163492595E+02  0.49211062353E+00  0.40327732979E+02  0.00000000000E+00 0. -1.
</event>
<event>
 7    1  0.2148778E-015  0.9000784E+02  0.7816164E-02  0.1186339E+00
        -11   -1    0    0    0    0  0.00000000000E+00  0.00000000000E+00  0.45593999997E+02  0.45594000000E+02  0.51100000000E-03 0.  1.
         11   -1    0    0    0    0 -0.00000000000E+00 -0.00000000000E+00 -0.45593999997E+02  0.45594000000E+02  0.51100000000E-03 0. -1.
    9900012    2    1    2    0    0 -0.34821446749E+00  0.11118594963E+01  0.18784042565E+00  0.90007843705E+02  0.90000106442E+02 0.  0.
         12    1    1    2    0    0  0.34821446749E+00 -0.11118594963E+01 -0.18784042565E+00  0.11801562949E+01  0.00000000000E+00 0. -1.
         11    1    3    3    0    0 -0.75225637457E+01  0.36228930333E+01 -0.70519073814E+00  0.83792370462E+01  0.51100000000E-03 0. -1.
        -11    1    3    3    0    0 -0.62932909550E+01 -0.40660066234E+02 -0.51926482329E+00  0.41147492431E+02  0.51100000000E-03 0.  1.
         12    1    3    3    0    0  0.13467640233E+02  0.38149032697E+02  0.14122959871E+01  0.40481114228E+02  0.00000000000E+00 0. -1.
</event>
<event>
 7    1  0.2148778E-015  0.9000764E+02  0.7816164E-02  0.1186339E+00
        -11   -1    0    0    0    0  0.00000000000E+00  0.00000000000E+00  0.45593999997E+02  0.45594000000E+02  0.51100000000E-03 0. -1.
         11   -1    0    0    0    0 -0.00000000000E+00 -0.00000000000E+00 -0.45593999997E+02  0.45594000000E+02  0.51100000000E-03 0.  1.
    9900012    2    1    2    0    0 -0.10110020724E+00 -0.55865497348E+00 -0.10348589626E+01  0.90007640011E+02  0.89999900059E+02 0.  0.
         12    1    1    2    0    0  0.10110020724E+00  0.55865497348E+00  0.10348589626E+01  0.11803599890E+01  0.00000000000E+00 0. -1.
         11    1    3    3    0    0 -0.19338539495E+01  0.33407105852E+02  0.23022256606E+02  0.40617715494E+02  0.51100000000E-03 0. -1.
        -11    1    3    3    0    0  0.15589925086E+01  0.44342613416E+01 -0.32461544510E+01  0.57123244191E+01  0.51100000000E-03 0.  1.
        -12    1    3    3    0    0  0.27376123366E+00 -0.38400022167E+02 -0.20810961118E+02  0.43677600097E+02  0.00000000000E+00 0.  1.
</event>
<event>
 7    1  0.2148778E-015  0.9000759E+02  0.7816164E-02  0.1186339E+00
        -11   -1    0    0    0    0  0.00000000000E+00  0.00000000000E+00  0.45593999997E+02  0.45594000000E+02  0.51100000000E-03 0.  1.
         11   -1    0    0    0    0 -0.00000000000E+00 -0.00000000000E+00 -0.45593999997E+02  0.45594000000E+02  0.51100000000E-03 0. -1.
    9900012    2    1    2    0    0  0.44335654116E+00 -0.10594276031E+01 -0.27278330271E+00  0.90007592190E+02  0.89999851606E+02 0.  0.
         12    1    1    2    0    0 -0.44335654116E+00  0.10594276031E+01  0.27278330271E+00  0.11804078105E+01  0.00000000000E+00 0. -1.
         11    1    3    3    0    0 -0.37081328178E+02 -0.13423040217E+02 -0.83920055017E+01  0.40319085614E+02  0.51100000000E-03 0. -1.
        -11    1    3    3    0    0 -0.15959222876E+01 -0.37721991360E+01  0.60681749616E+01  0.73211475805E+01  0.51100000000E-03 0.  1.
        -12    1    3    3    0    0  0.39120607007E+02  0.16135811750E+02  0.20510472374E+01  0.42367358995E+02  0.00000000000E+00 0.  1.
</event>
<event>
 7    1  0.2148778E-015  0.9000769E+02  0.7816164E-02  0.1186339E+00
        -11   -1    0    0    0    0  0.00000000000E+00  0.00000000000E+00  0.45593999997E+02  0.45594000000E+02  0.51100000000E-03 0. -1.
         11   -1    0    0    0    0 -0.00000000000E+00 -0.00000000000E+00 -0.45593999997E+02  0.45594000000E+02  0.51100000000E-03 0.  1.
    9900012    2    1    2    0    0 -0.11103553478E+01  0.35487265545E+00 -0.18522779566E+00  0.90007689475E+02  0.89999950176E+02 0.  0.
         12    1    1    2    0    0  0.11103553478E+01 -0.35487265545E+00  0.18522779566E+00  0.11803105254E+01  0.00000000000E+00 0. -1.
         11    1    3    3    0    0 -0.93624711779E+01  0.11846646525E+01 -0.32333534513E+01  0.99756639728E+01  0.51100000000E-03 0. -1.
        -11    1    3    3    0    0 -0.35503574715E+02  0.48523163094E+01  0.21926114396E+01  0.35900645346E+02  0.51100000000E-03 0.  1.
         12    1    3    3    0    0  0.43755690545E+02 -0.56821083064E+01  0.85551421608E+00  0.44131380156E+02  0.00000000000E+00 0. -1.
</event>
<event>
 7    1  0.2403174E-015  0.9000792E+02  0.7816164E-02  0.1186339E+00
        -11   -1    0    0    0    0  0.00000000000E+00  0.00000000000E+00  0.45593999997E+02  0.45594000000E+02  0.51100000000E-03 0.  1.
         11   -1    0    0    0    0 -0.00000000000E+00 -0.00000000000E+00 -0.45593999997E+02  0.45594000000E+02  0.51100000000E-03 0. -1.
    9900012    2    1    2    0    0 -0.67032778367E+00  0.61623720971E+00  0.75066044347E+00  0.90007924266E+02  0.90000188066E+02 0.  0.
         12    1    1    2    0    0  0.67032778367E+00 -0.61623720971E+00 -0.75066044347E+00  0.11800757338E+01  0.00000000000E+00 0. -1.
         11    1    3    3    0    0  0.60667010496E+01 -0.69653965880E+01 -0.21178514795E+01  0.94766505899E+01  0.51100000000E-03 0. -1.
        -11    1    3    3    0    0  0.24915273791E+01  0.33289179886E+02  0.27881938111E+02  0.43494593678E+02  0.51100000000E-03 0.  1.
         12    1    3    3    0    0 -0.92285562124E+01 -0.25707546088E+02 -0.25013426188E+02  0.37036679998E+02  0.00000000000E+00 0. -1.
</event>
<event>
 7    1  0.2148778E-015  0.9000784E+02  0.7816164E-02  0.1186339E+00
        -11   -1    0    0    0    0  0.00000000000E+00  0.00000000000E+00  0.45593999997E+02  0.45594000000E+02  0.51100000000E-03 0.  1.
         11   -1    0    0    0    0 -0.00000000000E+00 -0.00000000000E+00 -0.45593999997E+02  0.45594000000E+02  0.51100000000E-03 0. -1.
    9900012    2    1    2    0    0 -0.74135452789E+00 -0.33068471903E+00  0.85662819007E+00  0.90007842902E+02  0.90000105628E+02 0.  0.
         12    1    1    2    0    0  0.74135452789E+00  0.33068471903E+00 -0.85662819007E+00  0.11801570978E+01  0.00000000000E+00 0. -1.
         11    1    3    3    0    0 -0.17207932049E+02 -0.87614295871E+00 -0.32236349208E+02  0.36552192307E+02  0.51100000000E-03 0. -1.
        -11    1    3    3    0    0 -0.80323685419E+01 -0.12012433992E+02  0.11401387188E+02  0.18406768996E+02  0.51100000000E-03 0.  1.
        -12    1    3    3    0    0  0.24498946063E+02  0.12557892232E+02  0.21691590211E+02  0.35048881599E+02  0.00000000000E+00 0.  1.
</event>
<event>
 7    1  0.2148778E-015  0.9000775E+02  0.7816164E-02  0.1186339E+00
        -11   -1    0    0    0    0  0.00000000000E+00  0.00000000000E+00  0.45593999997E+02  0.45594000000E+02  0.51100000000E-03 0. -1.
         11   -1    0    0    0    0 -0.00000000000E+00 -0.00000000000E+00 -0.45593999997E+02  0.45594000000E+02  0.51100000000E-03 0.  1.
    9900012    2    1    2    0    0 -0.39659217405E+00  0.40891759945E+00 -0.10336746179E+01  0.90007753343E+02  0.90000014887E+02 0.  0.
         12    1    1    2    0    0  0.39659217405E+00 -0.40891759945E+00  0.10336746179E+01  0.11802466570E+01  0.00000000000E+00 0. -1.
         11    1    3    3    0    0 -0.11969035209E+02 -0.19447271713E+02 -0.30074122025E+02  0.37761183731E+02  0.51100000000E-03 0. -1.
        -11    1    3    3    0    0  0.29645329695E+01 -0.77222307236E+00 -0.82331020093E+01  0.87845747283E+01  0.51100000000E-03 0.  1.
        -12    1    3    3    0    0  0.86079100658E+01  0.20628412385E+02  0.37273549416E+02  0.43461994884E+02  0.00000000000E+00 0.  1.
</event>
<event>
 7    1  0.2148778E-015  0.9000784E+02  0.7816164E-02  0.1186339E+00
        -11   -1    0    0    0    0  0.00000000000E+00  0.00000000000E+00  0.45593999997E+02  0.45594000000E+02  0.51100000000E-03 0.  1.
         11   -1    0    0    0    0 -0.00000000000E+00 -0.00000000000E+00 -0.45593999997E+02  0.45594000000E+02  0.51100000000E-03 0. -1.
    9900012    2    1    2    0    0 -0.70522012864E+00  0.15669057825E+00  0.93321366124E+00  0.90007841068E+02  0.90000103770E+02 0.  0.
         12    1    1    2    0    0  0.70522012864E+00 -0.15669057825E+00 -0.93321366124E+00  0.11801589320E+01  0.00000000000E+00 0. -1.
         11    1    3    3    0    0  0.25993984994E+02  0.20439642835E+02  0.79492789051E+01  0.34009664662E+02  0.51100000000E-03 0. -1.
        -11    1    3    3    0    0  0.51437962654E+01 -0.85643939817E+01  0.13159553317E+02  0.16522146594E+02  0.51100000000E-03 0.  1.
        -12    1    3    3    0    0 -0.31843001388E+02 -0.11718558275E+02 -0.20175618561E+02  0.39476029812E+02  0.00000000000E+00 0.  1.
</event>
<event>
 7    1  0.2148778E-015  0.9000797E+02  0.7816164E-02  0.1186339E+00
        -11   -1    0    0    0    0  0.00000000000E+00  0.00000000000E+00  0.45593999997E+02  0.45594000000E+02  0.51100000000E-03 0.  1.
         11   -1    0    0    0    0 -0.00000000000E+00 -0.00000000000E+00 -0.45593999997E+02  0.45594000000E+02  0.51100000000E-03 0. -1.
    9900012    2    1    2    0    0 -0.37372010191E+00  0.92823261763E+00  0.62544234258E+00  0.90007974309E+02  0.90000238770E+02 0.  0.
         12    1    1    2    0    0  0.37372010191E+00 -0.92823261763E+00 -0.62544234258E+00  0.11800256908E+01  0.00000000000E+00 0. -1.
         11    1    3    3    0    0 -0.34480535117E+01 -0.11008634415E+02 -0.24533490480E+02  0.27110353375E+02  0.51100000000E-03 0. -1.
        -11    1    3    3    0    0 -0.29099902714E+01  0.12913202847E+00 -0.17752952342E+02  0.17990331725E+02  0.51100000000E-03 0.  1.
        -12    1    3    3    0    0  0.59843236813E+01  0.11807735005E+02  0.42911885164E+02  0.44907289210E+02  0.00000000000E+00 0.  1.
</event>
<event>
 7    1  0.2148778E-015  0.9000784E+02  0.7816164E-02  0.1186339E+00
        -11   -1    0    0    0    0  0.00000000000E+00  0.00000000000E+00  0.45593999997E+02  0.45594000000E+02  0.51100000000E-03 0. -1.
         11   -1    0    0    0    0 -0.00000000000E+00 -0.00000000000E+00 -0.45593999997E+02  0.45594000000E+02  0.51100000000E-03 0.  1.
    9900012    2    1    2    0    0  0.68341582194E+00  0.56010933530E+00 -0.78229589715E+00  0.90007844703E+02  0.90000107454E+02 0.  0.
         12    1    1    2    0    0 -0.68341582194E+00 -0.56010933530E+00  0.78229589715E+00  0.11801552965E+01  0.00000000000E+00 0. -1.
         11    1    3    3    0    0 -0.37258666536E+01 -0.54524026641E+01 -0.38595129862E+01  0.76489618827E+01  0.51100000000E-03 0. -1.
        -11    1    3    3    0    0  0.13367152717E+02  0.99984973905E+01 -0.37269958671E+02  0.40837489412E+02  0.51100000000E-03 0.  1.
         12    1    3    3    0    0 -0.89578702419E+01 -0.39859853910E+01  0.40347175760E+02  0.41521393409E+02  0.00000000000E+00 0. -1.
</event>
<event>
 7    1  0.2148778E-015  0.9000774E+02  0.7816164E-02  0.1186339E+00
        -11   -1    0    0    0    0  0.00000000000E+00  0.00000000000E+00  0.45593999997E+02  0.45594000000E+02  0.51100000000E-03 0. -1.
         11   -1    0    0    0    0 -0.00000000000E+00 -0.00000000000E+00 -0.45593999997E+02  0.45594000000E+02  0.51100000000E-03 0.  1.
    9900012    2    1    2    0    0  0.11783080611E+00 -0.66721994549E+00 -0.96640655509E+00  0.90007742323E+02  0.90000003722E+02 0.  0.
         12    1    1    2    0    0 -0.11783080611E+00  0.66721994549E+00  0.96640655509E+00  0.11802576771E+01  0.00000000000E+00 0. -1.
         11    1    3    3    0    0 -0.78683564884E+01 -0.63105034012E+01  0.22120451891E+01  0.10326017199E+02  0.51100000000E-03 0. -1.
        -11    1    3    3    0    0 -0.33563504894E+02 -0.77121772754E+01  0.63286854271E+01  0.35014836835E+02  0.51100000000E-03 0.  1.
         12    1    3    3    0    0  0.41549692188E+02  0.13355460731E+02 -0.95071371713E+01  0.44666888290E+02  0.00000000000E+00 0. -1.
</event>
<event>
 7    1  0.2148778E-015  0.9000779E+02  0.7816164E-02  0.1186339E+00
        -11   -1    0    0    0    0  0.00000000000E+00  0.00000000000E+00  0.45593999997E+02  0.45594000000E+02  0.51100000000E-03 0. -1.
         11   -1    0    0    0    0 -0.00000000000E+00 -0.00000000000E+00 -0.45593999997E+02  0.45594000000E+02  0.51100000000E-03 0.  1.
    9900012    2    1    2    0    0  0.13594958404E+00  0.94595599460E+00 -0.69252111969E+00  0.90007787928E+02  0.90000049929E+02 0.  0.
         12    1    1    2    0    0 -0.13594958404E+00 -0.94595599460E+00  0.69252111969E+00  0.11802120718E+01  0.00000000000E+00 0. -1.
         11    1    3    3    0    0 -0.47433629526E+01 -0.35846574636E+01  0.16443426413E+02  0.17485294784E+02  0.51100000000E-03 0. -1.
        -11    1    3    3    0    0 -0.19557154896E+02 -0.12148666088E+02 -0.31992589339E+02  0.39415709662E+02  0.51100000000E-03 0.  1.
         12    1    3    3    0    0  0.24436467432E+02  0.16679279546E+02  0.14856641806E+02  0.33106783482E+02  0.00000000000E+00 0. -1.
</event>
<event>
 7    1  0.2148778E-015  0.9000778E+02  0.7816164E-02  0.1186339E+00
        -11   -1    0    0    0    0  0.00000000000E+00  0.00000000000E+00  0.45593999997E+02  0.45594000000E+02  0.51100000000E-03 0. -1.
         11   -1    0    0    0    0 -0.00000000000E+00 -0.00000000000E+00 -0.45593999997E+02  0.45594000000E+02  0.51100000000E-03 0.  1.
    9900012    2    1    2    0    0  0.76655100194E+00 -0.28653081527E+00 -0.85042754202E+00  0.90007776567E+02  0.90000038418E+02 0.  0.
         12    1    1    2    0    0 -0.76655100194E+00  0.28653081527E+00  0.85042754202E+00  0.11802234326E+01  0.00000000000E+00 0. -1.
         11    1    3    3    0    0  0.11522608730E+02  0.49124343390E+00 -0.80684463638E+00  0.11561264230E+02  0.51100000000E-03 0. -1.
        -11    1    3    3    0    0  0.30106061443E+02 -0.10043423497E+02 -0.13428373462E+02  0.34461086826E+02  0.51100000000E-03 0.  1.
         12    1    3    3    0    0 -0.40862119172E+02  0.92656492482E+01  0.13384790556E+02  0.43985425511E+02  0.00000000000E+00 0. -1.
</event>
<event>
 7    1  0.2148778E-015  0.9000751E+02  0.7816164E-02  0.1186340E+00
        -11   -1    0    0    0    0  0.00000000000E+00  0.00000000000E+00  0.45593999997E+02  0.45594000000E+02  0.51100000000E-03 0.  1.
         11   -1    0    0    0    0 -0.00000000000E+00 -0.00000000000E+00 -0.45593999997E+02  0.45594000000E+02  0.51100000000E-03 0. -1.
    9900012    2    1    2    0    0  0.10767172986E+00 -0.15933846668E+00  0.11647256020E+01  0.90007505326E+02  0.89999763596E+02 0.  0.
         12    1    1    2    0    0 -0.10767172986E+00  0.15933846668E+00 -0.11647256020E+01  0.11804946744E+01  0.00000000000E+00 0. -1.
         11    1    3    3    0    0 -0.60656020426E+01 -0.48382701689E+01  0.11463048468E+01  0.78431117186E+01  0.51100000000E-03 0. -1.
        -11    1    3    3    0    0  0.60524589177E+01 -0.37681917305E+02 -0.81439947285E+01  0.39024143823E+02  0.51100000000E-03 0.  1.
         12    1    3    3    0    0  0.12081485474E+00  0.42360849008E+02  0.81624154837E+01  0.43140249784E+02  0.00000000000E+00 0. -1.
</event>
<event>
 7    1  0.2148778E-015  0.9000771E+02  0.7816164E-02  0.1186339E+00
        -11   -1    0    0    0    0  0.00000000000E+00  0.00000000000E+00  0.45593999997E+02  0.45594000000E+02  0.51100000000E-03 0. -1.
         11   -1    0    0    0    0 -0.00000000000E+00 -0.00000000000E+00 -0.45593999997E+02  0.45594000000E+02  0.51100000000E-03 0.  1.
    9900012    2    1    2    0    0 -0.93224316281E+00  0.22033931563E+00 -0.68953620649E+00  0.90007708973E+02  0.89999969931E+02 0.  0.
         12    1    1    2    0    0  0.93224316281E+00 -0.22033931563E+00  0.68953620649E+00  0.11802910271E+01  0.00000000000E+00 0. -1.
         11    1    3    3    0    0 -0.21341429659E+02 -0.17659318470E+02  0.31857327836E+02  0.42216080891E+02  0.51100000000E-03 0. -1.
        -11    1    3    3    0    0  0.83606741133E+01  0.10701322104E+02 -0.14237866249E+01  0.13654535327E+02  0.51100000000E-03 0.  1.
        -12    1    3    3    0    0  0.12048512383E+02  0.71783356817E+01 -0.31123077417E+02  0.34137092754E+02  0.00000000000E+00 0.  1.
</event>
<event>
 7    1  0.2148778E-015  0.9000733E+02  0.7816164E-02  0.1186340E+00
        -11   -1    0    0    0    0  0.00000000000E+00  0.00000000000E+00  0.45593999997E+02  0.45594000000E+02  0.51100000000E-03 0.  1.
         11   -1    0    0    0    0 -0.00000000000E+00 -0.00000000000E+00 -0.45593999997E+02  0.45594000000E+02  0.51100000000E-03 0. -1.
    9900012    2    1    2    0    0 -0.99584840704E-01 -0.65098853122E+00  0.97993560347E+00  0.90007331971E+02  0.89999587952E+02 0.  0.
         12    1    1    2    0    0  0.99584840704E-01  0.65098853122E+00 -0.97993560347E+00  0.11806680292E+01  0.00000000000E+00 0. -1.
         11    1    3    3    0    0  0.27896684867E+01 -0.12767630961E+02 -0.67968064931E+01  0.14730622166E+02  0.51100000000E-03 0. -1.
        -11    1    3    3    0    0  0.25622256875E+02 -0.17263310820E+02 -0.71297254233E+01  0.31707332475E+02  0.51100000000E-03 0.  1.
         12    1    3    3    0    0 -0.28511510202E+02  0.29379953250E+02  0.14906467520E+02  0.43569377330E+02  0.00000000000E+00 0. -1.
</event>
<event>
 7    1  0.2148778E-015  0.9000781E+02  0.7816164E-02  0.1186339E+00
        -11   -1    0    0    0    0  0.00000000000E+00  0.00000000000E+00  0.45593999997E+02  0.45594000000E+02  0.51100000000E-03 0. -1.
         11   -1    0    0    0    0 -0.00000000000E+00 -0.00000000000E+00 -0.45593999997E+02  0.45594000000E+02  0.51100000000E-03 0.  1.
    9900012    2    1    2    0    0 -0.51965789308E+00  0.33519504453E+00 -0.10052072405E+01  0.90007812879E+02  0.90000075209E+02 0.  0.
         12    1    1    2    0    0  0.51965789308E+00 -0.33519504453E+00  0.10052072405E+01  0.11801871208E+01  0.00000000000E+00 0. -1.
         11    1    3    3    0    0  0.85553169199E+01  0.20453676154E+01  0.34277376636E+02  0.35388070385E+02  0.51100000000E-03 0. -1.
        -11    1    3    3    0    0  0.13693610164E+02 -0.50807940925E+01 -0.29004415910E+01  0.14891003647E+02  0.51100000000E-03 0.  1.
        -12    1    3    3    0    0 -0.22768584977E+02  0.33706215216E+01 -0.32382142286E+02  0.39728738846E+02  0.00000000000E+00 0.  1.
</event>
<event>
 7    1  0.2148778E-015  0.9000773E+02  0.7816164E-02  0.1186339E+00
        -11   -1    0    0    0    0  0.00000000000E+00  0.00000000000E+00  0.45593999997E+02  0.45594000000E+02  0.51100000000E-03 0. -1.
         11   -1    0    0    0    0 -0.00000000000E+00 -0.00000000000E+00 -0.45593999997E+02  0.45594000000E+02  0.51100000000E-03 0.  1.
    9900012    2    1    2    0    0 -0.10426134845E+01  0.17381824307E-03  0.55317783709E+00  0.90007725190E+02  0.89999986362E+02 0.  0.
         12    1    1    2    0    0  0.10426134845E+01 -0.17381824307E-03 -0.55317783709E+00  0.11802748102E+01  0.00000000000E+00 0. -1.
         11    1    3    3    0    0 -0.65363370295E+01  0.26125771600E+01  0.90327853036E+01  0.11451658036E+02  0.51100000000E-03 0. -1.
        -11    1    3    3    0    0  0.37055117234E+01  0.37391022094E+02  0.23713589174E+00  0.37574932922E+02  0.51100000000E-03 0.  1.
         12    1    3    3    0    0  0.17882118216E+01 -0.40003425436E+02 -0.87167433582E+01  0.40981134232E+02  0.00000000000E+00 0. -1.
</event>
<event>
 7    1  0.2148778E-015  0.9000776E+02  0.7816164E-02  0.1186339E+00
        -11   -1    0    0    0    0  0.00000000000E+00  0.00000000000E+00  0.45593999997E+02  0.45594000000E+02  0.51100000000E-03 0. -1.
         11   -1    0    0    0    0 -0.00000000000E+00 -0.00000000000E+00 -0.45593999997E+02  0.45594000000E+02  0.51100000000E-03 0.  1.
    9900012    2    1    2    0    0  0.92837691442E+00  0.72875547886E+00 -0.17098157020E-02  0.90007758005E+02  0.90000019611E+02 0.  0.
         12    1    1    2    0    0 -0.92837691442E+00 -0.72875547886E+00  0.17098157020E-02  0.11802419950E+01  0.00000000000E+00 0. -1.
         11    1    3    3    0    0  0.61173143826E+01 -0.96894718834E+00  0.73740080010E+01  0.96299734252E+01  0.51100000000E-03 0. -1.
        -11    1    3    3    0    0 -0.76073247085E+00 -0.37140430141E+02 -0.15836294452E+02  0.40382898450E+02  0.51100000000E-03 0.  1.
         12    1    3    3    0    0 -0.44282049974E+01  0.38838132809E+02  0.84605766350E+01  0.39994886130E+02  0.00000000000E+00 0. -1.
</event>
<event>
 7    1  0.2148778E-015  0.9000781E+02  0.7816164E-02  0.1186339E+00
        -11   -1    0    0    0    0  0.00000000000E+00  0.00000000000E+00  0.45593999997E+02  0.45594000000E+02  0.51100000000E-03 0. -1.
         11   -1    0    0    0    0 -0.00000000000E+00 -0.00000000000E+00 -0.45593999997E+02  0.45594000000E+02  0.51100000000E-03 0.  1.
    9900012    2    1    2    0    0 -0.86069148427E+00  0.63776159449E+00 -0.49530551117E+00  0.90007806274E+02  0.90000068516E+02 0.  0.
         12    1    1    2    0    0  0.86069148427E+00 -0.63776159449E+00  0.49530551117E+00  0.11801937264E+01  0.00000000000E+00 0. -1.
         11    1    3    3    0    0  0.38700775144E+02 -0.34802499025E+01  0.18374177362E+02  0.42982235053E+02  0.51100000000E-03 0. -1.
        -11    1    3    3    0    0 -0.23464444756E+01  0.23932979661E+01 -0.72719408269E+01  0.80071718155E+01  0.51100000000E-03 0.  1.
        -12    1    3    3    0    0 -0.37215022153E+02  0.17247135309E+01 -0.11597542046E+02  0.39018399405E+02  0.00000000000E+00 0.  1.
</event>
<event>
 7    1  0.2148778E-015  0.9000763E+02  0.7816164E-02  0.1186339E+00
        -11   -1    0    0    0    0  0.00000000000E+00  0.00000000000E+00  0.45593999997E+02  0.45594000000E+02  0.51100000000E-03 0.  1.
         11   -1    0    0    0    0 -0.00000000000E+00 -0.00000000000E+00 -0.45593999997E+02  0.45594000000E+02  0.51100000000E-03 0. -1.
    9900012    2    1    2    0    0  0.15816509089E+00 -0.75702911496E+00  0.89171711031E+00  0.90007631972E+02  0.89999891914E+02 0.  0.
         12    1    1    2    0    0 -0.15816509089E+00  0.75702911496E+00 -0.89171711031E+00  0.11803680281E+01  0.00000000000E+00 0. -1.
         11    1    3    3    0    0  0.11826105028E+02 -0.40983714103E+01 -0.24620572907E+02  0.27619305184E+02  0.51100000000E-03 0. -1.
        -11    1    3    3    0    0  0.74344084187E+00  0.19714133660E+02 -0.94202649480E+01  0.21861865478E+02  0.51100000000E-03 0.  1.
        -12    1    3    3    0    0 -0.12411380779E+02 -0.16372791364E+02  0.34932554965E+02  0.40526461310E+02  0.00000000000E+00 0.  1.
</event>
<event>
 7    1  0.3170059E-015  0.9000796E+02  0.7816164E-02  0.1186339E+00
        -11   -1    0    0    0    0  0.00000000000E+00  0.00000000000E+00  0.45593999997E+02  0.45594000000E+02  0.51100000000E-03 0. -1.
         11   -1    0    0    0    0 -0.00000000000E+00 -0.00000000000E+00 -0.45593999997E+02  0.45594000000E+02  0.51100000000E-03 0.  1.
    9900012    2    1    2    0    0 -0.66716122491E+00  0.25204561957E+00 -0.94013518486E+00  0.90007963873E+02  0.90000228196E+02 0.  0.
         12    1    1    2    0    0  0.66716122491E+00 -0.25204561957E+00  0.94013518486E+00  0.11800361266E+01  0.00000000000E+00 0. -1.
         11    1    3    3    0    0 -0.29320126143E+01  0.88859441993E+01  0.27531193539E+01  0.97537874040E+01  0.51100000000E-03 0. -1.
        -11    1    3    3    0    0  0.15461496326E+02  0.31677457553E+02 -0.11596055138E+02  0.37107784637E+02  0.51100000000E-03 0.  1.
         12    1    3    3    0    0 -0.13196644937E+02 -0.40311356133E+02  0.79028005993E+01  0.43146391832E+02  0.00000000000E+00 0. -1.
</event>
<event>
 7    1  0.2148778E-015  0.9000779E+02  0.7816164E-02  0.1186339E+00
        -11   -1    0    0    0    0  0.00000000000E+00  0.00000000000E+00  0.45593999997E+02  0.45594000000E+02  0.51100000000E-03 0.  1.
         11   -1    0    0    0    0 -0.00000000000E+00 -0.00000000000E+00 -0.45593999997E+02  0.45594000000E+02  0.51100000000E-03 0. -1.
    9900012    2    1    2    0    0 -0.36258114925E+00 -0.23015190312E+00  0.10993021703E+01  0.90007788049E+02  0.90000050051E+02 0.  0.
         12    1    1    2    0    0  0.36258114925E+00  0.23015190312E+00 -0.10993021703E+01  0.11802119513E+01  0.00000000000E+00 0. -1.
         11    1    3    3    0    0 -0.31352511490E+01  0.93379327160E+01 -0.35224946581E+01  0.10461106827E+02  0.51100000000E-03 0. -1.
        -11    1    3    3    0    0 -0.24761478993E+02  0.31897534719E+01  0.30675124101E+02  0.39550835743E+02  0.51100000000E-03 0.  1.
         12    1    3    3    0    0  0.27534148993E+02 -0.12757838091E+02 -0.26053327272E+02  0.39995845478E+02  0.00000000000E+00 0. -1.
</event>
<event>
 7    1  0.2148778E-015  0.9000718E+02  0.7816164E-02  0.1186340E+00
        -11   -1    0    0    0    0  0.00000000000E+00  0.00000000000E+00  0.45593999997E+02  0.45594000000E+02  0.51100000000E-03 0.  1.
         11   -1    0    0    0    0 -0.00000000000E+00 -0.00000000000E+00 -0.45593999997E+02  0.45594000000E+02  0.51100000000E-03 0. -1.
    9900012    2    1    2    0    0  0.77821130531E+00 -0.45485108433E+00  0.76278647042E+00  0.90007175905E+02  0.89999429825E+02 0.  0.
         12    1    1    2    0    0 -0.77821130531E+00  0.45485108433E+00 -0.76278647042E+00  0.11808240953E+01  0.00000000000E+00 0. -1.
         11    1    3    3    0    0  0.54715924202E+01  0.58394178891E+01  0.15640801769E+01  0.81537397529E+01  0.51100000000E-03 0. -1.
        -11    1    3    3    0    0  0.64391428836E+01 -0.42698190291E+02  0.45131033042E+01  0.43416196481E+02  0.51100000000E-03 0.  1.
         12    1    3    3    0    0 -0.11132523998E+02  0.36403921318E+02 -0.53143970108E+01  0.38437239670E+02  0.00000000000E+00 0. -1.
</event>
<event>
 7    1  0.2148778E-015  0.9000771E+02  0.7816164E-02  0.1186339E+00
        -11   -1    0    0    0    0  0.00000000000E+00  0.00000000000E+00  0.45593999997E+02  0.45594000000E+02  0.51100000000E-03 0.  1.
         11   -1    0    0    0    0 -0.00000000000E+00 -0.00000000000E+00 -0.45593999997E+02  0.45594000000E+02  0.51100000000E-03 0. -1.
    9900012    2    1    2    0    0 -0.47136996951E+00  0.35936387280E+00  0.10206614049E+01  0.90007711160E+02  0.89999972148E+02 0.  0.
         12    1    1    2    0    0  0.47136996951E+00 -0.35936387280E+00 -0.10206614049E+01  0.11802888396E+01  0.00000000000E+00 0. -1.
         11    1    3    3    0    0  0.19512341084E+01 -0.75826500241E+01  0.38634952433E+01  0.87310074842E+01  0.51100000000E-03 0. -1.
        -11    1    3    3    0    0  0.39463063618E+00 -0.28454660360E+02  0.22966614892E+02  0.36568959916E+02  0.51100000000E-03 0.  1.
         12    1    3    3    0    0 -0.28172347141E+01  0.36396674256E+02 -0.25809448730E+02  0.44707743760E+02  0.00000000000E+00 0. -1.
</event>
<event>
 7    1  0.2148778E-015  0.9000764E+02  0.7816164E-02  0.1186339E+00
        -11   -1    0    0    0    0  0.00000000000E+00  0.00000000000E+00  0.45593999997E+02  0.45594000000E+02  0.51100000000E-03 0. -1.
         11   -1    0    0    0    0 -0.00000000000E+00 -0.00000000000E+00 -0.45593999997E+02  0.45594000000E+02  0.51100000000E-03 0.  1.
    9900012    2    1    2    0    0 -0.25620740589E+00  0.33303876603E+00 -0.11030343730E+01  0.90007643324E+02  0.89999903416E+02 0.  0.
         12    1    1    2    0    0  0.25620740589E+00 -0.33303876603E+00  0.11030343730E+01  0.11803566760E+01  0.00000000000E+00 0. -1.
         11    1    3    3    0    0 -0.25134327031E+01  0.41760834253E+01  0.87793162444E+01  0.10041584074E+02  0.51100000000E-03 0. -1.
        -11    1    3    3    0    0 -0.35483918439E+02  0.99169590538E+01  0.48857757071E+01  0.37166185561E+02  0.51100000000E-03 0.  1.
         12    1    3    3    0    0  0.37741143736E+02 -0.13760003713E+02 -0.14768126325E+02  0.42799873689E+02  0.00000000000E+00 0. -1.
</event>
<event>
 7    1  0.2148778E-015  0.9000774E+02  0.7816164E-02  0.1186339E+00
        -11   -1    0    0    0    0  0.00000000000E+00  0.00000000000E+00  0.45593999997E+02  0.45594000000E+02  0.51100000000E-03 0.  1.
         11   -1    0    0    0    0 -0.00000000000E+00 -0.00000000000E+00 -0.45593999997E+02  0.45594000000E+02  0.51100000000E-03 0. -1.
    9900012    2    1    2    0    0 -0.58508627916E+00  0.64325887204E+00 -0.79806791892E+00  0.90007737176E+02  0.89999998507E+02 0.  0.
         12    1    1    2    0    0  0.58508627916E+00 -0.64325887204E+00  0.79806791892E+00  0.11802628240E+01  0.00000000000E+00 0. -1.
         11    1    3    3    0    0  0.12991009860E+02  0.66793461216E+01 -0.37507611411E+02  0.40251719415E+02  0.51100000000E-03 0. -1.
        -11    1    3    3    0    0 -0.53422351286E+01  0.77027687561E+01 -0.35280519600E+00  0.93806500013E+01  0.51100000000E-03 0.  1.
        -12    1    3    3    0    0 -0.82338610109E+01 -0.13738856006E+02  0.37062348688E+02  0.40375367760E+02  0.00000000000E+00 0.  1.
</event>
<event>
 7    1  0.3386346E-015  0.9000779E+02  0.7816164E-02  0.1186339E+00
        -11   -1    0    0    0    0  0.00000000000E+00  0.00000000000E+00  0.45593999997E+02  0.45594000000E+02  0.51100000000E-03 0. -1.
         11   -1    0    0    0    0 -0.00000000000E+00 -0.00000000000E+00 -0.45593999997E+02  0.45594000000E+02  0.51100000000E-03 0.  1.
    9900012    2    1    2    0    0 -0.77537911473E+00 -0.56603169987E+00 -0.68651448344E+00  0.90007785277E+02  0.90000047242E+02 0.  0.
         12    1    1    2    0    0  0.77537911473E+00  0.56603169987E+00  0.68651448344E+00  0.11802147232E+01  0.00000000000E+00 0. -1.
         11    1    3    3    0    0  0.95646285114E+01  0.13382519639E+01  0.71118303249E+00  0.96839464294E+01  0.51100000000E-03 0. -1.
        -11    1    3    3    0    0 -0.25069663552E+02  0.25768019617E+01 -0.35135388507E+02  0.43239142739E+02  0.51100000000E-03 0.  1.
         12    1    3    3    0    0  0.14729655926E+02 -0.44810856255E+01  0.33737690991E+02  0.37084696109E+02  0.00000000000E+00 0. -1.
</event>
<event>
 7    1  0.2148778E-015  0.9000772E+02  0.7816164E-02  0.1186339E+00
        -11   -1    0    0    0    0  0.00000000000E+00  0.00000000000E+00  0.45593999997E+02  0.45594000000E+02  0.51100000000E-03 0.  1.
         11   -1    0    0    0    0 -0.00000000000E+00 -0.00000000000E+00 -0.45593999997E+02  0.45594000000E+02  0.51100000000E-03 0. -1.
    9900012    2    1    2    0    0 -0.84309889612E+00 -0.63014472523E+00  0.53401132035E+00  0.90007717740E+02  0.89999978814E+02 0.  0.
         12    1    1    2    0    0  0.84309889612E+00  0.63014472523E+00 -0.53401132035E+00  0.11802822602E+01  0.00000000000E+00 0. -1.
         11    1    3    3    0    0 -0.91075272438E+01 -0.38256010058E+02 -0.66165111618E+01  0.39877908399E+02  0.51100000000E-03 0. -1.
        -11    1    3    3    0    0 -0.63056197437E+01  0.10592062534E+01  0.86287494483E+01  0.10739556580E+02  0.51100000000E-03 0.  1.
        -12    1    3    3    0    0  0.14570048091E+02  0.36566659079E+02 -0.14782269662E+01  0.39390252761E+02  0.00000000000E+00 0.  1.
</event>
<event>
 7    1  0.2148778E-015  0.9000779E+02  0.7816164E-02  0.1186339E+00
        -11   -1    0    0    0    0  0.00000000000E+00  0.00000000000E+00  0.45593999997E+02  0.45594000000E+02  0.51100000000E-03 0.  1.
         11   -1    0    0    0    0 -0.00000000000E+00 -0.00000000000E+00 -0.45593999997E+02  0.45594000000E+02  0.51100000000E-03 0. -1.
    9900012    2    1    2    0    0  0.63602183376E+00 -0.97160845846E+00  0.21057314195E+00  0.90007793316E+02  0.90000055387E+02 0.  0.
         12    1    1    2    0    0 -0.63602183376E+00  0.97160845846E+00 -0.21057314195E+00  0.11802066843E+01  0.00000000000E+00 0. -1.
         11    1    3    3    0    0  0.28745787020E+02  0.22822936197E+02 -0.11795290641E+02  0.38553022833E+02  0.51100000000E-03 0. -1.
        -11    1    3    3    0    0  0.32883144989E+01  0.33160632991E+01  0.86578583805E+01  0.98370625719E+01  0.51100000000E-03 0.  1.
        -12    1    3    3    0    0 -0.31398079685E+02 -0.27110607954E+02  0.33480054022E+01  0.41617707910E+02  0.00000000000E+00 0.  1.
</event>
<event>
 7    1  0.2148778E-015  0.9000774E+02  0.7816164E-02  0.1186339E+00
        -11   -1    0    0    0    0  0.00000000000E+00  0.00000000000E+00  0.45593999997E+02  0.45594000000E+02  0.51100000000E-03 0.  1.
         11   -1    0    0    0    0 -0.00000000000E+00 -0.00000000000E+00 -0.45593999997E+02  0.45594000000E+02  0.51100000000E-03 0. -1.
    9900012    2    1    2    0    0 -0.97083621905E+00 -0.55226313174E+00  0.38145016232E+00  0.90007736573E+02  0.89999997896E+02 0.  0.
         12    1    1    2    0    0  0.97083621905E+00  0.55226313174E+00 -0.38145016232E+00  0.11802634270E+01  0.00000000000E+00 0. -1.
         11    1    3    3    0    0  0.16099551950E+02 -0.17492401024E+02 -0.25224944931E+02  0.34662335663E+02  0.51100000000E-03 0. -1.
        -11    1    3    3    0    0 -0.66135819801E+01 -0.89063237590E+01 -0.64722405961E+01  0.12843362804E+02  0.51100000000E-03 0.  1.
        -12    1    3    3    0    0 -0.10456806189E+02  0.25846461651E+02  0.32078635689E+02  0.42502038107E+02  0.00000000000E+00 0.  1.
</event>
<event>
 7    1  0.2148778E-015  0.9000775E+02  0.7816164E-02  0.1186339E+00
        -11   -1    0    0    0    0  0.00000000000E+00  0.00000000000E+00  0.45593999997E+02  0.45594000000E+02  0.51100000000E-03 0. -1.
         11   -1    0    0    0    0 -0.00000000000E+00 -0.00000000000E+00 -0.45593999997E+02  0.45594000000E+02  0.51100000000E-03 0.  1.
    9900012    2    1    2    0    0 -0.10830152996E+01  0.34382992108E+00 -0.31911927084E+00  0.90007754999E+02  0.90000016565E+02 0.  0.
         12    1    1    2    0    0  0.10830152996E+01 -0.34382992108E+00  0.31911927084E+00  0.11802450012E+01  0.00000000000E+00 0. -1.
         11    1    3    3    0    0 -0.19838933184E+02 -0.27922801470E+01  0.30300584234E+02  0.36324998327E+02  0.51100000000E-03 0. -1.
        -11    1    3    3    0    0 -0.51095364226E+01 -0.13089383420E+02 -0.44874047528E+01  0.14750461770E+02  0.51100000000E-03 0.  1.
        -12    1    3    3    0    0  0.23865454307E+02  0.16225493488E+02 -0.26132298752E+02  0.38932294901E+02  0.00000000000E+00 0.  1.
</event>
<event>
 7    1  0.2148778E-015  0.9000742E+02  0.7816164E-02  0.1186340E+00
        -11   -1    0    0    0    0  0.00000000000E+00  0.00000000000E+00  0.45593999997E+02  0.45594000000E+02  0.51100000000E-03 0.  1.
         11   -1    0    0    0    0 -0.00000000000E+00 -0.00000000000E+00 -0.45593999997E+02  0.45594000000E+02  0.51100000000E-03 0. -1.
    9900012    2    1    2    0    0  0.11000237284E+01 -0.28093912345E+00 -0.32370788199E+00  0.90007421419E+02  0.89999678581E+02 0.  0.
         12    1    1    2    0    0 -0.11000237284E+01  0.28093912345E+00  0.32370788199E+00  0.11805785814E+01  0.00000000000E+00 0. -1.
         11    1    3    3    0    0  0.18839043733E+01  0.11312841651E+01  0.92807256368E+01  0.95373354852E+01  0.51100000000E-03 0. -1.
        -11    1    3    3    0    0  0.25380679027E-01 -0.24663235403E+02  0.27333713972E+02  0.36815862675E+02  0.51100000000E-03 0.  1.
         12    1    3    3    0    0 -0.80926132396E+00  0.23251012115E+02 -0.36938147491E+02  0.43654223258E+02  0.00000000000E+00 0. -1.
</event>
<event>
 7    1  0.2148778E-015  0.9000763E+02  0.7816164E-02  0.1186339E+00
        -11   -1    0    0    0    0  0.00000000000E+00  0.00000000000E+00  0.45593999997E+02  0.45594000000E+02  0.51100000000E-03 0.  1.
         11   -1    0    0    0    0 -0.00000000000E+00 -0.00000000000E+00 -0.45593999997E+02  0.45594000000E+02  0.51100000000E-03 0. -1.
    9900012    2    1    2    0    0  0.24647795594E+00 -0.10914950246E+01  0.37570676471E+00  0.90007632115E+02  0.89999892059E+02 0.  0.
         12    1    1    2    0    0 -0.24647795594E+00  0.10914950246E+01 -0.37570676471E+00  0.11803678852E+01  0.00000000000E+00 0. -1.
         11    1    3    3    0    0 -0.91351562832E+01 -0.28066925053E+02  0.11027829213E+02  0.31508988871E+02  0.51100000000E-03 0. -1.
        -11    1    3    3    0    0 -0.46335029835E+01  0.14080184853E+01  0.17386103131E+02  0.18047948590E+02  0.51100000000E-03 0.  1.
        -12    1    3    3    0    0  0.14015137223E+02  0.25567411543E+02 -0.28038225579E+02  0.40450694654E+02  0.00000000000E+00 0.  1.
</event>
<event>
 7    1  0.2148778E-015  0.9000778E+02  0.7816164E-02  0.1186339E+00
        -11   -1    0    0    0    0  0.00000000000E+00  0.00000000000E+00  0.45593999997E+02  0.45594000000E+02  0.51100000000E-03 0.  1.
         11   -1    0    0    0    0 -0.00000000000E+00 -0.00000000000E+00 -0.45593999997E+02  0.45594000000E+02  0.51100000000E-03 0. -1.
    9900012    2    1    2    0    0 -0.82182274596E+00  0.25875383773E+00  0.80658388862E+00  0.90007778096E+02  0.90000039966E+02 0.  0.
         12    1    1    2    0    0  0.82182274596E+00 -0.25875383773E+00 -0.80658388862E+00  0.11802219044E+01  0.00000000000E+00 0. -1.
         11    1    3    3    0    0  0.38656807237E+02 -0.63416727401E+01 -0.12110468936E+02  0.41002792796E+02  0.51100000000E-03 0. -1.
        -11    1    3    3    0    0 -0.95939977526E+00  0.62040501014E+01  0.80031207886E+01  0.10171559773E+02  0.51100000000E-03 0.  1.
        -12    1    3    3    0    0 -0.38519230208E+02  0.39637647639E+00  0.49139320357E+01  0.38833425527E+02  0.00000000000E+00 0.  1.
</event>
<event>
 7    1  0.2148778E-015  0.9000839E+02  0.7816164E-02  0.1186338E+00
        -11   -1    0    0    0    0  0.00000000000E+00  0.00000000000E+00  0.45593999997E+02  0.45594000000E+02  0.51100000000E-03 0. -1.
         11   -1    0    0    0    0 -0.00000000000E+00 -0.00000000000E+00 -0.45593999997E+02  0.45594000000E+02  0.51100000000E-03 0.  1.
    9900012    2    1    2    0    0  0.64548687932E+00  0.78943774326E+00  0.59297215260E+00  0.90008389371E+02  0.90000659308E+02 0.  0.
         12    1    1    2    0    0 -0.64548687932E+00 -0.78943774326E+00 -0.59297215260E+00  0.11796106288E+01  0.00000000000E+00 0. -1.
         11    1    3    3    0    0  0.59825428961E+01  0.83565319926E+01 -0.19445083084E+01  0.10459615637E+02  0.51100000000E-03 0. -1.
        -11    1    3    3    0    0  0.15152812942E+02  0.31096970209E+02  0.78436308839E+01  0.35470436167E+02  0.51100000000E-03 0.  1.
         12    1    3    3    0    0 -0.20489868958E+02 -0.38664064458E+02 -0.53061504230E+01  0.44078337567E+02  0.00000000000E+00 0. -1.
</event>
<event>
 7    1  0.2148778E-015  0.9000776E+02  0.7816164E-02  0.1186339E+00
        -11   -1    0    0    0    0  0.00000000000E+00  0.00000000000E+00  0.45593999997E+02  0.45594000000E+02  0.51100000000E-03 0. -1.
         11   -1    0    0    0    0 -0.00000000000E+00 -0.00000000000E+00 -0.45593999997E+02  0.45594000000E+02  0.51100000000E-03 0.  1.
    9900012    2    1    2    0    0 -0.72228409434E+00 -0.53572416896E+00 -0.76437393988E+00  0.90007761796E+02  0.90000023452E+02 0.  0.
         12    1    1    2    0    0  0.72228409434E+00  0.53572416896E+00  0.76437393988E+00  0.11802382040E+01  0.00000000000E+00 0. -1.
         11    1    3    3    0    0 -0.19037299488E+01  0.78690748921E+01  0.96374044916E+00  0.81532400486E+01  0.51100000000E-03 0. -1.
        -11    1    3    3    0    0 -0.34976278136E+02 -0.22116170909E+02 -0.93868568795E+01  0.42433219655E+02  0.51100000000E-03 0.  1.
         12    1    3    3    0    0  0.36157723991E+02  0.13711371848E+02  0.76587424904E+01  0.39421302093E+02  0.00000000000E+00 0. -1.
</event>
<event>
 7    1  0.2148778E-015  0.9000771E+02  0.7816164E-02  0.1186339E+00
        -11   -1    0    0    0    0  0.00000000000E+00  0.00000000000E+00  0.45593999997E+02  0.45594000000E+02  0.51100000000E-03 0. -1.
         11   -1    0    0    0    0 -0.00000000000E+00 -0.00000000000E+00 -0.45593999997E+02  0.45594000000E+02  0.51100000000E-03 0.  1.
    9900012    2    1    2    0    0  0.96769364691E+00 -0.65461865083E+00  0.16774404591E+00  0.90007705699E+02  0.89999966614E+02 0.  0.
         12    1    1    2    0    0 -0.96769364691E+00  0.65461865083E+00 -0.16774404591E+00  0.11802943011E+01  0.00000000000E+00 0. -1.
         11    1    3    3    0    0  0.33494443328E+02  0.14775288359E+02 -0.40765977509E+01  0.36834841243E+02  0.51100000000E-03 0. -1.
        -11    1    3    3    0    0  0.86651547726E+01 -0.45012664180E+00  0.34414226630E+01  0.93343940046E+01  0.51100000000E-03 0.  1.
        -12    1    3    3    0    0 -0.41191904454E+02 -0.14979780368E+02  0.80291913376E+00  0.43838470451E+02  0.00000000000E+00 0.  1.
</event>
<event>
 7    1  0.2148778E-015  0.9000766E+02  0.7816164E-02  0.1186339E+00
        -11   -1    0    0    0    0  0.00000000000E+00  0.00000000000E+00  0.45593999997E+02  0.45594000000E+02  0.51100000000E-03 0. -1.
         11   -1    0    0    0    0 -0.00000000000E+00 -0.00000000000E+00 -0.45593999997E+02  0.45594000000E+02  0.51100000000E-03 0.  1.
    9900012    2    1    2    0    0 -0.84637862237E+00  0.70651981004E+00 -0.42150938453E+00  0.90007662262E+02  0.89999922604E+02 0.  0.
         12    1    1    2    0    0  0.84637862237E+00 -0.70651981004E+00  0.42150938453E+00  0.11803377380E+01  0.00000000000E+00 0. -1.
         11    1    3    3    0    0 -0.11327986019E+02  0.79003833486E+01 -0.16909554810E+02  0.21832827770E+02  0.51100000000E-03 0. -1.
        -11    1    3    3    0    0  0.16103532110E+02 -0.24267899768E+02 -0.14359194576E+02  0.32472159994E+02  0.51100000000E-03 0.  1.
         12    1    3    3    0    0 -0.56219247135E+01  0.17074036229E+02  0.30847240001E+02  0.35702674498E+02  0.00000000000E+00 0. -1.
</event>
<event>
 7    1  0.2148778E-015  0.9000771E+02  0.7816164E-02  0.1186339E+00
        -11   -1    0    0    0    0  0.00000000000E+00  0.00000000000E+00  0.45593999997E+02  0.45594000000E+02  0.51100000000E-03 0. -1.
         11   -1    0    0    0    0 -0.00000000000E+00 -0.00000000000E+00 -0.45593999997E+02  0.45594000000E+02  0.51100000000E-03 0.  1.
    9900012    2    1    2    0    0 -0.97244387823E-01 -0.91739766510E+00 -0.73621745458E+00  0.90007707203E+02  0.89999968138E+02 0.  0.
         12    1    1    2    0    0  0.97244387823E-01  0.91739766510E+00  0.73621745458E+00  0.11802927973E+01  0.00000000000E+00 0. -1.
         11    1    3    3    0    0  0.37304173945E+02 -0.13387547207E+02  0.36687057416E-01  0.39633687188E+02  0.51100000000E-03 0. -1.
        -11    1    3    3    0    0 -0.22964765434E+01  0.26053353598E+01 -0.11782405740E+02  0.12283593210E+02  0.51100000000E-03 0.  1.
        -12    1    3    3    0    0 -0.35104941790E+02  0.98648141817E+01  0.11009501228E+02  0.38090426805E+02  0.00000000000E+00 0.  1.
</event>
<event>
 7    1  0.2933529E-015  0.9000765E+02  0.7816164E-02  0.1186339E+00
        -11   -1    0    0    0    0  0.00000000000E+00  0.00000000000E+00  0.45593999997E+02  0.45594000000E+02  0.51100000000E-03 0.  1.
         11   -1    0    0    0    0 -0.00000000000E+00 -0.00000000000E+00 -0.45593999997E+02  0.45594000000E+02  0.51100000000E-03 0. -1.
    9900012    2    1    2    0    0 -0.95486466979E+00 -0.67529109147E+00  0.15952627310E+00  0.90007646990E+02  0.89999907130E+02 0.  0.
         12    1    1    2    0    0  0.95486466979E+00  0.67529109147E+00 -0.15952627310E+00  0.11803530098E+01  0.00000000000E+00 0. -1.
         11    1    3    3    0    0 -0.54349168919E+01 -0.80831702600E+01 -0.20418048739E+01  0.99521319565E+01  0.51100000000E-03 0. -1.
        -11    1    3    3    0    0 -0.24728810717E+01 -0.28663251336E+01  0.40048487727E+02  0.40227009957E+02  0.51100000000E-03 0.  1.
         12    1    3    3    0    0  0.69529332938E+01  0.10274204302E+02 -0.37847156580E+02  0.39828505077E+02  0.00000000000E+00 0. -1.
</event>
<event>
 7    1  0.2148778E-015  0.9000779E+02  0.7816164E-02  0.1186339E+00
        -11   -1    0    0    0    0  0.00000000000E+00  0.00000000000E+00  0.45593999997E+02  0.45594000000E+02  0.51100000000E-03 0.  1.
         11   -1    0    0    0    0 -0.00000000000E+00 -0.00000000000E+00 -0.45593999997E+02  0.45594000000E+02  0.51100000000E-03 0. -1.
    9900012    2    1    2    0    0  0.10667577630E+01  0.32598764838E+00 -0.38555941974E+00  0.90007789791E+02  0.90000051816E+02 0.  0.
         12    1    1    2    0    0 -0.10667577630E+01 -0.32598764838E+00  0.38555941974E+00  0.11802102092E+01  0.00000000000E+00 0. -1.
         11    1    3    3    0    0 -0.30980697600E+02  0.16908839856E+02  0.80528513880E+01  0.36201669917E+02  0.51100000000E-03 0. -1.
        -11    1    3    3    0    0 -0.45810979854E+00 -0.34337702194E+01 -0.17296640469E+02  0.17640136459E+02  0.51100000000E-03 0.  1.
        -12    1    3    3    0    0  0.32505565162E+02 -0.13149081988E+02  0.88582296612E+01  0.36165983415E+02  0.00000000000E+00 0.  1.
</event>
<event>
 7    1  0.2148778E-015  0.9000773E+02  0.7816164E-02  0.1186339E+00
        -11   -1    0    0    0    0  0.00000000000E+00  0.00000000000E+00  0.45593999997E+02  0.45594000000E+02  0.51100000000E-03 0. -1.
         11   -1    0    0    0    0 -0.00000000000E+00 -0.00000000000E+00 -0.45593999997E+02  0.45594000000E+02  0.51100000000E-03 0.  1.
    9900012    2    1    2    0    0  0.44217105655E+00  0.56314192371E+00 -0.93829143072E+00  0.90007731014E+02  0.89999992264E+02 0.  0.
         12    1    1    2    0    0 -0.44217105655E+00 -0.56314192371E+00  0.93829143072E+00  0.11802689856E+01  0.00000000000E+00 0. -1.
         11    1    3    3    0    0  0.75077945644E+01  0.44534714663E+01  0.38498465847E+00  0.87377686380E+01  0.51100000000E-03 0. -1.
        -11    1    3    3    0    0  0.22000222547E+01  0.32469085517E+02 -0.21169597324E+02  0.38823104761E+02  0.51100000000E-03 0.  1.
         12    1    3    3    0    0 -0.92656457626E+01 -0.36359415059E+02  0.19846321234E+02  0.42446857615E+02  0.00000000000E+00 0. -1.
</event>
<event>
 7    1  0.2148778E-015  0.9000787E+02  0.7816164E-02  0.1186339E+00
        -11   -1    0    0    0    0  0.00000000000E+00  0.00000000000E+00  0.45593999997E+02  0.45594000000E+02  0.51100000000E-03 0.  1.
         11   -1    0    0    0    0 -0.00000000000E+00 -0.00000000000E+00 -0.45593999997E+02  0.45594000000E+02  0.51100000000E-03 0. -1.
    9900012    2    1    2    0    0  0.86954475551E+00  0.65517381732E+00  0.45535637665E+00  0.90007868549E+02  0.90000131613E+02 0.  0.
         12    1    1    2    0    0 -0.86954475551E+00 -0.65517381732E+00 -0.45535637665E+00  0.11801314514E+01  0.00000000000E+00 0. -1.
         11    1    3    3    0    0 -0.26663532711E+02  0.16204409463E+02 -0.17124800268E+02  0.35591932332E+02  0.51100000000E-03 0. -1.
        -11    1    3    3    0    0 -0.36773046862E+01  0.78481065318E+01 -0.43177948429E+01  0.96829075415E+01  0.51100000000E-03 0.  1.
        -12    1    3    3    0    0  0.31210382153E+02 -0.23397342178E+02  0.21897951487E+02  0.44733028675E+02  0.00000000000E+00 0.  1.
</event>
<event>
 7    1  0.2148778E-015  0.9000764E+02  0.7816164E-02  0.1186339E+00
        -11   -1    0    0    0    0  0.00000000000E+00  0.00000000000E+00  0.45593999997E+02  0.45594000000E+02  0.51100000000E-03 0. -1.
         11   -1    0    0    0    0 -0.00000000000E+00 -0.00000000000E+00 -0.45593999997E+02  0.45594000000E+02  0.51100000000E-03 0.  1.
    9900012    2    1    2    0    0  0.89755894647E+00  0.73253536059E+00 -0.22591183540E+00  0.90007637228E+02  0.89999897239E+02 0.  0.
         12    1    1    2    0    0 -0.89755894647E+00 -0.73253536059E+00  0.22591183540E+00  0.11803627723E+01  0.00000000000E+00 0. -1.
         11    1    3    3    0    0 -0.35437461163E+02 -0.18589175433E+02 -0.65113405830E+01  0.40543416893E+02  0.51100000000E-03 0. -1.
        -11    1    3    3    0    0 -0.13407872174E+01  0.10040525213E+02  0.27791286763E+01  0.10503971314E+02  0.51100000000E-03 0.  1.
        -12    1    3    3    0    0  0.37675807327E+02  0.92811855807E+01  0.35063000713E+01  0.38960249020E+02  0.00000000000E+00 0.  1.
</event>
<event>
 7    1  0.2148778E-015  0.9000772E+02  0.7816164E-02  0.1186339E+00
        -11   -1    0    0    0    0  0.00000000000E+00  0.00000000000E+00  0.45593999997E+02  0.45594000000E+02  0.51100000000E-03 0.  1.
         11   -1    0    0    0    0 -0.00000000000E+00 -0.00000000000E+00 -0.45593999997E+02  0.45594000000E+02  0.51100000000E-03 0. -1.
    9900012    2    1    2    0    0  0.11268862996E+01  0.20148857017E+00  0.28738129747E+00  0.90007721056E+02  0.89999982174E+02 0.  0.
         12    1    1    2    0    0 -0.11268862996E+01 -0.20148857017E+00 -0.28738129747E+00  0.11802789442E+01  0.00000000000E+00 0. -1.
         11    1    3    3    0    0  0.17795684748E+02 -0.29788927088E+02 -0.21941028655E+02  0.41054540691E+02  0.51100000000E-03 0. -1.
        -11    1    3    3    0    0  0.37887345943E+01  0.44754459682E+01  0.14076366086E+02  0.15248875659E+02  0.51100000000E-03 0.  1.
        -12    1    3    3    0    0 -0.20457533042E+02  0.25514969690E+02  0.81520438669E+01  0.33704304705E+02  0.00000000000E+00 0.  1.
</event>
<event>
 7    1  0.2148778E-015  0.9000776E+02  0.7816164E-02  0.1186339E+00
        -11   -1    0    0    0    0  0.00000000000E+00  0.00000000000E+00  0.45593999997E+02  0.45594000000E+02  0.51100000000E-03 0.  1.
         11   -1    0    0    0    0 -0.00000000000E+00 -0.00000000000E+00 -0.45593999997E+02  0.45594000000E+02  0.51100000000E-03 0. -1.
    9900012    2    1    2    0    0  0.71215770228E+00  0.81101660610E+00 -0.47755524360E+00  0.90007756153E+02  0.90000017734E+02 0.  0.
         12    1    1    2    0    0 -0.71215770228E+00 -0.81101660610E+00  0.47755524360E+00  0.11802438473E+01  0.00000000000E+00 0. -1.
         11    1    3    3    0    0  0.60163858028E+00  0.31905536619E+02  0.20101766394E+02  0.37714801449E+02  0.51100000000E-03 0. -1.
        -11    1    3    3    0    0  0.84490493585E+01  0.54767498951E+01 -0.14048145831E+01  0.10166352775E+02  0.51100000000E-03 0.  1.
        -12    1    3    3    0    0 -0.83385302365E+01 -0.36571269908E+02 -0.19174507055E+02  0.42126601928E+02  0.00000000000E+00 0.  1.
</event>
<event>
 7    1  0.2148778E-015  0.9000763E+02  0.7816164E-02  0.1186339E+00
        -11   -1    0    0    0    0  0.00000000000E+00  0.00000000000E+00  0.45593999997E+02  0.45594000000E+02  0.51100000000E-03 0.  1.
         11   -1    0    0    0    0 -0.00000000000E+00 -0.00000000000E+00 -0.45593999997E+02  0.45594000000E+02  0.51100000000E-03 0. -1.
    9900012    2    1    2    0    0  0.15666298015E+00 -0.38767194787E+00  0.11038294282E+01  0.90007630467E+02  0.89999890389E+02 0.  0.
         12    1    1    2    0    0 -0.15666298015E+00  0.38767194787E+00 -0.11038294282E+01  0.11803695333E+01  0.00000000000E+00 0. -1.
         11    1    3    3    0    0  0.30746273569E+02  0.17083124312E+02 -0.35585382812E+01  0.35352930141E+02  0.51100000000E-03 0. -1.
        -11    1    3    3    0    0  0.87533474124E+01  0.22842795109E+01 -0.38214055875E+01  0.98204971733E+01  0.51100000000E-03 0.  1.
        -12    1    3    3    0    0 -0.39342958001E+02 -0.19755075770E+02  0.84837732969E+01  0.44834203152E+02  0.00000000000E+00 0.  1.
</event>
<event>
 7    1  0.2148778E-015  0.9000775E+02  0.7816164E-02  0.1186339E+00
        -11   -1    0    0    0    0  0.00000000000E+00  0.00000000000E+00  0.45593999997E+02  0.45594000000E+02  0.51100000000E-03 0.  1.
         11   -1    0    0    0    0 -0.00000000000E+00 -0.00000000000E+00 -0.45593999997E+02  0.45594000000E+02  0.51100000000E-03 0. -1.
    9900012    2    1    2    0    0 -0.73536103025E+00 -0.91864814195E+00  0.91163989549E-01  0.90007753786E+02  0.90000015336E+02 0.  0.
         12    1    1    2    0    0  0.73536103025E+00  0.91864814195E+00 -0.91163989549E-01  0.11802462144E+01  0.00000000000E+00 0. -1.
         11    1    3    3    0    0  0.81848129505E+01 -0.25361645863E+02 -0.33611671458E+02  0.42894623234E+02  0.51100000000E-03 0. -1.
        -11    1    3    3    0    0 -0.97156957339E+01  0.36217528081E+01  0.46570993467E+01  0.11366635896E+02  0.51100000000E-03 0.  1.
        -12    1    3    3    0    0  0.79552175309E+00  0.20821244913E+02  0.29045736101E+02  0.35746494656E+02  0.00000000000E+00 0.  1.
</event>
<event>
 7    1  0.2148778E-015  0.9000787E+02  0.7816164E-02  0.1186339E+00
        -11   -1    0    0    0    0  0.00000000000E+00  0.00000000000E+00  0.45593999997E+02  0.45594000000E+02  0.51100000000E-03 0. -1.
         11   -1    0    0    0    0 -0.00000000000E+00 -0.00000000000E+00 -0.45593999997E+02  0.45594000000E+02  0.51100000000E-03 0.  1.
    9900012    2    1    2    0    0  0.74088011466E+00 -0.73370120822E+00 -0.55271586325E+00  0.90007866265E+02  0.90000129300E+02 0.  0.
         12    1    1    2    0    0 -0.74088011466E+00  0.73370120822E+00  0.55271586325E+00  0.11801337351E+01  0.00000000000E+00 0. -1.
         11    1    3    3    0    0  0.11677081614E+01 -0.17212929467E+02  0.32494919392E+02  0.36790872098E+02  0.51100000000E-03 0. -1.
        -11    1    3    3    0    0  0.34141962729E+01  0.14459137386E+01  0.82801873683E+01  0.90724255766E+01  0.51100000000E-03 0.  1.
        -12    1    3    3    0    0 -0.38410243196E+01  0.15033314520E+02 -0.41327822623E+02  0.44144568591E+02  0.00000000000E+00 0.  1.
</event>
<event>
 7    1  0.2148778E-015  0.9000748E+02  0.7816164E-02  0.1186340E+00
        -11   -1    0    0    0    0  0.00000000000E+00  0.00000000000E+00  0.45593999997E+02  0.45594000000E+02  0.51100000000E-03 0.  1.
         11   -1    0    0    0    0 -0.00000000000E+00 -0.00000000000E+00 -0.45593999997E+02  0.45594000000E+02  0.51100000000E-03 0. -1.
    9900012    2    1    2    0    0  0.86909698599E+00 -0.25297618910E+00  0.75783221315E+00  0.90007476308E+02  0.89999734195E+02 0.  0.
         12    1    1    2    0    0 -0.86909698599E+00  0.25297618910E+00 -0.75783221315E+00  0.11805236917E+01  0.00000000000E+00 0. -1.
         11    1    3    3    0    0 -0.12442162318E+02  0.29716658330E+02 -0.94783622669E+01  0.33581639880E+02  0.51100000000E-03 0. -1.
        -11    1    3    3    0    0  0.11290907136E+02  0.47498430311E+01 -0.10328408052E+02  0.16022534316E+02  0.51100000000E-03 0.  1.
        -12    1    3    3    0    0  0.20203521683E+01 -0.34719477551E+02  0.20564602532E+02  0.40403302112E+02  0.00000000000E+00 0.  1.
</event>
<event>
 7    1  0.2148778E-015  0.9000766E+02  0.7816164E-02  0.1186339E+00
        -11   -1    0    0    0    0  0.00000000000E+00  0.00000000000E+00  0.45593999997E+02  0.45594000000E+02  0.51100000000E-03 0.  1.
         11   -1    0    0    0    0 -0.00000000000E+00 -0.00000000000E+00 -0.45593999997E+02  0.45594000000E+02  0.51100000000E-03 0. -1.
    9900012    2    1    2    0    0  0.19702011084E+00  0.11584576177E+01  0.11115063244E+00  0.90007662998E+02  0.89999923349E+02 0.  0.
         12    1    1    2    0    0 -0.19702011084E+00 -0.11584576177E+01 -0.11115063244E+00  0.11803370024E+01  0.00000000000E+00 0. -1.
         11    1    3    3    0    0  0.85419261326E+01  0.61042914045E+00  0.34375876212E+01  0.92278997992E+01  0.51100000000E-03 0. -1.
        -11    1    3    3    0    0  0.34957911487E+02  0.10015736574E+02 -0.24179278888E+01  0.36444710593E+02  0.51100000000E-03 0.  1.
         12    1    3    3    0    0 -0.43302817508E+02 -0.94677080968E+01 -0.90850909990E+00  0.44335052606E+02  0.00000000000E+00 0. -1.
</event>
<event>
 7    1  0.2148778E-015  0.9000769E+02  0.7816164E-02  0.1186339E+00
        -11   -1    0    0    0    0  0.00000000000E+00  0.00000000000E+00  0.45593999997E+02  0.45594000000E+02  0.51100000000E-03 0.  1.
         11   -1    0    0    0    0 -0.00000000000E+00 -0.00000000000E+00 -0.45593999997E+02  0.45594000000E+02  0.51100000000E-03 0. -1.
    9900012    2    1    2    0    0 -0.10169232203E+00 -0.11465536091E+01  0.26114770863E+00  0.90007692992E+02  0.89999953740E+02 0.  0.
         12    1    1    2    0    0  0.10169232203E+00  0.11465536091E+01 -0.26114770863E+00  0.11803070078E+01  0.00000000000E+00 0. -1.
         11    1    3    3    0    0 -0.25954110141E+02  0.62464377886E+01 -0.23796940264E+02  0.35762105425E+02  0.51100000000E-03 0. -1.
        -11    1    3    3    0    0 -0.72669994186E+01  0.35190782275E+01 -0.44369100251E+01  0.92129996719E+01  0.51100000000E-03 0.  1.
        -12    1    3    3    0    0  0.33119417238E+02 -0.10912069625E+02  0.28494997998E+02  0.45032587895E+02  0.00000000000E+00 0.  1.
</event>
<event>
 7    1  0.2148778E-015  0.9000779E+02  0.7816164E-02  0.1186339E+00
        -11   -1    0    0    0    0  0.00000000000E+00  0.00000000000E+00  0.45593999997E+02  0.45594000000E+02  0.51100000000E-03 0. -1.
         11   -1    0    0    0    0 -0.00000000000E+00 -0.00000000000E+00 -0.45593999997E+02  0.45594000000E+02  0.51100000000E-03 0.  1.
    9900012    2    1    2    0    0  0.11594215579E+01 -0.13404927118E+00  0.17512233578E+00  0.90007790108E+02  0.90000052138E+02 0.  0.
         12    1    1    2    0    0 -0.11594215579E+01  0.13404927118E+00 -0.17512233578E+00  0.11802098917E+01  0.00000000000E+00 0. -1.
         11    1    3    3    0    0 -0.56660585798E+01  0.15665094401E+02 -0.80234150516E+01  0.18489851048E+02  0.51100000000E-03 0. -1.
        -11    1    3    3    0    0  0.70991139473E+01 -0.46503178431E+01 -0.30284717527E+02  0.31451343227E+02  0.51100000000E-03 0.  1.
         12    1    3    3    0    0 -0.27363380968E+00 -0.11148825829E+02  0.38483254914E+02  0.40066595833E+02  0.00000000000E+00 0. -1.
</event>
<event>
 7    1  0.2148778E-015  0.9000767E+02  0.7816164E-02  0.1186339E+00
        -11   -1    0    0    0    0  0.00000000000E+00  0.00000000000E+00  0.45593999997E+02  0.45594000000E+02  0.51100000000E-03 0.  1.
         11   -1    0    0    0    0 -0.00000000000E+00 -0.00000000000E+00 -0.45593999997E+02  0.45594000000E+02  0.51100000000E-03 0. -1.
    9900012    2    1    2    0    0 -0.32288091418E+00 -0.18231236048E+00  0.11205788903E+01  0.90007666602E+02  0.89999927001E+02 0.  0.
         12    1    1    2    0    0  0.32288091418E+00  0.18231236048E+00 -0.11205788903E+01  0.11803333982E+01  0.00000000000E+00 0. -1.
         11    1    3    3    0    0  0.21002969770E+01  0.17694844656E+02 -0.35547676444E+02  0.39763753289E+02  0.51100000000E-03 0. -1.
        -11    1    3    3    0    0 -0.39420574986E+01  0.77252833838E+01  0.83823011461E+01  0.12061624826E+02  0.51100000000E-03 0.  1.
        -12    1    3    3    0    0  0.15188796074E+01 -0.25602440400E+02  0.28285954189E+02  0.38182288486E+02  0.00000000000E+00 0.  1.
</event>
<event>
 7    1  0.2148778E-015  0.9000776E+02  0.7816164E-02  0.1186339E+00
        -11   -1    0    0    0    0  0.00000000000E+00  0.00000000000E+00  0.45593999997E+02  0.45594000000E+02  0.51100000000E-03 0.  1.
         11   -1    0    0    0    0 -0.00000000000E+00 -0.00000000000E+00 -0.45593999997E+02  0.45594000000E+02  0.51100000000E-03 0. -1.
    9900012    2    1    2    0    0 -0.19671398583E+00 -0.74921975285E+00  0.89046539389E+00  0.90007764749E+02  0.90000026444E+02 0.  0.
         12    1    1    2    0    0  0.19671398583E+00  0.74921975285E+00 -0.89046539389E+00  0.11802352511E+01  0.00000000000E+00 0. -1.
         11    1    3    3    0    0 -0.41264113733E+01  0.90150002265E+01  0.72391171915E-01  0.99147738576E+01  0.51100000000E-03 0. -1.
        -11    1    3    3    0    0 -0.36624246925E+02  0.20240254682E+01  0.72026224528E+01  0.37380608774E+02  0.51100000000E-03 0.  1.
         12    1    3    3    0    0  0.40553944312E+02 -0.11788245447E+02 -0.63845482309E+01  0.42712382117E+02  0.00000000000E+00 0. -1.
</event>
<event>
 7    1  0.2148778E-015  0.9000778E+02  0.7816164E-02  0.1186339E+00
        -11   -1    0    0    0    0  0.00000000000E+00  0.00000000000E+00  0.45593999997E+02  0.45594000000E+02  0.51100000000E-03 0.  1.
         11   -1    0    0    0    0 -0.00000000000E+00 -0.00000000000E+00 -0.45593999997E+02  0.45594000000E+02  0.51100000000E-03 0. -1.
    9900012    2    1    2    0    0  0.33100085616E+00 -0.10565168839E+01  0.40882581326E+00  0.90007776276E+02  0.90000038123E+02 0.  0.
         12    1    1    2    0    0 -0.33100085616E+00  0.10565168839E+01 -0.40882581326E+00  0.11802237238E+01  0.00000000000E+00 0. -1.
         11    1    3    3    0    0 -0.43620976579E+01  0.16292325244E+01  0.54883986961E+01  0.71975561897E+01  0.51100000000E-03 0. -1.
        -11    1    3    3    0    0 -0.26741309162E+02 -0.29557066988E+02 -0.10191492214E+02  0.41141029866E+02  0.51100000000E-03 0.  1.
         12    1    3    3    0    0  0.31434407676E+02  0.26871317580E+02  0.51119193310E+01  0.41669190221E+02  0.00000000000E+00 0. -1.
</event>
<event>
 7    1  0.2148778E-015  0.9000776E+02  0.7816164E-02  0.1186339E+00
        -11   -1    0    0    0    0  0.00000000000E+00  0.00000000000E+00  0.45593999997E+02  0.45594000000E+02  0.51100000000E-03 0.  1.
         11   -1    0    0    0    0 -0.00000000000E+00 -0.00000000000E+00 -0.45593999997E+02  0.45594000000E+02  0.51100000000E-03 0. -1.
    9900012    2    1    2    0    0  0.28619262311E+00  0.47143535040E+00  0.10434647471E+01  0.90007755879E+02  0.90000017456E+02 0.  0.
         12    1    1    2    0    0 -0.28619262311E+00 -0.47143535040E+00 -0.10434647471E+01  0.11802441212E+01  0.00000000000E+00 0. -1.
         11    1    3    3    0    0 -0.29048364929E+02  0.15733925587E+02 -0.28228379656E+02  0.43453484759E+02  0.51100000000E-03 0. -1.
        -11    1    3    3    0    0  0.91717413876E+01  0.40439908677E-01  0.20806994921E+01  0.94048809724E+01  0.51100000000E-03 0.  1.
        -12    1    3    3    0    0  0.20162816165E+02 -0.15302930146E+02  0.27191144911E+02  0.37149390147E+02  0.00000000000E+00 0.  1.
</event>
<event>
 7    1  0.2148778E-015  0.9000762E+02  0.7816164E-02  0.1186339E+00
        -11   -1    0    0    0    0  0.00000000000E+00  0.00000000000E+00  0.45593999997E+02  0.45594000000E+02  0.51100000000E-03 0. -1.
         11   -1    0    0    0    0 -0.00000000000E+00 -0.00000000000E+00 -0.45593999997E+02  0.45594000000E+02  0.51100000000E-03 0.  1.
    9900012    2    1    2    0    0 -0.19661898714E+00  0.99173848527E+00 -0.60917692939E+00  0.90007618375E+02  0.89999878137E+02 0.  0.
         12    1    1    2    0    0  0.19661898714E+00 -0.99173848527E+00  0.60917692939E+00  0.11803816250E+01  0.00000000000E+00 0. -1.
         11    1    3    3    0    0 -0.11433225839E+01  0.26268161828E+02  0.26434749373E+02  0.37284306176E+02  0.51100000000E-03 0. -1.
        -11    1    3    3    0    0 -0.59654637922E+01  0.21895953970E+01  0.63177508353E+01  0.89607512038E+01  0.51100000000E-03 0.  1.
        -12    1    3    3    0    0  0.69121673889E+01 -0.27466018740E+02 -0.33361677138E+02  0.43762560995E+02  0.00000000000E+00 0.  1.
</event>
<event>
 7    1  0.2148778E-015  0.9000777E+02  0.7816164E-02  0.1186339E+00
        -11   -1    0    0    0    0  0.00000000000E+00  0.00000000000E+00  0.45593999997E+02  0.45594000000E+02  0.51100000000E-03 0. -1.
         11   -1    0    0    0    0 -0.00000000000E+00 -0.00000000000E+00 -0.45593999997E+02  0.45594000000E+02  0.51100000000E-03 0.  1.
    9900012    2    1    2    0    0 -0.11475823688E+01 -0.26311887181E+00  0.82197086101E-01  0.90007774092E+02  0.90000035910E+02 0.  0.
         12    1    1    2    0    0  0.11475823688E+01  0.26311887181E+00 -0.82197086101E-01  0.11802259084E+01  0.00000000000E+00 0. -1.
         11    1    3    3    0    0 -0.31895259620E+01 -0.31061210786E+01  0.78379998592E+01  0.90141725117E+01  0.51100000000E-03 0. -1.
        -11    1    3    3    0    0 -0.36670152565E+02 -0.11094223741E+01  0.10285463618E+02  0.38101465447E+02  0.51100000000E-03 0.  1.
         12    1    3    3    0    0  0.38712096158E+02  0.39524245809E+01 -0.18041266391E+02  0.42892136133E+02  0.00000000000E+00 0. -1.
</event>
<event>
 7    1  0.2148778E-015  0.9000773E+02  0.7816164E-02  0.1186339E+00
        -11   -1    0    0    0    0  0.00000000000E+00  0.00000000000E+00  0.45593999997E+02  0.45594000000E+02  0.51100000000E-03 0.  1.
         11   -1    0    0    0    0 -0.00000000000E+00 -0.00000000000E+00 -0.45593999997E+02  0.45594000000E+02  0.51100000000E-03 0. -1.
    9900012    2    1    2    0    0  0.37395280475E+00 -0.91615227454E+00  0.64332912555E+00  0.90007725433E+02  0.89999986608E+02 0.  0.
         12    1    1    2    0    0 -0.37395280475E+00  0.91615227454E+00 -0.64332912555E+00  0.11802745673E+01  0.00000000000E+00 0. -1.
         11    1    3    3    0    0 -0.22478389472E+02 -0.13368884806E+01 -0.34879854425E+02  0.41517098996E+02  0.51100000000E-03 0. -1.
        -11    1    3    3    0    0 -0.46071875444E+01 -0.22806330309E+01  0.80650692211E+01  0.95641416705E+01  0.51100000000E-03 0.  1.
        -12    1    3    3    0    0  0.27459529821E+02  0.27013692370E+01  0.27458114329E+02  0.38926484766E+02  0.00000000000E+00 0.  1.
</event>
<event>
 7    1  0.2148778E-015  0.9000768E+02  0.7816164E-02  0.1186339E+00
        -11   -1    0    0    0    0  0.00000000000E+00  0.00000000000E+00  0.45593999997E+02  0.45594000000E+02  0.51100000000E-03 0. -1.
         11   -1    0    0    0    0 -0.00000000000E+00 -0.00000000000E+00 -0.45593999997E+02  0.45594000000E+02  0.51100000000E-03 0.  1.
    9900012    2    1    2    0    0  0.71193573864E+00  0.93405859966E+00  0.11759982209E+00  0.90007683228E+02  0.89999943847E+02 0.  0.
         12    1    1    2    0    0 -0.71193573864E+00 -0.93405859966E+00 -0.11759982209E+00  0.11803167718E+01  0.00000000000E+00 0. -1.
         11    1    3    3    0    0 -0.57963314763E+01  0.54050678005E+01  0.65672108384E+01  0.10292738944E+02  0.51100000000E-03 0. -1.
        -11    1    3    3    0    0 -0.31671740606E+02  0.14182231595E+02 -0.12307710050E+02  0.36820029508E+02  0.51100000000E-03 0.  1.
         12    1    3    3    0    0  0.38180007821E+02 -0.18653240796E+02  0.58580990334E+01  0.42894914776E+02  0.00000000000E+00 0. -1.
</event>
<event>
 7    1  0.2148778E-015  0.9000717E+02  0.7816164E-02  0.1186340E+00
        -11   -1    0    0    0    0  0.00000000000E+00  0.00000000000E+00  0.45593999997E+02  0.45594000000E+02  0.51100000000E-03 0.  1.
         11   -1    0    0    0    0 -0.00000000000E+00 -0.00000000000E+00 -0.45593999997E+02  0.45594000000E+02  0.51100000000E-03 0. -1.
    9900012    2    1    2    0    0 -0.37585444962E+00 -0.12166759253E+00  0.11127812415E+01  0.90007173314E+02  0.89999427200E+02 0.  0.
         12    1    1    2    0    0  0.37585444962E+00  0.12166759253E+00 -0.11127812415E+01  0.11808266858E+01  0.00000000000E+00 0. -1.
         11    1    3    3    0    0 -0.12526466120E+02  0.10058131710E+02 -0.26491990041E+02  0.30982315981E+02  0.51100000000E-03 0. -1.
        -11    1    3    3    0    0 -0.35235274177E+01  0.17918413607E+02  0.29677413479E+01  0.18501142685E+02  0.51100000000E-03 0.  1.
        -12    1    3    3    0    0  0.15674139089E+02 -0.28098212910E+02  0.24637029935E+02  0.40523714648E+02  0.00000000000E+00 0.  1.
</event>
<event>
 7    1  0.2148778E-015  0.9000783E+02  0.7816164E-02  0.1186339E+00
        -11   -1    0    0    0    0  0.00000000000E+00  0.00000000000E+00  0.45593999997E+02  0.45594000000E+02  0.51100000000E-03 0.  1.
         11   -1    0    0    0    0 -0.00000000000E+00 -0.00000000000E+00 -0.45593999997E+02  0.45594000000E+02  0.51100000000E-03 0. -1.
    9900012    2    1    2    0    0  0.10965972298E+01 -0.31996612726E-01 -0.43503790037E+00  0.90007827452E+02  0.90000089975E+02 0.  0.
         12    1    1    2    0    0 -0.10965972298E+01  0.31996612726E-01  0.43503790037E+00  0.11801725477E+01  0.00000000000E+00 0. -1.
         11    1    3    3    0    0 -0.11924407841E+02  0.34523842826E+02 -0.45057448758E+01  0.36802023898E+02  0.51100000000E-03 0. -1.
        -11    1    3    3    0    0 -0.96083630041E+01  0.20442873812E+01  0.25455844975E+01  0.10147893930E+02  0.51100000000E-03 0.  1.
        -12    1    3    3    0    0  0.22629368074E+02 -0.36600126820E+02  0.15251224779E+01  0.43057909625E+02  0.00000000000E+00 0.  1.
</event>
<event>
 7    1  0.2148778E-015  0.9000773E+02  0.7816164E-02  0.1186339E+00
        -11   -1    0    0    0    0  0.00000000000E+00  0.00000000000E+00  0.45593999997E+02  0.45594000000E+02  0.51100000000E-03 0.  1.
         11   -1    0    0    0    0 -0.00000000000E+00 -0.00000000000E+00 -0.45593999997E+02  0.45594000000E+02  0.51100000000E-03 0. -1.
    9900012    2    1    2    0    0  0.32932430787E+00  0.73930807683E+00  0.85907687475E+00  0.90007727146E+02  0.89999988345E+02 0.  0.
         12    1    1    2    0    0 -0.32932430787E+00 -0.73930807683E+00 -0.85907687475E+00  0.11802728536E+01  0.00000000000E+00 0. -1.
         11    1    3    3    0    0  0.14501758135E+01  0.33766807926E+01  0.85314823480E+01  0.92893043001E+01  0.51100000000E-03 0. -1.
        -11    1    3    3    0    0 -0.92167404739E+00 -0.30810538456E+02  0.23455533675E+02  0.38733716879E+02  0.51100000000E-03 0.  1.
         12    1    3    3    0    0 -0.19917745823E+00  0.28173165741E+02 -0.31127939149E+02  0.41984705967E+02  0.00000000000E+00 0. -1.
</event>
<event>
 7    1  0.2148778E-015  0.9000773E+02  0.7816164E-02  0.1186339E+00
        -11   -1    0    0    0    0  0.00000000000E+00  0.00000000000E+00  0.45593999997E+02  0.45594000000E+02  0.51100000000E-03 0. -1.
         11   -1    0    0    0    0 -0.00000000000E+00 -0.00000000000E+00 -0.45593999997E+02  0.45594000000E+02  0.51100000000E-03 0.  1.
    9900012    2    1    2    0    0  0.82826210799E+00 -0.57075401526E-02 -0.84082196973E+00  0.90007732115E+02  0.89999993379E+02 0.  0.
         12    1    1    2    0    0 -0.82826210799E+00  0.57075401526E-02  0.84082196973E+00  0.11802678850E+01  0.00000000000E+00 0. -1.
         11    1    3    3    0    0 -0.21560024487E+01 -0.13356093077E+01  0.11120465193E+02  0.11406004785E+02  0.51100000000E-03 0. -1.
        -11    1    3    3    0    0  0.34872459303E+02  0.11665502015E+02  0.10511121686E+02  0.38244686356E+02  0.51100000000E-03 0.  1.
         12    1    3    3    0    0 -0.31888194747E+02 -0.10335600247E+02 -0.22472408849E+02  0.40357040974E+02  0.00000000000E+00 0. -1.
</event>
<event>
 7    1  0.2148778E-015  0.9000775E+02  0.7816164E-02  0.1186339E+00
        -11   -1    0    0    0    0  0.00000000000E+00  0.00000000000E+00  0.45593999997E+02  0.45594000000E+02  0.51100000000E-03 0. -1.
         11   -1    0    0    0    0 -0.00000000000E+00 -0.00000000000E+00 -0.45593999997E+02  0.45594000000E+02  0.51100000000E-03 0.  1.
    9900012    2    1    2    0    0 -0.90321405405E+00  0.75799466478E+00 -0.51428044844E-01  0.90007747322E+02  0.90000008787E+02 0.  0.
         12    1    1    2    0    0  0.90321405405E+00 -0.75799466478E+00  0.51428044844E-01  0.11802526776E+01  0.00000000000E+00 0. -1.
         11    1    3    3    0    0 -0.32932370562E+01 -0.75182853509E+01 -0.36034933481E+01  0.89641056161E+01  0.51100000000E-03 0. -1.
        -11    1    3    3    0    0  0.34376270991E+01  0.99750246654E+01 -0.38003133126E+02  0.39440544175E+02  0.51100000000E-03 0.  1.
         12    1    3    3    0    0 -0.10476040969E+01 -0.16987446497E+01  0.41555198429E+02  0.41603097532E+02  0.00000000000E+00 0. -1.
</event>
<event>
 7    1  0.2148778E-015  0.9000776E+02  0.7816164E-02  0.1186339E+00
        -11   -1    0    0    0    0  0.00000000000E+00  0.00000000000E+00  0.45593999997E+02  0.45594000000E+02  0.51100000000E-03 0.  1.
         11   -1    0    0    0    0 -0.00000000000E+00 -0.00000000000E+00 -0.45593999997E+02  0.45594000000E+02  0.51100000000E-03 0. -1.
    9900012    2    1    2    0    0 -0.97181594071E+00  0.51816964131E+00  0.42430538461E+00  0.90007762287E+02  0.90000023949E+02 0.  0.
         12    1    1    2    0    0  0.97181594071E+00 -0.51816964131E+00 -0.42430538461E+00  0.11802377130E+01  0.00000000000E+00 0. -1.
         11    1    3    3    0    0 -0.63492469436E+01 -0.32229427042E+02 -0.17189256760E+02  0.37074512167E+02  0.51100000000E-03 0. -1.
        -11    1    3    3    0    0 -0.72318653398E+01 -0.47437862071E+01 -0.18567233014E+01  0.88459485388E+01  0.51100000000E-03 0.  1.
        -12    1    3    3    0    0  0.12609296343E+02  0.37491382891E+02  0.19470285446E+02  0.44087301581E+02  0.00000000000E+00 0.  1.
</event>
<event>
 7    1  0.2148778E-015  0.9000764E+02  0.7816164E-02  0.1186339E+00
        -11   -1    0    0    0    0  0.00000000000E+00  0.00000000000E+00  0.45593999997E+02  0.45594000000E+02  0.51100000000E-03 0. -1.
         11   -1    0    0    0    0 -0.00000000000E+00 -0.00000000000E+00 -0.45593999997E+02  0.45594000000E+02  0.51100000000E-03 0.  1.
    9900012    2    1    2    0    0  0.65461800773E+00  0.97677700124E+00 -0.10315091336E+00  0.90007636430E+02  0.89999896431E+02 0.  0.
         12    1    1    2    0    0 -0.65461800773E+00 -0.97677700124E+00  0.10315091336E+00  0.11803635699E+01  0.00000000000E+00 0. -1.
         11    1    3    3    0    0  0.10732045455E+02 -0.19630776078E+02  0.28536899158E+02  0.36261533101E+02  0.51100000000E-03 0. -1.
        -11    1    3    3    0    0  0.91231660010E+01 -0.33764236074E+01  0.24555576444E+01  0.10033053267E+02  0.51100000000E-03 0.  1.
        -12    1    3    3    0    0 -0.19200593448E+02  0.23983976687E+02 -0.31095607715E+02  0.43713050061E+02  0.00000000000E+00 0.  1.
</event>
<event>
 7    1  0.2148778E-015  0.9000787E+02  0.7816164E-02  0.1186339E+00
        -11   -1    0    0    0    0  0.00000000000E+00  0.00000000000E+00  0.45593999997E+02  0.45594000000E+02  0.51100000000E-03 0. -1.
         11   -1    0    0    0    0 -0.00000000000E+00 -0.00000000000E+00 -0.45593999997E+02  0.45594000000E+02  0.51100000000E-03 0.  1.
    9900012    2    1    2    0    0 -0.32656373648E+00  0.78767563371E+00 -0.81586853331E+00  0.90007865160E+02  0.90000128180E+02 0.  0.
         12    1    1    2    0    0  0.32656373648E+00 -0.78767563371E+00  0.81586853331E+00  0.11801348404E+01  0.00000000000E+00 0. -1.
         11    1    3    3    0    0  0.84159238833E+01 -0.12155200973E+02  0.10371184123E+01  0.14820671387E+02  0.51100000000E-03 0. -1.
        -11    1    3    3    0    0  0.21470584874E+02 -0.20401750921E+02 -0.51813902785E+01  0.30067661381E+02  0.51100000000E-03 0.  1.
         12    1    3    3    0    0 -0.30213072494E+02  0.33344627527E+02  0.33284033328E+01  0.45119532391E+02  0.00000000000E+00 0. -1.
</event>
<event>
 7    1  0.2148778E-015  0.9000751E+02  0.7816164E-02  0.1186339E+00
        -11   -1    0    0    0    0  0.00000000000E+00  0.00000000000E+00  0.45593999997E+02  0.45594000000E+02  0.51100000000E-03 0. -1.
         11   -1    0    0    0    0 -0.00000000000E+00 -0.00000000000E+00 -0.45593999997E+02  0.45594000000E+02  0.51100000000E-03 0.  1.
    9900012    2    1    2    0    0  0.44483072133E+00 -0.81930756913E+00 -0.72415970945E+00  0.90007514274E+02  0.89999772663E+02 0.  0.
         12    1    1    2    0    0 -0.44483072133E+00  0.81930756913E+00  0.72415970945E+00  0.11804857256E+01  0.00000000000E+00 0. -1.
         11    1    3    3    0    0  0.77573878943E+01  0.26712320450E+02 -0.20159155452E+01  0.27888869581E+02  0.51100000000E-03 0. -1.
        -11    1    3    3    0    0 -0.10091914432E+01  0.16959048571E+02 -0.17610544045E+01  0.17080079294E+02  0.51100000000E-03 0.  1.
        -12    1    3    3    0    0 -0.63033657298E+01 -0.44490676590E+02  0.30528102402E+01  0.45038565400E+02  0.00000000000E+00 0.  1.
</event>
<event>
 7    1  0.2148778E-015  0.9000772E+02  0.7816164E-02  0.1186339E+00
        -11   -1    0    0    0    0  0.00000000000E+00  0.00000000000E+00  0.45593999997E+02  0.45594000000E+02  0.51100000000E-03 0.  1.
         11   -1    0    0    0    0 -0.00000000000E+00 -0.00000000000E+00 -0.45593999997E+02  0.45594000000E+02  0.51100000000E-03 0. -1.
    9900012    2    1    2    0    0 -0.38112115432E+00 -0.96121005734E+00 -0.56910385289E+00  0.90007721514E+02  0.89999982638E+02 0.  0.
         12    1    1    2    0    0  0.38112115432E+00  0.96121005734E+00  0.56910385289E+00  0.11802784858E+01  0.00000000000E+00 0. -1.
         11    1    3    3    0    0  0.39251655062E+02 -0.11293345723E+02 -0.20426476473E+01  0.40895042394E+02  0.51100000000E-03 0. -1.
        -11    1    3    3    0    0 -0.29713546547E+01  0.12014346464E+02  0.88565376895E+00  0.12407975351E+02  0.51100000000E-03 0.  1.
        -12    1    3    3    0    0 -0.36661421562E+02 -0.16822107992E+01  0.58789002548E+00  0.36704703769E+02  0.00000000000E+00 0.  1.
</event>
<event>
 7    1  0.2148778E-015  0.9000769E+02  0.7816164E-02  0.1186339E+00
        -11   -1    0    0    0    0  0.00000000000E+00  0.00000000000E+00  0.45593999997E+02  0.45594000000E+02  0.51100000000E-03 0. -1.
         11   -1    0    0    0    0 -0.00000000000E+00 -0.00000000000E+00 -0.45593999997E+02  0.45594000000E+02  0.51100000000E-03 0.  1.
    9900012    2    1    2    0    0 -0.23813045863E+00 -0.92836872476E+00 -0.68887830009E+00  0.90007691601E+02  0.89999952330E+02 0.  0.
         12    1    1    2    0    0  0.23813045863E+00  0.92836872476E+00  0.68887830009E+00  0.11803083990E+01  0.00000000000E+00 0. -1.
         11    1    3    3    0    0 -0.32485454352E+02 -0.77986614406E+01  0.87302121302E+01  0.34530283359E+02  0.51100000000E-03 0. -1.
        -11    1    3    3    0    0 -0.87660373821E+01 -0.46921899007E+01  0.41251612324E+01  0.10764618567E+02  0.51100000000E-03 0.  1.
        -12    1    3    3    0    0  0.41013361276E+02  0.11562482617E+02 -0.13544251663E+02  0.44712789675E+02  0.00000000000E+00 0.  1.
</event>
<event>
 7    1  0.2148778E-015  0.9000665E+02  0.7816164E-02  0.1186341E+00
        -11   -1    0    0    0    0  0.00000000000E+00  0.00000000000E+00  0.45593999997E+02  0.45594000000E+02  0.51100000000E-03 0.  1.
         11   -1    0    0    0    0 -0.00000000000E+00 -0.00000000000E+00 -0.45593999997E+02  0.45594000000E+02  0.51100000000E-03 0. -1.
    9900012    2    1    2    0    0  0.96920086032E-01 -0.44804047729E+00  0.10887878486E+01  0.90006647914E+02  0.89998894859E+02 0.  0.
         12    1    1    2    0    0 -0.96920086032E-01  0.44804047729E+00 -0.10887878486E+01  0.11813520862E+01  0.00000000000E+00 0. -1.
         11    1    3    3    0    0 -0.25973582443E+02  0.12944195232E+02 -0.20214000233E+02  0.35366438622E+02  0.51100000000E-03 0. -1.
        -11    1    3    3    0    0 -0.91591745228E+01  0.23266258070E+01 -0.18767428764E+01  0.96346162181E+01  0.51100000000E-03 0.  1.
        -12    1    3    3    0    0  0.35229677052E+02 -0.15718861516E+02  0.23179530958E+02  0.45005593074E+02  0.00000000000E+00 0.  1.
</event>
<event>
 7    1  0.2148778E-015  0.9000775E+02  0.7816164E-02  0.1186339E+00
        -11   -1    0    0    0    0  0.00000000000E+00  0.00000000000E+00  0.45593999997E+02  0.45594000000E+02  0.51100000000E-03 0.  1.
         11   -1    0    0    0    0 -0.00000000000E+00 -0.00000000000E+00 -0.45593999997E+02  0.45594000000E+02  0.51100000000E-03 0. -1.
    9900012    2    1    2    0    0 -0.34208236851E+00  0.68394281287E+00  0.89899954408E+00  0.90007746511E+02  0.90000007965E+02 0.  0.
         12    1    1    2    0    0  0.34208236851E+00 -0.68394281287E+00 -0.89899954408E+00  0.11802534890E+01  0.00000000000E+00 0. -1.
         11    1    3    3    0    0 -0.23320177826E+02 -0.17726622801E+02 -0.21728931659E+02  0.36472048490E+02  0.51100000000E-03 0. -1.
        -11    1    3    3    0    0 -0.87728351227E+01 -0.20944929643E+01  0.10497998378E+02  0.13840430162E+02  0.51100000000E-03 0.  1.
        -12    1    3    3    0    0  0.31750930580E+02  0.20505058578E+02  0.12129932825E+02  0.39695267858E+02  0.00000000000E+00 0.  1.
</event>
<event>
 7    1  0.2148778E-015  0.9000795E+02  0.7816164E-02  0.1186339E+00
        -11   -1    0    0    0    0  0.00000000000E+00  0.00000000000E+00  0.45593999997E+02  0.45594000000E+02  0.51100000000E-03 0.  1.
         11   -1    0    0    0    0 -0.00000000000E+00 -0.00000000000E+00 -0.45593999997E+02  0.45594000000E+02  0.51100000000E-03 0. -1.
    9900012    2    1    2    0    0  0.25048856126E+00  0.97668984621E+00  0.61306483297E+00  0.90007950821E+02  0.90000214972E+02 0.  0.
         12    1    1    2    0    0 -0.25048856126E+00 -0.97668984621E+00 -0.61306483297E+00  0.11800491788E+01  0.00000000000E+00 0. -1.
         11    1    3    3    0    0 -0.21827064019E+02 -0.12129980062E+02 -0.26341133017E+02  0.36296176505E+02  0.51100000000E-03 0. -1.
        -11    1    3    3    0    0  0.34766420603E+01  0.13958149770E+01 -0.10020010192E+02  0.10697473720E+02  0.51100000000E-03 0.  1.
        -12    1    3    3    0    0  0.18600910520E+02  0.11710854931E+02  0.36974208043E+02  0.43014300596E+02  0.00000000000E+00 0.  1.
</event>
<event>
 7    1  0.2148778E-015  0.9000772E+02  0.7816164E-02  0.1186339E+00
        -11   -1    0    0    0    0  0.00000000000E+00  0.00000000000E+00  0.45593999997E+02  0.45594000000E+02  0.51100000000E-03 0. -1.
         11   -1    0    0    0    0 -0.00000000000E+00 -0.00000000000E+00 -0.45593999997E+02  0.45594000000E+02  0.51100000000E-03 0.  1.
    9900012    2    1    2    0    0  0.83720027189E+00 -0.78991478696E+00 -0.26112097533E+00  0.90007722986E+02  0.89999984129E+02 0.  0.
         12    1    1    2    0    0 -0.83720027189E+00  0.78991478696E+00  0.26112097533E+00  0.11802770140E+01  0.00000000000E+00 0. -1.
         11    1    3    3    0    0 -0.12951927259E+02  0.31322828879E+02  0.10724078247E+02  0.35551060227E+02  0.51100000000E-03 0. -1.
        -11    1    3    3    0    0 -0.30039755997E+01  0.60961748953E+01  0.63145544128E+01  0.92768968654E+01  0.51100000000E-03 0.  1.
        -12    1    3    3    0    0  0.16793103131E+02 -0.38208918562E+02 -0.17299753635E+02  0.45179765894E+02  0.00000000000E+00 0.  1.
</event>
<event>
 7    1  0.2148778E-015  0.9000774E+02  0.7816164E-02  0.1186339E+00
        -11   -1    0    0    0    0  0.00000000000E+00  0.00000000000E+00  0.45593999997E+02  0.45594000000E+02  0.51100000000E-03 0. -1.
         11   -1    0    0    0    0 -0.00000000000E+00 -0.00000000000E+00 -0.45593999997E+02  0.45594000000E+02  0.51100000000E-03 0.  1.
    9900012    2    1    2    0    0 -0.61249535457E+00 -0.37163069788E+00 -0.93795090949E+00  0.90007740773E+02  0.90000002151E+02 0.  0.
         12    1    1    2    0    0  0.61249535457E+00  0.37163069788E+00  0.93795090949E+00  0.11802592273E+01  0.00000000000E+00 0. -1.
         11    1    3    3    0    0  0.31337507023E+02  0.24271205877E+02  0.10350616458E+02  0.40966645487E+02  0.51100000000E-03 0. -1.
        -11    1    3    3    0    0  0.10333076363E+01 -0.56244733501E+01  0.50316793331E+01  0.76171006498E+01  0.51100000000E-03 0.  1.
        -12    1    3    3    0    0 -0.32983310014E+02 -0.19018363225E+02 -0.16320246700E+02  0.41423994636E+02  0.00000000000E+00 0.  1.
</event>
<event>
 7    1  0.2148778E-015  0.9000772E+02  0.7816164E-02  0.1186339E+00
        -11   -1    0    0    0    0  0.00000000000E+00  0.00000000000E+00  0.45593999997E+02  0.45594000000E+02  0.51100000000E-03 0.  1.
         11   -1    0    0    0    0 -0.00000000000E+00 -0.00000000000E+00 -0.45593999997E+02  0.45594000000E+02  0.51100000000E-03 0. -1.
    9900012    2    1    2    0    0 -0.26953131563E+00  0.99243705906E+00  0.57921386151E+00  0.90007717346E+02  0.89999978415E+02 0.  0.
         12    1    1    2    0    0  0.26953131563E+00 -0.99243705906E+00 -0.57921386151E+00  0.11802826541E+01  0.00000000000E+00 0. -1.
         11    1    3    3    0    0 -0.82199395153E+01 -0.37441534711E+01 -0.54335404194E+01  0.10540846864E+02  0.51100000000E-03 0. -1.
        -11    1    3    3    0    0 -0.21916919181E+02  0.26123263049E+02  0.20715790742E+02  0.39898874735E+02  0.51100000000E-03 0.  1.
         12    1    3    3    0    0  0.29867327381E+02 -0.21386672519E+02 -0.14703036461E+02  0.39567995748E+02  0.00000000000E+00 0. -1.
</event>
<event>
 7    1  0.2148778E-015  0.9000858E+02  0.7816164E-02  0.1186337E+00
        -11   -1    0    0    0    0  0.00000000000E+00  0.00000000000E+00  0.45593999997E+02  0.45594000000E+02  0.51100000000E-03 0. -1.
         11   -1    0    0    0    0 -0.00000000000E+00 -0.00000000000E+00 -0.45593999997E+02  0.45594000000E+02  0.51100000000E-03 0.  1.
    9900012    2    1    2    0    0 -0.58229014590E+00  0.77428431961E-02 -0.10256298615E+01  0.90008577099E+02  0.90000849513E+02 0.  0.
         12    1    1    2    0    0  0.58229014590E+00 -0.77428431961E-02  0.10256298615E+01  0.11794229006E+01  0.00000000000E+00 0. -1.
         11    1    3    3    0    0 -0.48569703889E+01 -0.20653487397E+00 -0.69196267892E+01  0.84565982035E+01  0.51100000000E-03 0. -1.
        -11    1    3    3    0    0  0.73083577267E+01 -0.31074591722E+02 -0.22609326408E+02  0.39118077461E+02  0.51100000000E-03 0.  1.
         12    1    3    3    0    0 -0.30336774837E+01  0.31288869439E+02  0.28503323336E+02  0.42433901435E+02  0.00000000000E+00 0. -1.
</event>
<event>
 7    1  0.2148778E-015  0.9000769E+02  0.7816164E-02  0.1186339E+00
        -11   -1    0    0    0    0  0.00000000000E+00  0.00000000000E+00  0.45593999997E+02  0.45594000000E+02  0.51100000000E-03 0. -1.
         11   -1    0    0    0    0 -0.00000000000E+00 -0.00000000000E+00 -0.45593999997E+02  0.45594000000E+02  0.51100000000E-03 0.  1.
    9900012    2    1    2    0    0 -0.49040337235E+00  0.52266889979E+00 -0.93778832745E+00  0.90007692755E+02  0.89999953499E+02 0.  0.
         12    1    1    2    0    0  0.49040337235E+00 -0.52266889979E+00  0.93778832745E+00  0.11803072454E+01  0.00000000000E+00 0. -1.
         11    1    3    3    0    0 -0.22529325233E+02  0.23715782646E+02  0.24185233031E+02  0.40680884196E+02  0.51100000000E-03 0. -1.
        -11    1    3    3    0    0  0.26181768950E+01  0.63461179138E+01 -0.60916276016E+01  0.91780166663E+01  0.51100000000E-03 0.  1.
        -12    1    3    3    0    0  0.19420744966E+02 -0.29539231660E+02 -0.19031393756E+02  0.40148791892E+02  0.00000000000E+00 0.  1.
</event>
<event>
 7    1  0.2148778E-015  0.9000775E+02  0.7816164E-02  0.1186339E+00
        -11   -1    0    0    0    0  0.00000000000E+00  0.00000000000E+00  0.45593999997E+02  0.45594000000E+02  0.51100000000E-03 0.  1.
         11   -1    0    0    0    0 -0.00000000000E+00 -0.00000000000E+00 -0.45593999997E+02  0.45594000000E+02  0.51100000000E-03 0. -1.
    9900012    2    1    2    0    0  0.55556359219E+00  0.11681849698E-01  0.10412486020E+01  0.90007751712E+02  0.90000013234E+02 0.  0.
         12    1    1    2    0    0 -0.55556359219E+00 -0.11681849698E-01 -0.10412486020E+01  0.11802482881E+01  0.00000000000E+00 0. -1.
         11    1    3    3    0    0 -0.38209720504E+02 -0.77448198631E+01  0.55500936402E+00  0.38990678519E+02  0.51100000000E-03 0. -1.
        -11    1    3    3    0    0 -0.21928099934E+01  0.69585033713E+01  0.63015947450E+01  0.96405021357E+01  0.51100000000E-03 0.  1.
        -12    1    3    3    0    0  0.40958094090E+02  0.79799834146E+00 -0.58153555070E+01  0.41376571057E+02  0.00000000000E+00 0.  1.
</event>
<event>
 7    1  0.2429118E-015  0.9000766E+02  0.7816164E-02  0.1186339E+00
        -11   -1    0    0    0    0  0.00000000000E+00  0.00000000000E+00  0.45593999997E+02  0.45594000000E+02  0.51100000000E-03 0.  1.
         11   -1    0    0    0    0 -0.00000000000E+00 -0.00000000000E+00 -0.45593999997E+02  0.45594000000E+02  0.51100000000E-03 0. -1.
    9900012    2    1    2    0    0 -0.20628460330E+00 -0.89376023319E+00  0.74285560580E+00  0.90007663123E+02  0.89999923476E+02 0.  0.
         12    1    1    2    0    0  0.20628460330E+00  0.89376023319E+00 -0.74285560580E+00  0.11803368769E+01  0.00000000000E+00 0. -1.
         11    1    3    3    0    0  0.71130118158E+01  0.43074943162E+01  0.50797576632E+01  0.97444026268E+01  0.51100000000E-03 0. -1.
        -11    1    3    3    0    0 -0.21573850924E+02  0.32968535528E+02 -0.18923215181E+01  0.39445357896E+02  0.51100000000E-03 0.  1.
         12    1    3    3    0    0  0.14254554505E+02 -0.38169790077E+02 -0.24445805393E+01  0.40817902600E+02  0.00000000000E+00 0. -1.
</event>
<event>
 7    1  0.2148778E-015  0.9000766E+02  0.7816164E-02  0.1186339E+00
        -11   -1    0    0    0    0  0.00000000000E+00  0.00000000000E+00  0.45593999997E+02  0.45594000000E+02  0.51100000000E-03 0. -1.
         11   -1    0    0    0    0 -0.00000000000E+00 -0.00000000000E+00 -0.45593999997E+02  0.45594000000E+02  0.51100000000E-03 0.  1.
    9900012    2    1    2    0    0 -0.70556165422E+00  0.54895501566E+00  0.77073456235E+00  0.90007660802E+02  0.89999921124E+02 0.  0.
         12    1    1    2    0    0  0.70556165422E+00 -0.54895501566E+00 -0.77073456235E+00  0.11803391982E+01  0.00000000000E+00 0. -1.
         11    1    3    3    0    0 -0.16518506225E+01 -0.21511843095E+01 -0.83087843978E+01  0.87402575959E+01  0.51100000000E-03 0. -1.
        -11    1    3    3    0    0 -0.20992159255E+02 -0.17825395392E+02 -0.24036952425E+02  0.36553940324E+02  0.51100000000E-03 0.  1.
         12    1    3    3    0    0  0.21938448223E+02  0.20525534717E+02  0.33116471385E+02  0.44713462882E+02  0.00000000000E+00 0. -1.
</event>
<event>
 7    1  0.2148778E-015  0.9000776E+02  0.7816164E-02  0.1186339E+00
        -11   -1    0    0    0    0  0.00000000000E+00  0.00000000000E+00  0.45593999997E+02  0.45594000000E+02  0.51100000000E-03 0.  1.
         11   -1    0    0    0    0 -0.00000000000E+00 -0.00000000000E+00 -0.45593999997E+02  0.45594000000E+02  0.51100000000E-03 0. -1.
    9900012    2    1    2    0    0  0.37584965103E+00  0.11149160056E+01  0.93052599098E-01  0.90007762970E+02  0.90000024642E+02 0.  0.
         12    1    1    2    0    0 -0.37584965103E+00 -0.11149160056E+01 -0.93052599098E-01  0.11802370295E+01  0.00000000000E+00 0. -1.
         11    1    3    3    0    0 -0.38200132763E+02  0.10799166356E+02 -0.10487556975E+01  0.39711107085E+02  0.51100000000E-03 0. -1.
        -11    1    3    3    0    0  0.28996729808E+01  0.93404560905E+01  0.12868788285E+01  0.98644959706E+01  0.51100000000E-03 0.  1.
        -12    1    3    3    0    0  0.35676309433E+02 -0.19024706441E+02 -0.14507053192E+00  0.40432159915E+02  0.00000000000E+00 0.  1.
</event>
<event>
 7    1  0.2252821E-015  0.9000768E+02  0.7816164E-02  0.1186339E+00
        -11   -1    0    0    0    0  0.00000000000E+00  0.00000000000E+00  0.45593999997E+02  0.45594000000E+02  0.51100000000E-03 0.  1.
         11   -1    0    0    0    0 -0.00000000000E+00 -0.00000000000E+00 -0.45593999997E+02  0.45594000000E+02  0.51100000000E-03 0. -1.
    9900012    2    1    2    0    0  0.67470489487E+00 -0.96413534387E+00  0.91551052376E-01  0.90007675785E+02  0.89999936306E+02 0.  0.
         12    1    1    2    0    0 -0.67470489487E+00  0.96413534387E+00 -0.91551052376E-01  0.11803242146E+01  0.00000000000E+00 0. -1.
         11    1    3    3    0    0 -0.71299377870E+00 -0.87774304386E+01 -0.32369238878E+01  0.93823942440E+01  0.51100000000E-03 0. -1.
        -11    1    3    3    0    0 -0.34941198486E+02  0.12424519607E+02  0.17942040854E+02  0.41196757995E+02  0.51100000000E-03 0.  1.
         12    1    3    3    0    0  0.36328897159E+02 -0.46112245122E+01 -0.14613565914E+02  0.39428523546E+02  0.00000000000E+00 0. -1.
</event>
<event>
 7    1  0.2148778E-015  0.9000776E+02  0.7816164E-02  0.1186339E+00
        -11   -1    0    0    0    0  0.00000000000E+00  0.00000000000E+00  0.45593999997E+02  0.45594000000E+02  0.51100000000E-03 0.  1.
         11   -1    0    0    0    0 -0.00000000000E+00 -0.00000000000E+00 -0.45593999997E+02  0.45594000000E+02  0.51100000000E-03 0. -1.
    9900012    2    1    2    0    0  0.11612014932E+01 -0.16743846615E+00 -0.12861604290E+00  0.90007759925E+02  0.90000021556E+02 0.  0.
         12    1    1    2    0    0 -0.11612014932E+01  0.16743846615E+00  0.12861604290E+00  0.11802400749E+01  0.00000000000E+00 0. -1.
         11    1    3    3    0    0  0.40434524851E+01 -0.32774211219E+02 -0.24894374160E+02  0.41354906530E+02  0.51100000000E-03 0. -1.
        -11    1    3    3    0    0 -0.85351103752E+01  0.63345016651E+01 -0.18967742946E+01  0.10796840901E+02  0.51100000000E-03 0.  1.
        -12    1    3    3    0    0  0.56528593833E+01  0.26272271088E+02  0.26662532412E+02  0.37856012494E+02  0.00000000000E+00 0.  1.
</event>
<event>
 7    1  0.2148778E-015  0.9000772E+02  0.7816164E-02  0.1186339E+00
        -11   -1    0    0    0    0  0.00000000000E+00  0.00000000000E+00  0.45593999997E+02  0.45594000000E+02  0.51100000000E-03 0.  1.
         11   -1    0    0    0    0 -0.00000000000E+00 -0.00000000000E+00 -0.45593999997E+02  0.45594000000E+02  0.51100000000E-03 0. -1.
    9900012    2    1    2    0    0 -0.37051675567E+00 -0.11006163629E+01 -0.21079087800E+00  0.90007715357E+02  0.89999976400E+02 0.  0.
         12    1    1    2    0    0  0.37051675567E+00  0.11006163629E+01  0.21079087800E+00  0.11802846432E+01  0.00000000000E+00 0. -1.
         11    1    3    3    0    0  0.45774965362E+01 -0.33166826507E+02 -0.21462425423E+02  0.39769681422E+02  0.51100000000E-03 0. -1.
        -11    1    3    3    0    0 -0.64109444568E+01 -0.33379880487E+01  0.11332847494E+02  0.13441570058E+02  0.51100000000E-03 0.  1.
        -12    1    3    3    0    0  0.14629311649E+01  0.35404198193E+02  0.99187870504E+01  0.36796463877E+02  0.00000000000E+00 0.  1.
</event>
<event>
 7    1  0.2148778E-015  0.9000815E+02  0.7816164E-02  0.1186338E+00
        -11   -1    0    0    0    0  0.00000000000E+00  0.00000000000E+00  0.45593999997E+02  0.45594000000E+02  0.51100000000E-03 0.  1.
         11   -1    0    0    0    0 -0.00000000000E+00 -0.00000000000E+00 -0.45593999997E+02  0.45594000000E+02  0.51100000000E-03 0. -1.
    9900012    2    1    2    0    0 -0.26730246708E+00  0.19150512076E+00  0.11331069555E+01  0.90008145690E+02  0.90000412412E+02 0.  0.
         12    1    1    2    0    0  0.26730246708E+00 -0.19150512076E+00 -0.11331069555E+01  0.11798543100E+01  0.00000000000E+00 0. -1.
         11    1    3    3    0    0  0.20341553452E+02 -0.30891901134E+02  0.21853178848E+02  0.42961026275E+02  0.51100000000E-03 0. -1.
        -11    1    3    3    0    0 -0.10356593660E+01  0.95210928337E+00 -0.92117136860E+01  0.93185176774E+01  0.51100000000E-03 0.  1.
        -12    1    3    3    0    0 -0.19573196553E+02  0.30131296971E+02 -0.11508358207E+02  0.37728601738E+02  0.00000000000E+00 0.  1.
</event>
<event>
 7    1  0.2148778E-015  0.9000780E+02  0.7816164E-02  0.1186339E+00
        -11   -1    0    0    0    0  0.00000000000E+00  0.00000000000E+00  0.45593999997E+02  0.45594000000E+02  0.51100000000E-03 0.  1.
         11   -1    0    0    0    0 -0.00000000000E+00 -0.00000000000E+00 -0.45593999997E+02  0.45594000000E+02  0.51100000000E-03 0. -1.
    9900012    2    1    2    0    0 -0.22578550061E+00 -0.62464011258E+00  0.97556244228E+00  0.90007798135E+02  0.90000060271E+02 0.  0.
         12    1    1    2    0    0  0.22578550061E+00  0.62464011258E+00 -0.97556244228E+00  0.11802018646E+01  0.00000000000E+00 0. -1.
         11    1    3    3    0    0  0.78656456734E+01  0.79086169638E+00  0.10453824339E+02  0.13106345320E+02  0.51100000000E-03 0. -1.
        -11    1    3    3    0    0 -0.35210552761E+02 -0.30629579532E+00  0.16896215079E+02  0.39055843699E+02  0.51100000000E-03 0.  1.
         12    1    3    3    0    0  0.27119121587E+02 -0.11092060136E+01 -0.26374476975E+02  0.37845609116E+02  0.00000000000E+00 0. -1.
</event>
<event>
 7    1  0.2148778E-015  0.9000769E+02  0.7816164E-02  0.1186339E+00
        -11   -1    0    0    0    0  0.00000000000E+00  0.00000000000E+00  0.45593999997E+02  0.45594000000E+02  0.51100000000E-03 0. -1.
         11   -1    0    0    0    0 -0.00000000000E+00 -0.00000000000E+00 -0.45593999997E+02  0.45594000000E+02  0.51100000000E-03 0.  1.
    9900012    2    1    2    0    0  0.10241038008E+01  0.45261241986E+00 -0.37347309776E+00  0.90007691247E+02  0.89999951972E+02 0.  0.
         12    1    1    2    0    0 -0.10241038008E+01 -0.45261241986E+00  0.37347309776E+00  0.11803087529E+01  0.00000000000E+00 0. -1.
         11    1    3    3    0    0 -0.29256754145E+01 -0.44059154690E+01  0.82667350103E+01  0.98137951753E+01  0.51100000000E-03 0. -1.
        -11    1    3    3    0    0  0.29394811435E+02 -0.12263231196E+02 -0.29249567381E+02  0.43243253473E+02  0.51100000000E-03 0.  1.
         12    1    3    3    0    0 -0.25445032219E+02  0.17121759085E+02  0.20609359273E+02  0.36950642599E+02  0.00000000000E+00 0. -1.
</event>
<event>
 7    1  0.2148778E-015  0.9000782E+02  0.7816164E-02  0.1186339E+00
        -11   -1    0    0    0    0  0.00000000000E+00  0.00000000000E+00  0.45593999997E+02  0.45594000000E+02  0.51100000000E-03 0.  1.
         11   -1    0    0    0    0 -0.00000000000E+00 -0.00000000000E+00 -0.45593999997E+02  0.45594000000E+02  0.51100000000E-03 0. -1.
    9900012    2    1    2    0    0  0.55658658097E-01  0.47912523278E+00  0.10771150361E+01  0.90007815406E+02  0.90000077769E+02 0.  0.
         12    1    1    2    0    0 -0.55658658097E-01 -0.47912523278E+00 -0.10771150361E+01  0.11801845940E+01  0.00000000000E+00 0. -1.
         11    1    3    3    0    0 -0.78692954271E+01 -0.17945889098E+02 -0.27019911870E+02  0.33377483185E+02  0.51100000000E-03 0. -1.
        -11    1    3    3    0    0 -0.15068985449E+01 -0.50689068868E+01 -0.97528265950E+01  0.11094241169E+02  0.51100000000E-03 0.  1.
        -12    1    3    3    0    0  0.94318526301E+01  0.23493921218E+02  0.37849853502E+02  0.45536091052E+02  0.00000000000E+00 0.  1.
</event>
<event>
 7    1  0.2148778E-015  0.9000770E+02  0.7816164E-02  0.1186339E+00
        -11   -1    0    0    0    0  0.00000000000E+00  0.00000000000E+00  0.45593999997E+02  0.45594000000E+02  0.51100000000E-03 0.  1.
         11   -1    0    0    0    0 -0.00000000000E+00 -0.00000000000E+00 -0.45593999997E+02  0.45594000000E+02  0.51100000000E-03 0. -1.
    9900012    2    1    2    0    0 -0.89420920116E+00 -0.27460179031E+00  0.71978139385E+00  0.90007702794E+02  0.89999963671E+02 0.  0.
         12    1    1    2    0    0  0.89420920116E+00  0.27460179031E+00 -0.71978139385E+00  0.11802972056E+01  0.00000000000E+00 0. -1.
         11    1    3    3    0    0  0.29113189503E+01 -0.12270969621E+02 -0.80602473335E+01  0.14967299717E+02  0.51100000000E-03 0. -1.
        -11    1    3    3    0    0  0.58991794236E+01 -0.24364763313E+02  0.23755417809E+02  0.34536384940E+02  0.51100000000E-03 0.  1.
         12    1    3    3    0    0 -0.97047075751E+01  0.36361131144E+02 -0.14975389081E+02  0.40504018138E+02  0.00000000000E+00 0. -1.
</event>
<event>
 7    1  0.2148778E-015  0.9000767E+02  0.7816164E-02  0.1186339E+00
        -11   -1    0    0    0    0  0.00000000000E+00  0.00000000000E+00  0.45593999997E+02  0.45594000000E+02  0.51100000000E-03 0.  1.
         11   -1    0    0    0    0 -0.00000000000E+00 -0.00000000000E+00 -0.45593999997E+02  0.45594000000E+02  0.51100000000E-03 0. -1.
    9900012    2    1    2    0    0 -0.88829021576E+00  0.77660087012E+00 -0.31705409017E-01  0.90007672227E+02  0.89999932700E+02 0.  0.
         12    1    1    2    0    0  0.88829021576E+00 -0.77660087012E+00  0.31705409017E-01  0.11803277731E+01  0.00000000000E+00 0. -1.
         11    1    3    3    0    0  0.34518262154E+02 -0.93841378068E+01 -0.86709815087E+01  0.36807042602E+02  0.51100000000E-03 0. -1.
        -11    1    3    3    0    0  0.34005181505E+01  0.36937268492E+01 -0.88274419257E+01  0.10155337165E+02  0.51100000000E-03 0.  1.
        -12    1    3    3    0    0 -0.38807070520E+02  0.64670118277E+01  0.17466718025E+02  0.43045292460E+02  0.00000000000E+00 0.  1.
</event>
<event>
 7    1  0.2148778E-015  0.9000773E+02  0.7816164E-02  0.1186339E+00
        -11   -1    0    0    0    0  0.00000000000E+00  0.00000000000E+00  0.45593999997E+02  0.45594000000E+02  0.51100000000E-03 0. -1.
         11   -1    0    0    0    0 -0.00000000000E+00 -0.00000000000E+00 -0.45593999997E+02  0.45594000000E+02  0.51100000000E-03 0.  1.
    9900012    2    1    2    0    0 -0.11463135862E+00 -0.86304798194E+00 -0.79689112913E+00  0.90007734081E+02  0.89999995371E+02 0.  0.
         12    1    1    2    0    0  0.11463135862E+00  0.86304798194E+00  0.79689112913E+00  0.11802659188E+01  0.00000000000E+00 0. -1.
         11    1    3    3    0    0 -0.13230456044E+02  0.64315138433E+01  0.10999283808E+02  0.18368276512E+02  0.51100000000E-03 0. -1.
        -11    1    3    3    0    0  0.34263396362E+02 -0.11051835515E+02  0.13504490205E+02  0.38451198349E+02  0.51100000000E-03 0.  1.
         12    1    3    3    0    0 -0.21147571677E+02  0.37572736902E+01 -0.25300665143E+02  0.33188259220E+02  0.00000000000E+00 0. -1.
</event>
<event>
 7    1  0.2148778E-015  0.9000779E+02  0.7816164E-02  0.1186339E+00
        -11   -1    0    0    0    0  0.00000000000E+00  0.00000000000E+00  0.45593999997E+02  0.45594000000E+02  0.51100000000E-03 0.  1.
         11   -1    0    0    0    0 -0.00000000000E+00 -0.00000000000E+00 -0.45593999997E+02  0.45594000000E+02  0.51100000000E-03 0. -1.
    9900012    2    1    2    0    0 -0.84742902631E+00  0.52825554743E+00  0.62905873438E+00  0.90007786134E+02  0.90000048111E+02 0.  0.
         12    1    1    2    0    0  0.84742902631E+00 -0.52825554743E+00 -0.62905873438E+00  0.11802138659E+01  0.00000000000E+00 0. -1.
         11    1    3    3    0    0 -0.35566737736E+01  0.10640049182E+01 -0.92862445798E+01  0.10000818639E+02  0.51100000000E-03 0. -1.
        -11    1    3    3    0    0  0.83400922549E+01  0.30263453125E+02  0.29499075138E+02  0.43077014383E+02  0.51100000000E-03 0.  1.
         12    1    3    3    0    0 -0.56308475076E+01 -0.30799202496E+02 -0.19583771824E+02  0.36929953112E+02  0.00000000000E+00 0. -1.
</event>
<event>
 7    1  0.2148778E-015  0.9000759E+02  0.7816164E-02  0.1186339E+00
        -11   -1    0    0    0    0  0.00000000000E+00  0.00000000000E+00  0.45593999997E+02  0.45594000000E+02  0.51100000000E-03 0.  1.
         11   -1    0    0    0    0 -0.00000000000E+00 -0.00000000000E+00 -0.45593999997E+02  0.45594000000E+02  0.51100000000E-03 0. -1.
    9900012    2    1    2    0    0  0.84506339781E+00 -0.69455834906E+00  0.44364061542E+00  0.90007593103E+02  0.89999852532E+02 0.  0.
         12    1    1    2    0    0 -0.84506339781E+00  0.69455834906E+00 -0.44364061542E+00  0.11804068969E+01  0.00000000000E+00 0. -1.
         11    1    3    3    0    0  0.28618515829E+01 -0.79524430495E+01  0.46912672338E+01  0.96664126468E+01  0.51100000000E-03 0. -1.
        -11    1    3    3    0    0 -0.32806510073E+02 -0.16738991172E+02  0.10991737686E+02  0.38435390284E+02  0.51100000000E-03 0.  1.
         12    1    3    3    0    0  0.30789721888E+02  0.23996875872E+02 -0.15239364305E+02  0.41905790173E+02  0.00000000000E+00 0. -1.
</event>
<event>
 7    1  0.2148778E-015  0.9000760E+02  0.7816164E-02  0.1186339E+00
        -11   -1    0    0    0    0  0.00000000000E+00  0.00000000000E+00  0.45593999997E+02  0.45594000000E+02  0.51100000000E-03 0. -1.
         11   -1    0    0    0    0 -0.00000000000E+00 -0.00000000000E+00 -0.45593999997E+02  0.45594000000E+02  0.51100000000E-03 0.  1.
    9900012    2    1    2    0    0 -0.91580187766E+00  0.48221832603E+00 -0.56754580596E+00  0.90007603526E+02  0.89999863093E+02 0.  0.
         12    1    1    2    0    0  0.91580187766E+00 -0.48221832603E+00  0.56754580596E+00  0.11803964736E+01  0.00000000000E+00 0. -1.
         11    1    3    3    0    0  0.74233275212E+01  0.66136678593E+01 -0.48704962758E+01  0.11071049104E+02  0.51100000000E-03 0. -1.
        -11    1    3    3    0    0  0.26988995999E+02  0.11509921552E+02 -0.17162274003E+02  0.33991584964E+02  0.51100000000E-03 0.  1.
         12    1    3    3    0    0 -0.35328125398E+02 -0.17641371085E+02  0.21465224472E+02  0.44944969458E+02  0.00000000000E+00 0. -1.
</event>
<event>
 7    1  0.2148778E-015  0.9000774E+02  0.7816164E-02  0.1186339E+00
        -11   -1    0    0    0    0  0.00000000000E+00  0.00000000000E+00  0.45593999997E+02  0.45594000000E+02  0.51100000000E-03 0.  1.
         11   -1    0    0    0    0 -0.00000000000E+00 -0.00000000000E+00 -0.45593999997E+02  0.45594000000E+02  0.51100000000E-03 0. -1.
    9900012    2    1    2    0    0  0.92968415093E-01  0.88276985539E+00  0.77786830601E+00  0.90007743737E+02  0.90000005155E+02 0.  0.
         12    1    1    2    0    0 -0.92968415093E-01 -0.88276985539E+00 -0.77786830601E+00  0.11802562626E+01  0.00000000000E+00 0. -1.
         11    1    3    3    0    0  0.63687249966E+01 -0.59560827245E+01 -0.47941942870E+00  0.87330076579E+01  0.51100000000E-03 0. -1.
        -11    1    3    3    0    0 -0.21446533112E+02 -0.29784532631E+02  0.14525038576E+02  0.39472128299E+02  0.51100000000E-03 0.  1.
         12    1    3    3    0    0  0.15170776531E+02  0.36623385211E+02 -0.13267750841E+02  0.41802607780E+02  0.00000000000E+00 0. -1.
</event>
<event>
 7    1  0.2148778E-015  0.9000770E+02  0.7816164E-02  0.1186339E+00
        -11   -1    0    0    0    0  0.00000000000E+00  0.00000000000E+00  0.45593999997E+02  0.45594000000E+02  0.51100000000E-03 0.  1.
         11   -1    0    0    0    0 -0.00000000000E+00 -0.00000000000E+00 -0.45593999997E+02  0.45594000000E+02  0.51100000000E-03 0. -1.
    9900012    2    1    2    0    0 -0.18214102955E+00 -0.98025034028E+00  0.63170292494E+00  0.90007697213E+02  0.89999958016E+02 0.  0.
         12    1    1    2    0    0  0.18214102955E+00  0.98025034028E+00 -0.63170292494E+00  0.11803027873E+01  0.00000000000E+00 0. -1.
         11    1    3    3    0    0 -0.33415000614E+02  0.97248308629E+01 -0.17515395974E+02  0.38960540265E+02  0.51100000000E-03 0. -1.
        -11    1    3    3    0    0 -0.41328536028E+01 -0.67627202628E+01  0.97180965214E+01  0.12540185984E+02  0.51100000000E-03 0.  1.
        -12    1    3    3    0    0  0.37365713187E+02 -0.39423609404E+01  0.84290023775E+01  0.38506970964E+02  0.00000000000E+00 0.  1.
</event>
<event>
 7    1  0.2148778E-015  0.9000773E+02  0.7816164E-02  0.1186339E+00
        -11   -1    0    0    0    0  0.00000000000E+00  0.00000000000E+00  0.45593999997E+02  0.45594000000E+02  0.51100000000E-03 0.  1.
         11   -1    0    0    0    0 -0.00000000000E+00 -0.00000000000E+00 -0.45593999997E+02  0.45594000000E+02  0.51100000000E-03 0. -1.
    9900012    2    1    2    0    0  0.10626216549E+01 -0.48958104597E+00  0.15550655838E+00  0.90007730255E+02  0.89999991494E+02 0.  0.
         12    1    1    2    0    0 -0.10626216549E+01  0.48958104597E+00 -0.15550655838E+00  0.11802697453E+01  0.00000000000E+00 0. -1.
         11    1    3    3    0    0  0.84853319349E+01 -0.48621569191E+01 -0.24183018000E+01  0.10074205269E+02  0.51100000000E-03 0. -1.
        -11    1    3    3    0    0  0.29010035429E+02 -0.18386369532E+02 -0.88807019596E+01  0.35475450775E+02  0.51100000000E-03 0.  1.
         12    1    3    3    0    0 -0.36432745709E+02  0.22758945405E+02  0.11454510318E+02  0.44458074210E+02  0.00000000000E+00 0. -1.
</event>
<event>
 7    1  0.2148778E-015  0.9000773E+02  0.7816164E-02  0.1186339E+00
        -11   -1    0    0    0    0  0.00000000000E+00  0.00000000000E+00  0.45593999997E+02  0.45594000000E+02  0.51100000000E-03 0.  1.
         11   -1    0    0    0    0 -0.00000000000E+00 -0.00000000000E+00 -0.45593999997E+02  0.45594000000E+02  0.51100000000E-03 0. -1.
    9900012    2    1    2    0    0  0.98529175925E+00 -0.47120650474E+00  0.44744246780E+00  0.90007728767E+02  0.89999989987E+02 0.  0.
         12    1    1    2    0    0 -0.98529175925E+00  0.47120650474E+00 -0.44744246780E+00  0.11802712328E+01  0.00000000000E+00 0. -1.
         11    1    3    3    0    0 -0.20588313098E+00 -0.10946237347E+02 -0.36179397519E+02  0.37799620435E+02  0.51100000000E-03 0. -1.
        -11    1    3    3    0    0 -0.47276500737E+01 -0.79386965597E+01 -0.15899996126E+01  0.93755894382E+01  0.51100000000E-03 0.  1.
        -12    1    3    3    0    0  0.59188249639E+01  0.18413727402E+02  0.38216839600E+02  0.42832518894E+02  0.00000000000E+00 0.  1.
</event>
<event>
 7    1  0.2148778E-015  0.9000781E+02  0.7816164E-02  0.1186339E+00
        -11   -1    0    0    0    0  0.00000000000E+00  0.00000000000E+00  0.45593999997E+02  0.45594000000E+02  0.51100000000E-03 0.  1.
         11   -1    0    0    0    0 -0.00000000000E+00 -0.00000000000E+00 -0.45593999997E+02  0.45594000000E+02  0.51100000000E-03 0. -1.
    9900012    2    1    2    0    0 -0.29390261929E+00 -0.51728826036E+00  0.10192573363E+01  0.90007808739E+02  0.90000071015E+02 0.  0.
         12    1    1    2    0    0  0.29390261929E+00  0.51728826036E+00 -0.10192573363E+01  0.11801912606E+01  0.00000000000E+00 0. -1.
         11    1    3    3    0    0 -0.78894524736E+01  0.24794060868E+01  0.52549851057E+01  0.97982541098E+01  0.51100000000E-03 0. -1.
        -11    1    3    3    0    0 -0.12794367835E+02  0.30383668229E+02 -0.19406523021E+02  0.38255408498E+02  0.51100000000E-03 0.  1.
         12    1    3    3    0    0  0.20389917690E+02 -0.33380362576E+02  0.15170795251E+02  0.41954146132E+02  0.00000000000E+00 0. -1.
</event>
<event>
 7    1  0.2148778E-015  0.9000784E+02  0.7816164E-02  0.1186339E+00
        -11   -1    0    0    0    0  0.00000000000E+00  0.00000000000E+00  0.45593999997E+02  0.45594000000E+02  0.51100000000E-03 0.  1.
         11   -1    0    0    0    0 -0.00000000000E+00 -0.00000000000E+00 -0.45593999997E+02  0.45594000000E+02  0.51100000000E-03 0. -1.
    9900012    2    1    2    0    0  0.43846804955E+00 -0.67868140750E+00  0.86018022460E+00  0.90007842086E+02  0.90000104801E+02 0.  0.
         12    1    1    2    0    0 -0.43846804955E+00  0.67868140750E+00 -0.86018022460E+00  0.11801579141E+01  0.00000000000E+00 0. -1.
         11    1    3    3    0    0 -0.78218147159E+01  0.26509752296E+01  0.42234577203E+01  0.92761010394E+01  0.51100000000E-03 0. -1.
        -11    1    3    3    0    0  0.10652818204E+02 -0.40089332664E+02 -0.11419297857E+02  0.43023685256E+02  0.51100000000E-03 0.  1.
         12    1    3    3    0    0 -0.23925354388E+01  0.36759676027E+02  0.80560203612E+01  0.37708055791E+02  0.00000000000E+00 0. -1.
</event>
<event>
 7    1  0.2148778E-015  0.9000778E+02  0.7816164E-02  0.1186339E+00
        -11   -1    0    0    0    0  0.00000000000E+00  0.00000000000E+00  0.45593999997E+02  0.45594000000E+02  0.51100000000E-03 0.  1.
         11   -1    0    0    0    0 -0.00000000000E+00 -0.00000000000E+00 -0.45593999997E+02  0.45594000000E+02  0.51100000000E-03 0. -1.
    9900012    2    1    2    0    0  0.97178845761E+00 -0.38352311894E+00  0.54905486489E+00  0.90007777973E+02  0.90000039842E+02 0.  0.
         12    1    1    2    0    0 -0.97178845761E+00  0.38352311894E+00 -0.54905486489E+00  0.11802220273E+01  0.00000000000E+00 0. -1.
         11    1    3    3    0    0 -0.64807079309E+01 -0.31457213404E+01 -0.34761052453E+02  0.35499660645E+02  0.51100000000E-03 0. -1.
        -11    1    3    3    0    0 -0.50452388151E+01 -0.39236271212E+01 -0.72411457403E+01  0.96583371436E+01  0.51100000000E-03 0.  1.
        -12    1    3    3    0    0  0.12497735204E+02  0.66858253427E+01  0.42551253058E+02  0.44849780184E+02  0.00000000000E+00 0.  1.
</event>
<event>
 7    1  0.2148778E-015  0.9000764E+02  0.7816164E-02  0.1186339E+00
        -11   -1    0    0    0    0  0.00000000000E+00  0.00000000000E+00  0.45593999997E+02  0.45594000000E+02  0.51100000000E-03 0.  1.
         11   -1    0    0    0    0 -0.00000000000E+00 -0.00000000000E+00 -0.45593999997E+02  0.45594000000E+02  0.51100000000E-03 0. -1.
    9900012    2    1    2    0    0 -0.73778409369E+00 -0.47314566088E+00  0.79059914837E+00  0.90007644461E+02  0.89999904568E+02 0.  0.
         12    1    1    2    0    0  0.73778409369E+00  0.47314566088E+00 -0.79059914837E+00  0.11803555391E+01  0.00000000000E+00 0. -1.
         11    1    3    3    0    0 -0.31325239504E+02 -0.22292169627E+01 -0.79725170042E+01  0.32400633727E+02  0.51100000000E-03 0. -1.
        -11    1    3    3    0    0 -0.11087832939E+02  0.23010859849E+01 -0.66935236319E+01  0.13154402110E+02  0.51100000000E-03 0.  1.
        -12    1    3    3    0    0  0.41675288350E+02 -0.54501468307E+00  0.15456639784E+02  0.44452608624E+02  0.00000000000E+00 0.  1.
</event>
<event>
 7    1  0.2148778E-015  0.9000776E+02  0.7816164E-02  0.1186339E+00
        -11   -1    0    0    0    0  0.00000000000E+00  0.00000000000E+00  0.45593999997E+02  0.45594000000E+02  0.51100000000E-03 0. -1.
         11   -1    0    0    0    0 -0.00000000000E+00 -0.00000000000E+00 -0.45593999997E+02  0.45594000000E+02  0.51100000000E-03 0.  1.
    9900012    2    1    2    0    0 -0.90674586156E+00  0.43472324237E+00 -0.61789601642E+00  0.90007759413E+02  0.90000021038E+02 0.  0.
         12    1    1    2    0    0  0.90674586156E+00 -0.43472324237E+00  0.61789601642E+00  0.11802405865E+01  0.00000000000E+00 0. -1.
         11    1    3    3    0    0 -0.33489514305E+02  0.20002508190E+01  0.18961580977E+02  0.38536867090E+02  0.51100000000E-03 0. -1.
        -11    1    3    3    0    0  0.23935488412E+01 -0.57781851163E+01  0.81432875120E+01  0.10267893214E+02  0.51100000000E-03 0.  1.
        -12    1    3    3    0    0  0.30189219602E+02  0.42126575397E+01 -0.27722764505E+02  0.41202999109E+02  0.00000000000E+00 0.  1.
</event>
<event>
 7    1  0.2148778E-015  0.9000756E+02  0.7816164E-02  0.1186339E+00
        -11   -1    0    0    0    0  0.00000000000E+00  0.00000000000E+00  0.45593999997E+02  0.45594000000E+02  0.51100000000E-03 0. -1.
         11   -1    0    0    0    0 -0.00000000000E+00 -0.00000000000E+00 -0.45593999997E+02  0.45594000000E+02  0.51100000000E-03 0.  1.
    9900012    2    1    2    0    0  0.89140205375E+00 -0.32836725024E+00  0.70072171094E+00  0.90007562120E+02  0.89999821140E+02 0.  0.
         12    1    1    2    0    0 -0.89140205375E+00  0.32836725024E+00 -0.70072171094E+00  0.11804378800E+01  0.00000000000E+00 0. -1.
         11    1    3    3    0    0  0.59390024139E+01 -0.12449637707E+02  0.85623930092E+01  0.16235140992E+02  0.51100000000E-03 0. -1.
        -11    1    3    3    0    0  0.32435907328E+02 -0.30946572379E+01 -0.69058171914E+01  0.33306985738E+02  0.51100000000E-03 0.  1.
         12    1    3    3    0    0 -0.37483507688E+02  0.15215927695E+02 -0.95585410695E+00  0.40465435390E+02  0.00000000000E+00 0. -1.
</event>
<event>
 7    1  0.2148778E-015  0.9000773E+02  0.7816164E-02  0.1186339E+00
        -11   -1    0    0    0    0  0.00000000000E+00  0.00000000000E+00  0.45593999997E+02  0.45594000000E+02  0.51100000000E-03 0. -1.
         11   -1    0    0    0    0 -0.00000000000E+00 -0.00000000000E+00 -0.45593999997E+02  0.45594000000E+02  0.51100000000E-03 0.  1.
    9900012    2    1    2    0    0 -0.15887325405E+00  0.71624545394E-01 -0.11673316915E+01  0.90007731359E+02  0.89999992613E+02 0.  0.
         12    1    1    2    0    0  0.15887325405E+00 -0.71624545394E-01  0.11673316915E+01  0.11802686407E+01  0.00000000000E+00 0. -1.
         11    1    3    3    0    0 -0.27206761299E+02 -0.29007101706E+02  0.58219201513E+01  0.40193464198E+02  0.51100000000E-03 0. -1.
        -11    1    3    3    0    0  0.81874734740E+01 -0.29517828759E+01  0.58520811379E+01  0.10487830945E+02  0.51100000000E-03 0.  1.
        -12    1    3    3    0    0  0.18860414571E+02  0.32030509127E+02 -0.12841332981E+02  0.39326436216E+02  0.00000000000E+00 0.  1.
</event>
<event>
 7    1  0.2148778E-015  0.9000777E+02  0.7816164E-02  0.1186339E+00
        -11   -1    0    0    0    0  0.00000000000E+00  0.00000000000E+00  0.45593999997E+02  0.45594000000E+02  0.51100000000E-03 0.  1.
         11   -1    0    0    0    0 -0.00000000000E+00 -0.00000000000E+00 -0.45593999997E+02  0.45594000000E+02  0.51100000000E-03 0. -1.
    9900012    2    1    2    0    0 -0.35366838577E+00 -0.83103530679E+00  0.75976239780E+00  0.90007771247E+02  0.90000033027E+02 0.  0.
         12    1    1    2    0    0  0.35366838577E+00  0.83103530679E+00 -0.75976239780E+00  0.11802287530E+01  0.00000000000E+00 0. -1.
         11    1    3    3    0    0 -0.86509558152E+01  0.12466445797E+01  0.52358219232E+01  0.10188571573E+02  0.51100000000E-03 0. -1.
        -11    1    3    3    0    0  0.83553165684E+00 -0.35900052435E+02 -0.20833047039E+02  0.41515391449E+02  0.51100000000E-03 0.  1.
         12    1    3    3    0    0  0.74617557726E+01  0.33822372548E+02  0.16356987514E+02  0.38303808225E+02  0.00000000000E+00 0. -1.
</event>
<event>
 7    1  0.2148778E-015  0.9000776E+02  0.7816164E-02  0.1186339E+00
        -11   -1    0    0    0    0  0.00000000000E+00  0.00000000000E+00  0.45593999997E+02  0.45594000000E+02  0.51100000000E-03 0. -1.
         11   -1    0    0    0    0 -0.00000000000E+00 -0.00000000000E+00 -0.45593999997E+02  0.45594000000E+02  0.51100000000E-03 0.  1.
    9900012    2    1    2    0    0 -0.97547627756E+00  0.64654726813E+00 -0.15290851251E+00  0.90007763434E+02  0.90000025112E+02 0.  0.
         12    1    1    2    0    0  0.97547627756E+00 -0.64654726813E+00  0.15290851251E+00  0.11802365658E+01  0.00000000000E+00 0. -1.
         11    1    3    3    0    0  0.20560678808E+02  0.30287869502E+02 -0.55000417849E+01  0.37018198388E+02  0.51100000000E-03 0. -1.
        -11    1    3    3    0    0 -0.10619282882E+02  0.61736330115E+01 -0.62643739106E+01  0.13788592903E+02  0.51100000000E-03 0.  1.
        -12    1    3    3    0    0 -0.10916872204E+02 -0.35814955245E+02  0.11611507183E+02  0.39200972143E+02  0.00000000000E+00 0.  1.
</event>
<event>
 7    1  0.2199637E-015  0.9000775E+02  0.7816164E-02  0.1186339E+00
        -11   -1    0    0    0    0  0.00000000000E+00  0.00000000000E+00  0.45593999997E+02  0.45594000000E+02  0.51100000000E-03 0. -1.
         11   -1    0    0    0    0 -0.00000000000E+00 -0.00000000000E+00 -0.45593999997E+02  0.45594000000E+02  0.51100000000E-03 0.  1.
    9900012    2    1    2    0    0 -0.46387430317E+00 -0.68355781089E+00 -0.84294769827E+00  0.90007749403E+02  0.90000010895E+02 0.  0.
         12    1    1    2    0    0  0.46387430317E+00  0.68355781089E+00  0.84294769827E+00  0.11802505971E+01  0.00000000000E+00 0. -1.
         11    1    3    3    0    0  0.22451064554E+01 -0.35086527220E+01  0.92149392140E+01  0.10112677781E+02  0.51100000000E-03 0. -1.
        -11    1    3    3    0    0 -0.28757252931E+02  0.30031417011E+02 -0.60335091789E+01  0.42015102489E+02  0.51100000000E-03 0.  1.
         12    1    3    3    0    0  0.26048272173E+02 -0.27206322100E+02 -0.40243777334E+01  0.37879969133E+02  0.00000000000E+00 0. -1.
</event>
<event>
 7    1  0.2148778E-015  0.9000774E+02  0.7816164E-02  0.1186339E+00
        -11   -1    0    0    0    0  0.00000000000E+00  0.00000000000E+00  0.45593999997E+02  0.45594000000E+02  0.51100000000E-03 0.  1.
         11   -1    0    0    0    0 -0.00000000000E+00 -0.00000000000E+00 -0.45593999997E+02  0.45594000000E+02  0.51100000000E-03 0. -1.
    9900012    2    1    2    0    0  0.54041589040E+00 -0.41033438050E+00  0.96570508007E+00  0.90007741579E+02  0.90000002968E+02 0.  0.
         12    1    1    2    0    0 -0.54041589040E+00  0.41033438050E+00 -0.96570508007E+00  0.11802584209E+01  0.00000000000E+00 0. -1.
         11    1    3    3    0    0  0.77379311638E+01 -0.13004915512E+02  0.87762132770E+00  0.15158285709E+02  0.51100000000E-03 0. -1.
        -11    1    3    3    0    0 -0.28547887156E+02 -0.20716147156E+02 -0.60904450773E+00  0.35277635260E+02  0.51100000000E-03 0.  1.
         12    1    3    3    0    0  0.21350371883E+02  0.33310728288E+02  0.69712826011E+00  0.39571820610E+02  0.00000000000E+00 0. -1.
</event>
<event>
 7    1  0.2148778E-015  0.9000756E+02  0.7816164E-02  0.1186339E+00
        -11   -1    0    0    0    0  0.00000000000E+00  0.00000000000E+00  0.45593999997E+02  0.45594000000E+02  0.51100000000E-03 0.  1.
         11   -1    0    0    0    0 -0.00000000000E+00 -0.00000000000E+00 -0.45593999997E+02  0.45594000000E+02  0.51100000000E-03 0. -1.
    9900012    2    1    2    0    0  0.59092115642E+00  0.53472322825E+00  0.87081359547E+00  0.90007562343E+02  0.89999821366E+02 0.  0.
         12    1    1    2    0    0 -0.59092115642E+00 -0.53472322825E+00 -0.87081359547E+00  0.11804376570E+01  0.00000000000E+00 0. -1.
         11    1    3    3    0    0  0.26400641172E+02 -0.11006105859E+02 -0.25022761389E+02  0.38003510472E+02  0.51100000000E-03 0. -1.
        -11    1    3    3    0    0 -0.42500846190E+01  0.77728454141E+01 -0.78150927265E+01  0.11813383075E+02  0.51100000000E-03 0.  1.
        -12    1    3    3    0    0 -0.21559635396E+02  0.37679836730E+01  0.33708667711E+02  0.40190668795E+02  0.00000000000E+00 0.  1.
</event>
<event>
 7    1  0.2584360E-015  0.9000775E+02  0.7816164E-02  0.1186339E+00
        -11   -1    0    0    0    0  0.00000000000E+00  0.00000000000E+00  0.45593999997E+02  0.45594000000E+02  0.51100000000E-03 0. -1.
         11   -1    0    0    0    0 -0.00000000000E+00 -0.00000000000E+00 -0.45593999997E+02  0.45594000000E+02  0.51100000000E-03 0.  1.
    9900012    2    1    2    0    0 -0.18427447626E+00  0.10967178126E+01 -0.39528770203E+00  0.90007746040E+02  0.90000007488E+02 0.  0.
         12    1    1    2    0    0  0.18427447626E+00 -0.10967178126E+01  0.39528770203E+00  0.11802539601E+01  0.00000000000E+00 0. -1.
         11    1    3    3    0    0 -0.48541450705E+01  0.21247049047E+01 -0.76373027252E+01  0.92954552592E+01  0.51100000000E-03 0. -1.
        -11    1    3    3    0    0 -0.12601150171E+02  0.19772105329E+02 -0.27855259957E+02  0.36409348282E+02  0.51100000000E-03 0.  1.
         12    1    3    3    0    0  0.17271020766E+02 -0.20800092421E+02  0.35097274980E+02  0.44302942499E+02  0.00000000000E+00 0. -1.
</event>
<event>
 7    1  0.2148778E-015  0.9000771E+02  0.7816164E-02  0.1186339E+00
        -11   -1    0    0    0    0  0.00000000000E+00  0.00000000000E+00  0.45593999997E+02  0.45594000000E+02  0.51100000000E-03 0. -1.
         11   -1    0    0    0    0 -0.00000000000E+00 -0.00000000000E+00 -0.45593999997E+02  0.45594000000E+02  0.51100000000E-03 0.  1.
    9900012    2    1    2    0    0 -0.37932081553E+00 -0.58127004485E+00 -0.95463008636E+00  0.90007712854E+02  0.89999973863E+02 0.  0.
         12    1    1    2    0    0  0.37932081553E+00  0.58127004485E+00  0.95463008636E+00  0.11802871464E+01  0.00000000000E+00 0. -1.
         11    1    3    3    0    0 -0.18300881918E+02 -0.22676498948E+02 -0.97794444386E+01  0.30737329379E+02  0.51100000000E-03 0. -1.
        -11    1    3    3    0    0 -0.33614103382E+01 -0.14594189493E+02 -0.29210948080E+01  0.15258513740E+02  0.51100000000E-03 0.  1.
        -12    1    3    3    0    0  0.21282971441E+02  0.36689418396E+02  0.11745909160E+02  0.44011869735E+02  0.00000000000E+00 0.  1.
</event>
<event>
 7    1  0.2148778E-015  0.9000818E+02  0.7816164E-02  0.1186338E+00
        -11   -1    0    0    0    0  0.00000000000E+00  0.00000000000E+00  0.45593999997E+02  0.45594000000E+02  0.51100000000E-03 0.  1.
         11   -1    0    0    0    0 -0.00000000000E+00 -0.00000000000E+00 -0.45593999997E+02  0.45594000000E+02  0.51100000000E-03 0. -1.
    9900012    2    1    2    0    0  0.91153628494E+00  0.18630521036E+00  0.72551882143E+00  0.90008175610E+02  0.90000442727E+02 0.  0.
         12    1    1    2    0    0 -0.91153628494E+00 -0.18630521036E+00 -0.72551882143E+00  0.11798243897E+01  0.00000000000E+00 0. -1.
         11    1    3    3    0    0  0.30991097479E+02 -0.16543694633E+02 -0.17270764033E+02  0.39146152373E+02  0.51100000000E-03 0. -1.
        -11    1    3    3    0    0 -0.55103313746E+01 -0.54144895629E+00 -0.89425332902E+01  0.10517881000E+02  0.51100000000E-03 0.  1.
        -12    1    3    3    0    0 -0.24569229820E+02  0.17271448800E+02  0.26938816144E+02  0.40344142237E+02  0.00000000000E+00 0.  1.
</event>
<event>
 7    1  0.2148778E-015  0.9000767E+02  0.7816164E-02  0.1186339E+00
        -11   -1    0    0    0    0  0.00000000000E+00  0.00000000000E+00  0.45593999997E+02  0.45594000000E+02  0.51100000000E-03 0. -1.
         11   -1    0    0    0    0 -0.00000000000E+00 -0.00000000000E+00 -0.45593999997E+02  0.45594000000E+02  0.51100000000E-03 0.  1.
    9900012    2    1    2    0    0 -0.52091428098E+00  0.48988678403E+00 -0.93906078350E+00  0.90007671273E+02  0.89999931734E+02 0.  0.
         12    1    1    2    0    0  0.52091428098E+00 -0.48988678403E+00  0.93906078350E+00  0.11803287273E+01  0.00000000000E+00 0. -1.
         11    1    3    3    0    0 -0.12759221169E+02  0.50529006867E+01 -0.67920348642E+01  0.15312128136E+02  0.51100000000E-03 0. -1.
        -11    1    3    3    0    0 -0.23692971353E+02  0.16807342057E+02 -0.88694747574E+01  0.30372869823E+02  0.51100000000E-03 0.  1.
         12    1    3    3    0    0  0.35931278241E+02 -0.21370355960E+02  0.14722448838E+02  0.44322673314E+02  0.00000000000E+00 0. -1.
</event>
<event>
 7    1  0.2148778E-015  0.9000778E+02  0.7816164E-02  0.1186339E+00
        -11   -1    0    0    0    0  0.00000000000E+00  0.00000000000E+00  0.45593999997E+02  0.45594000000E+02  0.51100000000E-03 0. -1.
         11   -1    0    0    0    0 -0.00000000000E+00 -0.00000000000E+00 -0.45593999997E+02  0.45594000000E+02  0.51100000000E-03 0.  1.
    9900012    2    1    2    0    0 -0.10307656043E+01 -0.57370325332E+00 -0.36199697769E-01  0.90007778168E+02  0.90000040040E+02 0.  0.
         12    1    1    2    0    0  0.10307656043E+01  0.57370325332E+00  0.36199697769E-01  0.11802218317E+01  0.00000000000E+00 0. -1.
         11    1    3    3    0    0  0.83108431016E+01 -0.35299321750E+01 -0.18581925317E+01  0.92186449094E+01  0.51100000000E-03 0. -1.
        -11    1    3    3    0    0  0.13982726550E+02  0.22978433922E+02 -0.27385739559E+02  0.38386244916E+02  0.51100000000E-03 0.  1.
         12    1    3    3    0    0 -0.23324335256E+02 -0.20022205001E+02  0.29207732393E+02  0.42402888342E+02  0.00000000000E+00 0. -1.
</event>
<event>
 7    1  0.2148778E-015  0.9000777E+02  0.7816164E-02  0.1186339E+00
        -11   -1    0    0    0    0  0.00000000000E+00  0.00000000000E+00  0.45593999997E+02  0.45594000000E+02  0.51100000000E-03 0.  1.
         11   -1    0    0    0    0 -0.00000000000E+00 -0.00000000000E+00 -0.45593999997E+02  0.45594000000E+02  0.51100000000E-03 0. -1.
    9900012    2    1    2    0    0  0.95713461313E+00 -0.67757795845E+00 -0.13315913664E+00  0.90007767009E+02  0.90000028733E+02 0.  0.
         12    1    1    2    0    0 -0.95713461313E+00  0.67757795845E+00  0.13315913664E+00  0.11802329910E+01  0.00000000000E+00 0. -1.
         11    1    3    3    0    0  0.12652667276E+02 -0.33415494844E+02 -0.23562788418E+00  0.35731509983E+02  0.51100000000E-03 0. -1.
        -11    1    3    3    0    0  0.51672819777E+01 -0.81115740569E+01 -0.27146867047E+01  0.99933958634E+01  0.51100000000E-03 0.  1.
        -12    1    3    3    0    0 -0.16862814641E+02  0.40849490943E+02  0.28171554522E+01  0.44282861163E+02  0.00000000000E+00 0.  1.
</event>
<event>
 7    1  0.2148778E-015  0.9000775E+02  0.7816164E-02  0.1186339E+00
        -11   -1    0    0    0    0  0.00000000000E+00  0.00000000000E+00  0.45593999997E+02  0.45594000000E+02  0.51100000000E-03 0.  1.
         11   -1    0    0    0    0 -0.00000000000E+00 -0.00000000000E+00 -0.45593999997E+02  0.45594000000E+02  0.51100000000E-03 0. -1.
    9900012    2    1    2    0    0 -0.11074816316E+00  0.11721698722E+01 -0.82100433066E-01  0.90007750939E+02  0.90000012451E+02 0.  0.
         12    1    1    2    0    0  0.11074816316E+00 -0.11721698722E+01  0.82100433066E-01  0.11802490610E+01  0.00000000000E+00 0. -1.
         11    1    3    3    0    0  0.11313433689E+01  0.89045438277E+01 -0.19130827499E+01  0.91777298101E+01  0.51100000000E-03 0. -1.
        -11    1    3    3    0    0  0.37095045729E+02 -0.44074205087E+01 -0.13052975508E+02  0.39570796593E+02  0.51100000000E-03 0.  1.
         12    1    3    3    0    0 -0.38337137261E+02 -0.33249534468E+01  0.14883957825E+02  0.41259224536E+02  0.00000000000E+00 0. -1.
</event>
<event>
 7    1  0.2148778E-015  0.9000783E+02  0.7816164E-02  0.1186339E+00
        -11   -1    0    0    0    0  0.00000000000E+00  0.00000000000E+00  0.45593999997E+02  0.45594000000E+02  0.51100000000E-03 0.  1.
         11   -1    0    0    0    0 -0.00000000000E+00 -0.00000000000E+00 -0.45593999997E+02  0.45594000000E+02  0.51100000000E-03 0. -1.
    9900012    2    1    2    0    0 -0.10667109053E+01 -0.24258854688E+00  0.44281257639E+00  0.90007828683E+02  0.90000091222E+02 0.  0.
         12    1    1    2    0    0  0.10667109053E+01  0.24258854688E+00 -0.44281257639E+00  0.11801713166E+01  0.00000000000E+00 0. -1.
         11    1    3    3    0    0  0.16703577012E+02 -0.27686701189E+02 -0.10821938767E+02  0.34098053708E+02  0.51100000000E-03 0. -1.
        -11    1    3    3    0    0  0.46886951785E+01 -0.87053341501E+01 -0.40430692841E+01  0.10682374017E+02  0.51100000000E-03 0.  1.
        -12    1    3    3    0    0 -0.22458983096E+02  0.36149446792E+02  0.15307820628E+02  0.45227400958E+02  0.00000000000E+00 0.  1.
</event>
<event>
 7    1  0.2148778E-015  0.9000768E+02  0.7816164E-02  0.1186339E+00
        -11   -1    0    0    0    0  0.00000000000E+00  0.00000000000E+00  0.45593999997E+02  0.45594000000E+02  0.51100000000E-03 0. -1.
         11   -1    0    0    0    0 -0.00000000000E+00 -0.00000000000E+00 -0.45593999997E+02  0.45594000000E+02  0.51100000000E-03 0.  1.
    9900012    2    1    2    0    0 -0.10156426132E+00  0.48072865346E+00 -0.10731910048E+01  0.90007680437E+02  0.89999941019E+02 0.  0.
         12    1    1    2    0    0  0.10156426132E+00 -0.48072865346E+00  0.10731910048E+01  0.11803195627E+01  0.00000000000E+00 0. -1.
         11    1    3    3    0    0 -0.18334432996E+02  0.19825036195E+02  0.18517269366E+02  0.32742522175E+02  0.51100000000E-03 0. -1.
        -11    1    3    3    0    0 -0.34731061956E+01  0.53681913770E+01  0.10756030877E+02  0.12512879197E+02  0.51100000000E-03 0.  1.
        -12    1    3    3    0    0  0.21705974930E+02 -0.24712498918E+02 -0.30346491248E+02  0.44752279065E+02  0.00000000000E+00 0.  1.
</event>
<event>
 7    1  0.2148778E-015  0.9000742E+02  0.7816164E-02  0.1186340E+00
        -11   -1    0    0    0    0  0.00000000000E+00  0.00000000000E+00  0.45593999997E+02  0.45594000000E+02  0.51100000000E-03 0.  1.
         11   -1    0    0    0    0 -0.00000000000E+00 -0.00000000000E+00 -0.45593999997E+02  0.45594000000E+02  0.51100000000E-03 0. -1.
    9900012    2    1    2    0    0  0.86373708029E-01 -0.84217800506E+00  0.82282580275E+00  0.90007421112E+02  0.89999678270E+02 0.  0.
         12    1    1    2    0    0 -0.86373708029E-01  0.84217800506E+00 -0.82282580275E+00  0.11805788882E+01  0.00000000000E+00 0. -1.
         11    1    3    3    0    0  0.12400835225E+02  0.47437878775E+01  0.92869289550E+01  0.16202817267E+02  0.51100000000E-03 0. -1.
        -11    1    3    3    0    0  0.15746097066E+02  0.18547555933E+02  0.16288559344E+02  0.29279149060E+02  0.51100000000E-03 0.  1.
         12    1    3    3    0    0 -0.28060558583E+02 -0.24133521815E+02 -0.24752662497E+02  0.44525454785E+02  0.00000000000E+00 0. -1.
</event>
<event>
 7    1  0.2148778E-015  0.9000778E+02  0.7816164E-02  0.1186339E+00
        -11   -1    0    0    0    0  0.00000000000E+00  0.00000000000E+00  0.45593999997E+02  0.45594000000E+02  0.51100000000E-03 0. -1.
         11   -1    0    0    0    0 -0.00000000000E+00 -0.00000000000E+00 -0.45593999997E+02  0.45594000000E+02  0.51100000000E-03 0.  1.
    9900012    2    1    2    0    0  0.30733900026E+00 -0.82039139572E+00 -0.79084018419E+00  0.90007776504E+02  0.90000038354E+02 0.  0.
         12    1    1    2    0    0 -0.30733900026E+00  0.82039139572E+00  0.79084018419E+00  0.11802234959E+01  0.00000000000E+00 0. -1.
         11    1    3    3    0    0 -0.16213314439E+02  0.10681725266E+02  0.35238321297E+02  0.40233196590E+02  0.51100000000E-03 0. -1.
        -11    1    3    3    0    0 -0.51114941726E+01  0.49736065725E+01 -0.81643941635E+01  0.10840731863E+02  0.51100000000E-03 0.  1.
        -12    1    3    3    0    0  0.21632147612E+02 -0.16475723234E+02 -0.27864767317E+02  0.38933848051E+02  0.00000000000E+00 0.  1.
</event>
<event>
 7    1  0.2148778E-015  0.9000862E+02  0.7816164E-02  0.1186337E+00
        -11   -1    0    0    0    0  0.00000000000E+00  0.00000000000E+00  0.45593999997E+02  0.45594000000E+02  0.51100000000E-03 0. -1.
         11   -1    0    0    0    0 -0.00000000000E+00 -0.00000000000E+00 -0.45593999997E+02  0.45594000000E+02  0.51100000000E-03 0.  1.
    9900012    2    1    2    0    0 -0.54480642960E+00  0.76126957451E+00 -0.71735564572E+00  0.90008616884E+02  0.90000889823E+02 0.  0.
         12    1    1    2    0    0  0.54480642960E+00 -0.76126957451E+00  0.71735564572E+00  0.11793831156E+01  0.00000000000E+00 0. -1.
         11    1    3    3    0    0  0.27191309557E+02 -0.19935687474E+02  0.16619646932E+02  0.37590046753E+02  0.51100000000E-03 0. -1.
        -11    1    3    3    0    0 -0.42281688262E+01 -0.20302697275E+01  0.91872560800E+01  0.10315283871E+02  0.51100000000E-03 0.  1.
        -12    1    3    3    0    0 -0.23507947161E+02  0.22727226776E+02 -0.26524258658E+02  0.42103286261E+02  0.00000000000E+00 0.  1.
</event>
<event>
 7    1  0.2148778E-015  0.9000762E+02  0.7816164E-02  0.1186339E+00
        -11   -1    0    0    0    0  0.00000000000E+00  0.00000000000E+00  0.45593999997E+02  0.45594000000E+02  0.51100000000E-03 0. -1.
         11   -1    0    0    0    0 -0.00000000000E+00 -0.00000000000E+00 -0.45593999997E+02  0.45594000000E+02  0.51100000000E-03 0.  1.
    9900012    2    1    2    0    0 -0.98951501242E+00  0.62980432610E+00 -0.13228957570E+00  0.90007621255E+02  0.89999881056E+02 0.  0.
         12    1    1    2    0    0  0.98951501242E+00 -0.62980432610E+00  0.13228957570E+00  0.11803787446E+01  0.00000000000E+00 0. -1.
         11    1    3    3    0    0  0.11442511838E+02  0.30045799384E+02  0.16982022400E+02  0.36360283591E+02  0.51100000000E-03 0. -1.
        -11    1    3    3    0    0  0.10839335222E+02 -0.78804377813E+00  0.34594111888E+01  0.11405249979E+02  0.51100000000E-03 0.  1.
        -12    1    3    3    0    0 -0.23271362072E+02 -0.28627951279E+02 -0.20573723165E+02  0.42242087685E+02  0.00000000000E+00 0.  1.
</event>
<event>
 7    1  0.2148778E-015  0.9000779E+02  0.7816164E-02  0.1186339E+00
        -11   -1    0    0    0    0  0.00000000000E+00  0.00000000000E+00  0.45593999997E+02  0.45594000000E+02  0.51100000000E-03 0.  1.
         11   -1    0    0    0    0 -0.00000000000E+00 -0.00000000000E+00 -0.45593999997E+02  0.45594000000E+02  0.51100000000E-03 0. -1.
    9900012    2    1    2    0    0  0.88147223893E+00 -0.78463327897E+00 -0.15645815652E-01  0.90007793458E+02  0.90000055532E+02 0.  0.
         12    1    1    2    0    0 -0.88147223893E+00  0.78463327897E+00  0.15645815652E-01  0.11802065421E+01  0.00000000000E+00 0. -1.
         11    1    3    3    0    0  0.15745890797E+01 -0.38242099237E+02 -0.40832466032E+01  0.38491692454E+02  0.51100000000E-03 0. -1.
        -11    1    3    3    0    0  0.10325433929E+02 -0.14869921676E+01 -0.19053909191E+01  0.10604538950E+02  0.51100000000E-03 0.  1.
        -12    1    3    3    0    0 -0.11018550770E+02  0.38944458126E+02  0.59729917067E+01  0.40911562054E+02  0.00000000000E+00 0.  1.
</event>
<event>
 7    1  0.2148778E-015  0.9000776E+02  0.7816164E-02  0.1186339E+00
        -11   -1    0    0    0    0  0.00000000000E+00  0.00000000000E+00  0.45593999997E+02  0.45594000000E+02  0.51100000000E-03 0.  1.
         11   -1    0    0    0    0 -0.00000000000E+00 -0.00000000000E+00 -0.45593999997E+02  0.45594000000E+02  0.51100000000E-03 0. -1.
    9900012    2    1    2    0    0 -0.49753082880E+00 -0.86307269426E+00  0.63288012013E+00  0.90007759072E+02  0.90000020692E+02 0.  0.
         12    1    1    2    0    0  0.49753082880E+00  0.86307269426E+00 -0.63288012013E+00  0.11802409278E+01  0.00000000000E+00 0. -1.
         11    1    3    3    0    0  0.48842357019E+01 -0.78306290689E+01 -0.18494152073E+01  0.94124835658E+01  0.51100000000E-03 0. -1.
        -11    1    3    3    0    0  0.15630595640E+02 -0.30815981092E+02  0.11528162175E+02  0.36425797646E+02  0.51100000000E-03 0.  1.
         12    1    3    3    0    0 -0.21012362171E+02  0.37783537466E+02 -0.90458668474E+01  0.44169477861E+02  0.00000000000E+00 0. -1.
</event>
<event>
 7    1  0.2148778E-015  0.9000783E+02  0.7816164E-02  0.1186339E+00
        -11   -1    0    0    0    0  0.00000000000E+00  0.00000000000E+00  0.45593999997E+02  0.45594000000E+02  0.51100000000E-03 0.  1.
         11   -1    0    0    0    0 -0.00000000000E+00 -0.00000000000E+00 -0.45593999997E+02  0.45594000000E+02  0.51100000000E-03 0. -1.
    9900012    2    1    2    0    0 -0.43143895723E-02 -0.11793851946E+01  0.42923045075E-01  0.90007826098E+02  0.90000088602E+02 0.  0.
         12    1    1    2    0    0  0.43143895723E-02  0.11793851946E+01 -0.42923045075E-01  0.11801739020E+01  0.00000000000E+00 0. -1.
         11    1    3    3    0    0 -0.94121662554E+01 -0.18366464860E+01  0.33011713768E+01  0.10141985834E+02  0.51100000000E-03 0. -1.
        -11    1    3    3    0    0  0.20042330760E+02  0.35177407821E+02 -0.12879044381E+02  0.42485466077E+02  0.51100000000E-03 0.  1.
         12    1    3    3    0    0 -0.10634478894E+02 -0.34520146530E+02  0.96207960490E+01  0.37380374188E+02  0.00000000000E+00 0. -1.
</event>
<event>
 7    1  0.2148778E-015  0.9000772E+02  0.7816164E-02  0.1186339E+00
        -11   -1    0    0    0    0  0.00000000000E+00  0.00000000000E+00  0.45593999997E+02  0.45594000000E+02  0.51100000000E-03 0.  1.
         11   -1    0    0    0    0 -0.00000000000E+00 -0.00000000000E+00 -0.45593999997E+02  0.45594000000E+02  0.51100000000E-03 0. -1.
    9900012    2    1    2    0    0 -0.53535144202E+00  0.27108094747E+00  0.10163489130E+01  0.90007724117E+02  0.89999985276E+02 0.  0.
         12    1    1    2    0    0  0.53535144202E+00 -0.27108094747E+00 -0.10163489130E+01  0.11802758828E+01  0.00000000000E+00 0. -1.
         11    1    3    3    0    0 -0.27383252265E+00  0.59285227817E+01 -0.21523669097E+01  0.63130856321E+01  0.51100000000E-03 0. -1.
        -11    1    3    3    0    0  0.32239597857E+02  0.13540703953E+02 -0.19124043608E+02  0.39855631694E+02  0.51100000000E-03 0.  1.
         12    1    3    3    0    0 -0.32501116777E+02 -0.19198145787E+02  0.22292759431E+02  0.43839006791E+02  0.00000000000E+00 0. -1.
</event>
<event>
 7    1  0.2148778E-015  0.9000782E+02  0.7816164E-02  0.1186339E+00
        -11   -1    0    0    0    0  0.00000000000E+00  0.00000000000E+00  0.45593999997E+02  0.45594000000E+02  0.51100000000E-03 0. -1.
         11   -1    0    0    0    0 -0.00000000000E+00 -0.00000000000E+00 -0.45593999997E+02  0.45594000000E+02  0.51100000000E-03 0.  1.
    9900012    2    1    2    0    0 -0.10893539125E+01 -0.43900047837E+00  0.11583197473E+00  0.90007817636E+02  0.90000080028E+02 0.  0.
         12    1    1    2    0    0  0.10893539125E+01  0.43900047837E+00 -0.11583197473E+00  0.11801823643E+01  0.00000000000E+00 0. -1.
         11    1    3    3    0    0  0.12640798198E+01 -0.41135775296E+01  0.13639603395E+02  0.14302384379E+02  0.51100000000E-03 0. -1.
        -11    1    3    3    0    0  0.12815915758E+02 -0.27450256914E+02  0.12109219218E+02  0.32625105236E+02  0.51100000000E-03 0.  1.
         12    1    3    3    0    0 -0.15169349490E+02  0.31124833965E+02 -0.25632990638E+02  0.43080328021E+02  0.00000000000E+00 0. -1.
</event>
<event>
 7    1  0.2148778E-015  0.9000775E+02  0.7816164E-02  0.1186339E+00
        -11   -1    0    0    0    0  0.00000000000E+00  0.00000000000E+00  0.45593999997E+02  0.45594000000E+02  0.51100000000E-03 0. -1.
         11   -1    0    0    0    0 -0.00000000000E+00 -0.00000000000E+00 -0.45593999997E+02  0.45594000000E+02  0.51100000000E-03 0.  1.
    9900012    2    1    2    0    0  0.24540774277E+00  0.51396896287E+00 -0.10337301354E+01  0.90007751277E+02  0.90000012794E+02 0.  0.
         12    1    1    2    0    0 -0.24540774277E+00 -0.51396896287E+00  0.10337301354E+01  0.11802487229E+01  0.00000000000E+00 0. -1.
         11    1    3    3    0    0 -0.11918378394E+02 -0.34708822969E+02  0.30468537520E+01  0.36824359512E+02  0.51100000000E-03 0. -1.
        -11    1    3    3    0    0 -0.11436655973E+02  0.20579703327E+01  0.26684931970E+01  0.11922801598E+02  0.51100000000E-03 0.  1.
        -12    1    3    3    0    0  0.23600442110E+02  0.33164821599E+02 -0.67490770844E+01  0.41260590167E+02  0.00000000000E+00 0.  1.
</event>
<event>
 7    1  0.2148778E-015  0.9000792E+02  0.7816164E-02  0.1186339E+00
        -11   -1    0    0    0    0  0.00000000000E+00  0.00000000000E+00  0.45593999997E+02  0.45594000000E+02  0.51100000000E-03 0. -1.
         11   -1    0    0    0    0 -0.00000000000E+00 -0.00000000000E+00 -0.45593999997E+02  0.45594000000E+02  0.51100000000E-03 0.  1.
    9900012    2    1    2    0    0 -0.91232385660E+00  0.74841381147E+00  0.11358897958E-01  0.90007920733E+02  0.90000184486E+02 0.  0.
         12    1    1    2    0    0  0.91232385660E+00 -0.74841381147E+00 -0.11358897958E-01  0.11800792673E+01  0.00000000000E+00 0. -1.
         11    1    3    3    0    0  0.30522821260E+01 -0.84851952820E+01 -0.51798709899E+01  0.10399328290E+02  0.51100000000E-03 0. -1.
        -11    1    3    3    0    0 -0.69914311507E+01  0.64396864300E+01 -0.36498471115E+02  0.37715886107E+02  0.51100000000E-03 0.  1.
         12    1    3    3    0    0  0.30268251681E+01  0.27939226635E+01  0.41689701003E+02  0.41892706336E+02  0.00000000000E+00 0. -1.
</event>
<event>
 7    1  0.2148778E-015  0.9000778E+02  0.7816164E-02  0.1186339E+00
        -11   -1    0    0    0    0  0.00000000000E+00  0.00000000000E+00  0.45593999997E+02  0.45594000000E+02  0.51100000000E-03 0.  1.
         11   -1    0    0    0    0 -0.00000000000E+00 -0.00000000000E+00 -0.45593999997E+02  0.45594000000E+02  0.51100000000E-03 0. -1.
    9900012    2    1    2    0    0  0.57072314934E+00  0.92042731533E+00  0.46904798002E+00  0.90007780799E+02  0.90000042705E+02 0.  0.
         12    1    1    2    0    0 -0.57072314934E+00 -0.92042731533E+00 -0.46904798002E+00  0.11802192015E+01  0.00000000000E+00 0. -1.
         11    1    3    3    0    0 -0.29921827082E+02 -0.21936913440E+02 -0.46670313915E+01  0.37394185236E+02  0.51100000000E-03 0. -1.
        -11    1    3    3    0    0  0.38220599520E+01 -0.94754443016E+01  0.29884022497E+01  0.10645315179E+02  0.51100000000E-03 0.  1.
        -12    1    3    3    0    0  0.26670490279E+02  0.32332785057E+02  0.21476771218E+01  0.41968280383E+02  0.00000000000E+00 0.  1.
</event>
<event>
 7    1  0.2148778E-015  0.9000777E+02  0.7816164E-02  0.1186339E+00
        -11   -1    0    0    0    0  0.00000000000E+00  0.00000000000E+00  0.45593999997E+02  0.45594000000E+02  0.51100000000E-03 0. -1.
         11   -1    0    0    0    0 -0.00000000000E+00 -0.00000000000E+00 -0.45593999997E+02  0.45594000000E+02  0.51100000000E-03 0.  1.
    9900012    2    1    2    0    0 -0.82409225865E+00  0.84220617869E+00 -0.67117350077E-01  0.90007769498E+02  0.90000031256E+02 0.  0.
         12    1    1    2    0    0  0.82409225865E+00 -0.84220617869E+00  0.67117350077E-01  0.11802305016E+01  0.00000000000E+00 0. -1.
         11    1    3    3    0    0  0.28527611688E+02  0.22197643989E+02 -0.10169728449E+01  0.36160672854E+02  0.51100000000E-03 0. -1.
        -11    1    3    3    0    0  0.51226034085E+01  0.69708205891E+01  0.30661379540E+01  0.91779413585E+01  0.51100000000E-03 0.  1.
        -12    1    3    3    0    0 -0.34474307355E+02 -0.28326258399E+02 -0.21162824592E+01  0.44669155286E+02  0.00000000000E+00 0.  1.
</event>
<event>
 7    1  0.2148778E-015  0.9000777E+02  0.7816164E-02  0.1186339E+00
        -11   -1    0    0    0    0  0.00000000000E+00  0.00000000000E+00  0.45593999997E+02  0.45594000000E+02  0.51100000000E-03 0. -1.
         11   -1    0    0    0    0 -0.00000000000E+00 -0.00000000000E+00 -0.45593999997E+02  0.45594000000E+02  0.51100000000E-03 0.  1.
    9900012    2    1    2    0    0 -0.13777614476E+00 -0.18510384419E+00 -0.11574504741E+01  0.90007772353E+02  0.90000034148E+02 0.  0.
         12    1    1    2    0    0  0.13777614476E+00  0.18510384419E+00  0.11574504741E+01  0.11802276472E+01  0.00000000000E+00 0. -1.
         11    1    3    3    0    0  0.28853627406E+02  0.16266424562E+01 -0.27952612428E+02  0.40206048326E+02  0.51100000000E-03 0. -1.
        -11    1    3    3    0    0  0.10618019137E+01  0.95823912755E+01  0.42150853393E+01  0.10522195139E+02  0.51100000000E-03 0.  1.
        -12    1    3    3    0    0 -0.30053205464E+02 -0.11394137576E+02  0.22580076615E+02  0.39279528888E+02  0.00000000000E+00 0.  1.
</event>
<event>
 7    1  0.2148778E-015  0.9000776E+02  0.7816164E-02  0.1186339E+00
        -11   -1    0    0    0    0  0.00000000000E+00  0.00000000000E+00  0.45593999997E+02  0.45594000000E+02  0.51100000000E-03 0.  1.
         11   -1    0    0    0    0 -0.00000000000E+00 -0.00000000000E+00 -0.45593999997E+02  0.45594000000E+02  0.51100000000E-03 0. -1.
    9900012    2    1    2    0    0  0.92188789073E+00  0.67816021837E+00  0.28843501711E+00  0.90007757091E+02  0.90000018685E+02 0.  0.
         12    1    1    2    0    0 -0.92188789073E+00 -0.67816021837E+00 -0.28843501711E+00  0.11802429089E+01  0.00000000000E+00 0. -1.
         11    1    3    3    0    0 -0.46860798192E+01 -0.41555784346E+01 -0.40355422809E+02  0.40838564207E+02  0.51100000000E-03 0. -1.
        -11    1    3    3    0    0 -0.58614569549E+00 -0.96216705916E+00 -0.37791431078E+01  0.39435079709E+01  0.51100000000E-03 0.  1.
        -12    1    3    3    0    0  0.61941134054E+01  0.57959057121E+01  0.44423000933E+02  0.45225684913E+02  0.00000000000E+00 0.  1.
</event>
<event>
 7    1  0.2148778E-015  0.9000783E+02  0.7816164E-02  0.1186339E+00
        -11   -1    0    0    0    0  0.00000000000E+00  0.00000000000E+00  0.45593999997E+02  0.45594000000E+02  0.51100000000E-03 0.  1.
         11   -1    0    0    0    0 -0.00000000000E+00 -0.00000000000E+00 -0.45593999997E+02  0.45594000000E+02  0.51100000000E-03 0. -1.
    9900012    2    1    2    0    0  0.45902835950E+00  0.19503688107E+00  0.10696061339E+01  0.90007828952E+02  0.90000091495E+02 0.  0.
         12    1    1    2    0    0 -0.45902835950E+00 -0.19503688107E+00 -0.10696061339E+01  0.11801710476E+01  0.00000000000E+00 0. -1.
         11    1    3    3    0    0  0.28433054098E+02 -0.10611360363E+02 -0.20710366342E+02  0.36741785590E+02  0.51100000000E-03 0. -1.
        -11    1    3    3    0    0  0.37312305790E+01 -0.98201756808E-01 -0.77408611973E+01  0.85937568941E+01  0.51100000000E-03 0.  1.
        -12    1    3    3    0    0 -0.31705256318E+02  0.10904599001E+02  0.29520833673E+02  0.44672286468E+02  0.00000000000E+00 0.  1.
</event>
<event>
 7    1  0.2148778E-015  0.9000762E+02  0.7816164E-02  0.1186339E+00
        -11   -1    0    0    0    0  0.00000000000E+00  0.00000000000E+00  0.45593999997E+02  0.45594000000E+02  0.51100000000E-03 0.  1.
         11   -1    0    0    0    0 -0.00000000000E+00 -0.00000000000E+00 -0.45593999997E+02  0.45594000000E+02  0.51100000000E-03 0. -1.
    9900012    2    1    2    0    0 -0.57584284982E+00  0.10213496541E+01 -0.13619370124E+00  0.90007619202E+02  0.89999878976E+02 0.  0.
         12    1    1    2    0    0  0.57584284982E+00 -0.10213496541E+01  0.13619370124E+00  0.11803807979E+01  0.00000000000E+00 0. -1.
         11    1    3    3    0    0  0.23004979280E+02  0.27151273666E+02 -0.12814349256E+02  0.37823647107E+02  0.51100000000E-03 0. -1.
        -11    1    3    3    0    0 -0.10796953131E+01  0.88061113155E+01  0.40014630187E+01  0.97326792314E+01  0.51100000000E-03 0.  1.
        -12    1    3    3    0    0 -0.22501126817E+02 -0.34936035327E+02  0.86766925362E+01  0.42451292864E+02  0.00000000000E+00 0.  1.
</event>
<event>
 7    1  0.2148778E-015  0.9000780E+02  0.7816164E-02  0.1186339E+00
        -11   -1    0    0    0    0  0.00000000000E+00  0.00000000000E+00  0.45593999997E+02  0.45594000000E+02  0.51100000000E-03 0. -1.
         11   -1    0    0    0    0 -0.00000000000E+00 -0.00000000000E+00 -0.45593999997E+02  0.45594000000E+02  0.51100000000E-03 0.  1.
    9900012    2    1    2    0    0  0.11653319950E+01  0.14208802024E+00 -0.12113465448E+00  0.90007804563E+02  0.90000066784E+02 0.  0.
         12    1    1    2    0    0 -0.11653319950E+01 -0.14208802024E+00  0.12113465448E+00  0.11801954366E+01  0.00000000000E+00 0. -1.
         11    1    3    3    0    0 -0.39963654580E+00 -0.82293522458E+01 -0.62149188458E+01  0.10320230825E+02  0.51100000000E-03 0. -1.
        -11    1    3    3    0    0  0.35594648256E+02 -0.10287432744E+02 -0.88613325032E+01  0.38096370836E+02  0.51100000000E-03 0.  1.
         12    1    3    3    0    0 -0.34029679715E+02  0.18658873010E+02  0.14955116695E+02  0.41591202902E+02  0.00000000000E+00 0. -1.
</event>
<event>
 7    1  0.2148778E-015  0.9000775E+02  0.7816164E-02  0.1186339E+00
        -11   -1    0    0    0    0  0.00000000000E+00  0.00000000000E+00  0.45593999997E+02  0.45594000000E+02  0.51100000000E-03 0.  1.
         11   -1    0    0    0    0 -0.00000000000E+00 -0.00000000000E+00 -0.45593999997E+02  0.45594000000E+02  0.51100000000E-03 0. -1.
    9900012    2    1    2    0    0  0.80294390150E+00  0.23547195351E+00  0.83236245618E+00  0.90007748667E+02  0.90000010150E+02 0.  0.
         12    1    1    2    0    0 -0.80294390150E+00 -0.23547195351E+00 -0.83236245618E+00  0.11802513327E+01  0.00000000000E+00 0. -1.
         11    1    3    3    0    0 -0.11452350892E+01 -0.28207859718E+02 -0.24165241538E+02  0.37161186904E+02  0.51100000000E-03 0. -1.
        -11    1    3    3    0    0  0.52393064504E+01  0.68713853242E+00 -0.80090899021E+01  0.95952078020E+01  0.51100000000E-03 0.  1.
        -12    1    3    3    0    0 -0.32911274597E+01  0.27756193139E+02  0.33006693896E+02  0.43251353961E+02  0.00000000000E+00 0.  1.
</event>
<event>
 7    1  0.2148778E-015  0.9000774E+02  0.7816164E-02  0.1186339E+00
        -11   -1    0    0    0    0  0.00000000000E+00  0.00000000000E+00  0.45593999997E+02  0.45594000000E+02  0.51100000000E-03 0. -1.
         11   -1    0    0    0    0 -0.00000000000E+00 -0.00000000000E+00 -0.45593999997E+02  0.45594000000E+02  0.51100000000E-03 0.  1.
    9900012    2    1    2    0    0 -0.92185114590E+00 -0.34780754268E+00 -0.64979184161E+00  0.90007741952E+02  0.90000003346E+02 0.  0.
         12    1    1    2    0    0  0.92185114590E+00  0.34780754268E+00  0.64979184161E+00  0.11802580478E+01  0.00000000000E+00 0. -1.
         11    1    3    3    0    0  0.35125275199E+02 -0.18797043632E+01 -0.16067748582E+01  0.35212213393E+02  0.51100000000E-03 0. -1.
        -11    1    3    3    0    0  0.18027682371E+01  0.45811409441E+01  0.13845981919E+02  0.14695170677E+02  0.51100000000E-03 0.  1.
        -12    1    3    3    0    0 -0.37849894582E+02 -0.30492441235E+01 -0.12888998902E+02  0.40100357883E+02  0.00000000000E+00 0.  1.
</event>
<event>
 7    1  0.2148778E-015  0.9000773E+02  0.7816164E-02  0.1186339E+00
        -11   -1    0    0    0    0  0.00000000000E+00  0.00000000000E+00  0.45593999997E+02  0.45594000000E+02  0.51100000000E-03 0.  1.
         11   -1    0    0    0    0 -0.00000000000E+00 -0.00000000000E+00 -0.45593999997E+02  0.45594000000E+02  0.51100000000E-03 0. -1.
    9900012    2    1    2    0    0 -0.10552172992E+01  0.22833770663E+00  0.47687608944E+00  0.90007732038E+02  0.89999993301E+02 0.  0.
         12    1    1    2    0    0  0.10552172992E+01 -0.22833770663E+00 -0.47687608944E+00  0.11802679617E+01  0.00000000000E+00 0. -1.
         11    1    3    3    0    0  0.45976997550E+01 -0.31159300171E+01  0.61014014505E+01  0.82507552885E+01  0.51100000000E-03 0. -1.
        -11    1    3    3    0    0  0.14238225986E+02 -0.29525358403E+02  0.17252333406E+02  0.37042096003E+02  0.51100000000E-03 0.  1.
         12    1    3    3    0    0 -0.19891143040E+02  0.32869626127E+02 -0.22876858767E+02  0.44714880747E+02  0.00000000000E+00 0. -1.
</event>
<event>
 7    1  0.2148778E-015  0.9000768E+02  0.7816164E-02  0.1186339E+00
        -11   -1    0    0    0    0  0.00000000000E+00  0.00000000000E+00  0.45593999997E+02  0.45594000000E+02  0.51100000000E-03 0.  1.
         11   -1    0    0    0    0 -0.00000000000E+00 -0.00000000000E+00 -0.45593999997E+02  0.45594000000E+02  0.51100000000E-03 0. -1.
    9900012    2    1    2    0    0 -0.71961249267E+00 -0.66106898942E+00  0.66203752335E+00  0.90007683080E+02  0.89999943697E+02 0.  0.
         12    1    1    2    0    0  0.71961249267E+00  0.66106898942E+00 -0.66203752335E+00  0.11803169196E+01  0.00000000000E+00 0. -1.
         11    1    3    3    0    0 -0.61335763538E+01  0.87742560641E+01  0.41260838247E+00  0.10713476294E+02  0.51100000000E-03 0. -1.
        -11    1    3    3    0    0  0.29575904449E+01  0.13759342079E+02  0.34839625749E+02  0.37574810156E+02  0.51100000000E-03 0.  1.
         12    1    3    3    0    0  0.24563734163E+01 -0.23194667133E+02 -0.34590196608E+02  0.41719396630E+02  0.00000000000E+00 0. -1.
</event>
<event>
 7    1  0.2148778E-015  0.9000779E+02  0.7816164E-02  0.1186339E+00
        -11   -1    0    0    0    0  0.00000000000E+00  0.00000000000E+00  0.45593999997E+02  0.45594000000E+02  0.51100000000E-03 0.  1.
         11   -1    0    0    0    0 -0.00000000000E+00 -0.00000000000E+00 -0.45593999997E+02  0.45594000000E+02  0.51100000000E-03 0. -1.
    9900012    2    1    2    0    0  0.85195152643E+00 -0.81009957204E+00  0.10398549560E+00  0.90007789975E+02  0.90000052003E+02 0.  0.
         12    1    1    2    0    0 -0.85195152643E+00  0.81009957204E+00 -0.10398549560E+00  0.11802100251E+01  0.00000000000E+00 0. -1.
         11    1    3    3    0    0 -0.27973277847E+02  0.24360825189E+01 -0.16923556031E+02  0.32784836747E+02  0.51100000000E-03 0. -1.
        -11    1    3    3    0    0 -0.12243148349E+02  0.21143951548E+01  0.81691923019E+01  0.14869467088E+02  0.51100000000E-03 0.  1.
        -12    1    3    3    0    0  0.41068377722E+02 -0.53605772457E+01  0.88583492249E+01  0.42353486139E+02  0.00000000000E+00 0.  1.
</event>
