<event>
 7    1  0.5601662E-013  0.5052883E+02  0.7816164E-02  0.1300439E+00
        -11   -1    0    0    0    0  0.00000000000E+00  0.00000000000E+00  0.45593999997E+02  0.45594000000E+02  0.51100000000E-03 0.  1.
         11   -1    0    0    0    0 -0.00000000000E+00 -0.00000000000E+00 -0.45593999997E+02  0.45594000000E+02  0.51100000000E-03 0. -1.
    9900012    2    1    2    0    0  0.31405607183E+02 -0.23940989947E+02 -0.96791148611E+01  0.50528826045E+02  0.29999897247E+02 0.  0.
        -12    1    1    2    0    0 -0.31405607183E+02  0.23940989947E+02  0.96791148611E+01  0.40659173955E+02  0.00000000000E+00 0.  1.
         11    1    3    3    0    0 -0.22545433845E+01  0.96412790045E+00  0.18424235731E+01  0.30670887442E+01  0.51100000000E-03 0.  1.
        -11    1    3    3    0    0  0.13988264224E+02 -0.21030828874E+02 -0.10596182866E+02  0.27390625965E+02  0.51100000000E-03 0. -1.
         12    1    3    3    0    0  0.19671886344E+02 -0.38742889734E+01 -0.92535556819E+00  0.20071111337E+02  0.00000000000E+00 0. -1.
</event>
<event>
 7    1  0.5601662E-013  0.5052887E+02  0.7816164E-02  0.1300439E+00
        -11   -1    0    0    0    0  0.00000000000E+00  0.00000000000E+00  0.45593999997E+02  0.45594000000E+02  0.51100000000E-03 0.  1.
         11   -1    0    0    0    0 -0.00000000000E+00 -0.00000000000E+00 -0.45593999997E+02  0.45594000000E+02  0.51100000000E-03 0. -1.
    9900012    2    1    2    0    0  0.12316037701E+02 -0.38336726756E+02 -0.56370061212E+01  0.50528865221E+02  0.30000016325E+02 0.  0.
        -12    1    1    2    0    0 -0.12316037701E+02  0.38336726756E+02  0.56370061212E+01  0.40659134779E+02  0.00000000000E+00 0.  1.
         11    1    3    3    0    0  0.12128330864E+02 -0.64986436473E+01  0.34392384435E+01  0.14182987702E+02  0.51100000000E-03 0. -1.
        -11    1    3    3    0    0 -0.55680777996E+01 -0.55751264910E+01  0.26275716027E+00  0.78838168015E+01  0.51100000000E-03 0.  1.
         12    1    3    3    0    0  0.57557846365E+01 -0.26262956617E+02 -0.93390017250E+01  0.28462060717E+02  0.00000000000E+00 0. -1.
</event>
<event>
 7    1  0.5601662E-013  0.5052889E+02  0.7816164E-02  0.1300439E+00
        -11   -1    0    0    0    0  0.00000000000E+00  0.00000000000E+00  0.45593999997E+02  0.45594000000E+02  0.51100000000E-03 0.  1.
         11   -1    0    0    0    0 -0.00000000000E+00 -0.00000000000E+00 -0.45593999997E+02  0.45594000000E+02  0.51100000000E-03 0. -1.
    9900012    2    1    2    0    0 -0.10034907245E+02  0.39306450133E+02 -0.27325547033E+01  0.50528889819E+02  0.30000091093E+02 0.  0.
        -12    1    1    2    0    0  0.10034907245E+02 -0.39306450133E+02  0.27325547033E+01  0.40659110181E+02  0.00000000000E+00 0.  1.
         11    1    3    3    0    0 -0.67437323189E+01  0.51980002570E+01  0.12940330960E+01  0.86122966842E+01  0.51100000000E-03 0. -1.
        -11    1    3    3    0    0  0.68616239502E-01 -0.36896142346E+01  0.40143367827E+00  0.37120224471E+01  0.51100000000E-03 0.  1.
         12    1    3    3    0    0 -0.33597911657E+01  0.37798064111E+02 -0.44280214775E+01  0.38204570688E+02  0.00000000000E+00 0. -1.
</event>
<event>
 7    1  0.5601662E-013  0.5052886E+02  0.7816164E-02  0.1300439E+00
        -11   -1    0    0    0    0  0.00000000000E+00  0.00000000000E+00  0.45593999997E+02  0.45594000000E+02  0.51100000000E-03 0. -1.
         11   -1    0    0    0    0 -0.00000000000E+00 -0.00000000000E+00 -0.45593999997E+02  0.45594000000E+02  0.51100000000E-03 0.  1.
    9900012    2    1    2    0    0  0.11974926371E+02  0.14529383052E+02  0.36036975397E+02  0.50528862906E+02  0.30000009288E+02 0.  0.
        -12    1    1    2    0    0 -0.11974926371E+02 -0.14529383052E+02 -0.36036975397E+02  0.40659137094E+02  0.00000000000E+00 0.  1.
         11    1    3    3    0    0  0.11431951279E+02  0.88814351727E+01  0.12368232373E+02  0.19040550756E+02  0.51100000000E-03 0. -1.
        -11    1    3    3    0    0  0.87356129560E+01  0.80746708815E+01  0.16462617715E+02  0.20310810566E+02  0.51100000000E-03 0.  1.
        -12    1    3    3    0    0 -0.81926378638E+01 -0.24267230019E+01  0.72061253087E+01  0.11177501584E+02  0.00000000000E+00 0.  1.
</event>
<event>
 7    1  0.5601662E-013  0.5052886E+02  0.7816164E-02  0.1300439E+00
        -11   -1    0    0    0    0  0.00000000000E+00  0.00000000000E+00  0.45593999997E+02  0.45594000000E+02  0.51100000000E-03 0.  1.
         11   -1    0    0    0    0 -0.00000000000E+00 -0.00000000000E+00 -0.45593999997E+02  0.45594000000E+02  0.51100000000E-03 0. -1.
    9900012    2    1    2    0    0 -0.15426997420E+02  0.10785027533E+02 -0.36039648089E+02  0.50528864463E+02  0.30000014021E+02 0.  0.
        -12    1    1    2    0    0  0.15426997420E+02 -0.10785027533E+02  0.36039648089E+02  0.40659135537E+02  0.00000000000E+00 0.  1.
         11    1    3    3    0    0 -0.81168140496E+00  0.21298998882E+01  0.23748526046E+01  0.32916903547E+01  0.51100000000E-03 0. -1.
        -11    1    3    3    0    0 -0.20788021559E+01  0.38706922307E+01  0.18712356069E+01  0.47754790027E+01  0.51100000000E-03 0.  1.
         12    1    3    3    0    0 -0.12536513859E+02  0.47844354136E+01 -0.40285736300E+02  0.42461695105E+02  0.00000000000E+00 0. -1.
</event>
<event>
 7    1  0.5601662E-013  0.5052884E+02  0.7816164E-02  0.1300439E+00
        -11   -1    0    0    0    0  0.00000000000E+00  0.00000000000E+00  0.45593999997E+02  0.45594000000E+02  0.51100000000E-03 0.  1.
         11   -1    0    0    0    0 -0.00000000000E+00 -0.00000000000E+00 -0.45593999997E+02  0.45594000000E+02  0.51100000000E-03 0. -1.
    9900012    2    1    2    0    0 -0.20538013626E+02 -0.68585592204E+01 -0.34413908630E+02  0.50528844260E+02  0.29999952612E+02 0.  0.
        -12    1    1    2    0    0  0.20538013626E+02  0.68585592204E+01  0.34413908630E+02  0.40659155740E+02  0.00000000000E+00 0.  1.
         11    1    3    3    0    0 -0.56334149739E+01 -0.99662607871E+01 -0.16503815602E+02  0.20085757342E+02  0.51100000000E-03 0.  1.
        -11    1    3    3    0    0 -0.98607996934E+01  0.67912783656E+01 -0.20452788555E+02  0.23699649625E+02  0.51100000000E-03 0. -1.
        -12    1    3    3    0    0 -0.50437989592E+01 -0.36835767989E+01  0.25426955260E+01  0.67434372921E+01  0.00000000000E+00 0.  1.
</event>
<event>
 7    1  0.5601662E-013  0.5052884E+02  0.7816164E-02  0.1300439E+00
        -11   -1    0    0    0    0  0.00000000000E+00  0.00000000000E+00  0.45593999997E+02  0.45594000000E+02  0.51100000000E-03 0. -1.
         11   -1    0    0    0    0 -0.00000000000E+00 -0.00000000000E+00 -0.45593999997E+02  0.45594000000E+02  0.51100000000E-03 0.  1.
    9900012    2    1    2    0    0 -0.15948833995E+02  0.36616944064E+02 -0.76158548524E+01  0.50528841825E+02  0.29999945211E+02 0.  0.
        -12    1    1    2    0    0  0.15948833995E+02 -0.36616944064E+02  0.76158548524E+01  0.40659158175E+02  0.00000000000E+00 0.  1.
         11    1    3    3    0    0  0.51003130149E+01  0.69584284325E+01 -0.72546265622E+01  0.11272201467E+02  0.51100000000E-03 0. -1.
        -11    1    3    3    0    0 -0.39119476348E+01  0.75424919177E+01 -0.63956302176E+01  0.10634688748E+02  0.51100000000E-03 0.  1.
         12    1    3    3    0    0 -0.17137199375E+02  0.22116023714E+02  0.60344019275E+01  0.28621951610E+02  0.00000000000E+00 0. -1.
</event>
<event>
 7    1  0.5601662E-013  0.5052883E+02  0.7816164E-02  0.1300439E+00
        -11   -1    0    0    0    0  0.00000000000E+00  0.00000000000E+00  0.45593999997E+02  0.45594000000E+02  0.51100000000E-03 0.  1.
         11   -1    0    0    0    0 -0.00000000000E+00 -0.00000000000E+00 -0.45593999997E+02  0.45594000000E+02  0.51100000000E-03 0. -1.
    9900012    2    1    2    0    0 -0.38457398868E+01  0.74813584470E+01 -0.39779487556E+02  0.50528830435E+02  0.29999910590E+02 0.  0.
        -12    1    1    2    0    0  0.38457398868E+01 -0.74813584470E+01  0.39779487556E+02  0.40659169565E+02  0.00000000000E+00 0.  1.
         11    1    3    3    0    0 -0.12946338859E+02 -0.16106474362E+01 -0.13090225773E+02  0.18481230643E+02  0.51100000000E-03 0. -1.
        -11    1    3    3    0    0  0.48440207282E+00 -0.14711099288E+01  0.50420051895E+00  0.16288119030E+01  0.51100000000E-03 0.  1.
        -12    1    3    3    0    0  0.86161968997E+01  0.10563115812E+02 -0.27193462302E+02  0.30418787889E+02  0.00000000000E+00 0.  1.
</event>
<event>
 7    1  0.5601662E-013  0.5052885E+02  0.7816164E-02  0.1300439E+00
        -11   -1    0    0    0    0  0.00000000000E+00  0.00000000000E+00  0.45593999997E+02  0.45594000000E+02  0.51100000000E-03 0.  1.
         11   -1    0    0    0    0 -0.00000000000E+00 -0.00000000000E+00 -0.45593999997E+02  0.45594000000E+02  0.51100000000E-03 0. -1.
    9900012    2    1    2    0    0 -0.26364070942E+02  0.10320092352E+02 -0.29182147769E+02  0.50528852306E+02  0.29999977069E+02 0.  0.
        -12    1    1    2    0    0  0.26364070942E+02 -0.10320092352E+02  0.29182147769E+02  0.40659147694E+02  0.00000000000E+00 0.  1.
         11    1    3    3    0    0 -0.18716867880E+02  0.80774919931E+01 -0.27283399523E+02  0.34058052057E+02  0.51100000000E-03 0. -1.
        -11    1    3    3    0    0 -0.36884839930E+01 -0.27249410546E+01 -0.69695906802E+01  0.83429858221E+01  0.51100000000E-03 0.  1.
         12    1    3    3    0    0 -0.39587190689E+01  0.49675414132E+01  0.50708424342E+01  0.81278144264E+01  0.00000000000E+00 0. -1.
</event>
<event>
 7    1  0.5601662E-013  0.5052886E+02  0.7816164E-02  0.1300439E+00
        -11   -1    0    0    0    0  0.00000000000E+00  0.00000000000E+00  0.45593999997E+02  0.45594000000E+02  0.51100000000E-03 0.  1.
         11   -1    0    0    0    0 -0.00000000000E+00 -0.00000000000E+00 -0.45593999997E+02  0.45594000000E+02  0.51100000000E-03 0. -1.
    9900012    2    1    2    0    0  0.11558405081E+02  0.42240132900E+01 -0.38752121766E+02  0.50528856408E+02  0.29999989537E+02 0.  0.
        -12    1    1    2    0    0 -0.11558405081E+02 -0.42240132900E+01  0.38752121766E+02  0.40659143592E+02  0.00000000000E+00 0.  1.
         11    1    3    3    0    0  0.25991485305E+01 -0.65206397163E+01 -0.61650488786E+01  0.93424912807E+01  0.51100000000E-03 0. -1.
        -11    1    3    3    0    0  0.20376376936E+00 -0.60807018800E+01 -0.61677811894E+01  0.86636008731E+01  0.51100000000E-03 0.  1.
         12    1    3    3    0    0  0.87554927810E+01  0.16825354886E+02 -0.26419291698E+02  0.32522764254E+02  0.00000000000E+00 0. -1.
</event>
<event>
 7    1  0.5601662E-013  0.5052886E+02  0.7816164E-02  0.1300439E+00
        -11   -1    0    0    0    0  0.00000000000E+00  0.00000000000E+00  0.45593999997E+02  0.45594000000E+02  0.51100000000E-03 0.  1.
         11   -1    0    0    0    0 -0.00000000000E+00 -0.00000000000E+00 -0.45593999997E+02  0.45594000000E+02  0.51100000000E-03 0. -1.
    9900012    2    1    2    0    0 -0.21790009177E+02  0.12751837421E+02 -0.31870860765E+02  0.50528860517E+02  0.30000002029E+02 0.  0.
        -12    1    1    2    0    0  0.21790009177E+02 -0.12751837421E+02  0.31870860765E+02  0.40659139483E+02  0.00000000000E+00 0.  1.
         11    1    3    3    0    0 -0.12247250800E+02  0.28737763503E-01 -0.93614376040E+01  0.15415333025E+02  0.51100000000E-03 0. -1.
        -11    1    3    3    0    0 -0.98789208408E+01 -0.25731833351E+01 -0.36797298808E+01  0.10851486613E+02  0.51100000000E-03 0.  1.
         12    1    3    3    0    0  0.33616246317E+00  0.15296282992E+02 -0.18829693280E+02  0.24262040879E+02  0.00000000000E+00 0. -1.
</event>
<event>
 7    1  0.5601662E-013  0.5052886E+02  0.7816164E-02  0.1300439E+00
        -11   -1    0    0    0    0  0.00000000000E+00  0.00000000000E+00  0.45593999997E+02  0.45594000000E+02  0.51100000000E-03 0.  1.
         11   -1    0    0    0    0 -0.00000000000E+00 -0.00000000000E+00 -0.45593999997E+02  0.45594000000E+02  0.51100000000E-03 0. -1.
    9900012    2    1    2    0    0  0.37333943921E+02  0.16093770867E+02 -0.57705096969E+00  0.50528858135E+02  0.29999994787E+02 0.  0.
        -12    1    1    2    0    0 -0.37333943921E+02 -0.16093770867E+02  0.57705096969E+00  0.40659141865E+02  0.00000000000E+00 0.  1.
         11    1    3    3    0    0  0.58231209144E+01 -0.18666642990E+01 -0.54924223745E+01  0.82194815280E+01  0.51100000000E-03 0. -1.
        -11    1    3    3    0    0  0.79065811196E+01 -0.43294600974E+01  0.39172187794E+01  0.98286750360E+01  0.51100000000E-03 0.  1.
         12    1    3    3    0    0  0.23604241887E+02  0.22289895263E+02  0.99815262540E+00  0.32480701571E+02  0.00000000000E+00 0. -1.
</event>
<event>
 7    1  0.5601662E-013  0.5052887E+02  0.7816164E-02  0.1300439E+00
        -11   -1    0    0    0    0  0.00000000000E+00  0.00000000000E+00  0.45593999997E+02  0.45594000000E+02  0.51100000000E-03 0.  1.
         11   -1    0    0    0    0 -0.00000000000E+00 -0.00000000000E+00 -0.45593999997E+02  0.45594000000E+02  0.51100000000E-03 0. -1.
    9900012    2    1    2    0    0 -0.21543299333E+02  0.19586701447E+02 -0.28379780279E+02  0.50528873738E+02  0.30000042214E+02 0.  0.
        -12    1    1    2    0    0  0.21543299333E+02 -0.19586701447E+02  0.28379780279E+02  0.40659126262E+02  0.00000000000E+00 0.  1.
         11    1    3    3    0    0 -0.16781678032E+01  0.15621812970E+01 -0.62904253674E+01  0.66952303279E+01  0.51100000000E-03 0. -1.
        -11    1    3    3    0    0  0.54886634223E+01 -0.24161339781E+00  0.12232922071E+00  0.54953405624E+01  0.51100000000E-03 0.  1.
        -12    1    3    3    0    0 -0.25353794952E+02  0.18266133547E+02 -0.22211684132E+02  0.38338302848E+02  0.00000000000E+00 0.  1.
</event>
<event>
 7    1  0.5601662E-013  0.5052889E+02  0.7816164E-02  0.1300439E+00
        -11   -1    0    0    0    0  0.00000000000E+00  0.00000000000E+00  0.45593999997E+02  0.45594000000E+02  0.51100000000E-03 0.  1.
         11   -1    0    0    0    0 -0.00000000000E+00 -0.00000000000E+00 -0.45593999997E+02  0.45594000000E+02  0.51100000000E-03 0. -1.
    9900012    2    1    2    0    0  0.10523253009E+02 -0.47450104538E+01 -0.38986017909E+02  0.50528885763E+02  0.30000078766E+02 0.  0.
        -12    1    1    2    0    0 -0.10523253009E+02  0.47450104538E+01  0.38986017909E+02  0.40659114237E+02  0.00000000000E+00 0.  1.
         11    1    3    3    0    0 -0.63257301078E+01 -0.23984809426E+01 -0.15432759477E+02  0.16850449180E+02  0.51100000000E-03 0.  1.
        -11    1    3    3    0    0  0.25553680482E+01  0.32061592133E+00 -0.17889571543E+02  0.18073999853E+02  0.51100000000E-03 0. -1.
        -12    1    3    3    0    0  0.14293615069E+02 -0.26671454325E+01 -0.56636868889E+01  0.15604436730E+02  0.00000000000E+00 0.  1.
</event>
<event>
 7    1  0.5601662E-013  0.5052886E+02  0.7816164E-02  0.1300439E+00
        -11   -1    0    0    0    0  0.00000000000E+00  0.00000000000E+00  0.45593999997E+02  0.45594000000E+02  0.51100000000E-03 0. -1.
         11   -1    0    0    0    0 -0.00000000000E+00 -0.00000000000E+00 -0.45593999997E+02  0.45594000000E+02  0.51100000000E-03 0.  1.
    9900012    2    1    2    0    0 -0.29233780189E+01  0.16038411714E+02  0.37247667284E+02  0.50528861944E+02  0.30000006366E+02 0.  0.
        -12    1    1    2    0    0  0.29233780189E+01 -0.16038411714E+02 -0.37247667284E+02  0.40659138056E+02  0.00000000000E+00 0.  1.
         11    1    3    3    0    0  0.61405012590E+01  0.16080291321E+02  0.14552909183E+02  0.22540379115E+02  0.51100000000E-03 0. -1.
        -11    1    3    3    0    0 -0.65507659254E+01  0.48911687105E+01  0.53222032347E+01  0.97550967754E+01  0.51100000000E-03 0.  1.
        -12    1    3    3    0    0 -0.25131133525E+01 -0.49330483176E+01  0.17372554866E+02  0.18233386054E+02  0.00000000000E+00 0.  1.
</event>
<event>
 7    1  0.5601662E-013  0.5052886E+02  0.7816164E-02  0.1300439E+00
        -11   -1    0    0    0    0  0.00000000000E+00  0.00000000000E+00  0.45593999997E+02  0.45594000000E+02  0.51100000000E-03 0. -1.
         11   -1    0    0    0    0 -0.00000000000E+00 -0.00000000000E+00 -0.45593999997E+02  0.45594000000E+02  0.51100000000E-03 0.  1.
    9900012    2    1    2    0    0 -0.71009368255E+00 -0.37865397447E+02  0.14794368365E+02  0.50528857213E+02  0.29999991985E+02 0.  0.
        -12    1    1    2    0    0  0.71009368255E+00  0.37865397447E+02 -0.14794368365E+02  0.40659142787E+02  0.00000000000E+00 0.  1.
         11    1    3    3    0    0 -0.13812267155E+01 -0.11955443946E+02  0.44223264960E+01  0.12821754915E+02  0.51100000000E-03 0. -1.
        -11    1    3    3    0    0 -0.24996891240E+01 -0.30398591969E+02  0.71194306081E+01  0.31321065306E+02  0.51100000000E-03 0.  1.
        -12    1    3    3    0    0  0.31708221570E+01  0.44886384691E+01  0.32526112609E+01  0.63860369927E+01  0.00000000000E+00 0.  1.
</event>
<event>
 7    1  0.5601662E-013  0.5052893E+02  0.7816164E-02  0.1300439E+00
        -11   -1    0    0    0    0  0.00000000000E+00  0.00000000000E+00  0.45593999997E+02  0.45594000000E+02  0.51100000000E-03 0. -1.
         11   -1    0    0    0    0 -0.00000000000E+00 -0.00000000000E+00 -0.45593999997E+02  0.45594000000E+02  0.51100000000E-03 0.  1.
    9900012    2    1    2    0    0  0.14710781164E+02  0.11980840814E+00  0.37904331606E+02  0.50528932241E+02  0.30000220039E+02 0.  0.
        -12    1    1    2    0    0 -0.14710781164E+02 -0.11980840814E+00 -0.37904331606E+02  0.40659067759E+02  0.00000000000E+00 0.  1.
         11    1    3    3    0    0  0.25817176729E+01 -0.25023257703E+01  0.31830961079E+00  0.36094627955E+01  0.51100000000E-03 0. -1.
        -11    1    3    3    0    0 -0.43939092737E+01 -0.31707582035E+01 -0.40453615692E-01  0.54186514048E+01  0.51100000000E-03 0.  1.
         12    1    3    3    0    0  0.16522972765E+02  0.57928923819E+01  0.37626475611E+02  0.41500818041E+02  0.00000000000E+00 0. -1.
</event>
<event>
 7    1  0.5601662E-013  0.5052886E+02  0.7816164E-02  0.1300439E+00
        -11   -1    0    0    0    0  0.00000000000E+00  0.00000000000E+00  0.45593999997E+02  0.45594000000E+02  0.51100000000E-03 0. -1.
         11   -1    0    0    0    0 -0.00000000000E+00 -0.00000000000E+00 -0.45593999997E+02  0.45594000000E+02  0.51100000000E-03 0.  1.
    9900012    2    1    2    0    0 -0.31874150411E+02  0.22685861420E+02  0.11070498581E+02  0.50528859433E+02  0.29999998733E+02 0.  0.
        -12    1    1    2    0    0  0.31874150411E+02 -0.22685861420E+02 -0.11070498581E+02  0.40659140567E+02  0.00000000000E+00 0.  1.
         11    1    3    3    0    0 -0.17880922708E+02  0.66763268423E+01  0.47559080826E+01  0.19670266875E+02  0.51100000000E-03 0. -1.
        -11    1    3    3    0    0 -0.46491113451E+01 -0.21416560296E+01  0.89134986635E+01  0.10278685983E+02  0.51100000000E-03 0.  1.
        -12    1    3    3    0    0 -0.93441163581E+01  0.18151190608E+02 -0.25989081655E+01  0.20579906575E+02  0.00000000000E+00 0.  1.
</event>
<event>
 7    1  0.5601662E-013  0.5052886E+02  0.7816164E-02  0.1300439E+00
        -11   -1    0    0    0    0  0.00000000000E+00  0.00000000000E+00  0.45593999997E+02  0.45594000000E+02  0.51100000000E-03 0. -1.
         11   -1    0    0    0    0 -0.00000000000E+00 -0.00000000000E+00 -0.45593999997E+02  0.45594000000E+02  0.51100000000E-03 0.  1.
    9900012    2    1    2    0    0 -0.37698815364E+02  0.12287680340E+02  0.89987554871E+01  0.50528863655E+02  0.30000011567E+02 0.  0.
        -12    1    1    2    0    0  0.37698815364E+02 -0.12287680340E+02 -0.89987554871E+01  0.40659136345E+02  0.00000000000E+00 0.  1.
         11    1    3    3    0    0 -0.82168616213E+01 -0.34978258071E+01 -0.23721871685E+01  0.92400688582E+01  0.51100000000E-03 0. -1.
        -11    1    3    3    0    0 -0.17780207226E+02  0.12799641788E+02 -0.34418817991E+01  0.22176860676E+02  0.51100000000E-03 0.  1.
         12    1    3    3    0    0 -0.11701746517E+02  0.29858643597E+01  0.14812824455E+02  0.19111934121E+02  0.00000000000E+00 0. -1.
</event>
<event>
 7    1  0.5601662E-013  0.5052885E+02  0.7816164E-02  0.1300439E+00
        -11   -1    0    0    0    0  0.00000000000E+00  0.00000000000E+00  0.45593999997E+02  0.45594000000E+02  0.51100000000E-03 0.  1.
         11   -1    0    0    0    0 -0.00000000000E+00 -0.00000000000E+00 -0.45593999997E+02  0.45594000000E+02  0.51100000000E-03 0. -1.
    9900012    2    1    2    0    0  0.25668819349E+02 -0.29735912760E+02 -0.10490651822E+02  0.50528848877E+02  0.29999966645E+02 0.  0.
        -12    1    1    2    0    0 -0.25668819349E+02  0.29735912760E+02  0.10490651822E+02  0.40659151123E+02  0.00000000000E+00 0.  1.
         11    1    3    3    0    0  0.94448784817E+01 -0.36232273977E+01 -0.45129442908E+01  0.11077011002E+02  0.51100000000E-03 0. -1.
        -11    1    3    3    0    0  0.24471778988E+01  0.45377972213E+01  0.66167595025E+00  0.51978936709E+01  0.51100000000E-03 0.  1.
         12    1    3    3    0    0  0.13776762969E+02 -0.30650482583E+02 -0.66393834812E+01  0.34253944203E+02  0.00000000000E+00 0. -1.
</event>
<event>
 7    1  0.5601662E-013  0.5052886E+02  0.7816164E-02  0.1300439E+00
        -11   -1    0    0    0    0  0.00000000000E+00  0.00000000000E+00  0.45593999997E+02  0.45594000000E+02  0.51100000000E-03 0.  1.
         11   -1    0    0    0    0 -0.00000000000E+00 -0.00000000000E+00 -0.45593999997E+02  0.45594000000E+02  0.51100000000E-03 0. -1.
    9900012    2    1    2    0    0  0.11463591070E+02 -0.13045647279E+02 -0.36763608594E+02  0.50528858961E+02  0.29999997299E+02 0.  0.
        -12    1    1    2    0    0 -0.11463591070E+02  0.13045647279E+02  0.36763608594E+02  0.40659141039E+02  0.00000000000E+00 0.  1.
         11    1    3    3    0    0  0.49253369279E+01 -0.12875120917E+02 -0.14763983024E+02  0.20199081105E+02  0.51100000000E-03 0. -1.
        -11    1    3    3    0    0  0.12271339274E+02  0.34591789993E+01 -0.19068722239E+02  0.22938349004E+02  0.51100000000E-03 0.  1.
        -12    1    3    3    0    0 -0.57330851321E+01 -0.36297053614E+01 -0.29309033304E+01  0.73914288520E+01  0.00000000000E+00 0.  1.
</event>
<event>
 7    1  0.5601662E-013  0.5052886E+02  0.7816164E-02  0.1300439E+00
        -11   -1    0    0    0    0  0.00000000000E+00  0.00000000000E+00  0.45593999997E+02  0.45594000000E+02  0.51100000000E-03 0.  1.
         11   -1    0    0    0    0 -0.00000000000E+00 -0.00000000000E+00 -0.45593999997E+02  0.45594000000E+02  0.51100000000E-03 0. -1.
    9900012    2    1    2    0    0 -0.27702274789E+02  0.59617035041E+01 -0.29158327351E+02  0.50528855997E+02  0.29999988287E+02 0.  0.
        -12    1    1    2    0    0  0.27702274789E+02 -0.59617035041E+01  0.29158327351E+02  0.40659144003E+02  0.00000000000E+00 0.  1.
         11    1    3    3    0    0 -0.18485877533E+02  0.49318016045E+00 -0.17876863370E+02  0.25720675323E+02  0.51100000000E-03 0. -1.
        -11    1    3    3    0    0 -0.91259761272E+01  0.12266067413E+02 -0.81151103406E+01  0.17308808918E+02  0.51100000000E-03 0.  1.
        -12    1    3    3    0    0 -0.90421128632E-01 -0.67975440693E+01 -0.31663536404E+01  0.74993717557E+01  0.00000000000E+00 0.  1.
</event>
<event>
 7    1  0.5601662E-013  0.5052885E+02  0.7816164E-02  0.1300439E+00
        -11   -1    0    0    0    0  0.00000000000E+00  0.00000000000E+00  0.45593999997E+02  0.45594000000E+02  0.51100000000E-03 0.  1.
         11   -1    0    0    0    0 -0.00000000000E+00 -0.00000000000E+00 -0.45593999997E+02  0.45594000000E+02  0.51100000000E-03 0. -1.
    9900012    2    1    2    0    0  0.54556580598E+01 -0.40249089830E+02  0.18474809851E+01  0.50528848225E+02  0.29999964666E+02 0.  0.
        -12    1    1    2    0    0 -0.54556580598E+01  0.40249089830E+02 -0.18474809851E+01  0.40659151775E+02  0.00000000000E+00 0.  1.
         11    1    3    3    0    0 -0.57415534183E+00 -0.17824748846E+02  0.29662856843E+01  0.18078998224E+02  0.51100000000E-03 0. -1.
        -11    1    3    3    0    0 -0.27510785500E+01 -0.11081864049E+02  0.92957007989E+01  0.14723661148E+02  0.51100000000E-03 0.  1.
         12    1    3    3    0    0  0.87808919516E+01 -0.11342476936E+02 -0.10414505498E+02  0.17726188853E+02  0.00000000000E+00 0. -1.
</event>
<event>
 7    1  0.5601662E-013  0.5052885E+02  0.7816164E-02  0.1300439E+00
        -11   -1    0    0    0    0  0.00000000000E+00  0.00000000000E+00  0.45593999997E+02  0.45594000000E+02  0.51100000000E-03 0. -1.
         11   -1    0    0    0    0 -0.00000000000E+00 -0.00000000000E+00 -0.45593999997E+02  0.45594000000E+02  0.51100000000E-03 0.  1.
    9900012    2    1    2    0    0  0.97131120283E+01 -0.86291927623E+01  0.38527384254E+02  0.50528845429E+02  0.29999956165E+02 0.  0.
        -12    1    1    2    0    0 -0.97131120283E+01  0.86291927623E+01 -0.38527384254E+02  0.40659154571E+02  0.00000000000E+00 0.  1.
         11    1    3    3    0    0  0.13257666214E+00  0.37661329052E+01  0.43937682400E+01  0.57884828098E+01  0.51100000000E-03 0.  1.
        -11    1    3    3    0    0  0.60995926419E+01  0.62657290392E+01  0.53197855990E+01  0.10235453574E+02  0.51100000000E-03 0. -1.
        -12    1    3    3    0    0  0.34809427242E+01 -0.18661054707E+02  0.28813830415E+02  0.34504909045E+02  0.00000000000E+00 0.  1.
</event>
<event>
 7    1  0.5601662E-013  0.5052886E+02  0.7816164E-02  0.1300439E+00
        -11   -1    0    0    0    0  0.00000000000E+00  0.00000000000E+00  0.45593999997E+02  0.45594000000E+02  0.51100000000E-03 0.  1.
         11   -1    0    0    0    0 -0.00000000000E+00 -0.00000000000E+00 -0.45593999997E+02  0.45594000000E+02  0.51100000000E-03 0. -1.
    9900012    2    1    2    0    0 -0.15203575297E+01  0.26007888905E+00 -0.40629871239E+02  0.50528861237E+02  0.30000004215E+02 0.  0.
        -12    1    1    2    0    0  0.15203575297E+01 -0.26007888905E+00  0.40629871239E+02  0.40659138763E+02  0.00000000000E+00 0.  1.
         11    1    3    3    0    0  0.18807035903E+00  0.30427661911E+01 -0.37808611098E+01  0.48568207241E+01  0.51100000000E-03 0. -1.
        -11    1    3    3    0    0  0.26555923426E+01  0.96124366797E+01 -0.48695263552E+01  0.11097900558E+02  0.51100000000E-03 0.  1.
         12    1    3    3    0    0 -0.43640202313E+01 -0.12395123982E+02 -0.31979483774E+02  0.34574139954E+02  0.00000000000E+00 0. -1.
</event>
<event>
 7    1  0.5601662E-013  0.5052886E+02  0.7816164E-02  0.1300439E+00
        -11   -1    0    0    0    0  0.00000000000E+00  0.00000000000E+00  0.45593999997E+02  0.45594000000E+02  0.51100000000E-03 0.  1.
         11   -1    0    0    0    0 -0.00000000000E+00 -0.00000000000E+00 -0.45593999997E+02  0.45594000000E+02  0.51100000000E-03 0. -1.
    9900012    2    1    2    0    0  0.26342772196E+02  0.12366034252E+02 -0.28395511832E+02  0.50528861515E+02  0.30000005061E+02 0.  0.
        -12    1    1    2    0    0 -0.26342772196E+02 -0.12366034252E+02  0.28395511832E+02  0.40659138485E+02  0.00000000000E+00 0.  1.
         11    1    3    3    0    0  0.20795583005E+01 -0.63587659025E+01 -0.14580064171E+02  0.16041718674E+02  0.51100000000E-03 0. -1.
        -11    1    3    3    0    0  0.39427831620E+00 -0.40582230526E+00  0.46144438155E+00  0.73012212160E+00  0.51100000000E-03 0.  1.
         12    1    3    3    0    0  0.23868935580E+02  0.19130622460E+02 -0.14276892043E+02  0.33757020719E+02  0.00000000000E+00 0. -1.
</event>
<event>
 7    1  0.5601662E-013  0.5052885E+02  0.7816164E-02  0.1300439E+00
        -11   -1    0    0    0    0  0.00000000000E+00  0.00000000000E+00  0.45593999997E+02  0.45594000000E+02  0.51100000000E-03 0.  1.
         11   -1    0    0    0    0 -0.00000000000E+00 -0.00000000000E+00 -0.45593999997E+02  0.45594000000E+02  0.51100000000E-03 0. -1.
    9900012    2    1    2    0    0 -0.39218855090E+02  0.10598512121E+02  0.16489727763E+01  0.50528853858E+02  0.29999981786E+02 0.  0.
        -12    1    1    2    0    0  0.39218855090E+02 -0.10598512121E+02 -0.16489727763E+01  0.40659146142E+02  0.00000000000E+00 0.  1.
         11    1    3    3    0    0 -0.15822889801E+01  0.10660141530E+01 -0.48623305338E+01  0.52232444967E+01  0.51100000000E-03 0. -1.
        -11    1    3    3    0    0 -0.59405966335E+01  0.10336126379E+02  0.65435846352E+01  0.13599437379E+02  0.51100000000E-03 0.  1.
        -12    1    3    3    0    0 -0.31695969477E+02 -0.80362841033E+00 -0.32281325022E-01  0.31706171983E+02  0.00000000000E+00 0.  1.
</event>
<event>
 7    1  0.5601662E-013  0.5052885E+02  0.7816164E-02  0.1300439E+00
        -11   -1    0    0    0    0  0.00000000000E+00  0.00000000000E+00  0.45593999997E+02  0.45594000000E+02  0.51100000000E-03 0. -1.
         11   -1    0    0    0    0 -0.00000000000E+00 -0.00000000000E+00 -0.45593999997E+02  0.45594000000E+02  0.51100000000E-03 0.  1.
    9900012    2    1    2    0    0  0.40466000399E+02  0.36203200828E+01  0.16006884541E+01  0.50528854543E+02  0.29999983868E+02 0.  0.
        -12    1    1    2    0    0 -0.40466000399E+02 -0.36203200828E+01 -0.16006884541E+01  0.40659145457E+02  0.00000000000E+00 0.  1.
         11    1    3    3    0    0  0.11431441709E+02  0.34563491443E+01  0.44920165917E+01  0.12759405247E+02  0.51100000000E-03 0. -1.
        -11    1    3    3    0    0  0.23851008174E+02  0.67489786344E+01 -0.10050359551E+02  0.26747505134E+02  0.51100000000E-03 0.  1.
         12    1    3    3    0    0  0.51835505163E+01 -0.65850076959E+01  0.71590314138E+01  0.11021944161E+02  0.00000000000E+00 0. -1.
</event>
<event>
 7    1  0.5601662E-013  0.5052886E+02  0.7816164E-02  0.1300439E+00
        -11   -1    0    0    0    0  0.00000000000E+00  0.00000000000E+00  0.45593999997E+02  0.45594000000E+02  0.51100000000E-03 0.  1.
         11   -1    0    0    0    0 -0.00000000000E+00 -0.00000000000E+00 -0.45593999997E+02  0.45594000000E+02  0.51100000000E-03 0. -1.
    9900012    2    1    2    0    0  0.23994751668E+02  0.11423609008E+02 -0.30772049261E+02  0.50528856304E+02  0.29999989222E+02 0.  0.
        -12    1    1    2    0    0 -0.23994751668E+02 -0.11423609008E+02  0.30772049261E+02  0.40659143696E+02  0.00000000000E+00 0.  1.
         11    1    3    3    0    0  0.18139065631E+01  0.75657690718E+01 -0.22119674531E+01  0.80885053590E+01  0.51100000000E-03 0. -1.
        -11    1    3    3    0    0  0.22157837544E+02  0.85557892989E+01 -0.15006567457E+02  0.28095700067E+02  0.51100000000E-03 0.  1.
         12    1    3    3    0    0  0.23007561000E-01 -0.46979493631E+01 -0.13553514351E+02  0.14344650878E+02  0.00000000000E+00 0. -1.
</event>
<event>
 7    1  0.5601662E-013  0.5052886E+02  0.7816164E-02  0.1300439E+00
        -11   -1    0    0    0    0  0.00000000000E+00  0.00000000000E+00  0.45593999997E+02  0.45594000000E+02  0.51100000000E-03 0. -1.
         11   -1    0    0    0    0 -0.00000000000E+00 -0.00000000000E+00 -0.45593999997E+02  0.45594000000E+02  0.51100000000E-03 0.  1.
    9900012    2    1    2    0    0 -0.13746511648E+02  0.25502698578E+02  0.28527383183E+02  0.50528858241E+02  0.29999995110E+02 0.  0.
        -12    1    1    2    0    0  0.13746511648E+02 -0.25502698578E+02 -0.28527383183E+02  0.40659141759E+02  0.00000000000E+00 0.  1.
         11    1    3    3    0    0 -0.10830080703E+02  0.13385885941E+02  0.13545587065E+02  0.21907887156E+02  0.51100000000E-03 0. -1.
        -11    1    3    3    0    0 -0.43583685665E+01  0.10625292210E+02  0.20071437539E+02  0.23124766296E+02  0.51100000000E-03 0.  1.
         12    1    3    3    0    0  0.14419376212E+01  0.14915204271E+01 -0.50896414208E+01  0.54962047888E+01  0.00000000000E+00 0. -1.
</event>
<event>
 7    1  0.5601662E-013  0.5052888E+02  0.7816164E-02  0.1300439E+00
        -11   -1    0    0    0    0  0.00000000000E+00  0.00000000000E+00  0.45593999997E+02  0.45594000000E+02  0.51100000000E-03 0.  1.
         11   -1    0    0    0    0 -0.00000000000E+00 -0.00000000000E+00 -0.45593999997E+02  0.45594000000E+02  0.51100000000E-03 0. -1.
    9900012    2    1    2    0    0 -0.22146913270E+02  0.14656416717E+02 -0.30787464668E+02  0.50528876804E+02  0.30000051534E+02 0.  0.
        -12    1    1    2    0    0  0.22146913270E+02 -0.14656416717E+02  0.30787464668E+02  0.40659123196E+02  0.00000000000E+00 0.  1.
         11    1    3    3    0    0 -0.35498468788E+01  0.29936302826E+01  0.79326917623E+00  0.47108928430E+01  0.51100000000E-03 0. -1.
        -11    1    3    3    0    0 -0.17905425626E+02 -0.18235346732E+01 -0.10661823202E+02  0.20918987065E+02  0.51100000000E-03 0.  1.
         12    1    3    3    0    0 -0.69164076433E+00  0.13486321108E+02 -0.20918910643E+02  0.24898996896E+02  0.00000000000E+00 0. -1.
</event>
<event>
 7    1  0.5601662E-013  0.5052886E+02  0.7816164E-02  0.1300439E+00
        -11   -1    0    0    0    0  0.00000000000E+00  0.00000000000E+00  0.45593999997E+02  0.45594000000E+02  0.51100000000E-03 0. -1.
         11   -1    0    0    0    0 -0.00000000000E+00 -0.00000000000E+00 -0.45593999997E+02  0.45594000000E+02  0.51100000000E-03 0.  1.
    9900012    2    1    2    0    0  0.90410765652E+01 -0.26654907118E+02  0.29341782201E+02  0.50528864229E+02  0.30000013311E+02 0.  0.
        -12    1    1    2    0    0 -0.90410765652E+01  0.26654907118E+02 -0.29341782201E+02  0.40659135771E+02  0.00000000000E+00 0.  1.
         11    1    3    3    0    0  0.78519823124E+01  0.73626149962E+00  0.10977143711E+02  0.13516411933E+02  0.51100000000E-03 0. -1.
        -11    1    3    3    0    0 -0.46996199464E+00  0.22687364060E+01  0.57630125923E+00  0.23874992269E+01  0.51100000000E-03 0.  1.
        -12    1    3    3    0    0  0.16590562474E+01 -0.29659905023E+02  0.17788337231E+02  0.34624953069E+02  0.00000000000E+00 0.  1.
</event>
<event>
 7    1  0.5601662E-013  0.5052885E+02  0.7816164E-02  0.1300439E+00
        -11   -1    0    0    0    0  0.00000000000E+00  0.00000000000E+00  0.45593999997E+02  0.45594000000E+02  0.51100000000E-03 0. -1.
         11   -1    0    0    0    0 -0.00000000000E+00 -0.00000000000E+00 -0.45593999997E+02  0.45594000000E+02  0.51100000000E-03 0.  1.
    9900012    2    1    2    0    0 -0.79700479117E+01 -0.66447511706E+01  0.39312746596E+02  0.50528850639E+02  0.29999972002E+02 0.  0.
        -12    1    1    2    0    0  0.79700479117E+01  0.66447511706E+01 -0.39312746596E+02  0.40659149361E+02  0.00000000000E+00 0.  1.
         11    1    3    3    0    0  0.43526725241E+01 -0.10414033674E+02  0.24572988373E+02  0.27041257613E+02  0.51100000000E-03 0. -1.
        -11    1    3    3    0    0 -0.23038078297E+01 -0.36354857218E+01  0.15574142592E+00  0.43068018996E+01  0.51100000000E-03 0.  1.
        -12    1    3    3    0    0 -0.10018912606E+02  0.74047682249E+01  0.14584016797E+02  0.19180791126E+02  0.00000000000E+00 0.  1.
</event>
<event>
 7    1  0.5601662E-013  0.5052886E+02  0.7816164E-02  0.1300439E+00
        -11   -1    0    0    0    0  0.00000000000E+00  0.00000000000E+00  0.45593999997E+02  0.45594000000E+02  0.51100000000E-03 0. -1.
         11   -1    0    0    0    0 -0.00000000000E+00 -0.00000000000E+00 -0.45593999997E+02  0.45594000000E+02  0.51100000000E-03 0.  1.
    9900012    2    1    2    0    0  0.35030246068E+02  0.52062442816E+01  0.19973545070E+02  0.50528860538E+02  0.30000002093E+02 0.  0.
        -12    1    1    2    0    0 -0.35030246068E+02 -0.52062442816E+01 -0.19973545070E+02  0.40659139462E+02  0.00000000000E+00 0.  1.
         11    1    3    3    0    0 -0.64778269302E+00  0.12202289007E+01 -0.67145807498E+00  0.15360459613E+01  0.51100000000E-03 0. -1.
        -11    1    3    3    0    0  0.14154687178E+02  0.54069068862E+01 -0.45547856506E+01  0.15822006313E+02  0.51100000000E-03 0.  1.
         12    1    3    3    0    0  0.21523341583E+02 -0.14208915053E+01  0.25199788796E+02  0.33170808264E+02  0.00000000000E+00 0. -1.
</event>
<event>
 7    1  0.5601662E-013  0.5052886E+02  0.7816164E-02  0.1300439E+00
        -11   -1    0    0    0    0  0.00000000000E+00  0.00000000000E+00  0.45593999997E+02  0.45594000000E+02  0.51100000000E-03 0.  1.
         11   -1    0    0    0    0 -0.00000000000E+00 -0.00000000000E+00 -0.45593999997E+02  0.45594000000E+02  0.51100000000E-03 0. -1.
    9900012    2    1    2    0    0 -0.10999235463E+02 -0.38512349173E+02 -0.69986967025E+01  0.50528856192E+02  0.29999988883E+02 0.  0.
        -12    1    1    2    0    0  0.10999235463E+02  0.38512349173E+02  0.69986967025E+01  0.40659143808E+02  0.00000000000E+00 0.  1.
         11    1    3    3    0    0 -0.24826442944E+01  0.37223683571E+01 -0.19953222521E+01  0.48990672612E+01  0.51100000000E-03 0. -1.
        -11    1    3    3    0    0 -0.66388424564E+01 -0.93504740634E+01  0.27478721802E+01  0.11792217610E+02  0.51100000000E-03 0.  1.
         12    1    3    3    0    0 -0.18777487123E+01 -0.32884243467E+02 -0.77512466305E+01  0.33837571322E+02  0.00000000000E+00 0. -1.
</event>
<event>
 7    1  0.5601662E-013  0.5052886E+02  0.7816164E-02  0.1300439E+00
        -11   -1    0    0    0    0  0.00000000000E+00  0.00000000000E+00  0.45593999997E+02  0.45594000000E+02  0.51100000000E-03 0.  1.
         11   -1    0    0    0    0 -0.00000000000E+00 -0.00000000000E+00 -0.45593999997E+02  0.45594000000E+02  0.51100000000E-03 0. -1.
    9900012    2    1    2    0    0  0.24538444276E+02  0.99025670836E+01 -0.30870208630E+02  0.50528857570E+02  0.29999993068E+02 0.  0.
        -12    1    1    2    0    0 -0.24538444276E+02 -0.99025670836E+01  0.30870208630E+02  0.40659142430E+02  0.00000000000E+00 0.  1.
         11    1    3    3    0    0  0.11764698317E+02 -0.27869514382E-01 -0.12256825374E+02  0.16989369374E+02  0.51100000000E-03 0. -1.
        -11    1    3    3    0    0  0.16185586226E+02  0.13333766210E+02 -0.90690403381E+01  0.22847538505E+02  0.51100000000E-03 0.  1.
         12    1    3    3    0    0 -0.34118402672E+01 -0.34033296123E+01 -0.95443429174E+01  0.10691949691E+02  0.00000000000E+00 0. -1.
</event>
<event>
 7    1  0.5601662E-013  0.5052887E+02  0.7816164E-02  0.1300439E+00
        -11   -1    0    0    0    0  0.00000000000E+00  0.00000000000E+00  0.45593999997E+02  0.45594000000E+02  0.51100000000E-03 0.  1.
         11   -1    0    0    0    0 -0.00000000000E+00 -0.00000000000E+00 -0.45593999997E+02  0.45594000000E+02  0.51100000000E-03 0. -1.
    9900012    2    1    2    0    0  0.26844096218E+01 -0.83568968067E+01 -0.39700391289E+02  0.50528870057E+02  0.30000031025E+02 0.  0.
        -12    1    1    2    0    0 -0.26844096218E+01  0.83568968067E+01  0.39700391289E+02  0.40659129943E+02  0.00000000000E+00 0.  1.
         11    1    3    3    0    0  0.37447928004E+01 -0.17848854245E+01 -0.18452078676E+01  0.45402732773E+01  0.51100000000E-03 0. -1.
        -11    1    3    3    0    0  0.94470791611E+01 -0.68842977625E+01 -0.75589197378E+01  0.13920421266E+02  0.51100000000E-03 0.  1.
         12    1    3    3    0    0 -0.10507462340E+02  0.31228638036E+00 -0.30296263683E+02  0.32068175514E+02  0.00000000000E+00 0. -1.
</event>
<event>
 7    1  0.5601662E-013  0.5052885E+02  0.7816164E-02  0.1300439E+00
        -11   -1    0    0    0    0  0.00000000000E+00  0.00000000000E+00  0.45593999997E+02  0.45594000000E+02  0.51100000000E-03 0. -1.
         11   -1    0    0    0    0 -0.00000000000E+00 -0.00000000000E+00 -0.45593999997E+02  0.45594000000E+02  0.51100000000E-03 0.  1.
    9900012    2    1    2    0    0 -0.39634544820E+02 -0.20957622847E+01 -0.88247902251E+01  0.50528852380E+02  0.29999977295E+02 0.  0.
        -12    1    1    2    0    0  0.39634544820E+02  0.20957622847E+01  0.88247902251E+01  0.40659147620E+02  0.00000000000E+00 0.  1.
         11    1    3    3    0    0 -0.20663333501E+02  0.21561125776E+01 -0.42894192412E+01  0.21213705252E+02  0.51100000000E-03 0. -1.
        -11    1    3    3    0    0 -0.13966150512E+02  0.34999458808E+01  0.57443249409E+01  0.15501620901E+02  0.51100000000E-03 0.  1.
        -12    1    3    3    0    0 -0.50050608076E+01 -0.77518207430E+01 -0.10279695925E+02  0.13813526227E+02  0.00000000000E+00 0.  1.
</event>
<event>
 7    1  0.5601662E-013  0.5052886E+02  0.7816164E-02  0.1300439E+00
        -11   -1    0    0    0    0  0.00000000000E+00  0.00000000000E+00  0.45593999997E+02  0.45594000000E+02  0.51100000000E-03 0.  1.
         11   -1    0    0    0    0 -0.00000000000E+00 -0.00000000000E+00 -0.45593999997E+02  0.45594000000E+02  0.51100000000E-03 0. -1.
    9900012    2    1    2    0    0  0.17648110298E+02  0.19083656159E+02 -0.31265375614E+02  0.50528862752E+02  0.30000008820E+02 0.  0.
        -12    1    1    2    0    0 -0.17648110298E+02 -0.19083656159E+02  0.31265375614E+02  0.40659137248E+02  0.00000000000E+00 0.  1.
         11    1    3    3    0    0  0.62941806840E+01  0.72251543452E+01 -0.10781626319E+02  0.14424390183E+02  0.51100000000E-03 0. -1.
        -11    1    3    3    0    0  0.17070706725E+02  0.15218213062E+02 -0.17673947104E+02  0.28902793004E+02  0.51100000000E-03 0.  1.
        -12    1    3    3    0    0 -0.57167771116E+01 -0.33597112478E+01 -0.28098021907E+01  0.72016795654E+01  0.00000000000E+00 0.  1.
</event>
<event>
 7    1  0.5601662E-013  0.5052886E+02  0.7816164E-02  0.1300439E+00
        -11   -1    0    0    0    0  0.00000000000E+00  0.00000000000E+00  0.45593999997E+02  0.45594000000E+02  0.51100000000E-03 0.  1.
         11   -1    0    0    0    0 -0.00000000000E+00 -0.00000000000E+00 -0.45593999997E+02  0.45594000000E+02  0.51100000000E-03 0. -1.
    9900012    2    1    2    0    0  0.38608351944E+02  0.69849845137E+01 -0.10666349636E+02  0.50528857571E+02  0.29999993073E+02 0.  0.
        -12    1    1    2    0    0 -0.38608351944E+02 -0.69849845137E+01  0.10666349636E+02  0.40659142429E+02  0.00000000000E+00 0.  1.
         11    1    3    3    0    0  0.51320866545E+01  0.55917536273E+01  0.15286630609E+01  0.77422757037E+01  0.51100000000E-03 0. -1.
        -11    1    3    3    0    0  0.59550916063E+01  0.67040753162E+01  0.46338789198E+01  0.10093590837E+02  0.51100000000E-03 0.  1.
         12    1    3    3    0    0  0.27521173683E+02 -0.53108444298E+01 -0.16828891617E+02  0.32692991030E+02  0.00000000000E+00 0. -1.
</event>
<event>
 7    1  0.5601662E-013  0.5052887E+02  0.7816164E-02  0.1300439E+00
        -11   -1    0    0    0    0  0.00000000000E+00  0.00000000000E+00  0.45593999997E+02  0.45594000000E+02  0.51100000000E-03 0.  1.
         11   -1    0    0    0    0 -0.00000000000E+00 -0.00000000000E+00 -0.45593999997E+02  0.45594000000E+02  0.51100000000E-03 0. -1.
    9900012    2    1    2    0    0 -0.41601200570E+01 -0.32047057335E+02 -0.24674771173E+02  0.50528870457E+02  0.30000032242E+02 0.  0.
        -12    1    1    2    0    0  0.41601200570E+01  0.32047057335E+02  0.24674771173E+02  0.40659129543E+02  0.00000000000E+00 0.  1.
         11    1    3    3    0    0 -0.40705698756E+01 -0.12378536282E+02 -0.14537761832E+02  0.19522915226E+02  0.51100000000E-03 0. -1.
        -11    1    3    3    0    0  0.75834969837E+01 -0.72330875122E+00 -0.69634862155E+01  0.10320985543E+02  0.51100000000E-03 0.  1.
         12    1    3    3    0    0 -0.76730471652E+01 -0.18945212302E+02 -0.31735231262E+01  0.20684969688E+02  0.00000000000E+00 0. -1.
</event>
<event>
 7    1  0.5601662E-013  0.5052886E+02  0.7816164E-02  0.1300439E+00
        -11   -1    0    0    0    0  0.00000000000E+00  0.00000000000E+00  0.45593999997E+02  0.45594000000E+02  0.51100000000E-03 0.  1.
         11   -1    0    0    0    0 -0.00000000000E+00 -0.00000000000E+00 -0.45593999997E+02  0.45594000000E+02  0.51100000000E-03 0. -1.
    9900012    2    1    2    0    0  0.23346977790E+01 -0.36688098101E+02  0.17369471378E+02  0.50528857215E+02  0.29999991992E+02 0.  0.
        -12    1    1    2    0    0 -0.23346977790E+01  0.36688098101E+02 -0.17369471378E+02  0.40659142785E+02  0.00000000000E+00 0.  1.
         11    1    3    3    0    0  0.87676586475E+01 -0.96541102686E+01  0.59866847325E+01  0.14349706533E+02  0.51100000000E-03 0.  1.
        -11    1    3    3    0    0 -0.48968780828E+01 -0.29498836939E+02  0.13270848876E+02  0.32715076430E+02  0.51100000000E-03 0. -1.
         12    1    3    3    0    0 -0.15360827857E+01  0.24648491058E+01 -0.18880622300E+01  0.34640742520E+01  0.00000000000E+00 0. -1.
</event>
<event>
 7    1  0.5601662E-013  0.5052885E+02  0.7816164E-02  0.1300439E+00
        -11   -1    0    0    0    0  0.00000000000E+00  0.00000000000E+00  0.45593999997E+02  0.45594000000E+02  0.51100000000E-03 0.  1.
         11   -1    0    0    0    0 -0.00000000000E+00 -0.00000000000E+00 -0.45593999997E+02  0.45594000000E+02  0.51100000000E-03 0. -1.
    9900012    2    1    2    0    0  0.38308724788E+02 -0.22931997205E+01 -0.13429419012E+02  0.50528850294E+02  0.29999970953E+02 0.  0.
        -12    1    1    2    0    0 -0.38308724788E+02  0.22931997205E+01  0.13429419012E+02  0.40659149706E+02  0.00000000000E+00 0.  1.
         11    1    3    3    0    0  0.16489032581E+02 -0.10294215523E+02 -0.26586167293E+01  0.19619564518E+02  0.51100000000E-03 0. -1.
        -11    1    3    3    0    0  0.34151735755E+01 -0.51150789187E+01 -0.39215233090E+01  0.72942297893E+01  0.51100000000E-03 0.  1.
        -12    1    3    3    0    0  0.18404518631E+02  0.13116094721E+02 -0.68492789742E+01  0.23615055987E+02  0.00000000000E+00 0.  1.
</event>
<event>
 7    1  0.5601662E-013  0.5052886E+02  0.7816164E-02  0.1300439E+00
        -11   -1    0    0    0    0  0.00000000000E+00  0.00000000000E+00  0.45593999997E+02  0.45594000000E+02  0.51100000000E-03 0. -1.
         11   -1    0    0    0    0 -0.00000000000E+00 -0.00000000000E+00 -0.45593999997E+02  0.45594000000E+02  0.51100000000E-03 0.  1.
    9900012    2    1    2    0    0  0.98193725513E+01 -0.53993388700E+01  0.39084427680E+02  0.50528862963E+02  0.30000009461E+02 0.  0.
        -12    1    1    2    0    0 -0.98193725513E+01  0.53993388700E+01 -0.39084427680E+02  0.40659137037E+02  0.00000000000E+00 0.  1.
         11    1    3    3    0    0  0.41875020548E+01 -0.53948209275E+01 -0.77380159335E+00  0.68729931955E+01  0.51100000000E-03 0. -1.
        -11    1    3    3    0    0 -0.24369570491E+01 -0.43633151210E+01  0.33578280962E+01  0.60209873184E+01  0.51100000000E-03 0.  1.
         12    1    3    3    0    0  0.80688275456E+01  0.43587971785E+01  0.36500401177E+02  0.37634882449E+02  0.00000000000E+00 0. -1.
</event>
<event>
 7    1  0.5601662E-013  0.5052883E+02  0.7816164E-02  0.1300439E+00
        -11   -1    0    0    0    0  0.00000000000E+00  0.00000000000E+00  0.45593999997E+02  0.45594000000E+02  0.51100000000E-03 0. -1.
         11   -1    0    0    0    0 -0.00000000000E+00 -0.00000000000E+00 -0.45593999997E+02  0.45594000000E+02  0.51100000000E-03 0.  1.
    9900012    2    1    2    0    0 -0.34148665401E+02 -0.12498744072E+02  0.18188400030E+02  0.50528833165E+02  0.29999918888E+02 0.  0.
        -12    1    1    2    0    0  0.34148665401E+02  0.12498744072E+02 -0.18188400030E+02  0.40659166835E+02  0.00000000000E+00 0.  1.
         11    1    3    3    0    0 -0.84501039001E+01 -0.32774218496E+01  0.88104507106E+01  0.12640007590E+02  0.51100000000E-03 0. -1.
        -11    1    3    3    0    0 -0.34948315474E+01 -0.54618544283E+01  0.13517028394E+02  0.14991856396E+02  0.51100000000E-03 0.  1.
        -12    1    3    3    0    0 -0.22203729954E+02 -0.37594677944E+01 -0.41390790745E+01  0.22896969178E+02  0.00000000000E+00 0.  1.
</event>
<event>
 7    1  0.5601662E-013  0.5052886E+02  0.7816164E-02  0.1300439E+00
        -11   -1    0    0    0    0  0.00000000000E+00  0.00000000000E+00  0.45593999997E+02  0.45594000000E+02  0.51100000000E-03 0.  1.
         11   -1    0    0    0    0 -0.00000000000E+00 -0.00000000000E+00 -0.45593999997E+02  0.45594000000E+02  0.51100000000E-03 0. -1.
    9900012    2    1    2    0    0 -0.12889693464E+02  0.23688072515E+02 -0.30428545724E+02  0.50528863610E+02  0.30000011430E+02 0.  0.
        -12    1    1    2    0    0  0.12889693464E+02 -0.23688072515E+02  0.30428545724E+02  0.40659136390E+02  0.00000000000E+00 0.  1.
         11    1    3    3    0    0 -0.16973705128E+01  0.11672022702E+02 -0.93696542302E+01  0.15063452502E+02  0.51100000000E-03 0. -1.
        -11    1    3    3    0    0 -0.27491737596E+01  0.93394536185E+01 -0.24186320730E+02  0.26072235442E+02  0.51100000000E-03 0.  1.
        -12    1    3    3    0    0 -0.84431491921E+01  0.26765961946E+01  0.31274292365E+01  0.93931756663E+01  0.00000000000E+00 0.  1.
</event>
<event>
 7    1  0.5601662E-013  0.5052885E+02  0.7816164E-02  0.1300439E+00
        -11   -1    0    0    0    0  0.00000000000E+00  0.00000000000E+00  0.45593999997E+02  0.45594000000E+02  0.51100000000E-03 0. -1.
         11   -1    0    0    0    0 -0.00000000000E+00 -0.00000000000E+00 -0.45593999997E+02  0.45594000000E+02  0.51100000000E-03 0.  1.
    9900012    2    1    2    0    0 -0.36884841198E+02  0.84767975511E+01  0.14859963051E+02  0.50528854549E+02  0.29999983886E+02 0.  0.
        -12    1    1    2    0    0  0.36884841198E+02 -0.84767975511E+01 -0.14859963051E+02  0.40659145451E+02  0.00000000000E+00 0.  1.
         11    1    3    3    0    0 -0.15227199892E+02  0.10755001701E+02  0.10659808398E+02  0.21474850255E+02  0.51100000000E-03 0. -1.
        -11    1    3    3    0    0 -0.22403311683E+02  0.33364774814E+01  0.12923988963E+01  0.22687237635E+02  0.51100000000E-03 0.  1.
         12    1    3    3    0    0  0.74567037663E+00 -0.56146816318E+01  0.29077557568E+01  0.63667666581E+01  0.00000000000E+00 0. -1.
</event>
<event>
 7    1  0.5601662E-013  0.5052886E+02  0.7816164E-02  0.1300439E+00
        -11   -1    0    0    0    0  0.00000000000E+00  0.00000000000E+00  0.45593999997E+02  0.45594000000E+02  0.51100000000E-03 0.  1.
         11   -1    0    0    0    0 -0.00000000000E+00 -0.00000000000E+00 -0.45593999997E+02  0.45594000000E+02  0.51100000000E-03 0. -1.
    9900012    2    1    2    0    0  0.25118639912E+02 -0.23999441127E+02 -0.21124547611E+02  0.50528858872E+02  0.29999997029E+02 0.  0.
        -12    1    1    2    0    0 -0.25118639912E+02  0.23999441127E+02  0.21124547611E+02  0.40659141128E+02  0.00000000000E+00 0.  1.
         11    1    3    3    0    0  0.42460599025E+01  0.12555106695E+01 -0.85263951627E+01  0.96075359207E+01  0.51100000000E-03 0. -1.
        -11    1    3    3    0    0 -0.15988772313E+01 -0.72898674813E+01 -0.93578566769E+01  0.11969463570E+02  0.51100000000E-03 0.  1.
         12    1    3    3    0    0  0.22471457241E+02 -0.17965084316E+02 -0.32402957713E+01  0.28951859382E+02  0.00000000000E+00 0. -1.
</event>
<event>
 7    1  0.5601662E-013  0.5052886E+02  0.7816164E-02  0.1300439E+00
        -11   -1    0    0    0    0  0.00000000000E+00  0.00000000000E+00  0.45593999997E+02  0.45594000000E+02  0.51100000000E-03 0.  1.
         11   -1    0    0    0    0 -0.00000000000E+00 -0.00000000000E+00 -0.45593999997E+02  0.45594000000E+02  0.51100000000E-03 0. -1.
    9900012    2    1    2    0    0 -0.21435084223E+02  0.30060646603E+02 -0.17031164155E+02  0.50528857580E+02  0.29999993101E+02 0.  0.
        -12    1    1    2    0    0  0.21435084223E+02 -0.30060646603E+02  0.17031164155E+02  0.40659142420E+02  0.00000000000E+00 0.  1.
         11    1    3    3    0    0 -0.26066951940E+00  0.24121078715E+02 -0.11262799106E+02  0.26622265699E+02  0.51100000000E-03 0. -1.
        -11    1    3    3    0    0 -0.15516970212E+00 -0.93313413975E+00 -0.80504946081E+00  0.12421440555E+01  0.51100000000E-03 0.  1.
         12    1    3    3    0    0 -0.21019245002E+02  0.68727020270E+01 -0.49633155886E+01  0.22664447826E+02  0.00000000000E+00 0. -1.
</event>
<event>
 7    1  0.5601662E-013  0.5052886E+02  0.7816164E-02  0.1300439E+00
        -11   -1    0    0    0    0  0.00000000000E+00  0.00000000000E+00  0.45593999997E+02  0.45594000000E+02  0.51100000000E-03 0.  1.
         11   -1    0    0    0    0 -0.00000000000E+00 -0.00000000000E+00 -0.45593999997E+02  0.45594000000E+02  0.51100000000E-03 0. -1.
    9900012    2    1    2    0    0 -0.34496039545E+02 -0.47080498778E+01 -0.21000548041E+02  0.50528862085E+02  0.30000006794E+02 0.  0.
        -12    1    1    2    0    0  0.34496039545E+02  0.47080498778E+01  0.21000548041E+02  0.40659137915E+02  0.00000000000E+00 0.  1.
         11    1    3    3    0    0 -0.24351596739E+02  0.76521226167E+01 -0.12816192779E+02  0.28562388589E+02  0.51100000000E-03 0. -1.
        -11    1    3    3    0    0 -0.51117228064E+00  0.17849707743E+01 -0.39076248319E+01  0.43263090335E+01  0.51100000000E-03 0.  1.
         12    1    3    3    0    0 -0.96332705253E+01 -0.14145143269E+02 -0.42767304298E+01  0.17640164463E+02  0.00000000000E+00 0. -1.
</event>
<event>
 7    1  0.5601662E-013  0.5052886E+02  0.7816164E-02  0.1300439E+00
        -11   -1    0    0    0    0  0.00000000000E+00  0.00000000000E+00  0.45593999997E+02  0.45594000000E+02  0.51100000000E-03 0.  1.
         11   -1    0    0    0    0 -0.00000000000E+00 -0.00000000000E+00 -0.45593999997E+02  0.45594000000E+02  0.51100000000E-03 0. -1.
    9900012    2    1    2    0    0 -0.22079353108E+02 -0.15890902009E+02 -0.30218320088E+02  0.50528862413E+02  0.30000007791E+02 0.  0.
        -12    1    1    2    0    0  0.22079353108E+02  0.15890902009E+02  0.30218320088E+02  0.40659137587E+02  0.00000000000E+00 0.  1.
         11    1    3    3    0    0 -0.87734067574E+00  0.48260106007E+01  0.39862761351E+00  0.49212812574E+01  0.51100000000E-03 0. -1.
        -11    1    3    3    0    0 -0.11998587968E+02 -0.96640371968E+01 -0.49441744434E+01  0.16180376675E+02  0.51100000000E-03 0.  1.
         12    1    3    3    0    0 -0.92034244650E+01 -0.11052875413E+02 -0.25672773258E+02  0.29427204481E+02  0.00000000000E+00 0. -1.
</event>
<event>
 7    1  0.5601662E-013  0.5052886E+02  0.7816164E-02  0.1300439E+00
        -11   -1    0    0    0    0  0.00000000000E+00  0.00000000000E+00  0.45593999997E+02  0.45594000000E+02  0.51100000000E-03 0. -1.
         11   -1    0    0    0    0 -0.00000000000E+00 -0.00000000000E+00 -0.45593999997E+02  0.45594000000E+02  0.51100000000E-03 0.  1.
    9900012    2    1    2    0    0 -0.31584070643E+02 -0.19683840031E+02  0.16375540633E+02  0.50528863170E+02  0.30000010090E+02 0.  0.
        -12    1    1    2    0    0  0.31584070643E+02  0.19683840031E+02 -0.16375540633E+02  0.40659136830E+02  0.00000000000E+00 0.  1.
         11    1    3    3    0    0 -0.53950247267E+01 -0.14904161889E+01  0.41038716855E+01  0.69404175155E+01  0.51100000000E-03 0. -1.
        -11    1    3    3    0    0 -0.82040302656E+01 -0.47034974351E+01  0.18048719010E+02  0.20376095281E+02  0.51100000000E-03 0.  1.
        -12    1    3    3    0    0 -0.17985015651E+02 -0.13489926407E+02 -0.57770500625E+01  0.23212350373E+02  0.00000000000E+00 0.  1.
</event>
<event>
 7    1  0.5601662E-013  0.5052886E+02  0.7816164E-02  0.1300439E+00
        -11   -1    0    0    0    0  0.00000000000E+00  0.00000000000E+00  0.45593999997E+02  0.45594000000E+02  0.51100000000E-03 0.  1.
         11   -1    0    0    0    0 -0.00000000000E+00 -0.00000000000E+00 -0.45593999997E+02  0.45594000000E+02  0.51100000000E-03 0. -1.
    9900012    2    1    2    0    0 -0.36343398280E+02 -0.17706585269E+02  0.43359198296E+01  0.50528856364E+02  0.29999989403E+02 0.  0.
        -12    1    1    2    0    0  0.36343398280E+02  0.17706585269E+02 -0.43359198296E+01  0.40659143636E+02  0.00000000000E+00 0.  1.
         11    1    3    3    0    0 -0.55525184485E+01  0.31541810636E+01  0.45967618372E+01  0.78682614949E+01  0.51100000000E-03 0. -1.
        -11    1    3    3    0    0 -0.21206595146E+02 -0.67400484679E+01  0.80694402170E+01  0.23669892199E+02  0.51100000000E-03 0.  1.
         12    1    3    3    0    0 -0.95842846864E+01 -0.14120717865E+02 -0.83302822246E+01  0.18990702670E+02  0.00000000000E+00 0. -1.
</event>
<event>
 7    1  0.5601662E-013  0.5052886E+02  0.7816164E-02  0.1300439E+00
        -11   -1    0    0    0    0  0.00000000000E+00  0.00000000000E+00  0.45593999997E+02  0.45594000000E+02  0.51100000000E-03 0. -1.
         11   -1    0    0    0    0 -0.00000000000E+00 -0.00000000000E+00 -0.45593999997E+02  0.45594000000E+02  0.51100000000E-03 0.  1.
    9900012    2    1    2    0    0  0.39964441853E+02  0.36572416382E+01  0.65294643166E+01  0.50528856707E+02  0.29999990447E+02 0.  0.
        -12    1    1    2    0    0 -0.39964441853E+02 -0.36572416382E+01 -0.65294643166E+01  0.40659143293E+02  0.00000000000E+00 0.  1.
         11    1    3    3    0    0  0.33717723753E+02  0.82739407669E+01 -0.12303045577E+01  0.34739842263E+02  0.51100000000E-03 0. -1.
        -11    1    3    3    0    0  0.51394722914E+01 -0.46766190828E+01 -0.94606706453E+00  0.70128442611E+01  0.51100000000E-03 0.  1.
         12    1    3    3    0    0  0.11072458085E+01  0.59919954008E-01  0.87058359389E+01  0.87761701827E+01  0.00000000000E+00 0. -1.
</event>
<event>
 7    1  0.5601662E-013  0.5052885E+02  0.7816164E-02  0.1300439E+00
        -11   -1    0    0    0    0  0.00000000000E+00  0.00000000000E+00  0.45593999997E+02  0.45594000000E+02  0.51100000000E-03 0.  1.
         11   -1    0    0    0    0 -0.00000000000E+00 -0.00000000000E+00 -0.45593999997E+02  0.45594000000E+02  0.51100000000E-03 0. -1.
    9900012    2    1    2    0    0 -0.35511877842E+02 -0.17508537004E+01 -0.19723270784E+02  0.50528851375E+02  0.29999974238E+02 0.  0.
        -12    1    1    2    0    0  0.35511877842E+02  0.17508537004E+01  0.19723270784E+02  0.40659148625E+02  0.00000000000E+00 0.  1.
         11    1    3    3    0    0 -0.28313408869E+02 -0.98835429766E+01 -0.18878412627E+02  0.35436252725E+02  0.51100000000E-03 0. -1.
        -11    1    3    3    0    0 -0.97353313152E+01  0.52918799365E+01  0.39363929605E+00  0.11087633708E+02  0.51100000000E-03 0.  1.
        -12    1    3    3    0    0  0.25368623425E+01  0.28408093397E+01 -0.12384974525E+01  0.40049649423E+01  0.00000000000E+00 0.  1.
</event>
<event>
 7    1  0.5601662E-013  0.5052889E+02  0.7816164E-02  0.1300439E+00
        -11   -1    0    0    0    0  0.00000000000E+00  0.00000000000E+00  0.45593999997E+02  0.45594000000E+02  0.51100000000E-03 0.  1.
         11   -1    0    0    0    0 -0.00000000000E+00 -0.00000000000E+00 -0.45593999997E+02  0.45594000000E+02  0.51100000000E-03 0. -1.
    9900012    2    1    2    0    0 -0.10972266318E+02  0.37844977533E+02 -0.10026489263E+02  0.50528887374E+02  0.30000083662E+02 0.  0.
        -12    1    1    2    0    0  0.10972266318E+02 -0.37844977533E+02  0.10026489263E+02  0.40659112626E+02  0.00000000000E+00 0.  1.
         11    1    3    3    0    0 -0.14597950610E+02  0.14459851112E+02 -0.14105385607E+01  0.20595559606E+02  0.51100000000E-03 0. -1.
        -11    1    3    3    0    0 -0.36778223007E+01  0.67589191385E+00  0.14911016739E+01  0.40257410768E+01  0.51100000000E-03 0.  1.
        -12    1    3    3    0    0  0.73035065927E+01  0.22709234507E+02 -0.10107052376E+02  0.25907586692E+02  0.00000000000E+00 0.  1.
</event>
<event>
 7    1  0.5601662E-013  0.5052886E+02  0.7816164E-02  0.1300439E+00
        -11   -1    0    0    0    0  0.00000000000E+00  0.00000000000E+00  0.45593999997E+02  0.45594000000E+02  0.51100000000E-03 0.  1.
         11   -1    0    0    0    0 -0.00000000000E+00 -0.00000000000E+00 -0.45593999997E+02  0.45594000000E+02  0.51100000000E-03 0. -1.
    9900012    2    1    2    0    0 -0.23147833781E+02  0.22721339426E+02 -0.24517022730E+02  0.50528857392E+02  0.29999992529E+02 0.  0.
        -12    1    1    2    0    0  0.23147833781E+02 -0.22721339426E+02  0.24517022730E+02  0.40659142608E+02  0.00000000000E+00 0.  1.
         11    1    3    3    0    0 -0.18683970618E+01 -0.67017037108E+00 -0.76222511283E+01  0.78764680175E+01  0.51100000000E-03 0. -1.
        -11    1    3    3    0    0  0.46440048281E+01  0.21942555798E+01 -0.48535769076E+01  0.70667352754E+01  0.51100000000E-03 0.  1.
        -12    1    3    3    0    0 -0.25923441547E+02  0.21197254217E+02 -0.12041194694E+02  0.35585654099E+02  0.00000000000E+00 0.  1.
</event>
<event>
 7    1  0.5601662E-013  0.5052885E+02  0.7816164E-02  0.1300439E+00
        -11   -1    0    0    0    0  0.00000000000E+00  0.00000000000E+00  0.45593999997E+02  0.45594000000E+02  0.51100000000E-03 0. -1.
         11   -1    0    0    0    0 -0.00000000000E+00 -0.00000000000E+00 -0.45593999997E+02  0.45594000000E+02  0.51100000000E-03 0.  1.
    9900012    2    1    2    0    0  0.16680935402E+02  0.25100390631E+02  0.27292548944E+02  0.50528850432E+02  0.29999971374E+02 0.  0.
        -12    1    1    2    0    0 -0.16680935402E+02 -0.25100390631E+02 -0.27292548944E+02  0.40659149568E+02  0.00000000000E+00 0.  1.
         11    1    3    3    0    0  0.68214929051E+01 -0.10697508675E+01  0.86898511743E+01  0.11099128167E+02  0.51100000000E-03 0.  1.
        -11    1    3    3    0    0  0.80219697513E+01  0.76822859889E+01  0.17615117970E+02  0.20824550369E+02  0.51100000000E-03 0. -1.
         12    1    3    3    0    0  0.18374727454E+01  0.18487855510E+02  0.98757979946E+00  0.18605171897E+02  0.00000000000E+00 0. -1.
</event>
<event>
 7    1  0.5601662E-013  0.5052886E+02  0.7816164E-02  0.1300439E+00
        -11   -1    0    0    0    0  0.00000000000E+00  0.00000000000E+00  0.45593999997E+02  0.45594000000E+02  0.51100000000E-03 0. -1.
         11   -1    0    0    0    0 -0.00000000000E+00 -0.00000000000E+00 -0.45593999997E+02  0.45594000000E+02  0.51100000000E-03 0.  1.
    9900012    2    1    2    0    0 -0.36491923896E+02 -0.12781038917E+02 -0.12575766368E+02  0.50528863693E+02  0.30000011682E+02 0.  0.
        -12    1    1    2    0    0  0.36491923896E+02  0.12781038917E+02  0.12575766368E+02  0.40659136307E+02  0.00000000000E+00 0.  1.
         11    1    3    3    0    0 -0.91178917713E+01 -0.16225756291E+02 -0.22466251247E+00  0.18613478747E+02  0.51100000000E-03 0. -1.
        -11    1    3    3    0    0 -0.16166659474E+02 -0.29291717360E+01 -0.55740489978E+01  0.17349667089E+02  0.51100000000E-03 0.  1.
        -12    1    3    3    0    0 -0.11207372651E+02  0.63738891107E+01 -0.67770548581E+01  0.14565717857E+02  0.00000000000E+00 0.  1.
</event>
<event>
 7    1  0.5601662E-013  0.5052886E+02  0.7816164E-02  0.1300439E+00
        -11   -1    0    0    0    0  0.00000000000E+00  0.00000000000E+00  0.45593999997E+02  0.45594000000E+02  0.51100000000E-03 0. -1.
         11   -1    0    0    0    0 -0.00000000000E+00 -0.00000000000E+00 -0.45593999997E+02  0.45594000000E+02  0.51100000000E-03 0.  1.
    9900012    2    1    2    0    0 -0.12892189083E+02  0.32564069021E+01  0.38423338758E+02  0.50528859741E+02  0.29999999670E+02 0.  0.
        -12    1    1    2    0    0  0.12892189083E+02 -0.32564069021E+01 -0.38423338758E+02  0.40659140259E+02  0.00000000000E+00 0.  1.
         11    1    3    3    0    0 -0.19906995694E+00  0.69218544662E+01  0.62522116044E+01  0.93296220881E+01  0.51100000000E-03 0. -1.
        -11    1    3    3    0    0 -0.59596897936E+01  0.69919082502E+01  0.25136959017E+02  0.26763247043E+02  0.51100000000E-03 0.  1.
        -12    1    3    3    0    0 -0.67334293325E+01 -0.10657355814E+02  0.70341681367E+01  0.14435990610E+02  0.00000000000E+00 0.  1.
</event>
<event>
 7    1  0.5601662E-013  0.5052886E+02  0.7816164E-02  0.1300439E+00
        -11   -1    0    0    0    0  0.00000000000E+00  0.00000000000E+00  0.45593999997E+02  0.45594000000E+02  0.51100000000E-03 0. -1.
         11   -1    0    0    0    0 -0.00000000000E+00 -0.00000000000E+00 -0.45593999997E+02  0.45594000000E+02  0.51100000000E-03 0.  1.
    9900012    2    1    2    0    0  0.13199485654E+02 -0.29854226558E+02 -0.24241789831E+02  0.50528860325E+02  0.30000001443E+02 0.  0.
        -12    1    1    2    0    0 -0.13199485654E+02  0.29854226558E+02  0.24241789831E+02  0.40659139675E+02  0.00000000000E+00 0.  1.
         11    1    3    3    0    0  0.23206020221E+01 -0.27853214767E+00 -0.60160370456E+01  0.64541053522E+01  0.51100000000E-03 0. -1.
        -11    1    3    3    0    0  0.84216285319E+01  0.11510545468E+01 -0.77946567648E+01  0.11532797928E+02  0.51100000000E-03 0.  1.
         12    1    3    3    0    0  0.24572551002E+01 -0.30726748957E+02 -0.10431096020E+02  0.32541957045E+02  0.00000000000E+00 0. -1.
</event>
<event>
 7    1  0.5601662E-013  0.5052886E+02  0.7816164E-02  0.1300439E+00
        -11   -1    0    0    0    0  0.00000000000E+00  0.00000000000E+00  0.45593999997E+02  0.45594000000E+02  0.51100000000E-03 0.  1.
         11   -1    0    0    0    0 -0.00000000000E+00 -0.00000000000E+00 -0.45593999997E+02  0.45594000000E+02  0.51100000000E-03 0. -1.
    9900012    2    1    2    0    0  0.98907324515E+00 -0.30330302904E+02 -0.27060302938E+02  0.50528861602E+02  0.30000005327E+02 0.  0.
        -12    1    1    2    0    0 -0.98907324515E+00  0.30330302904E+02  0.27060302938E+02  0.40659138398E+02  0.00000000000E+00 0.  1.
         11    1    3    3    0    0 -0.56309516410E+01 -0.27138366804E+01 -0.81238172783E+01  0.10250313817E+02  0.51100000000E-03 0. -1.
        -11    1    3    3    0    0 -0.58746147225E+01 -0.11508964077E+01 -0.13577581870E+01  0.61383359499E+01  0.51100000000E-03 0.  1.
         12    1    3    3    0    0  0.12494639609E+02 -0.26465569816E+02 -0.17578727473E+02  0.34140211836E+02  0.00000000000E+00 0. -1.
</event>
<event>
 7    1  0.5601662E-013  0.5052887E+02  0.7816164E-02  0.1300439E+00
        -11   -1    0    0    0    0  0.00000000000E+00  0.00000000000E+00  0.45593999997E+02  0.45594000000E+02  0.51100000000E-03 0.  1.
         11   -1    0    0    0    0 -0.00000000000E+00 -0.00000000000E+00 -0.45593999997E+02  0.45594000000E+02  0.51100000000E-03 0. -1.
    9900012    2    1    2    0    0 -0.52696659950E+01 -0.13228682746E+02 -0.38084082746E+02  0.50528870822E+02  0.30000033351E+02 0.  0.
        -12    1    1    2    0    0  0.52696659950E+01  0.13228682746E+02  0.38084082746E+02  0.40659129178E+02  0.00000000000E+00 0.  1.
         11    1    3    3    0    0  0.20685170417E+01 -0.30327857095E+01 -0.22179119347E+02  0.22480878256E+02  0.51100000000E-03 0. -1.
        -11    1    3    3    0    0  0.63015128138E+01 -0.45980134993E+01 -0.85422359219E+01  0.11568084832E+02  0.51100000000E-03 0.  1.
        -12    1    3    3    0    0 -0.13639695851E+02 -0.55978835369E+01 -0.73627274774E+01  0.16479907733E+02  0.00000000000E+00 0.  1.
</event>
<event>
 7    1  0.5601662E-013  0.5052887E+02  0.7816164E-02  0.1300439E+00
        -11   -1    0    0    0    0  0.00000000000E+00  0.00000000000E+00  0.45593999997E+02  0.45594000000E+02  0.51100000000E-03 0.  1.
         11   -1    0    0    0    0 -0.00000000000E+00 -0.00000000000E+00 -0.45593999997E+02  0.45594000000E+02  0.51100000000E-03 0. -1.
    9900012    2    1    2    0    0  0.28860971566E+02 -0.37847308055E+01 -0.28388108827E+02  0.50528873229E+02  0.30000040668E+02 0.  0.
        -12    1    1    2    0    0 -0.28860971566E+02  0.37847308055E+01  0.28388108827E+02  0.40659126771E+02  0.00000000000E+00 0.  1.
         11    1    3    3    0    0  0.11352884579E+01  0.19781032090E+01  0.10239653182E+01  0.25000554838E+01  0.51100000000E-03 0. -1.
        -11    1    3    3    0    0  0.23382204372E+01  0.44728421288E+01 -0.17433541232E+02  0.18149433921E+02  0.51100000000E-03 0.  1.
         12    1    3    3    0    0  0.25387462671E+02 -0.10235676143E+02 -0.11978532913E+02  0.29879383824E+02  0.00000000000E+00 0. -1.
</event>
<event>
 7    1  0.5601662E-013  0.5052887E+02  0.7816164E-02  0.1300439E+00
        -11   -1    0    0    0    0  0.00000000000E+00  0.00000000000E+00  0.45593999997E+02  0.45594000000E+02  0.51100000000E-03 0. -1.
         11   -1    0    0    0    0 -0.00000000000E+00 -0.00000000000E+00 -0.45593999997E+02  0.45594000000E+02  0.51100000000E-03 0.  1.
    9900012    2    1    2    0    0 -0.39921016851E+02 -0.72180338126E+01  0.27161794639E+01  0.50528865363E+02  0.30000016758E+02 0.  0.
        -12    1    1    2    0    0  0.39921016851E+02  0.72180338126E+01 -0.27161794639E+01  0.40659134637E+02  0.00000000000E+00 0.  1.
         11    1    3    3    0    0  0.13417628302E+01 -0.58114613546E+00  0.10624641093E+01  0.18074536143E+01  0.51100000000E-03 0. -1.
        -11    1    3    3    0    0 -0.13918420890E+01 -0.93312667110E+00  0.78002931522E+01  0.79782531488E+01  0.51100000000E-03 0.  1.
         12    1    3    3    0    0 -0.39870937592E+02 -0.57037610061E+01 -0.61465777976E+01  0.40743158600E+02  0.00000000000E+00 0. -1.
</event>
<event>
 7    1  0.5601662E-013  0.5052886E+02  0.7816164E-02  0.1300439E+00
        -11   -1    0    0    0    0  0.00000000000E+00  0.00000000000E+00  0.45593999997E+02  0.45594000000E+02  0.51100000000E-03 0.  1.
         11   -1    0    0    0    0 -0.00000000000E+00 -0.00000000000E+00 -0.45593999997E+02  0.45594000000E+02  0.51100000000E-03 0. -1.
    9900012    2    1    2    0    0  0.26646272970E+02 -0.11444684032E+02 -0.28498434607E+02  0.50528862886E+02  0.30000009228E+02 0.  0.
        -12    1    1    2    0    0 -0.26646272970E+02  0.11444684032E+02  0.28498434607E+02  0.40659137114E+02  0.00000000000E+00 0.  1.
         11    1    3    3    0    0 -0.28811308885E+01 -0.44572174582E+01 -0.96147139445E+01  0.10982277868E+02  0.51100000000E-03 0. -1.
        -11    1    3    3    0    0  0.74863106848E+01 -0.38088646702E+01  0.24067387131E+01  0.87375448061E+01  0.51100000000E-03 0.  1.
         12    1    3    3    0    0  0.22041093174E+02 -0.31786019040E+01 -0.21290459376E+02  0.30809040212E+02  0.00000000000E+00 0. -1.
</event>
<event>
 7    1  0.5601662E-013  0.5052886E+02  0.7816164E-02  0.1300439E+00
        -11   -1    0    0    0    0  0.00000000000E+00  0.00000000000E+00  0.45593999997E+02  0.45594000000E+02  0.51100000000E-03 0.  1.
         11   -1    0    0    0    0 -0.00000000000E+00 -0.00000000000E+00 -0.45593999997E+02  0.45594000000E+02  0.51100000000E-03 0. -1.
    9900012    2    1    2    0    0  0.35184232059E+01  0.33846622312E+02 -0.22252916275E+02  0.50528862939E+02  0.30000009389E+02 0.  0.
        -12    1    1    2    0    0 -0.35184232059E+01 -0.33846622312E+02  0.22252916275E+02  0.40659137061E+02  0.00000000000E+00 0.  1.
         11    1    3    3    0    0 -0.40443391119E+01  0.18223940788E+01 -0.76121816040E+01  0.88103977245E+01  0.51100000000E-03 0. -1.
        -11    1    3    3    0    0 -0.46888913580E+01  0.57468027485E+00 -0.43786803327E+01  0.64411801172E+01  0.51100000000E-03 0.  1.
         12    1    3    3    0    0  0.12251653676E+02  0.31449547959E+02 -0.10262054338E+02  0.35277285097E+02  0.00000000000E+00 0. -1.
</event>
<event>
 7    1  0.5601662E-013  0.5052886E+02  0.7816164E-02  0.1300439E+00
        -11   -1    0    0    0    0  0.00000000000E+00  0.00000000000E+00  0.45593999997E+02  0.45594000000E+02  0.51100000000E-03 0. -1.
         11   -1    0    0    0    0 -0.00000000000E+00 -0.00000000000E+00 -0.45593999997E+02  0.45594000000E+02  0.51100000000E-03 0.  1.
    9900012    2    1    2    0    0 -0.32128490672E+02 -0.23969628610E+02 -0.68104860821E+01  0.50528859216E+02  0.29999998074E+02 0.  0.
        -12    1    1    2    0    0  0.32128490672E+02  0.23969628610E+02  0.68104860821E+01  0.40659140784E+02  0.00000000000E+00 0.  1.
         11    1    3    3    0    0  0.36902603857E+01  0.60509161243E+00 -0.17289751775E+01  0.41198923529E+01  0.51100000000E-03 0. -1.
        -11    1    3    3    0    0  0.10687159555E+01 -0.26824928756E+01 -0.17694970067E+01  0.33865973689E+01  0.51100000000E-03 0.  1.
         12    1    3    3    0    0 -0.36887467014E+02 -0.21892227347E+02 -0.33120138979E+01  0.43022369495E+02  0.00000000000E+00 0. -1.
</event>
<event>
 7    1  0.5601662E-013  0.5052886E+02  0.7816164E-02  0.1300439E+00
        -11   -1    0    0    0    0  0.00000000000E+00  0.00000000000E+00  0.45593999997E+02  0.45594000000E+02  0.51100000000E-03 0.  1.
         11   -1    0    0    0    0 -0.00000000000E+00 -0.00000000000E+00 -0.45593999997E+02  0.45594000000E+02  0.51100000000E-03 0. -1.
    9900012    2    1    2    0    0  0.19182770384E+02  0.10911835776E+02 -0.34148477916E+02  0.50528863467E+02  0.30000010996E+02 0.  0.
        -12    1    1    2    0    0 -0.19182770384E+02 -0.10911835776E+02  0.34148477916E+02  0.40659136533E+02  0.00000000000E+00 0.  1.
         11    1    3    3    0    0 -0.45273020654E+01 -0.10772605069E+01 -0.13927984253E+01  0.48576580680E+01  0.51100000000E-03 0. -1.
        -11    1    3    3    0    0 -0.16077783072E+01  0.15193325410E+01 -0.94402286676E+01  0.96959393569E+01  0.51100000000E-03 0.  1.
         12    1    3    3    0    0  0.25317850757E+02  0.10469763742E+02 -0.23315450823E+02  0.35975266043E+02  0.00000000000E+00 0. -1.
</event>
<event>
 7    1  0.5601662E-013  0.5052887E+02  0.7816164E-02  0.1300439E+00
        -11   -1    0    0    0    0  0.00000000000E+00  0.00000000000E+00  0.45593999997E+02  0.45594000000E+02  0.51100000000E-03 0. -1.
         11   -1    0    0    0    0 -0.00000000000E+00 -0.00000000000E+00 -0.45593999997E+02  0.45594000000E+02  0.51100000000E-03 0.  1.
    9900012    2    1    2    0    0  0.39900901518E+02  0.15933782632E+01  0.76514077234E+01  0.50528870196E+02  0.30000031447E+02 0.  0.
        -12    1    1    2    0    0 -0.39900901518E+02 -0.15933782632E+01 -0.76514077234E+01  0.40659129804E+02  0.00000000000E+00 0.  1.
         11    1    3    3    0    0  0.12547008094E+02  0.50972456424E+01  0.97695526676E+01  0.16698906696E+02  0.51100000000E-03 0. -1.
        -11    1    3    3    0    0  0.27364434125E+02 -0.72885999290E+01  0.18086274772E+01  0.28376170945E+02  0.51100000000E-03 0.  1.
        -12    1    3    3    0    0 -0.10540700410E-01  0.37847325499E+01 -0.39267724215E+01  0.54537925548E+01  0.00000000000E+00 0.  1.
</event>
<event>
 7    1  0.5601662E-013  0.5052886E+02  0.7816164E-02  0.1300439E+00
        -11   -1    0    0    0    0  0.00000000000E+00  0.00000000000E+00  0.45593999997E+02  0.45594000000E+02  0.51100000000E-03 0. -1.
         11   -1    0    0    0    0 -0.00000000000E+00 -0.00000000000E+00 -0.45593999997E+02  0.45594000000E+02  0.51100000000E-03 0.  1.
    9900012    2    1    2    0    0 -0.41231011409E+01  0.40016982124E+02  0.58997411836E+01  0.50528858748E+02  0.29999996649E+02 0.  0.
        -12    1    1    2    0    0  0.41231011409E+01 -0.40016982124E+02 -0.58997411836E+01  0.40659141252E+02  0.00000000000E+00 0.  1.
         11    1    3    3    0    0 -0.38036927774E+01 -0.76426240277E+00 -0.67031371320E-02  0.38797191855E+01  0.51100000000E-03 0.  1.
        -11    1    3    3    0    0 -0.58120596524E+01  0.33439070188E+01  0.57152225282E+01  0.88105346240E+01  0.51100000000E-03 0. -1.
         12    1    3    3    0    0  0.54926512889E+01  0.37437337508E+02  0.19122179259E+00  0.37838604938E+02  0.00000000000E+00 0. -1.
</event>
<event>
 7    1  0.5601662E-013  0.5052886E+02  0.7816164E-02  0.1300439E+00
        -11   -1    0    0    0    0  0.00000000000E+00  0.00000000000E+00  0.45593999997E+02  0.45594000000E+02  0.51100000000E-03 0.  1.
         11   -1    0    0    0    0 -0.00000000000E+00 -0.00000000000E+00 -0.45593999997E+02  0.45594000000E+02  0.51100000000E-03 0. -1.
    9900012    2    1    2    0    0 -0.24111712108E+02  0.24845891762E+02 -0.21318361253E+02  0.50528861732E+02  0.30000005719E+02 0.  0.
        -12    1    1    2    0    0  0.24111712108E+02 -0.24845891762E+02  0.21318361253E+02  0.40659138268E+02  0.00000000000E+00 0.  1.
         11    1    3    3    0    0 -0.80386661596E+01 -0.28603771111E+01  0.20766306039E+01  0.87814751477E+01  0.51100000000E-03 0. -1.
        -11    1    3    3    0    0 -0.60961992818E+01  0.14184166724E+01 -0.60816364215E+01  0.87270758771E+01  0.51100000000E-03 0.  1.
         12    1    3    3    0    0 -0.99768466665E+01  0.26287852201E+02 -0.17313355435E+02  0.33020310707E+02  0.00000000000E+00 0. -1.
</event>
<event>
 7    1  0.5601662E-013  0.5052886E+02  0.7816164E-02  0.1300439E+00
        -11   -1    0    0    0    0  0.00000000000E+00  0.00000000000E+00  0.45593999997E+02  0.45594000000E+02  0.51100000000E-03 0. -1.
         11   -1    0    0    0    0 -0.00000000000E+00 -0.00000000000E+00 -0.45593999997E+02  0.45594000000E+02  0.51100000000E-03 0.  1.
    9900012    2    1    2    0    0 -0.26874616321E+02  0.14381813157E+02  0.26908810696E+02  0.50528860250E+02  0.30000001217E+02 0.  0.
        -12    1    1    2    0    0  0.26874616321E+02 -0.14381813157E+02 -0.26908810696E+02  0.40659139750E+02  0.00000000000E+00 0.  1.
         11    1    3    3    0    0 -0.52458534603E+01 -0.69134752580E+00  0.18651238598E+01  0.56103143585E+01  0.51100000000E-03 0. -1.
        -11    1    3    3    0    0 -0.58783276470E+01  0.72316083247E+01 -0.46412341329E+01  0.10411145442E+02  0.51100000000E-03 0.  1.
        -12    1    3    3    0    0 -0.15750435214E+02  0.78415523584E+01  0.29684920969E+02  0.34507400449E+02  0.00000000000E+00 0.  1.
</event>
<event>
 7    1  0.5601662E-013  0.5052886E+02  0.7816164E-02  0.1300439E+00
        -11   -1    0    0    0    0  0.00000000000E+00  0.00000000000E+00  0.45593999997E+02  0.45594000000E+02  0.51100000000E-03 0.  1.
         11   -1    0    0    0    0 -0.00000000000E+00 -0.00000000000E+00 -0.45593999997E+02  0.45594000000E+02  0.51100000000E-03 0. -1.
    9900012    2    1    2    0    0  0.32615313750E+02 -0.38294589941E+01 -0.23973781580E+02  0.50528860186E+02  0.30000001021E+02 0.  0.
        -12    1    1    2    0    0 -0.32615313750E+02  0.38294589941E+01  0.23973781580E+02  0.40659139814E+02  0.00000000000E+00 0.  1.
         11    1    3    3    0    0  0.30470672850E+01 -0.12905937498E+00 -0.16233235880E+02  0.16517240167E+02  0.51100000000E-03 0. -1.
        -11    1    3    3    0    0  0.32247143331E+01 -0.39936202743E+01 -0.55741579697E+01  0.75775340816E+01  0.51100000000E-03 0.  1.
         12    1    3    3    0    0  0.26343532132E+02  0.29322065513E+00 -0.21663877305E+01  0.26434085937E+02  0.00000000000E+00 0. -1.
</event>
<event>
 7    1  0.5601662E-013  0.5052883E+02  0.7816164E-02  0.1300439E+00
        -11   -1    0    0    0    0  0.00000000000E+00  0.00000000000E+00  0.45593999997E+02  0.45594000000E+02  0.51100000000E-03 0.  1.
         11   -1    0    0    0    0 -0.00000000000E+00 -0.00000000000E+00 -0.45593999997E+02  0.45594000000E+02  0.51100000000E-03 0. -1.
    9900012    2    1    2    0    0  0.85738704423E+00 -0.13833300423E+02 -0.38223986330E+02  0.50528825831E+02  0.29999896597E+02 0.  0.
        -12    1    1    2    0    0 -0.85738704423E+00  0.13833300423E+02  0.38223986330E+02  0.40659174169E+02  0.00000000000E+00 0.  1.
         11    1    3    3    0    0 -0.80792373577E+01 -0.21386147232E+01 -0.70878156124E+01  0.10958324673E+02  0.51100000000E-03 0. -1.
        -11    1    3    3    0    0  0.42549928437E+01 -0.16114332893E+02 -0.27554892458E+02  0.32203241876E+02  0.51100000000E-03 0.  1.
        -12    1    3    3    0    0  0.46816315583E+01  0.44196471937E+01 -0.35812782593E+01  0.73672592824E+01  0.00000000000E+00 0.  1.
</event>
<event>
 7    1  0.5601662E-013  0.5052886E+02  0.7816164E-02  0.1300439E+00
        -11   -1    0    0    0    0  0.00000000000E+00  0.00000000000E+00  0.45593999997E+02  0.45594000000E+02  0.51100000000E-03 0. -1.
         11   -1    0    0    0    0 -0.00000000000E+00 -0.00000000000E+00 -0.45593999997E+02  0.45594000000E+02  0.51100000000E-03 0.  1.
    9900012    2    1    2    0    0 -0.94809042877E+01 -0.21602870630E+02  0.33114858514E+02  0.50528863020E+02  0.30000009636E+02 0.  0.
        -12    1    1    2    0    0  0.94809042877E+01  0.21602870630E+02 -0.33114858514E+02  0.40659136980E+02  0.00000000000E+00 0.  1.
         11    1    3    3    0    0 -0.53408564386E+01 -0.12900906766E+02  0.28286772042E+02  0.31545199567E+02  0.51100000000E-03 0. -1.
        -11    1    3    3    0    0 -0.17503631019E+01 -0.73213765126E+01  0.10357328263E+02  0.12803928070E+02  0.51100000000E-03 0.  1.
        -12    1    3    3    0    0 -0.23896847473E+01 -0.13805873505E+01 -0.55292417907E+01  0.61797353830E+01  0.00000000000E+00 0.  1.
</event>
<event>
 7    1  0.5601662E-013  0.5052886E+02  0.7816164E-02  0.1300439E+00
        -11   -1    0    0    0    0  0.00000000000E+00  0.00000000000E+00  0.45593999997E+02  0.45594000000E+02  0.51100000000E-03 0. -1.
         11   -1    0    0    0    0 -0.00000000000E+00 -0.00000000000E+00 -0.45593999997E+02  0.45594000000E+02  0.51100000000E-03 0.  1.
    9900012    2    1    2    0    0 -0.21370864933E+02 -0.34389163919E+02 -0.37198874614E+01  0.50528855570E+02  0.29999986991E+02 0.  0.
        -12    1    1    2    0    0  0.21370864933E+02  0.34389163919E+02  0.37198874614E+01  0.40659144430E+02  0.00000000000E+00 0.  1.
         11    1    3    3    0    0 -0.18036850967E+02 -0.29111499083E+02  0.12648184844E+01  0.34269624126E+02  0.51100000000E-03 0. -1.
        -11    1    3    3    0    0  0.22326710566E+01 -0.86140306627E+01 -0.20244937923E+01  0.91260571816E+01  0.51100000000E-03 0.  1.
        -12    1    3    3    0    0 -0.55666850226E+01  0.33363658266E+01 -0.29602121535E+01  0.71331742628E+01  0.00000000000E+00 0.  1.
</event>
<event>
 7    1  0.5601662E-013  0.5052886E+02  0.7816164E-02  0.1300439E+00
        -11   -1    0    0    0    0  0.00000000000E+00  0.00000000000E+00  0.45593999997E+02  0.45594000000E+02  0.51100000000E-03 0.  1.
         11   -1    0    0    0    0 -0.00000000000E+00 -0.00000000000E+00 -0.45593999997E+02  0.45594000000E+02  0.51100000000E-03 0. -1.
    9900012    2    1    2    0    0 -0.33820592334E+02  0.21315316351E+02 -0.74155534890E+01  0.50528860677E+02  0.30000002514E+02 0.  0.
        -12    1    1    2    0    0  0.33820592334E+02 -0.21315316351E+02  0.74155534890E+01  0.40659139323E+02  0.00000000000E+00 0.  1.
         11    1    3    3    0    0 -0.10788606889E+02  0.17035239714E+02 -0.55191287187E+01  0.20905841595E+02  0.51100000000E-03 0. -1.
        -11    1    3    3    0    0 -0.98688614745E+01  0.67222866929E+01 -0.85371146443E+01  0.14678756483E+02  0.51100000000E-03 0.  1.
         12    1    3    3    0    0 -0.13163123970E+02 -0.24422100562E+01  0.66406898740E+01  0.14944262599E+02  0.00000000000E+00 0. -1.
</event>
<event>
 7    1  0.5601662E-013  0.5052886E+02  0.7816164E-02  0.1300439E+00
        -11   -1    0    0    0    0  0.00000000000E+00  0.00000000000E+00  0.45593999997E+02  0.45594000000E+02  0.51100000000E-03 0.  1.
         11   -1    0    0    0    0 -0.00000000000E+00 -0.00000000000E+00 -0.45593999997E+02  0.45594000000E+02  0.51100000000E-03 0. -1.
    9900012    2    1    2    0    0  0.18811235271E+02  0.19879369884E+02 -0.30068484515E+02  0.50528859817E+02  0.29999999900E+02 0.  0.
        -12    1    1    2    0    0 -0.18811235271E+02 -0.19879369884E+02  0.30068484515E+02  0.40659140183E+02  0.00000000000E+00 0.  1.
         11    1    3    3    0    0  0.11133376234E+02  0.40318376311E+01 -0.22503534824E+02  0.25428662192E+02  0.51100000000E-03 0. -1.
        -11    1    3    3    0    0  0.32214836070E+01 -0.34958543357E+00 -0.76424468168E+01  0.83010336835E+01  0.51100000000E-03 0.  1.
         12    1    3    3    0    0  0.44563754299E+01  0.16197117686E+02  0.77497126232E-01  0.16799163941E+02  0.00000000000E+00 0. -1.
</event>
<event>
 7    1  0.5601662E-013  0.5052886E+02  0.7816164E-02  0.1300439E+00
        -11   -1    0    0    0    0  0.00000000000E+00  0.00000000000E+00  0.45593999997E+02  0.45594000000E+02  0.51100000000E-03 0.  1.
         11   -1    0    0    0    0 -0.00000000000E+00 -0.00000000000E+00 -0.45593999997E+02  0.45594000000E+02  0.51100000000E-03 0. -1.
    9900012    2    1    2    0    0 -0.39261710518E+02 -0.62027670549E+01 -0.85562565528E+01  0.50528858861E+02  0.29999996995E+02 0.  0.
        -12    1    1    2    0    0  0.39261710518E+02  0.62027670549E+01  0.85562565528E+01  0.40659141139E+02  0.00000000000E+00 0.  1.
         11    1    3    3    0    0 -0.12483290155E+02 -0.98242270025E+00 -0.14508193923E+02  0.19164690935E+02  0.51100000000E-03 0. -1.
        -11    1    3    3    0    0  0.53005012743E-01 -0.27520316727E+01 -0.18454134700E+01  0.33139159608E+01  0.51100000000E-03 0.  1.
         12    1    3    3    0    0 -0.26831425376E+02 -0.24683126819E+01  0.77973508407E+01  0.28050251965E+02  0.00000000000E+00 0. -1.
</event>
<event>
 7    1  0.5601662E-013  0.5052877E+02  0.7816164E-02  0.1300439E+00
        -11   -1    0    0    0    0  0.00000000000E+00  0.00000000000E+00  0.45593999997E+02  0.45594000000E+02  0.51100000000E-03 0.  1.
         11   -1    0    0    0    0 -0.00000000000E+00 -0.00000000000E+00 -0.45593999997E+02  0.45594000000E+02  0.51100000000E-03 0. -1.
    9900012    2    1    2    0    0 -0.25565016865E+02  0.66944513999E+01 -0.30899634634E+02  0.50528767501E+02  0.29999719295E+02 0.  0.
        -12    1    1    2    0    0  0.25565016865E+02 -0.66944513999E+01  0.30899634634E+02  0.40659232499E+02  0.00000000000E+00 0.  1.
         11    1    3    3    0    0 -0.11617590801E+02  0.81463561849E+01 -0.10921423395E+02  0.17905558476E+02  0.51100000000E-03 0. -1.
        -11    1    3    3    0    0 -0.91736775202E+01  0.95810793113E+01 -0.13667113800E+02  0.19045824737E+02  0.51100000000E-03 0.  1.
        -12    1    3    3    0    0 -0.47737485446E+01 -0.11032984096E+02 -0.63110974394E+01  0.13577384289E+02  0.00000000000E+00 0.  1.
</event>
<event>
 7    1  0.5601662E-013  0.5052888E+02  0.7816164E-02  0.1300439E+00
        -11   -1    0    0    0    0  0.00000000000E+00  0.00000000000E+00  0.45593999997E+02  0.45594000000E+02  0.51100000000E-03 0. -1.
         11   -1    0    0    0    0 -0.00000000000E+00 -0.00000000000E+00 -0.45593999997E+02  0.45594000000E+02  0.51100000000E-03 0.  1.
    9900012    2    1    2    0    0  0.14381920276E+02  0.26315381048E+02  0.27455881545E+02  0.50528876276E+02  0.30000049930E+02 0.  0.
        -12    1    1    2    0    0 -0.14381920276E+02 -0.26315381048E+02 -0.27455881545E+02  0.40659123724E+02  0.00000000000E+00 0.  1.
         11    1    3    3    0    0  0.10829329806E+02  0.16007226133E+02  0.83867877713E+01  0.21067602662E+02  0.51100000000E-03 0. -1.
        -11    1    3    3    0    0  0.10229713983E+02  0.40611487595E+01  0.37628715606E+01  0.11631817573E+02  0.51100000000E-03 0.  1.
        -12    1    3    3    0    0 -0.66771235122E+01  0.62470061555E+01  0.15306222213E+02  0.17829456042E+02  0.00000000000E+00 0.  1.
</event>
<event>
 7    1  0.5601662E-013  0.5052886E+02  0.7816164E-02  0.1300439E+00
        -11   -1    0    0    0    0  0.00000000000E+00  0.00000000000E+00  0.45593999997E+02  0.45594000000E+02  0.51100000000E-03 0.  1.
         11   -1    0    0    0    0 -0.00000000000E+00 -0.00000000000E+00 -0.45593999997E+02  0.45594000000E+02  0.51100000000E-03 0. -1.
    9900012    2    1    2    0    0 -0.22864544493E+01  0.40313432198E+02 -0.47712234629E+01  0.50528864952E+02  0.30000015508E+02 0.  0.
        -12    1    1    2    0    0  0.22864544493E+01 -0.40313432198E+02  0.47712234629E+01  0.40659135048E+02  0.00000000000E+00 0.  1.
         11    1    3    3    0    0  0.16183207848E+01 -0.65552432877E-01  0.80061101296E+00  0.18067201054E+01  0.51100000000E-03 0. -1.
        -11    1    3    3    0    0  0.18096341194E+01 -0.16649558136E+01 -0.57905816184E+01  0.62910801337E+01  0.51100000000E-03 0.  1.
         12    1    3    3    0    0 -0.57144093536E+01  0.42043940444E+02  0.21874714258E+00  0.42431064713E+02  0.00000000000E+00 0. -1.
</event>
<event>
 7    1  0.5601662E-013  0.5052885E+02  0.7816164E-02  0.1300439E+00
        -11   -1    0    0    0    0  0.00000000000E+00  0.00000000000E+00  0.45593999997E+02  0.45594000000E+02  0.51100000000E-03 0.  1.
         11   -1    0    0    0    0 -0.00000000000E+00 -0.00000000000E+00 -0.45593999997E+02  0.45594000000E+02  0.51100000000E-03 0. -1.
    9900012    2    1    2    0    0 -0.14165609590E+02 -0.34102790637E+02 -0.17014749779E+02  0.50528849316E+02  0.29999967982E+02 0.  0.
        -12    1    1    2    0    0  0.14165609590E+02  0.34102790637E+02  0.17014749779E+02  0.40659150684E+02  0.00000000000E+00 0.  1.
         11    1    3    3    0    0 -0.20667932737E+02 -0.29424312638E+02 -0.15657540279E+02  0.39218773383E+02  0.51100000000E-03 0.  1.
        -11    1    3    3    0    0 -0.47363366558E+00 -0.30174857752E+01 -0.26255654901E+01  0.40277963773E+01  0.51100000000E-03 0. -1.
        -12    1    3    3    0    0  0.69759568122E+01 -0.16609922239E+01  0.12683559901E+01  0.72822795560E+01  0.00000000000E+00 0.  1.
</event>
<event>
 7    1  0.5601662E-013  0.5052887E+02  0.7816164E-02  0.1300439E+00
        -11   -1    0    0    0    0  0.00000000000E+00  0.00000000000E+00  0.45593999997E+02  0.45594000000E+02  0.51100000000E-03 0. -1.
         11   -1    0    0    0    0 -0.00000000000E+00 -0.00000000000E+00 -0.45593999997E+02  0.45594000000E+02  0.51100000000E-03 0.  1.
    9900012    2    1    2    0    0  0.90637808441E+01  0.39289551158E+02  0.52291015301E+01  0.50528874872E+02  0.30000045659E+02 0.  0.
        -12    1    1    2    0    0 -0.90637808441E+01 -0.39289551158E+02 -0.52291015301E+01  0.40659125128E+02  0.00000000000E+00 0.  1.
         11    1    3    3    0    0  0.20166031758E+01 -0.27955818769E+01  0.45625154274E+01  0.57182614216E+01  0.51100000000E-03 0. -1.
        -11    1    3    3    0    0  0.58757003006E+01  0.18395691733E+02  0.65171079590E+01  0.20381315580E+02  0.51100000000E-03 0.  1.
        -12    1    3    3    0    0  0.11714773677E+01  0.23689441303E+02 -0.58505218563E+01  0.24429297870E+02  0.00000000000E+00 0.  1.
</event>
<event>
 7    1  0.5601662E-013  0.5052886E+02  0.7816164E-02  0.1300439E+00
        -11   -1    0    0    0    0  0.00000000000E+00  0.00000000000E+00  0.45593999997E+02  0.45594000000E+02  0.51100000000E-03 0. -1.
         11   -1    0    0    0    0 -0.00000000000E+00 -0.00000000000E+00 -0.45593999997E+02  0.45594000000E+02  0.51100000000E-03 0.  1.
    9900012    2    1    2    0    0 -0.17407345254E+02  0.27990694931E+02  0.23804855134E+02  0.50528858353E+02  0.29999995451E+02 0.  0.
        -12    1    1    2    0    0  0.17407345254E+02 -0.27990694931E+02 -0.23804855134E+02  0.40659141647E+02  0.00000000000E+00 0.  1.
         11    1    3    3    0    0  0.18960675444E+01  0.11702819508E+02  0.11359227631E+02  0.16418986241E+02  0.51100000000E-03 0. -1.
        -11    1    3    3    0    0  0.26079517330E+01  0.63732968875E+01 -0.29686393470E+00  0.68926376602E+01  0.51100000000E-03 0.  1.
         12    1    3    3    0    0 -0.21911364531E+02  0.99145785356E+01  0.12742491438E+02  0.27217234452E+02  0.00000000000E+00 0. -1.
</event>
<event>
 7    1  0.5601662E-013  0.5052886E+02  0.7816164E-02  0.1300439E+00
        -11   -1    0    0    0    0  0.00000000000E+00  0.00000000000E+00  0.45593999997E+02  0.45594000000E+02  0.51100000000E-03 0.  1.
         11   -1    0    0    0    0 -0.00000000000E+00 -0.00000000000E+00 -0.45593999997E+02  0.45594000000E+02  0.51100000000E-03 0. -1.
    9900012    2    1    2    0    0 -0.24206299580E+02  0.16683887427E+02 -0.28086807400E+02  0.50528858482E+02  0.29999995842E+02 0.  0.
        -12    1    1    2    0    0  0.24206299580E+02 -0.16683887427E+02  0.28086807400E+02  0.40659141518E+02  0.00000000000E+00 0.  1.
         11    1    3    3    0    0 -0.11695539646E+02  0.85924389024E+00 -0.19554120266E+02  0.22801043119E+02  0.51100000000E-03 0. -1.
        -11    1    3    3    0    0 -0.58610846987E+01  0.94800365774E+01 -0.13317492723E+02  0.17366030636E+02  0.51100000000E-03 0.  1.
         12    1    3    3    0    0 -0.66496752350E+01  0.63446069599E+01  0.47848055889E+01  0.10361784727E+02  0.00000000000E+00 0. -1.
</event>
<event>
 7    1  0.5601662E-013  0.5052887E+02  0.7816164E-02  0.1300439E+00
        -11   -1    0    0    0    0  0.00000000000E+00  0.00000000000E+00  0.45593999997E+02  0.45594000000E+02  0.51100000000E-03 0.  1.
         11   -1    0    0    0    0 -0.00000000000E+00 -0.00000000000E+00 -0.45593999997E+02  0.45594000000E+02  0.51100000000E-03 0. -1.
    9900012    2    1    2    0    0  0.37634589225E+02 -0.60704458815E+01  0.14140460625E+02  0.50528865159E+02  0.30000016137E+02 0.  0.
        -12    1    1    2    0    0 -0.37634589225E+02  0.60704458815E+01 -0.14140460625E+02  0.40659134841E+02  0.00000000000E+00 0.  1.
         11    1    3    3    0    0  0.25829759194E+02 -0.37021741683E+01  0.16816925912E+02  0.31043381758E+02  0.51100000000E-03 0. -1.
        -11    1    3    3    0    0  0.47853779059E+01 -0.86335057302E+01 -0.91663640062E+00  0.99135001613E+01  0.51100000000E-03 0.  1.
         12    1    3    3    0    0  0.70194521256E+01  0.62652340170E+01 -0.17598288863E+01  0.95719832397E+01  0.00000000000E+00 0. -1.
</event>
<event>
 7    1  0.5601662E-013  0.5052886E+02  0.7816164E-02  0.1300439E+00
        -11   -1    0    0    0    0  0.00000000000E+00  0.00000000000E+00  0.45593999997E+02  0.45594000000E+02  0.51100000000E-03 0. -1.
         11   -1    0    0    0    0 -0.00000000000E+00 -0.00000000000E+00 -0.45593999997E+02  0.45594000000E+02  0.51100000000E-03 0.  1.
    9900012    2    1    2    0    0  0.16991942043E+02 -0.36938247990E+02 -0.70849393824E-01  0.50528864758E+02  0.30000014920E+02 0.  0.
        -12    1    1    2    0    0 -0.16991942043E+02  0.36938247990E+02  0.70849393824E-01  0.40659135242E+02  0.00000000000E+00 0.  1.
         11    1    3    3    0    0  0.10506767638E+02 -0.30688579745E+02  0.33078439209E+01  0.32605565853E+02  0.51100000000E-03 0. -1.
        -11    1    3    3    0    0  0.25292665631E+01 -0.21337748178E+01  0.60530015664E+01  0.68984790023E+01  0.51100000000E-03 0.  1.
         12    1    3    3    0    0  0.39559078415E+01 -0.41158934274E+01 -0.94316948812E+01  0.11024819903E+02  0.00000000000E+00 0. -1.
</event>
<event>
 7    1  0.5601662E-013  0.5052887E+02  0.7816164E-02  0.1300439E+00
        -11   -1    0    0    0    0  0.00000000000E+00  0.00000000000E+00  0.45593999997E+02  0.45594000000E+02  0.51100000000E-03 0.  1.
         11   -1    0    0    0    0 -0.00000000000E+00 -0.00000000000E+00 -0.45593999997E+02  0.45594000000E+02  0.51100000000E-03 0. -1.
    9900012    2    1    2    0    0  0.12343648150E+02 -0.17224024864E+02 -0.34700607459E+02  0.50528870150E+02  0.30000031306E+02 0.  0.
        -12    1    1    2    0    0 -0.12343648150E+02  0.17224024864E+02  0.34700607459E+02  0.40659129850E+02  0.00000000000E+00 0.  1.
         11    1    3    3    0    0  0.73744705938E+01 -0.31643587824E+01 -0.20328805020E+01  0.82781994684E+01  0.51100000000E-03 0. -1.
        -11    1    3    3    0    0  0.50295486892E+01 -0.10239627667E+02 -0.22926414121E+01  0.11636259695E+02  0.51100000000E-03 0.  1.
        -12    1    3    3    0    0 -0.60371133341E-01 -0.38200384142E+01 -0.30375085545E+02  0.30614410986E+02  0.00000000000E+00 0.  1.
</event>
<event>
 7    1  0.5601662E-013  0.5052886E+02  0.7816164E-02  0.1300439E+00
        -11   -1    0    0    0    0  0.00000000000E+00  0.00000000000E+00  0.45593999997E+02  0.45594000000E+02  0.51100000000E-03 0.  1.
         11   -1    0    0    0    0 -0.00000000000E+00 -0.00000000000E+00 -0.45593999997E+02  0.45594000000E+02  0.51100000000E-03 0. -1.
    9900012    2    1    2    0    0 -0.16543595264E+02  0.29662891394E+02 -0.22351470021E+02  0.50528857335E+02  0.29999992356E+02 0.  0.
        -12    1    1    2    0    0  0.16543595264E+02 -0.29662891394E+02  0.22351470021E+02  0.40659142665E+02  0.00000000000E+00 0.  1.
         11    1    3    3    0    0 -0.10411932083E+02  0.88855695163E+01 -0.11812255506E+02  0.18080128753E+02  0.51100000000E-03 0. -1.
        -11    1    3    3    0    0 -0.25231564033E+01 -0.43675573279E+01 -0.27679161311E+00  0.50515828317E+01  0.51100000000E-03 0.  1.
        -12    1    3    3    0    0 -0.36085067777E+01  0.25144879206E+02 -0.10262422902E+02  0.27397145750E+02  0.00000000000E+00 0.  1.
</event>
<event>
 7    1  0.5601662E-013  0.5052886E+02  0.7816164E-02  0.1300439E+00
        -11   -1    0    0    0    0  0.00000000000E+00  0.00000000000E+00  0.45593999997E+02  0.45594000000E+02  0.51100000000E-03 0.  1.
         11   -1    0    0    0    0 -0.00000000000E+00 -0.00000000000E+00 -0.45593999997E+02  0.45594000000E+02  0.51100000000E-03 0. -1.
    9900012    2    1    2    0    0 -0.27192368868E+02  0.19425379798E+02 -0.23160209131E+02  0.50528860905E+02  0.30000003207E+02 0.  0.
        -12    1    1    2    0    0  0.27192368868E+02 -0.19425379798E+02  0.23160209131E+02  0.40659139095E+02  0.00000000000E+00 0.  1.
         11    1    3    3    0    0  0.78286684488E+00 -0.41411193205E-01  0.24391020261E+00  0.82102852069E+00  0.51100000000E-03 0. -1.
        -11    1    3    3    0    0 -0.27902133458E+01  0.28205983742E+01  0.62420121621E+01  0.73962004973E+01  0.51100000000E-03 0.  1.
         12    1    3    3    0    0 -0.25185022367E+02  0.16646192617E+02 -0.29646131496E+02  0.42311631887E+02  0.00000000000E+00 0. -1.
</event>
<event>
 7    1  0.5601662E-013  0.5052884E+02  0.7816164E-02  0.1300439E+00
        -11   -1    0    0    0    0  0.00000000000E+00  0.00000000000E+00  0.45593999997E+02  0.45594000000E+02  0.51100000000E-03 0. -1.
         11   -1    0    0    0    0 -0.00000000000E+00 -0.00000000000E+00 -0.45593999997E+02  0.45594000000E+02  0.51100000000E-03 0.  1.
    9900012    2    1    2    0    0 -0.16620111332E+02 -0.23109142841E+02  0.29032851813E+02  0.50528842754E+02  0.29999948035E+02 0.  0.
        -12    1    1    2    0    0  0.16620111332E+02  0.23109142841E+02 -0.29032851813E+02  0.40659157246E+02  0.00000000000E+00 0.  1.
         11    1    3    3    0    0 -0.24284544973E+01 -0.21766716950E+02  0.23074920405E+02  0.31814136952E+02  0.51100000000E-03 0. -1.
        -11    1    3    3    0    0 -0.73172945625E+01 -0.55987236641E+01  0.10917977255E+01  0.92779593077E+01  0.51100000000E-03 0.  1.
        -12    1    3    3    0    0 -0.68743622724E+01  0.42562977727E+01  0.48661336828E+01  0.94367464945E+01  0.00000000000E+00 0.  1.
</event>
<event>
 7    1  0.5601662E-013  0.5052886E+02  0.7816164E-02  0.1300439E+00
        -11   -1    0    0    0    0  0.00000000000E+00  0.00000000000E+00  0.45593999997E+02  0.45594000000E+02  0.51100000000E-03 0. -1.
         11   -1    0    0    0    0 -0.00000000000E+00 -0.00000000000E+00 -0.45593999997E+02  0.45594000000E+02  0.51100000000E-03 0.  1.
    9900012    2    1    2    0    0  0.30281291358E+02 -0.13604764536E+02  0.23475941246E+02  0.50528855374E+02  0.29999986393E+02 0.  0.
        -12    1    1    2    0    0 -0.30281291358E+02  0.13604764536E+02 -0.23475941246E+02  0.40659144626E+02  0.00000000000E+00 0.  1.
         11    1    3    3    0    0  0.19399592238E+00 -0.10175293557E+02  0.68763501047E+01  0.12282443748E+02  0.51100000000E-03 0. -1.
        -11    1    3    3    0    0  0.62644136830E+01 -0.80121367721E+01  0.42266756106E+01  0.11013718783E+02  0.51100000000E-03 0.  1.
        -12    1    3    3    0    0  0.23822881753E+02  0.45826657930E+01  0.12372915530E+02  0.27232692843E+02  0.00000000000E+00 0.  1.
</event>
<event>
 7    1  0.5601662E-013  0.5052886E+02  0.7816164E-02  0.1300439E+00
        -11   -1    0    0    0    0  0.00000000000E+00  0.00000000000E+00  0.45593999997E+02  0.45594000000E+02  0.51100000000E-03 0.  1.
         11   -1    0    0    0    0 -0.00000000000E+00 -0.00000000000E+00 -0.45593999997E+02  0.45594000000E+02  0.51100000000E-03 0. -1.
    9900012    2    1    2    0    0  0.62871473649E+01  0.29359155815E+02 -0.27416730154E+02  0.50528863948E+02  0.30000012455E+02 0.  0.
        -12    1    1    2    0    0 -0.62871473649E+01 -0.29359155815E+02  0.27416730154E+02  0.40659136052E+02  0.00000000000E+00 0.  1.
         11    1    3    3    0    0  0.12702875639E+02  0.18584088184E+02 -0.26675699173E+02  0.34904502715E+02  0.51100000000E-03 0. -1.
        -11    1    3    3    0    0  0.19936657258E+01  0.48017001960E+01 -0.10528023678E+01  0.53046602987E+01  0.51100000000E-03 0.  1.
        -12    1    3    3    0    0 -0.84093940002E+01  0.59733674356E+01  0.31177138666E+00  0.10319700934E+02  0.00000000000E+00 0.  1.
</event>
<event>
 7    1  0.5601662E-013  0.5052887E+02  0.7816164E-02  0.1300439E+00
        -11   -1    0    0    0    0  0.00000000000E+00  0.00000000000E+00  0.45593999997E+02  0.45594000000E+02  0.51100000000E-03 0. -1.
         11   -1    0    0    0    0 -0.00000000000E+00 -0.00000000000E+00 -0.45593999997E+02  0.45594000000E+02  0.51100000000E-03 0.  1.
    9900012    2    1    2    0    0  0.23422976802E+02 -0.32184325399E+02  0.82884549479E+01  0.50528866597E+02  0.30000020507E+02 0.  0.
        -12    1    1    2    0    0 -0.23422976802E+02  0.32184325399E+02 -0.82884549479E+01  0.40659133403E+02  0.00000000000E+00 0.  1.
         11    1    3    3    0    0 -0.18742491316E-01 -0.41248215185E+01  0.71679751603E+01  0.82700889959E+01  0.51100000000E-03 0. -1.
        -11    1    3    3    0    0  0.12552692330E+02 -0.39501863568E+01 -0.65711530641E+01  0.14708980585E+02  0.51100000000E-03 0.  1.
         12    1    3    3    0    0  0.10889026963E+02 -0.24109317524E+02  0.76916328517E+01  0.27549797016E+02  0.00000000000E+00 0. -1.
</event>
<event>
 7    1  0.5601662E-013  0.5052886E+02  0.7816164E-02  0.1300439E+00
        -11   -1    0    0    0    0  0.00000000000E+00  0.00000000000E+00  0.45593999997E+02  0.45594000000E+02  0.51100000000E-03 0.  1.
         11   -1    0    0    0    0 -0.00000000000E+00 -0.00000000000E+00 -0.45593999997E+02  0.45594000000E+02  0.51100000000E-03 0. -1.
    9900012    2    1    2    0    0 -0.14693439237E+01  0.49154731899E+01 -0.40334165826E+02  0.50528858579E+02  0.29999996137E+02 0.  0.
        -12    1    1    2    0    0  0.14693439237E+01 -0.49154731899E+01  0.40334165826E+02  0.40659141421E+02  0.00000000000E+00 0.  1.
         11    1    3    3    0    0  0.98425460194E+01 -0.30705031888E+01 -0.26528757117E+02  0.28461880761E+02  0.51100000000E-03 0. -1.
        -11    1    3    3    0    0 -0.28502225345E-01 -0.19228787081E+01 -0.46038354800E+00  0.19774296891E+01  0.51100000000E-03 0.  1.
        -12    1    3    3    0    0 -0.11283387718E+02  0.99088550867E+01 -0.13345025160E+02  0.20089548129E+02  0.00000000000E+00 0.  1.
</event>
<event>
 7    1  0.5601662E-013  0.5052886E+02  0.7816164E-02  0.1300439E+00
        -11   -1    0    0    0    0  0.00000000000E+00  0.00000000000E+00  0.45593999997E+02  0.45594000000E+02  0.51100000000E-03 0. -1.
         11   -1    0    0    0    0 -0.00000000000E+00 -0.00000000000E+00 -0.45593999997E+02  0.45594000000E+02  0.51100000000E-03 0.  1.
    9900012    2    1    2    0    0 -0.18697011394E+02 -0.13117602305E+02  0.33638012795E+02  0.50528860436E+02  0.30000001781E+02 0.  0.
        -12    1    1    2    0    0  0.18697011394E+02  0.13117602305E+02 -0.33638012795E+02  0.40659139564E+02  0.00000000000E+00 0.  1.
         11    1    3    3    0    0 -0.12927142813E+02 -0.89179465199E+01  0.14663638493E+02  0.21486346492E+02  0.51100000000E-03 0. -1.
        -11    1    3    3    0    0 -0.12581315526E+02 -0.52128949292E+01  0.72062543766E+01  0.15407591516E+02  0.51100000000E-03 0.  1.
         12    1    3    3    0    0  0.68114469453E+01  0.10132391444E+01  0.11768119925E+02  0.13634922429E+02  0.00000000000E+00 0. -1.
</event>
<event>
 7    1  0.5601662E-013  0.5052886E+02  0.7816164E-02  0.1300439E+00
        -11   -1    0    0    0    0  0.00000000000E+00  0.00000000000E+00  0.45593999997E+02  0.45594000000E+02  0.51100000000E-03 0.  1.
         11   -1    0    0    0    0 -0.00000000000E+00 -0.00000000000E+00 -0.45593999997E+02  0.45594000000E+02  0.51100000000E-03 0. -1.
    9900012    2    1    2    0    0 -0.11283177238E+02 -0.38933848500E+02 -0.31640260507E+01  0.50528859473E+02  0.29999998853E+02 0.  0.
        -12    1    1    2    0    0  0.11283177238E+02  0.38933848500E+02  0.31640260507E+01  0.40659140527E+02  0.00000000000E+00 0.  1.
         11    1    3    3    0    0 -0.36131196595E+01 -0.10660277042E+02  0.44561110288E+00  0.11264755203E+02  0.51100000000E-03 0. -1.
        -11    1    3    3    0    0  0.16530302160E+01 -0.18370086864E+02  0.91724137536E+01  0.20599169270E+02  0.51100000000E-03 0.  1.
         12    1    3    3    0    0 -0.93230877946E+01 -0.99034845944E+01 -0.12782050907E+02  0.18664934999E+02  0.00000000000E+00 0. -1.
</event>
<event>
 7    1  0.5601662E-013  0.5052886E+02  0.7816164E-02  0.1300439E+00
        -11   -1    0    0    0    0  0.00000000000E+00  0.00000000000E+00  0.45593999997E+02  0.45594000000E+02  0.51100000000E-03 0.  1.
         11   -1    0    0    0    0 -0.00000000000E+00 -0.00000000000E+00 -0.45593999997E+02  0.45594000000E+02  0.51100000000E-03 0. -1.
    9900012    2    1    2    0    0  0.26339180925E+02  0.22352889517E+02 -0.21442043411E+02  0.50528863915E+02  0.30000012355E+02 0.  0.
        -12    1    1    2    0    0 -0.26339180925E+02 -0.22352889517E+02  0.21442043411E+02  0.40659136085E+02  0.00000000000E+00 0.  1.
         11    1    3    3    0    0  0.86341298255E+01  0.10834330429E+02 -0.11059568513E+02  0.17726956018E+02  0.51100000000E-03 0. -1.
        -11    1    3    3    0    0  0.96640622715E+01  0.15162481738E+02  0.14502656483E+01  0.18038797708E+02  0.51100000000E-03 0.  1.
         12    1    3    3    0    0  0.80409888278E+01 -0.36439226499E+01 -0.11832740546E+02  0.14763110188E+02  0.00000000000E+00 0. -1.
</event>
<event>
 7    1  0.5601662E-013  0.5052886E+02  0.7816164E-02  0.1300439E+00
        -11   -1    0    0    0    0  0.00000000000E+00  0.00000000000E+00  0.45593999997E+02  0.45594000000E+02  0.51100000000E-03 0. -1.
         11   -1    0    0    0    0 -0.00000000000E+00 -0.00000000000E+00 -0.45593999997E+02  0.45594000000E+02  0.51100000000E-03 0.  1.
    9900012    2    1    2    0    0 -0.83727876884E+00 -0.21689383372E+02  0.34380741530E+02  0.50528858654E+02  0.29999996365E+02 0.  0.
        -12    1    1    2    0    0  0.83727876884E+00  0.21689383372E+02 -0.34380741530E+02  0.40659141346E+02  0.00000000000E+00 0.  1.
         11    1    3    3    0    0 -0.81473123532E+00 -0.17330954955E+01  0.36003520556E+01  0.40779826100E+01  0.51100000000E-03 0. -1.
        -11    1    3    3    0    0 -0.10167844025E+02 -0.19679907766E+02  0.12224010670E+02  0.25300400371E+02  0.51100000000E-03 0.  1.
         12    1    3    3    0    0  0.10145296491E+02 -0.27638011074E+00  0.18556378805E+02  0.21150475673E+02  0.00000000000E+00 0. -1.
</event>
<event>
 7    1  0.5601662E-013  0.5052883E+02  0.7816164E-02  0.1300439E+00
        -11   -1    0    0    0    0  0.00000000000E+00  0.00000000000E+00  0.45593999997E+02  0.45594000000E+02  0.51100000000E-03 0.  1.
         11   -1    0    0    0    0 -0.00000000000E+00 -0.00000000000E+00 -0.45593999997E+02  0.45594000000E+02  0.51100000000E-03 0. -1.
    9900012    2    1    2    0    0  0.25334655288E+02 -0.10440637410E+02 -0.30038578203E+02  0.50528833155E+02  0.29999918858E+02 0.  0.
        -12    1    1    2    0    0 -0.25334655288E+02  0.10440637410E+02  0.30038578203E+02  0.40659166845E+02  0.00000000000E+00 0.  1.
         11    1    3    3    0    0  0.92163699643E+01 -0.53019458181E+01 -0.88541413455E+01  0.13836470793E+02  0.51100000000E-03 0. -1.
        -11    1    3    3    0    0  0.15531425968E+02 -0.13582232608E+02 -0.18764699762E+02  0.27889356261E+02  0.51100000000E-03 0.  1.
        -12    1    3    3    0    0  0.58685935651E+00  0.84435410168E+01 -0.24197370947E+01  0.88030061010E+01  0.00000000000E+00 0.  1.
</event>
<event>
 7    1  0.5601662E-013  0.5052885E+02  0.7816164E-02  0.1300439E+00
        -11   -1    0    0    0    0  0.00000000000E+00  0.00000000000E+00  0.45593999997E+02  0.45594000000E+02  0.51100000000E-03 0.  1.
         11   -1    0    0    0    0 -0.00000000000E+00 -0.00000000000E+00 -0.45593999997E+02  0.45594000000E+02  0.51100000000E-03 0. -1.
    9900012    2    1    2    0    0 -0.60663690318E+01 -0.71651297180E+00 -0.40197665059E+02  0.50528849735E+02  0.29999969255E+02 0.  0.
        -12    1    1    2    0    0  0.60663690318E+01  0.71651297180E+00  0.40197665059E+02  0.40659150265E+02  0.00000000000E+00 0.  1.
         11    1    3    3    0    0 -0.20783985100E+01  0.69569286258E+01 -0.11998932666E+02  0.14024727507E+02  0.51100000000E-03 0.  1.
        -11    1    3    3    0    0  0.28536969410E+01  0.35947704694E+01 -0.20976508632E+02  0.21472770562E+02  0.51100000000E-03 0. -1.
         12    1    3    3    0    0 -0.68416674628E+01 -0.11268212067E+02 -0.72222237615E+01  0.15031351666E+02  0.00000000000E+00 0. -1.
</event>
<event>
 7    1  0.5601662E-013  0.5052888E+02  0.7816164E-02  0.1300439E+00
        -11   -1    0    0    0    0  0.00000000000E+00  0.00000000000E+00  0.45593999997E+02  0.45594000000E+02  0.51100000000E-03 0.  1.
         11   -1    0    0    0    0 -0.00000000000E+00 -0.00000000000E+00 -0.45593999997E+02  0.45594000000E+02  0.51100000000E-03 0. -1.
    9900012    2    1    2    0    0  0.11240962151E+02  0.17751465340E+02 -0.34809342979E+02  0.50528879123E+02  0.30000058583E+02 0.  0.
        -12    1    1    2    0    0 -0.11240962151E+02 -0.17751465340E+02  0.34809342979E+02  0.40659120877E+02  0.00000000000E+00 0.  1.
         11    1    3    3    0    0  0.11247005708E+02 -0.21241573172E+01 -0.97808858560E+01  0.15055660400E+02  0.51100000000E-03 0. -1.
        -11    1    3    3    0    0 -0.22346934511E+01 -0.20863867295E+01 -0.27944072702E+01  0.41419290986E+01  0.51100000000E-03 0.  1.
         12    1    3    3    0    0  0.22286498945E+01  0.21962009386E+02 -0.22234049853E+02  0.31331289624E+02  0.00000000000E+00 0. -1.
</event>
<event>
 7    1  0.5601662E-013  0.5052885E+02  0.7816164E-02  0.1300439E+00
        -11   -1    0    0    0    0  0.00000000000E+00  0.00000000000E+00  0.45593999997E+02  0.45594000000E+02  0.51100000000E-03 0. -1.
         11   -1    0    0    0    0 -0.00000000000E+00 -0.00000000000E+00 -0.45593999997E+02  0.45594000000E+02  0.51100000000E-03 0.  1.
    9900012    2    1    2    0    0  0.36142858542E+02  0.15831252680E+02  0.98097930466E+01  0.50528845746E+02  0.29999957129E+02 0.  0.
        -12    1    1    2    0    0 -0.36142858542E+02 -0.15831252680E+02 -0.98097930466E+01  0.40659154254E+02  0.00000000000E+00 0.  1.
         11    1    3    3    0    0  0.23211408618E+02  0.17458184103E+02  0.52708158009E+01  0.29518454933E+02  0.51100000000E-03 0. -1.
        -11    1    3    3    0    0  0.59210044349E+01  0.45671236058E+01 -0.38804970887E+01  0.84246762231E+01  0.51100000000E-03 0.  1.
        -12    1    3    3    0    0  0.70104454899E+01 -0.61940550284E+01  0.84194743344E+01  0.12585714590E+02  0.00000000000E+00 0.  1.
</event>
<event>
 7    1  0.5601662E-013  0.5052887E+02  0.7816164E-02  0.1300439E+00
        -11   -1    0    0    0    0  0.00000000000E+00  0.00000000000E+00  0.45593999997E+02  0.45594000000E+02  0.51100000000E-03 0.  1.
         11   -1    0    0    0    0 -0.00000000000E+00 -0.00000000000E+00 -0.45593999997E+02  0.45594000000E+02  0.51100000000E-03 0. -1.
    9900012    2    1    2    0    0  0.14101526772E+02 -0.14549383474E+02 -0.35250923984E+02  0.50528865006E+02  0.30000015671E+02 0.  0.
        -12    1    1    2    0    0 -0.14101526772E+02  0.14549383474E+02  0.35250923984E+02  0.40659134994E+02  0.00000000000E+00 0.  1.
         11    1    3    3    0    0  0.59894036609E+01  0.56714638698E+01 -0.84141612398E+01  0.11782893035E+02  0.51100000000E-03 0. -1.
        -11    1    3    3    0    0  0.21598214267E+00  0.45793711082E+00 -0.12197271075E+02  0.12207775253E+02  0.51100000000E-03 0.  1.
        -12    1    3    3    0    0  0.78961409685E+01 -0.20678784455E+02 -0.14639491669E+02  0.26538196718E+02  0.00000000000E+00 0.  1.
</event>
<event>
 7    1  0.5601662E-013  0.5052885E+02  0.7816164E-02  0.1300439E+00
        -11   -1    0    0    0    0  0.00000000000E+00  0.00000000000E+00  0.45593999997E+02  0.45594000000E+02  0.51100000000E-03 0.  1.
         11   -1    0    0    0    0 -0.00000000000E+00 -0.00000000000E+00 -0.45593999997E+02  0.45594000000E+02  0.51100000000E-03 0. -1.
    9900012    2    1    2    0    0 -0.31022758134E+02 -0.13836094662E+02 -0.22345407800E+02  0.50528852352E+02  0.29999977208E+02 0.  0.
        -12    1    1    2    0    0  0.31022758134E+02  0.13836094662E+02  0.22345407800E+02  0.40659147648E+02  0.00000000000E+00 0.  1.
         11    1    3    3    0    0  0.21303999821E+01  0.31040561005E+01  0.10654951707E+01  0.39126779293E+01  0.51100000000E-03 0. -1.
        -11    1    3    3    0    0  0.53599807866E-01 -0.46618665817E+01 -0.44929190369E+01  0.64747351064E+01  0.51100000000E-03 0.  1.
         12    1    3    3    0    0 -0.33206757924E+02 -0.12278284181E+02 -0.18917983934E+02  0.40141439316E+02  0.00000000000E+00 0. -1.
</event>
<event>
 7    1  0.5601662E-013  0.5052889E+02  0.7816164E-02  0.1300439E+00
        -11   -1    0    0    0    0  0.00000000000E+00  0.00000000000E+00  0.45593999997E+02  0.45594000000E+02  0.51100000000E-03 0.  1.
         11   -1    0    0    0    0 -0.00000000000E+00 -0.00000000000E+00 -0.45593999997E+02  0.45594000000E+02  0.51100000000E-03 0. -1.
    9900012    2    1    2    0    0  0.35209643907E+02  0.44069091803E+01  0.19850023340E+02  0.50528889100E+02  0.30000088909E+02 0.  0.
        -12    1    1    2    0    0 -0.35209643907E+02 -0.44069091803E+01 -0.19850023340E+02  0.40659110900E+02  0.00000000000E+00 0.  1.
         11    1    3    3    0    0  0.20167836811E+02 -0.10456597540E+01  0.31881742692E+01  0.20445036106E+02  0.51100000000E-03 0. -1.
        -11    1    3    3    0    0  0.63716764176E+01 -0.65787610445E+01  0.10741615171E+02  0.14115971592E+02  0.51100000000E-03 0.  1.
         12    1    3    3    0    0  0.86701306780E+01  0.12031329979E+02  0.59202338996E+01  0.15967881402E+02  0.00000000000E+00 0. -1.
</event>
<event>
 7    1  0.5601662E-013  0.5052879E+02  0.7816164E-02  0.1300439E+00
        -11   -1    0    0    0    0  0.00000000000E+00  0.00000000000E+00  0.45593999997E+02  0.45594000000E+02  0.51100000000E-03 0.  1.
         11   -1    0    0    0    0 -0.00000000000E+00 -0.00000000000E+00 -0.45593999997E+02  0.45594000000E+02  0.51100000000E-03 0. -1.
    9900012    2    1    2    0    0  0.53804450061E+01 -0.36015294241E+02 -0.18086470256E+02  0.50528794227E+02  0.29999800532E+02 0.  0.
        -12    1    1    2    0    0 -0.53804450061E+01  0.36015294241E+02  0.18086470256E+02  0.40659205773E+02  0.00000000000E+00 0.  1.
         11    1    3    3    0    0  0.63624515943E+01 -0.66661936071E+01 -0.47075929714E+01  0.10347964019E+02  0.51100000000E-03 0. -1.
        -11    1    3    3    0    0  0.28195065164E+01 -0.32829571558E+01 -0.13143809355E+02  0.13837888181E+02  0.51100000000E-03 0.  1.
        -12    1    3    3    0    0 -0.38015131046E+01 -0.26066143478E+02 -0.23506793016E+00  0.26342942027E+02  0.00000000000E+00 0.  1.
</event>
<event>
 7    1  0.5601662E-013  0.5052885E+02  0.7816164E-02  0.1300439E+00
        -11   -1    0    0    0    0  0.00000000000E+00  0.00000000000E+00  0.45593999997E+02  0.45594000000E+02  0.51100000000E-03 0.  1.
         11   -1    0    0    0    0 -0.00000000000E+00 -0.00000000000E+00 -0.45593999997E+02  0.45594000000E+02  0.51100000000E-03 0. -1.
    9900012    2    1    2    0    0 -0.22313760810E+01  0.38900370401E+02 -0.11616736084E+02  0.50528850799E+02  0.29999972487E+02 0.  0.
        -12    1    1    2    0    0  0.22313760810E+01 -0.38900370401E+02  0.11616736084E+02  0.40659149201E+02  0.00000000000E+00 0.  1.
         11    1    3    3    0    0 -0.15816395022E+01  0.35201991635E+01 -0.63228219137E+01  0.74075274471E+01  0.51100000000E-03 0. -1.
        -11    1    3    3    0    0  0.54557768159E+01 -0.11775690164E+01 -0.19267249669E+01  0.59046116564E+01  0.51100000000E-03 0.  1.
        -12    1    3    3    0    0 -0.61055133947E+01  0.36557740254E+02 -0.33671892036E+01  0.37216711695E+02  0.00000000000E+00 0.  1.
</event>
<event>
 7    1  0.5601662E-013  0.5052887E+02  0.7816164E-02  0.1300439E+00
        -11   -1    0    0    0    0  0.00000000000E+00  0.00000000000E+00  0.45593999997E+02  0.45594000000E+02  0.51100000000E-03 0.  1.
         11   -1    0    0    0    0 -0.00000000000E+00 -0.00000000000E+00 -0.45593999997E+02  0.45594000000E+02  0.51100000000E-03 0. -1.
    9900012    2    1    2    0    0 -0.30745426997E+01  0.35721482223E+02 -0.19175194415E+02  0.50528865899E+02  0.30000018386E+02 0.  0.
        -12    1    1    2    0    0  0.30745426997E+01 -0.35721482223E+02  0.19175194415E+02  0.40659134101E+02  0.00000000000E+00 0.  1.
         11    1    3    3    0    0 -0.11921415791E+02  0.64907122823E+01 -0.57728643559E+01  0.14750439435E+02  0.51100000000E-03 0. -1.
        -11    1    3    3    0    0 -0.25097066871E+01  0.90789909510E+01 -0.84262560799E+00  0.94570990541E+01  0.51100000000E-03 0.  1.
        -12    1    3    3    0    0  0.11356579779E+02  0.20151778990E+02 -0.12559704451E+02  0.26321327410E+02  0.00000000000E+00 0.  1.
</event>
<event>
 7    1  0.5601662E-013  0.5052886E+02  0.7816164E-02  0.1300439E+00
        -11   -1    0    0    0    0  0.00000000000E+00  0.00000000000E+00  0.45593999997E+02  0.45594000000E+02  0.51100000000E-03 0. -1.
         11   -1    0    0    0    0 -0.00000000000E+00 -0.00000000000E+00 -0.45593999997E+02  0.45594000000E+02  0.51100000000E-03 0.  1.
    9900012    2    1    2    0    0 -0.40115751248E+02 -0.26312223775E+01 -0.60801919568E+01  0.50528861254E+02  0.30000004267E+02 0.  0.
        -12    1    1    2    0    0  0.40115751248E+02  0.26312223775E+01  0.60801919568E+01  0.40659138746E+02  0.00000000000E+00 0.  1.
         11    1    3    3    0    0 -0.11757163527E+02  0.12386850062E+01 -0.83640974093E+01  0.14481828630E+02  0.51100000000E-03 0. -1.
        -11    1    3    3    0    0 -0.10759423828E+02  0.83737409697E+01 -0.30136800465E+01  0.13963058641E+02  0.51100000000E-03 0.  1.
         12    1    3    3    0    0 -0.17599163893E+02 -0.12243648353E+02  0.52975854989E+01  0.22083973982E+02  0.00000000000E+00 0. -1.
</event>
<event>
 7    1  0.5601662E-013  0.5052884E+02  0.7816164E-02  0.1300439E+00
        -11   -1    0    0    0    0  0.00000000000E+00  0.00000000000E+00  0.45593999997E+02  0.45594000000E+02  0.51100000000E-03 0.  1.
         11   -1    0    0    0    0 -0.00000000000E+00 -0.00000000000E+00 -0.45593999997E+02  0.45594000000E+02  0.51100000000E-03 0. -1.
    9900012    2    1    2    0    0  0.12352749851E+01  0.22607448169E+02 -0.33771946441E+02  0.50528843793E+02  0.29999951195E+02 0.  0.
        -12    1    1    2    0    0 -0.12352749851E+01 -0.22607448169E+02  0.33771946441E+02  0.40659156207E+02  0.00000000000E+00 0.  1.
         11    1    3    3    0    0 -0.25198446858E+01  0.12987785211E+02 -0.46649573858E+01  0.14028328824E+02  0.51100000000E-03 0. -1.
        -11    1    3    3    0    0 -0.60970818221E+00  0.13645696925E+02 -0.11293679694E+02  0.17723543379E+02  0.51100000000E-03 0.  1.
        -12    1    3    3    0    0  0.43648278531E+01 -0.40260339666E+01 -0.17813309362E+02  0.18776971590E+02  0.00000000000E+00 0.  1.
</event>
<event>
 7    1  0.5601662E-013  0.5052886E+02  0.7816164E-02  0.1300439E+00
        -11   -1    0    0    0    0  0.00000000000E+00  0.00000000000E+00  0.45593999997E+02  0.45594000000E+02  0.51100000000E-03 0. -1.
         11   -1    0    0    0    0 -0.00000000000E+00 -0.00000000000E+00 -0.45593999997E+02  0.45594000000E+02  0.51100000000E-03 0.  1.
    9900012    2    1    2    0    0  0.24382973618E+01 -0.20984713131E+02  0.34739922705E+02  0.50528859468E+02  0.29999998840E+02 0.  0.
        -12    1    1    2    0    0 -0.24382973618E+01  0.20984713131E+02 -0.34739922705E+02  0.40659140532E+02  0.00000000000E+00 0.  1.
         11    1    3    3    0    0 -0.48468931078E+01 -0.27279156229E+01  0.83403411339E+01  0.10024728771E+02  0.51100000000E-03 0. -1.
        -11    1    3    3    0    0 -0.91726483696E-01  0.53930223466E+01  0.20579868778E+01  0.57730766519E+01  0.51100000000E-03 0.  1.
         12    1    3    3    0    0  0.73769169533E+01 -0.23649819855E+02  0.24341594693E+02  0.34731054045E+02  0.00000000000E+00 0. -1.
</event>
<event>
 7    1  0.5601662E-013  0.5052889E+02  0.7816164E-02  0.1300439E+00
        -11   -1    0    0    0    0  0.00000000000E+00  0.00000000000E+00  0.45593999997E+02  0.45594000000E+02  0.51100000000E-03 0.  1.
         11   -1    0    0    0    0 -0.00000000000E+00 -0.00000000000E+00 -0.45593999997E+02  0.45594000000E+02  0.51100000000E-03 0. -1.
    9900012    2    1    2    0    0 -0.14085874260E+02 -0.10018546940E+00 -0.38141072880E+02  0.50528888706E+02  0.30000087710E+02 0.  0.
        -12    1    1    2    0    0  0.14085874260E+02  0.10018546940E+00  0.38141072880E+02  0.40659111294E+02  0.00000000000E+00 0.  1.
         11    1    3    3    0    0 -0.16837467207E+02  0.10487230048E+02 -0.25314470125E+02  0.32160607799E+02  0.51100000000E-03 0. -1.
        -11    1    3    3    0    0  0.14439476109E+01  0.71801115628E+00 -0.26448304255E+01  0.30976850977E+01  0.51100000000E-03 0.  1.
        -12    1    3    3    0    0  0.13076453363E+01 -0.11305426674E+02 -0.10181772330E+02  0.15270595809E+02  0.00000000000E+00 0.  1.
</event>
<event>
 7    1  0.5601662E-013  0.5052885E+02  0.7816164E-02  0.1300439E+00
        -11   -1    0    0    0    0  0.00000000000E+00  0.00000000000E+00  0.45593999997E+02  0.45594000000E+02  0.51100000000E-03 0.  1.
         11   -1    0    0    0    0 -0.00000000000E+00 -0.00000000000E+00 -0.45593999997E+02  0.45594000000E+02  0.51100000000E-03 0. -1.
    9900012    2    1    2    0    0  0.37096767719E+02 -0.15086315173E+02 -0.70284778589E+01  0.50528848733E+02  0.29999966210E+02 0.  0.
        -12    1    1    2    0    0 -0.37096767719E+02  0.15086315173E+02  0.70284778589E+01  0.40659151267E+02  0.00000000000E+00 0.  1.
         11    1    3    3    0    0  0.14831132650E+02 -0.80660087702E+01 -0.12735327907E+02  0.21147377386E+02  0.51100000000E-03 0. -1.
        -11    1    3    3    0    0 -0.16140067567E+01  0.23395019711E+01  0.19794207073E+01  0.34635810776E+01  0.51100000000E-03 0.  1.
        -12    1    3    3    0    0  0.23879641827E+02 -0.93598083736E+01  0.37274293404E+01  0.25917890270E+02  0.00000000000E+00 0.  1.
</event>
<event>
 7    1  0.5601662E-013  0.5052885E+02  0.7816164E-02  0.1300439E+00
        -11   -1    0    0    0    0  0.00000000000E+00  0.00000000000E+00  0.45593999997E+02  0.45594000000E+02  0.51100000000E-03 0.  1.
         11   -1    0    0    0    0 -0.00000000000E+00 -0.00000000000E+00 -0.45593999997E+02  0.45594000000E+02  0.51100000000E-03 0. -1.
    9900012    2    1    2    0    0 -0.21072640800E+01  0.16043542843E+02 -0.37300544024E+02  0.50528850803E+02  0.29999972502E+02 0.  0.
        -12    1    1    2    0    0  0.21072640800E+01 -0.16043542843E+02  0.37300544024E+02  0.40659149197E+02  0.00000000000E+00 0.  1.
         11    1    3    3    0    0 -0.25292662238E+01  0.71847537460E+01 -0.58373054528E+01  0.95964581608E+01  0.51100000000E-03 0. -1.
        -11    1    3    3    0    0  0.82857452245E+01  0.13661512994E+02 -0.14255264016E+02  0.21412684643E+02  0.51100000000E-03 0.  1.
        -12    1    3    3    0    0 -0.78637430807E+01 -0.48027238967E+01 -0.17207974556E+02  0.19519707999E+02  0.00000000000E+00 0.  1.
</event>
<event>
 7    1  0.5601662E-013  0.5052885E+02  0.7816164E-02  0.1300439E+00
        -11   -1    0    0    0    0  0.00000000000E+00  0.00000000000E+00  0.45593999997E+02  0.45594000000E+02  0.51100000000E-03 0. -1.
         11   -1    0    0    0    0 -0.00000000000E+00 -0.00000000000E+00 -0.45593999997E+02  0.45594000000E+02  0.51100000000E-03 0.  1.
    9900012    2    1    2    0    0  0.32166205641E+02  0.16265496054E+02 -0.18813158906E+02  0.50528854716E+02  0.29999984394E+02 0.  0.
        -12    1    1    2    0    0 -0.32166205641E+02 -0.16265496054E+02  0.18813158906E+02  0.40659145284E+02  0.00000000000E+00 0.  1.
         11    1    3    3    0    0  0.17811463529E+02 -0.34280996502E+01 -0.40340595554E+01  0.18581542913E+02  0.51100000000E-03 0. -1.
        -11    1    3    3    0    0 -0.23660660715E+01  0.43405157392E+00 -0.30224895496E+01  0.38629150602E+01  0.51100000000E-03 0.  1.
         12    1    3    3    0    0  0.16720808184E+02  0.19259544130E+02 -0.11756609801E+02  0.28084396743E+02  0.00000000000E+00 0. -1.
</event>
<event>
 7    1  0.5601662E-013  0.5052886E+02  0.7816164E-02  0.1300439E+00
        -11   -1    0    0    0    0  0.00000000000E+00  0.00000000000E+00  0.45593999997E+02  0.45594000000E+02  0.51100000000E-03 0.  1.
         11   -1    0    0    0    0 -0.00000000000E+00 -0.00000000000E+00 -0.45593999997E+02  0.45594000000E+02  0.51100000000E-03 0. -1.
    9900012    2    1    2    0    0  0.21844378129E+02  0.94939230386E+00 -0.34279544722E+02  0.50528863414E+02  0.30000010834E+02 0.  0.
        -12    1    1    2    0    0 -0.21844378129E+02 -0.94939230386E+00  0.34279544722E+02  0.40659136586E+02  0.00000000000E+00 0.  1.
         11    1    3    3    0    0 -0.18021243637E+01  0.73967441869E+01 -0.27455290251E+01  0.80930468105E+01  0.51100000000E-03 0. -1.
        -11    1    3    3    0    0  0.10849031707E+01 -0.49599834611E+01 -0.99826380687E+01  0.11199621150E+02  0.51100000000E-03 0.  1.
         12    1    3    3    0    0  0.22561599322E+02 -0.14873684219E+01 -0.21551377628E+02  0.31236195454E+02  0.00000000000E+00 0. -1.
</event>
<event>
 7    1  0.5601662E-013  0.5052886E+02  0.7816164E-02  0.1300439E+00
        -11   -1    0    0    0    0  0.00000000000E+00  0.00000000000E+00  0.45593999997E+02  0.45594000000E+02  0.51100000000E-03 0. -1.
         11   -1    0    0    0    0 -0.00000000000E+00 -0.00000000000E+00 -0.45593999997E+02  0.45594000000E+02  0.51100000000E-03 0.  1.
    9900012    2    1    2    0    0 -0.20725703623E+02  0.34479444843E+00  0.34978451170E+02  0.50528859329E+02  0.29999998416E+02 0.  0.
        -12    1    1    2    0    0  0.20725703623E+02 -0.34479444843E+00 -0.34978451170E+02  0.40659140671E+02  0.00000000000E+00 0.  1.
         11    1    3    3    0    0 -0.11541183859E+02 -0.18220651155E+01  0.23393713720E+02  0.26149277008E+02  0.51100000000E-03 0. -1.
        -11    1    3    3    0    0 -0.11875432976E+01 -0.32281022271E+01  0.14015524458E+02  0.14431418128E+02  0.51100000000E-03 0.  1.
        -12    1    3    3    0    0 -0.79969764670E+01  0.53949617910E+01 -0.24307870089E+01  0.99481641936E+01  0.00000000000E+00 0.  1.
</event>
<event>
 7    1  0.5601662E-013  0.5052886E+02  0.7816164E-02  0.1300439E+00
        -11   -1    0    0    0    0  0.00000000000E+00  0.00000000000E+00  0.45593999997E+02  0.45594000000E+02  0.51100000000E-03 0. -1.
         11   -1    0    0    0    0 -0.00000000000E+00 -0.00000000000E+00 -0.45593999997E+02  0.45594000000E+02  0.51100000000E-03 0.  1.
    9900012    2    1    2    0    0 -0.26769501324E+02  0.22265350930E+02  0.20995552995E+02  0.50528864511E+02  0.30000014166E+02 0.  0.
        -12    1    1    2    0    0  0.26769501324E+02 -0.22265350930E+02 -0.20995552995E+02  0.40659135489E+02  0.00000000000E+00 0.  1.
         11    1    3    3    0    0 -0.16733874264E+02 -0.89705997255E+00  0.67129883140E+01  0.18052464564E+02  0.51100000000E-03 0. -1.
        -11    1    3    3    0    0 -0.85299703186E+01  0.56354997487E+01  0.69243700906E+00  0.10246888324E+02  0.51100000000E-03 0.  1.
         12    1    3    3    0    0 -0.15056567415E+01  0.17526911154E+02  0.13590127672E+02  0.22229511622E+02  0.00000000000E+00 0. -1.
</event>
<event>
 7    1  0.5601662E-013  0.5052886E+02  0.7816164E-02  0.1300439E+00
        -11   -1    0    0    0    0  0.00000000000E+00  0.00000000000E+00  0.45593999997E+02  0.45594000000E+02  0.51100000000E-03 0.  1.
         11   -1    0    0    0    0 -0.00000000000E+00 -0.00000000000E+00 -0.45593999997E+02  0.45594000000E+02  0.51100000000E-03 0. -1.
    9900012    2    1    2    0    0  0.14722558916E+02  0.81345953728E+01 -0.37016753102E+02  0.50528863350E+02  0.30000010639E+02 0.  0.
        -12    1    1    2    0    0 -0.14722558916E+02 -0.81345953728E+01  0.37016753102E+02  0.40659136650E+02  0.00000000000E+00 0.  1.
         11    1    3    3    0    0  0.75406708112E+01 -0.71934231685E+00 -0.24781303032E+01  0.79699623407E+01  0.51100000000E-03 0. -1.
        -11    1    3    3    0    0 -0.51703046558E+00  0.35330804545E+01  0.24982686474E+01  0.43579036814E+01  0.51100000000E-03 0.  1.
         12    1    3    3    0    0  0.76989185705E+01  0.53208572351E+01 -0.37036891446E+02  0.38200997328E+02  0.00000000000E+00 0. -1.
</event>
<event>
 7    1  0.5601662E-013  0.5052876E+02  0.7816164E-02  0.1300439E+00
        -11   -1    0    0    0    0  0.00000000000E+00  0.00000000000E+00  0.45593999997E+02  0.45594000000E+02  0.51100000000E-03 0.  1.
         11   -1    0    0    0    0 -0.00000000000E+00 -0.00000000000E+00 -0.45593999997E+02  0.45594000000E+02  0.51100000000E-03 0. -1.
    9900012    2    1    2    0    0  0.18177070235E+02 -0.12916122858E+02 -0.33999143620E+02  0.50528758997E+02  0.29999693447E+02 0.  0.
        -12    1    1    2    0    0 -0.18177070235E+02  0.12916122858E+02  0.33999143620E+02  0.40659241003E+02  0.00000000000E+00 0.  1.
         11    1    3    3    0    0  0.21836665188E+02 -0.64532444081E+01 -0.22067191957E+02  0.31708757009E+02  0.51100000000E-03 0. -1.
        -11    1    3    3    0    0  0.32963141457E+01  0.76611035604E+00 -0.20921673343E+00  0.33906317888E+01  0.51100000000E-03 0.  1.
         12    1    3    3    0    0 -0.69559090979E+01 -0.72289888063E+01 -0.11722734929E+02  0.15429370200E+02  0.00000000000E+00 0. -1.
</event>
<event>
 7    1  0.5601662E-013  0.5052886E+02  0.7816164E-02  0.1300439E+00
        -11   -1    0    0    0    0  0.00000000000E+00  0.00000000000E+00  0.45593999997E+02  0.45594000000E+02  0.51100000000E-03 0. -1.
         11   -1    0    0    0    0 -0.00000000000E+00 -0.00000000000E+00 -0.45593999997E+02  0.45594000000E+02  0.51100000000E-03 0.  1.
    9900012    2    1    2    0    0 -0.10563274701E+02  0.38330039235E+02  0.85082950949E+01  0.50528858770E+02  0.29999996716E+02 0.  0.
        -12    1    1    2    0    0  0.10563274701E+02 -0.38330039235E+02 -0.85082950949E+01  0.40659141230E+02  0.00000000000E+00 0.  1.
         11    1    3    3    0    0 -0.99858288826E+01  0.13645449289E+02  0.11039027807E+02  0.20193444480E+02  0.51100000000E-03 0. -1.
        -11    1    3    3    0    0  0.49135416028E+00  0.17570643395E+02  0.65431687128E+01  0.18755852294E+02  0.51100000000E-03 0.  1.
        -12    1    3    3    0    0 -0.10687999785E+01  0.71139465509E+01 -0.90739014251E+01  0.11579561995E+02  0.00000000000E+00 0.  1.
</event>
<event>
 7    1  0.5601662E-013  0.5052886E+02  0.7816164E-02  0.1300439E+00
        -11   -1    0    0    0    0  0.00000000000E+00  0.00000000000E+00  0.45593999997E+02  0.45594000000E+02  0.51100000000E-03 0.  1.
         11   -1    0    0    0    0 -0.00000000000E+00 -0.00000000000E+00 -0.45593999997E+02  0.45594000000E+02  0.51100000000E-03 0. -1.
    9900012    2    1    2    0    0 -0.80662880768E+01 -0.39553782072E+02  0.48578625381E+01  0.50528861938E+02  0.30000006346E+02 0.  0.
        -12    1    1    2    0    0  0.80662880768E+01  0.39553782072E+02 -0.48578625381E+01  0.40659138062E+02  0.00000000000E+00 0.  1.
         11    1    3    3    0    0  0.38557323946E+01 -0.75684763908E+00 -0.12251120293E+01  0.41158705511E+01  0.51100000000E-03 0. -1.
        -11    1    3    3    0    0 -0.18629179790E+01 -0.30923330624E+02  0.10781877638E+02  0.32802007955E+02  0.51100000000E-03 0.  1.
         12    1    3    3    0    0 -0.10059102492E+02 -0.78736038093E+01 -0.46989030705E+01  0.13610983431E+02  0.00000000000E+00 0. -1.
</event>
<event>
 7    1  0.5601662E-013  0.5052885E+02  0.7816164E-02  0.1300439E+00
        -11   -1    0    0    0    0  0.00000000000E+00  0.00000000000E+00  0.45593999997E+02  0.45594000000E+02  0.51100000000E-03 0.  1.
         11   -1    0    0    0    0 -0.00000000000E+00 -0.00000000000E+00 -0.45593999997E+02  0.45594000000E+02  0.51100000000E-03 0. -1.
    9900012    2    1    2    0    0  0.97854811622E+01  0.26832379015E+02 -0.28938459448E+02  0.50528848012E+02  0.29999964016E+02 0.  0.
        -12    1    1    2    0    0 -0.97854811622E+01 -0.26832379015E+02  0.28938459448E+02  0.40659151988E+02  0.00000000000E+00 0.  1.
         11    1    3    3    0    0  0.12697065509E+02  0.15491636862E+02 -0.12743030566E+02  0.23740073999E+02  0.51100000000E-03 0. -1.
        -11    1    3    3    0    0  0.73107968480E+01  0.23937021778E+01 -0.48926115593E+01  0.91167542909E+01  0.51100000000E-03 0.  1.
        -12    1    3    3    0    0 -0.10222381195E+02  0.89470399753E+01 -0.11302817323E+02  0.17672019722E+02  0.00000000000E+00 0.  1.
</event>
<event>
 7    1  0.5601662E-013  0.5052887E+02  0.7816164E-02  0.1300439E+00
        -11   -1    0    0    0    0  0.00000000000E+00  0.00000000000E+00  0.45593999997E+02  0.45594000000E+02  0.51100000000E-03 0.  1.
         11   -1    0    0    0    0 -0.00000000000E+00 -0.00000000000E+00 -0.45593999997E+02  0.45594000000E+02  0.51100000000E-03 0. -1.
    9900012    2    1    2    0    0 -0.12094385206E+02  0.38460180593E+02  0.52636116580E+01  0.50528865080E+02  0.30000015899E+02 0.  0.
        -12    1    1    2    0    0  0.12094385206E+02 -0.38460180593E+02 -0.52636116580E+01  0.40659134920E+02  0.00000000000E+00 0.  1.
         11    1    3    3    0    0 -0.77952477255E+01  0.73267932495E+01 -0.38948037539E+01  0.11384958628E+02  0.51100000000E-03 0. -1.
        -11    1    3    3    0    0 -0.10173449805E+02  0.94124440822E+01  0.92131491781E+01  0.16642574998E+02  0.51100000000E-03 0.  1.
        -12    1    3    3    0    0  0.58743123244E+01  0.21720943261E+02 -0.54733766133E-01  0.22501331454E+02  0.00000000000E+00 0.  1.
</event>
<event>
 7    1  0.5601662E-013  0.5052886E+02  0.7816164E-02  0.1300439E+00
        -11   -1    0    0    0    0  0.00000000000E+00  0.00000000000E+00  0.45593999997E+02  0.45594000000E+02  0.51100000000E-03 0.  1.
         11   -1    0    0    0    0 -0.00000000000E+00 -0.00000000000E+00 -0.45593999997E+02  0.45594000000E+02  0.51100000000E-03 0. -1.
    9900012    2    1    2    0    0 -0.40339290622E+02  0.11999444222E+01  0.49464641685E+01  0.50528859056E+02  0.29999997588E+02 0.  0.
        -12    1    1    2    0    0  0.40339290622E+02 -0.11999444222E+01 -0.49464641685E+01  0.40659140944E+02  0.00000000000E+00 0.  1.
         11    1    3    3    0    0 -0.80668499403E+01 -0.93517471019E+01 -0.71415575928E+01  0.14266432172E+02  0.51100000000E-03 0. -1.
        -11    1    3    3    0    0 -0.68189820459E-01  0.21194824849E+00 -0.17644187364E+00  0.28408433175E+00  0.51100000000E-03 0.  1.
        -12    1    3    3    0    0 -0.32204250861E+02  0.10339743276E+02  0.12264463635E+02  0.35978342552E+02  0.00000000000E+00 0.  1.
</event>
<event>
 7    1  0.5601662E-013  0.5052886E+02  0.7816164E-02  0.1300439E+00
        -11   -1    0    0    0    0  0.00000000000E+00  0.00000000000E+00  0.45593999997E+02  0.45594000000E+02  0.51100000000E-03 0.  1.
         11   -1    0    0    0    0 -0.00000000000E+00 -0.00000000000E+00 -0.45593999997E+02  0.45594000000E+02  0.51100000000E-03 0. -1.
    9900012    2    1    2    0    0 -0.35864159064E+02  0.31369192342E+01  0.18896768783E+02  0.50528855419E+02  0.29999986532E+02 0.  0.
        -12    1    1    2    0    0  0.35864159064E+02 -0.31369192342E+01 -0.18896768783E+02  0.40659144581E+02  0.00000000000E+00 0.  1.
         11    1    3    3    0    0 -0.18777787221E+02  0.91403047105E+00 -0.57705205677E+00  0.18808873808E+02  0.51100000000E-03 0. -1.
        -11    1    3    3    0    0 -0.40848915433E+01 -0.70776466448E+01  0.28432273661E+01  0.86523617045E+01  0.51100000000E-03 0.  1.
         12    1    3    3    0    0 -0.13001480300E+02  0.93005354080E+01  0.16630593473E+02  0.23067619906E+02  0.00000000000E+00 0. -1.
</event>
<event>
 7    1  0.5601662E-013  0.5052887E+02  0.7816164E-02  0.1300439E+00
        -11   -1    0    0    0    0  0.00000000000E+00  0.00000000000E+00  0.45593999997E+02  0.45594000000E+02  0.51100000000E-03 0. -1.
         11   -1    0    0    0    0 -0.00000000000E+00 -0.00000000000E+00 -0.45593999997E+02  0.45594000000E+02  0.51100000000E-03 0.  1.
    9900012    2    1    2    0    0  0.25279825164E+01 -0.33300058842E+02  0.23192247470E+02  0.50528868711E+02  0.30000026933E+02 0.  0.
        -12    1    1    2    0    0 -0.25279825164E+01  0.33300058842E+02 -0.23192247470E+02  0.40659131289E+02  0.00000000000E+00 0.  1.
         11    1    3    3    0    0  0.42725371675E+01  0.10644762498E+01  0.31100257586E+01  0.53907275960E+01  0.51100000000E-03 0. -1.
        -11    1    3    3    0    0 -0.18323856759E+01 -0.99762683232E+01 -0.39626872265E+01  0.10889740917E+02  0.51100000000E-03 0.  1.
        -12    1    3    3    0    0  0.87831024790E-01 -0.24388266768E+02  0.24044908938E+02  0.34248400198E+02  0.00000000000E+00 0.  1.
</event>
<event>
 7    1  0.5601662E-013  0.5052886E+02  0.7816164E-02  0.1300439E+00
        -11   -1    0    0    0    0  0.00000000000E+00  0.00000000000E+00  0.45593999997E+02  0.45594000000E+02  0.51100000000E-03 0.  1.
         11   -1    0    0    0    0 -0.00000000000E+00 -0.00000000000E+00 -0.45593999997E+02  0.45594000000E+02  0.51100000000E-03 0. -1.
    9900012    2    1    2    0    0  0.37526219030E+02  0.15197333267E+02 -0.37402881989E+01  0.50528858237E+02  0.29999995097E+02 0.  0.
        -12    1    1    2    0    0 -0.37526219030E+02 -0.15197333267E+02  0.37402881989E+01  0.40659141763E+02  0.00000000000E+00 0.  1.
         11    1    3    3    0    0  0.26415878345E+02  0.79770086894E+01  0.61753756918E+01  0.28276608028E+02  0.51100000000E-03 0. -1.
        -11    1    3    3    0    0  0.65050807227E+01  0.10692969366E+01  0.29849038879E+01  0.72366513408E+01  0.51100000000E-03 0.  1.
        -12    1    3    3    0    0  0.46052599625E+01  0.61510276409E+01 -0.12900567779E+02  0.15015598868E+02  0.00000000000E+00 0.  1.
</event>
<event>
 7    1  0.5601662E-013  0.5052886E+02  0.7816164E-02  0.1300439E+00
        -11   -1    0    0    0    0  0.00000000000E+00  0.00000000000E+00  0.45593999997E+02  0.45594000000E+02  0.51100000000E-03 0.  1.
         11   -1    0    0    0    0 -0.00000000000E+00 -0.00000000000E+00 -0.45593999997E+02  0.45594000000E+02  0.51100000000E-03 0. -1.
    9900012    2    1    2    0    0  0.27785287572E+02  0.29680319780E+02 -0.47110803152E+00  0.50528861661E+02  0.30000005506E+02 0.  0.
        -12    1    1    2    0    0 -0.27785287572E+02 -0.29680319780E+02  0.47110803152E+00  0.40659138339E+02  0.00000000000E+00 0.  1.
         11    1    3    3    0    0  0.16657788552E+02  0.17967253756E+02 -0.80534854435E+01  0.25790749408E+02  0.51100000000E-03 0. -1.
        -11    1    3    3    0    0  0.10568326680E+02  0.30675089086E+01 -0.26615967184E+01  0.11321803614E+02  0.51100000000E-03 0.  1.
        -12    1    3    3    0    0  0.55917234033E+00  0.86455571150E+01  0.10243974130E+02  0.13416308640E+02  0.00000000000E+00 0.  1.
</event>
<event>
 7    1  0.5601662E-013  0.5052885E+02  0.7816164E-02  0.1300439E+00
        -11   -1    0    0    0    0  0.00000000000E+00  0.00000000000E+00  0.45593999997E+02  0.45594000000E+02  0.51100000000E-03 0.  1.
         11   -1    0    0    0    0 -0.00000000000E+00 -0.00000000000E+00 -0.45593999997E+02  0.45594000000E+02  0.51100000000E-03 0. -1.
    9900012    2    1    2    0    0 -0.14932046799E+02 -0.34471873079E+02 -0.15552831208E+02  0.50528848339E+02  0.29999965012E+02 0.  0.
        -12    1    1    2    0    0  0.14932046799E+02  0.34471873079E+02  0.15552831208E+02  0.40659151661E+02  0.00000000000E+00 0.  1.
         11    1    3    3    0    0  0.31830876026E+01  0.98208583230E+00 -0.19251979358E+01  0.38474571629E+01  0.51100000000E-03 0.  1.
        -11    1    3    3    0    0 -0.71131061057E+01 -0.13225584717E+01 -0.72789115211E+01  0.10262942686E+02  0.51100000000E-03 0. -1.
         12    1    3    3    0    0 -0.11002028296E+02 -0.34131400439E+02 -0.63487217515E+01  0.36418448490E+02  0.00000000000E+00 0. -1.
</event>
<event>
 7    1  0.5601662E-013  0.5052885E+02  0.7816164E-02  0.1300439E+00
        -11   -1    0    0    0    0  0.00000000000E+00  0.00000000000E+00  0.45593999997E+02  0.45594000000E+02  0.51100000000E-03 0.  1.
         11   -1    0    0    0    0 -0.00000000000E+00 -0.00000000000E+00 -0.45593999997E+02  0.45594000000E+02  0.51100000000E-03 0. -1.
    9900012    2    1    2    0    0 -0.11545594818E+02  0.27711542917E+02 -0.27421446194E+02  0.50528854880E+02  0.29999984893E+02 0.  0.
        -12    1    1    2    0    0  0.11545594818E+02 -0.27711542917E+02  0.27421446194E+02  0.40659145120E+02  0.00000000000E+00 0.  1.
         11    1    3    3    0    0  0.56938404806E+01  0.90485872505E+01 -0.11041156426E+02  0.15368925992E+02  0.51100000000E-03 0. -1.
        -11    1    3    3    0    0 -0.74860111450E+01  0.17334312268E+02 -0.39264242513E+01  0.19285630721E+02  0.51100000000E-03 0.  1.
         12    1    3    3    0    0 -0.97534241533E+01  0.13286433987E+01 -0.12453865516E+02  0.15874298167E+02  0.00000000000E+00 0. -1.
</event>
<event>
 7    1  0.5601662E-013  0.5052886E+02  0.7816164E-02  0.1300439E+00
        -11   -1    0    0    0    0  0.00000000000E+00  0.00000000000E+00  0.45593999997E+02  0.45594000000E+02  0.51100000000E-03 0.  1.
         11   -1    0    0    0    0 -0.00000000000E+00 -0.00000000000E+00 -0.45593999997E+02  0.45594000000E+02  0.51100000000E-03 0. -1.
    9900012    2    1    2    0    0  0.27503497669E+02 -0.29203488474E+02 -0.66241360136E+01  0.50528864483E+02  0.30000014081E+02 0.  0.
        -12    1    1    2    0    0 -0.27503497669E+02  0.29203488474E+02  0.66241360136E+01  0.40659135517E+02  0.00000000000E+00 0.  1.
         11    1    3    3    0    0  0.15044535934E+02 -0.17374419355E+02 -0.12583909496E+02  0.26202352716E+02  0.51100000000E-03 0. -1.
        -11    1    3    3    0    0  0.67567874259E+01  0.22722274899E+01 -0.16522132359E+01  0.73175817674E+01  0.51100000000E-03 0.  1.
         12    1    3    3    0    0  0.57021743094E+01 -0.14101296609E+02  0.76119867183E+01  0.17008929999E+02  0.00000000000E+00 0. -1.
</event>
<event>
 7    1  0.5601662E-013  0.5052881E+02  0.7816164E-02  0.1300439E+00
        -11   -1    0    0    0    0  0.00000000000E+00  0.00000000000E+00  0.45593999997E+02  0.45594000000E+02  0.51100000000E-03 0. -1.
         11   -1    0    0    0    0 -0.00000000000E+00 -0.00000000000E+00 -0.45593999997E+02  0.45594000000E+02  0.51100000000E-03 0.  1.
    9900012    2    1    2    0    0 -0.23050160203E+02  0.32654339898E+02  0.74534312061E+01  0.50528813630E+02  0.29999859509E+02 0.  0.
        -12    1    1    2    0    0  0.23050160203E+02 -0.32654339898E+02 -0.74534312061E+01  0.40659186370E+02  0.00000000000E+00 0.  1.
         11    1    3    3    0    0 -0.18038899268E+02  0.12415261862E+02  0.93969161077E+01  0.23829449144E+02  0.51100000000E-03 0. -1.
        -11    1    3    3    0    0 -0.11447136003E+01  0.93917542142E-02 -0.56567534191E+01  0.57714224362E+01  0.51100000000E-03 0.  1.
         12    1    3    3    0    0 -0.38665473339E+01  0.20229686281E+02  0.37132685175E+01  0.20927942049E+02  0.00000000000E+00 0. -1.
</event>
<event>
 7    1  0.5601662E-013  0.5052872E+02  0.7816164E-02  0.1300439E+00
        -11   -1    0    0    0    0  0.00000000000E+00  0.00000000000E+00  0.45593999997E+02  0.45594000000E+02  0.51100000000E-03 0.  1.
         11   -1    0    0    0    0 -0.00000000000E+00 -0.00000000000E+00 -0.45593999997E+02  0.45594000000E+02  0.51100000000E-03 0. -1.
    9900012    2    1    2    0    0  0.86725806920E+01  0.37568963257E+02 -0.12904893042E+02  0.50528721594E+02  0.29999579754E+02 0.  0.
        -12    1    1    2    0    0 -0.86725806920E+01 -0.37568963257E+02  0.12904893042E+02  0.40659278406E+02  0.00000000000E+00 0.  1.
         11    1    3    3    0    0 -0.41248834350E+01  0.65788114644E+01 -0.12699919644E+02  0.14885677104E+02  0.51100000000E-03 0. -1.
        -11    1    3    3    0    0 -0.20047543679E+01  0.16215137147E+01  0.91492380713E+00  0.27359518703E+01  0.51100000000E-03 0.  1.
        -12    1    3    3    0    0  0.14802218495E+02  0.29368638078E+02 -0.11198972051E+01  0.32907092620E+02  0.00000000000E+00 0.  1.
</event>
<event>
 7    1  0.5601662E-013  0.5052887E+02  0.7816164E-02  0.1300439E+00
        -11   -1    0    0    0    0  0.00000000000E+00  0.00000000000E+00  0.45593999997E+02  0.45594000000E+02  0.51100000000E-03 0.  1.
         11   -1    0    0    0    0 -0.00000000000E+00 -0.00000000000E+00 -0.45593999997E+02  0.45594000000E+02  0.51100000000E-03 0. -1.
    9900012    2    1    2    0    0 -0.23451487472E+02  0.27851756770E+02 -0.18096195384E+02  0.50528869326E+02  0.30000028803E+02 0.  0.
        -12    1    1    2    0    0  0.23451487472E+02 -0.27851756770E+02  0.18096195384E+02  0.40659130674E+02  0.00000000000E+00 0.  1.
         11    1    3    3    0    0 -0.93381159384E+01  0.96396595252E+01  0.13405063070E+01  0.13487787159E+02  0.51100000000E-03 0. -1.
        -11    1    3    3    0    0 -0.73941439738E+01  0.11261376775E+02  0.19106468118E+01  0.13606709502E+02  0.51100000000E-03 0.  1.
         12    1    3    3    0    0 -0.67192275594E+01  0.69507204690E+01 -0.21347348503E+02  0.23434372664E+02  0.00000000000E+00 0. -1.
</event>
<event>
 7    1  0.5601662E-013  0.5052886E+02  0.7816164E-02  0.1300439E+00
        -11   -1    0    0    0    0  0.00000000000E+00  0.00000000000E+00  0.45593999997E+02  0.45594000000E+02  0.51100000000E-03 0.  1.
         11   -1    0    0    0    0 -0.00000000000E+00 -0.00000000000E+00 -0.45593999997E+02  0.45594000000E+02  0.51100000000E-03 0. -1.
    9900012    2    1    2    0    0  0.10141645320E+02 -0.30764349109E+02 -0.24573712920E+02  0.50528861881E+02  0.30000006175E+02 0.  0.
        -12    1    1    2    0    0 -0.10141645320E+02  0.30764349109E+02  0.24573712920E+02  0.40659138119E+02  0.00000000000E+00 0.  1.
         11    1    3    3    0    0  0.38602879297E+01 -0.35089830574E+01  0.12951938147E+01  0.53751569536E+01  0.51100000000E-03 0. -1.
        -11    1    3    3    0    0  0.66445236367E+01  0.24718168440E+01 -0.68702371508E+01  0.98721695507E+01  0.51100000000E-03 0.  1.
         12    1    3    3    0    0 -0.36316624693E+00 -0.29727182895E+02 -0.18998669584E+02  0.35281535377E+02  0.00000000000E+00 0. -1.
</event>
<event>
 7    1  0.5601662E-013  0.5052886E+02  0.7816164E-02  0.1300439E+00
        -11   -1    0    0    0    0  0.00000000000E+00  0.00000000000E+00  0.45593999997E+02  0.45594000000E+02  0.51100000000E-03 0.  1.
         11   -1    0    0    0    0 -0.00000000000E+00 -0.00000000000E+00 -0.45593999997E+02  0.45594000000E+02  0.51100000000E-03 0. -1.
    9900012    2    1    2    0    0 -0.21617670582E+01 -0.39270265043E+02 -0.10312053041E+02  0.50528863373E+02  0.30000010708E+02 0.  0.
        -12    1    1    2    0    0  0.21617670582E+01  0.39270265043E+02  0.10312053041E+02  0.40659136627E+02  0.00000000000E+00 0.  1.
         11    1    3    3    0    0 -0.44152331488E+01 -0.19427914498E+02  0.48688435548E+01  0.20509602222E+02  0.51100000000E-03 0. -1.
        -11    1    3    3    0    0 -0.50110307616E+00 -0.22150308189E+02 -0.11881733733E+02  0.25140860247E+02  0.51100000000E-03 0.  1.
        -12    1    3    3    0    0  0.27545691667E+01  0.23079576443E+01 -0.32991628629E+01  0.48784009038E+01  0.00000000000E+00 0.  1.
</event>
<event>
 7    1  0.5601662E-013  0.5052885E+02  0.7816164E-02  0.1300439E+00
        -11   -1    0    0    0    0  0.00000000000E+00  0.00000000000E+00  0.45593999997E+02  0.45594000000E+02  0.51100000000E-03 0.  1.
         11   -1    0    0    0    0 -0.00000000000E+00 -0.00000000000E+00 -0.45593999997E+02  0.45594000000E+02  0.51100000000E-03 0. -1.
    9900012    2    1    2    0    0 -0.32351339950E+02 -0.24607879815E+02 -0.10046090072E+01  0.50528853615E+02  0.29999981047E+02 0.  0.
        -12    1    1    2    0    0  0.32351339950E+02  0.24607879815E+02  0.10046090072E+01  0.40659146385E+02  0.00000000000E+00 0.  1.
         11    1    3    3    0    0 -0.16156194364E+02 -0.14914273960E+02 -0.11277589483E+02  0.24711175789E+02  0.51100000000E-03 0. -1.
        -11    1    3    3    0    0 -0.97055560701E+01 -0.29343434450E+01 -0.20421318275E+01  0.10343040788E+02  0.51100000000E-03 0.  1.
        -12    1    3    3    0    0 -0.64895895158E+01 -0.67592624101E+01  0.12315112303E+02  0.15474637038E+02  0.00000000000E+00 0.  1.
</event>
<event>
 7    1  0.5601662E-013  0.5052886E+02  0.7816164E-02  0.1300439E+00
        -11   -1    0    0    0    0  0.00000000000E+00  0.00000000000E+00  0.45593999997E+02  0.45594000000E+02  0.51100000000E-03 0.  1.
         11   -1    0    0    0    0 -0.00000000000E+00 -0.00000000000E+00 -0.45593999997E+02  0.45594000000E+02  0.51100000000E-03 0. -1.
    9900012    2    1    2    0    0  0.19745630780E+01  0.34974768762E+02 -0.20640550630E+02  0.50528859827E+02  0.29999999930E+02 0.  0.
        -12    1    1    2    0    0 -0.19745630780E+01 -0.34974768762E+02  0.20640550630E+02  0.40659140173E+02  0.00000000000E+00 0.  1.
         11    1    3    3    0    0  0.19536965095E+01  0.48242186069E+01 -0.62390750381E+01  0.81250275576E+01  0.51100000000E-03 0. -1.
        -11    1    3    3    0    0  0.97502707338E+01  0.27699746083E+02 -0.77673990078E+01  0.30375585592E+02  0.51100000000E-03 0.  1.
        -12    1    3    3    0    0 -0.97294041654E+01  0.24508040718E+01 -0.66340765845E+01  0.12028246678E+02  0.00000000000E+00 0.  1.
</event>
<event>
 7    1  0.5601662E-013  0.5052886E+02  0.7816164E-02  0.1300439E+00
        -11   -1    0    0    0    0  0.00000000000E+00  0.00000000000E+00  0.45593999997E+02  0.45594000000E+02  0.51100000000E-03 0. -1.
         11   -1    0    0    0    0 -0.00000000000E+00 -0.00000000000E+00 -0.45593999997E+02  0.45594000000E+02  0.51100000000E-03 0.  1.
    9900012    2    1    2    0    0  0.11521840760E+02  0.25978168998E+02  0.29078304733E+02  0.50528857300E+02  0.29999992248E+02 0.  0.
        -12    1    1    2    0    0 -0.11521840760E+02 -0.25978168998E+02 -0.29078304733E+02  0.40659142700E+02  0.00000000000E+00 0.  1.
         11    1    3    3    0    0 -0.44997183872E+01  0.13060005247E+02  0.21556023582E+01  0.13980623176E+02  0.51100000000E-03 0.  1.
        -11    1    3    3    0    0  0.40032204082E+01  0.88207994670E+01  0.42840025363E+01  0.10591739936E+02  0.51100000000E-03 0. -1.
        -12    1    3    3    0    0  0.12018338739E+02  0.40973642839E+01  0.22638699839E+02  0.25956494188E+02  0.00000000000E+00 0.  1.
</event>
<event>
 7    1  0.5601662E-013  0.5052886E+02  0.7816164E-02  0.1300439E+00
        -11   -1    0    0    0    0  0.00000000000E+00  0.00000000000E+00  0.45593999997E+02  0.45594000000E+02  0.51100000000E-03 0. -1.
         11   -1    0    0    0    0 -0.00000000000E+00 -0.00000000000E+00 -0.45593999997E+02  0.45594000000E+02  0.51100000000E-03 0.  1.
    9900012    2    1    2    0    0 -0.34961317434E+02 -0.20188444703E+02  0.48268919255E+01  0.50528857093E+02  0.29999991621E+02 0.  0.
        -12    1    1    2    0    0  0.34961317434E+02  0.20188444703E+02 -0.48268919255E+01  0.40659142907E+02  0.00000000000E+00 0.  1.
         11    1    3    3    0    0 -0.20474342160E+02 -0.20591428773E+02  0.52579091297E+01  0.29510188656E+02  0.51100000000E-03 0. -1.
        -11    1    3    3    0    0 -0.61005858408E+01 -0.36846998301E+01  0.63017021290E+01  0.95134436679E+01  0.51100000000E-03 0.  1.
        -12    1    3    3    0    0 -0.83863894328E+01  0.40876838998E+01 -0.67327193332E+01  0.11505224770E+02  0.00000000000E+00 0.  1.
</event>
<event>
 7    1  0.5601662E-013  0.5052886E+02  0.7816164E-02  0.1300439E+00
        -11   -1    0    0    0    0  0.00000000000E+00  0.00000000000E+00  0.45593999997E+02  0.45594000000E+02  0.51100000000E-03 0.  1.
         11   -1    0    0    0    0 -0.00000000000E+00 -0.00000000000E+00 -0.45593999997E+02  0.45594000000E+02  0.51100000000E-03 0. -1.
    9900012    2    1    2    0    0 -0.16808158841E+02 -0.19375216731E+02 -0.31547621812E+02  0.50528859958E+02  0.30000000327E+02 0.  0.
        -12    1    1    2    0    0  0.16808158841E+02  0.19375216731E+02  0.31547621812E+02  0.40659140042E+02  0.00000000000E+00 0.  1.
         11    1    3    3    0    0 -0.56898540926E+01 -0.62981447759E+01 -0.92202280120E+01  0.12532105652E+02  0.51100000000E-03 0. -1.
        -11    1    3    3    0    0 -0.13694730780E+02 -0.11260287565E+02 -0.27035609330E+02  0.32330541277E+02  0.51100000000E-03 0.  1.
        -12    1    3    3    0    0  0.25764260307E+01 -0.18167843901E+01  0.47082155300E+01  0.56662130289E+01  0.00000000000E+00 0.  1.
</event>
<event>
 7    1  0.5601662E-013  0.5052885E+02  0.7816164E-02  0.1300439E+00
        -11   -1    0    0    0    0  0.00000000000E+00  0.00000000000E+00  0.45593999997E+02  0.45594000000E+02  0.51100000000E-03 0.  1.
         11   -1    0    0    0    0 -0.00000000000E+00 -0.00000000000E+00 -0.45593999997E+02  0.45594000000E+02  0.51100000000E-03 0. -1.
    9900012    2    1    2    0    0 -0.29743482830E+02 -0.80512020434E+01 -0.26526773495E+02  0.50528851740E+02  0.29999975348E+02 0.  0.
        -12    1    1    2    0    0  0.29743482830E+02  0.80512020434E+01  0.26526773495E+02  0.40659148260E+02  0.00000000000E+00 0.  1.
         11    1    3    3    0    0 -0.72800121577E+00  0.70171767781E+00 -0.29996516744E+01  0.31654863604E+01  0.51100000000E-03 0. -1.
        -11    1    3    3    0    0  0.32982195589E+01  0.42628542638E+01 -0.69186091854E+01  0.87702526790E+01  0.51100000000E-03 0.  1.
         12    1    3    3    0    0 -0.32313701173E+02 -0.13015773985E+02 -0.16608512636E+02  0.38593112700E+02  0.00000000000E+00 0. -1.
</event>
<event>
 7    1  0.5601662E-013  0.5052886E+02  0.7816164E-02  0.1300439E+00
        -11   -1    0    0    0    0  0.00000000000E+00  0.00000000000E+00  0.45593999997E+02  0.45594000000E+02  0.51100000000E-03 0.  1.
         11   -1    0    0    0    0 -0.00000000000E+00 -0.00000000000E+00 -0.45593999997E+02  0.45594000000E+02  0.51100000000E-03 0. -1.
    9900012    2    1    2    0    0  0.27060169642E+01 -0.59671129963E+00 -0.40564599811E+02  0.50528863880E+02  0.30000012250E+02 0.  0.
        -12    1    1    2    0    0 -0.27060169642E+01  0.59671129963E+00  0.40564599811E+02  0.40659136120E+02  0.00000000000E+00 0.  1.
         11    1    3    3    0    0  0.15606076868E+01 -0.46802845736E+00 -0.14809045016E+02  0.14898401309E+02  0.51100000000E-03 0. -1.
        -11    1    3    3    0    0  0.82161832159E+01 -0.73384925907E+01 -0.22445918622E+02  0.25003567809E+02  0.51100000000E-03 0.  1.
        -12    1    3    3    0    0 -0.70707739385E+01  0.72098097484E+01 -0.33096361723E+01  0.10626894762E+02  0.00000000000E+00 0.  1.
</event>
<event>
 7    1  0.5601662E-013  0.5052886E+02  0.7816164E-02  0.1300439E+00
        -11   -1    0    0    0    0  0.00000000000E+00  0.00000000000E+00  0.45593999997E+02  0.45594000000E+02  0.51100000000E-03 0. -1.
         11   -1    0    0    0    0 -0.00000000000E+00 -0.00000000000E+00 -0.45593999997E+02  0.45594000000E+02  0.51100000000E-03 0.  1.
    9900012    2    1    2    0    0 -0.37140406455E+02  0.47815413526E+01  0.15839586085E+02  0.50528863061E+02  0.30000009759E+02 0.  0.
        -12    1    1    2    0    0  0.37140406455E+02 -0.47815413526E+01 -0.15839586085E+02  0.40659136939E+02  0.00000000000E+00 0.  1.
         11    1    3    3    0    0 -0.17262923308E+02  0.33385635389E+00  0.66459179836E+01  0.18501032601E+02  0.51100000000E-03 0. -1.
        -11    1    3    3    0    0 -0.24340045531E+02  0.43022682037E+01  0.37707347528E+01  0.25003315160E+02  0.51100000000E-03 0.  1.
        -12    1    3    3    0    0  0.44625623850E+01  0.14541679503E+00  0.54229333482E+01  0.70245152988E+01  0.00000000000E+00 0.  1.
</event>
<event>
 7    1  0.5601662E-013  0.5052886E+02  0.7816164E-02  0.1300439E+00
        -11   -1    0    0    0    0  0.00000000000E+00  0.00000000000E+00  0.45593999997E+02  0.45594000000E+02  0.51100000000E-03 0.  1.
         11   -1    0    0    0    0 -0.00000000000E+00 -0.00000000000E+00 -0.45593999997E+02  0.45594000000E+02  0.51100000000E-03 0. -1.
    9900012    2    1    2    0    0 -0.38450335123E+02  0.57309189519E+01 -0.11911915160E+02  0.50528862947E+02  0.30000009415E+02 0.  0.
        -12    1    1    2    0    0  0.38450335123E+02 -0.57309189519E+01  0.11911915160E+02  0.40659137053E+02  0.00000000000E+00 0.  1.
         11    1    3    3    0    0 -0.12273445909E+02  0.28386509500E+01 -0.90221428622E+01  0.15494982277E+02  0.51100000000E-03 0. -1.
        -11    1    3    3    0    0 -0.44107948671E+01 -0.40047886442E+01 -0.95444112671E+01  0.11251187944E+02  0.51100000000E-03 0.  1.
        -12    1    3    3    0    0 -0.21766094347E+02  0.68970566461E+01  0.66546389696E+01  0.23782692726E+02  0.00000000000E+00 0.  1.
</event>
<event>
 7    1  0.5601662E-013  0.5052886E+02  0.7816164E-02  0.1300439E+00
        -11   -1    0    0    0    0  0.00000000000E+00  0.00000000000E+00  0.45593999997E+02  0.45594000000E+02  0.51100000000E-03 0.  1.
         11   -1    0    0    0    0 -0.00000000000E+00 -0.00000000000E+00 -0.45593999997E+02  0.45594000000E+02  0.51100000000E-03 0. -1.
    9900012    2    1    2    0    0 -0.35557999378E+02 -0.17293273822E+02 -0.94729609403E+01  0.50528860459E+02  0.30000001850E+02 0.  0.
        -12    1    1    2    0    0  0.35557999378E+02  0.17293273822E+02  0.94729609403E+01  0.40659139541E+02  0.00000000000E+00 0.  1.
         11    1    3    3    0    0 -0.10703644342E+01 -0.29875349315E+01 -0.67516390397E+01  0.74602731164E+01  0.51100000000E-03 0. -1.
        -11    1    3    3    0    0  0.14414906949E+01  0.28258735928E+01 -0.38595276816E+00  0.31956872166E+01  0.51100000000E-03 0.  1.
         12    1    3    3    0    0 -0.35929125639E+02 -0.17131612483E+02 -0.23353691325E+01  0.39872900126E+02  0.00000000000E+00 0. -1.
</event>
<event>
 7    1  0.5601662E-013  0.5052885E+02  0.7816164E-02  0.1300439E+00
        -11   -1    0    0    0    0  0.00000000000E+00  0.00000000000E+00  0.45593999997E+02  0.45594000000E+02  0.51100000000E-03 0.  1.
         11   -1    0    0    0    0 -0.00000000000E+00 -0.00000000000E+00 -0.45593999997E+02  0.45594000000E+02  0.51100000000E-03 0. -1.
    9900012    2    1    2    0    0  0.40110346004E+02  0.49851900349E+01 -0.44130047874E+01  0.50528848663E+02  0.29999965995E+02 0.  0.
        -12    1    1    2    0    0 -0.40110346004E+02 -0.49851900349E+01  0.44130047874E+01  0.40659151337E+02  0.00000000000E+00 0.  1.
         11    1    3    3    0    0  0.22871159815E+02 -0.36382584268E+01 -0.51422038948E+01  0.23722755675E+02  0.51100000000E-03 0. -1.
        -11    1    3    3    0    0  0.21016143820E+02  0.87139749639E+01  0.19530836735E+01  0.22834758524E+02  0.51100000000E-03 0.  1.
         12    1    3    3    0    0 -0.37769576311E+01 -0.90526502286E-01 -0.12238845661E+01  0.39713344641E+01  0.00000000000E+00 0. -1.
</event>
<event>
 7    1  0.5601662E-013  0.5052883E+02  0.7816164E-02  0.1300439E+00
        -11   -1    0    0    0    0  0.00000000000E+00  0.00000000000E+00  0.45593999997E+02  0.45594000000E+02  0.51100000000E-03 0. -1.
         11   -1    0    0    0    0 -0.00000000000E+00 -0.00000000000E+00 -0.45593999997E+02  0.45594000000E+02  0.51100000000E-03 0.  1.
    9900012    2    1    2    0    0  0.15875075971E+02 -0.62408837257E+01  0.36908010817E+02  0.50528832163E+02  0.29999915842E+02 0.  0.
        -12    1    1    2    0    0 -0.15875075971E+02  0.62408837257E+01 -0.36908010817E+02  0.40659167837E+02  0.00000000000E+00 0.  1.
         11    1    3    3    0    0 -0.29450690304E+00  0.28308493117E+01  0.19003868720E+00  0.28524650927E+01  0.51100000000E-03 0.  1.
        -11    1    3    3    0    0 -0.58234511096E+01 -0.55588126226E+01  0.81924716459E+01  0.11486059922E+02  0.51100000000E-03 0. -1.
        -12    1    3    3    0    0  0.21993033983E+02 -0.35129204149E+01  0.28525500484E+02  0.36190307148E+02  0.00000000000E+00 0.  1.
</event>
<event>
 7    1  0.5601662E-013  0.5052886E+02  0.7816164E-02  0.1300439E+00
        -11   -1    0    0    0    0  0.00000000000E+00  0.00000000000E+00  0.45593999997E+02  0.45594000000E+02  0.51100000000E-03 0.  1.
         11   -1    0    0    0    0 -0.00000000000E+00 -0.00000000000E+00 -0.45593999997E+02  0.45594000000E+02  0.51100000000E-03 0. -1.
    9900012    2    1    2    0    0  0.90037290501E+00 -0.40517568922E+02 -0.32683268203E+01  0.50528855606E+02  0.29999987099E+02 0.  0.
        -12    1    1    2    0    0 -0.90037290501E+00  0.40517568922E+02  0.32683268203E+01  0.40659144394E+02  0.00000000000E+00 0.  1.
         11    1    3    3    0    0 -0.57290591595E+01 -0.16530369055E+02 -0.11035144595E+02  0.20684526498E+02  0.51100000000E-03 0. -1.
        -11    1    3    3    0    0  0.98385818974E+00  0.19654443696E+01  0.99635998937E-01  0.22001991049E+01  0.51100000000E-03 0.  1.
         12    1    3    3    0    0  0.56455738748E+01 -0.25952644236E+02  0.76671817760E+01  0.27644130002E+02  0.00000000000E+00 0. -1.
</event>
<event>
 7    1  0.5601662E-013  0.5052886E+02  0.7816164E-02  0.1300439E+00
        -11   -1    0    0    0    0  0.00000000000E+00  0.00000000000E+00  0.45593999997E+02  0.45594000000E+02  0.51100000000E-03 0. -1.
         11   -1    0    0    0    0 -0.00000000000E+00 -0.00000000000E+00 -0.45593999997E+02  0.45594000000E+02  0.51100000000E-03 0.  1.
    9900012    2    1    2    0    0 -0.30245733910E+02  0.24494470566E+02  0.11763589636E+02  0.50528861431E+02  0.30000004805E+02 0.  0.
        -12    1    1    2    0    0  0.30245733910E+02 -0.24494470566E+02 -0.11763589636E+02  0.40659138569E+02  0.00000000000E+00 0.  1.
         11    1    3    3    0    0  0.18182435606E+01  0.34709497911E+01  0.19401829547E+01  0.43723920521E+01  0.51100000000E-03 0. -1.
        -11    1    3    3    0    0  0.37210004622E+01  0.31796633585E+01  0.25298522453E+01  0.55096511829E+01  0.51100000000E-03 0.  1.
         12    1    3    3    0    0 -0.35784977933E+02  0.17843857417E+02  0.72935544357E+01  0.40646818196E+02  0.00000000000E+00 0. -1.
</event>
<event>
 7    1  0.5601662E-013  0.5052886E+02  0.7816164E-02  0.1300439E+00
        -11   -1    0    0    0    0  0.00000000000E+00  0.00000000000E+00  0.45593999997E+02  0.45594000000E+02  0.51100000000E-03 0. -1.
         11   -1    0    0    0    0 -0.00000000000E+00 -0.00000000000E+00 -0.45593999997E+02  0.45594000000E+02  0.51100000000E-03 0.  1.
    9900012    2    1    2    0    0 -0.38738226136E+02 -0.11149298896E+01  0.12299281227E+02  0.50528861402E+02  0.30000004718E+02 0.  0.
        -12    1    1    2    0    0  0.38738226136E+02  0.11149298896E+01 -0.12299281227E+02  0.40659138598E+02  0.00000000000E+00 0.  1.
         11    1    3    3    0    0 -0.10839581592E+02 -0.69197314658E+01  0.10276644554E+02  0.16461732479E+02  0.51100000000E-03 0. -1.
        -11    1    3    3    0    0  0.26288191466E+01  0.12689570246E+00 -0.11143489505E+01  0.28580704102E+01  0.51100000000E-03 0.  1.
        -12    1    3    3    0    0 -0.30527463690E+02  0.56779058737E+01  0.31369856237E+01  0.31209058513E+02  0.00000000000E+00 0.  1.
</event>
<event>
 7    1  0.5601662E-013  0.5052887E+02  0.7816164E-02  0.1300439E+00
        -11   -1    0    0    0    0  0.00000000000E+00  0.00000000000E+00  0.45593999997E+02  0.45594000000E+02  0.51100000000E-03 0. -1.
         11   -1    0    0    0    0 -0.00000000000E+00 -0.00000000000E+00 -0.45593999997E+02  0.45594000000E+02  0.51100000000E-03 0.  1.
    9900012    2    1    2    0    0  0.89018198161E+01 -0.11094348545E+02  0.38089871149E+02  0.50528865112E+02  0.30000015995E+02 0.  0.
        -12    1    1    2    0    0 -0.89018198161E+01  0.11094348545E+02 -0.38089871149E+02  0.40659134888E+02  0.00000000000E+00 0.  1.
         11    1    3    3    0    0 -0.11073117721E+01 -0.55813860168E+00  0.11790838544E+02  0.11855864873E+02  0.51100000000E-03 0. -1.
        -11    1    3    3    0    0 -0.43964378162E+01 -0.11524037914E+02  0.18575986171E+02  0.22297968020E+02  0.51100000000E-03 0.  1.
         12    1    3    3    0    0  0.14405569404E+02  0.98782797060E+00  0.77230464339E+01  0.16375032219E+02  0.00000000000E+00 0. -1.
</event>
<event>
 7    1  0.5601662E-013  0.5052886E+02  0.7816164E-02  0.1300439E+00
        -11   -1    0    0    0    0  0.00000000000E+00  0.00000000000E+00  0.45593999997E+02  0.45594000000E+02  0.51100000000E-03 0. -1.
         11   -1    0    0    0    0 -0.00000000000E+00 -0.00000000000E+00 -0.45593999997E+02  0.45594000000E+02  0.51100000000E-03 0.  1.
    9900012    2    1    2    0    0 -0.34999810895E+02  0.20652664129E+02  0.12829740520E+01  0.50528864240E+02  0.30000013344E+02 0.  0.
        -12    1    1    2    0    0  0.34999810895E+02 -0.20652664129E+02 -0.12829740520E+01  0.40659135760E+02  0.00000000000E+00 0.  1.
         11    1    3    3    0    0 -0.84242789585E+01  0.13915307786E+01  0.69606519225E+01  0.11016147663E+02  0.51100000000E-03 0. -1.
        -11    1    3    3    0    0 -0.92078723684E+01  0.12428588670E+02  0.69719182365E+01  0.16966507420E+02  0.51100000000E-03 0.  1.
        -12    1    3    3    0    0 -0.17367659568E+02  0.68325446798E+01 -0.12649596107E+02  0.22546209157E+02  0.00000000000E+00 0.  1.
</event>
<event>
 7    1  0.5601662E-013  0.5052888E+02  0.7816164E-02  0.1300439E+00
        -11   -1    0    0    0    0  0.00000000000E+00  0.00000000000E+00  0.45593999997E+02  0.45594000000E+02  0.51100000000E-03 0. -1.
         11   -1    0    0    0    0 -0.00000000000E+00 -0.00000000000E+00 -0.45593999997E+02  0.45594000000E+02  0.51100000000E-03 0.  1.
    9900012    2    1    2    0    0 -0.98737918160E+01  0.38693433763E+02  0.76479289747E+01  0.50528875577E+02  0.30000047805E+02 0.  0.
        -12    1    1    2    0    0  0.98737918160E+01 -0.38693433763E+02 -0.76479289747E+01  0.40659124423E+02  0.00000000000E+00 0.  1.
         11    1    3    3    0    0 -0.44828239144E+01  0.19742476264E+02  0.10837908017E+00  0.20245316139E+02  0.51100000000E-03 0. -1.
        -11    1    3    3    0    0  0.94571514886E+00  0.21991095699E+02  0.38494255715E+01  0.22345486002E+02  0.51100000000E-03 0.  1.
        -12    1    3    3    0    0 -0.63366830504E+01 -0.30401381998E+01  0.36901243230E+01  0.79380734360E+01  0.00000000000E+00 0.  1.
</event>
<event>
 7    1  0.5601662E-013  0.5052886E+02  0.7816164E-02  0.1300439E+00
        -11   -1    0    0    0    0  0.00000000000E+00  0.00000000000E+00  0.45593999997E+02  0.45594000000E+02  0.51100000000E-03 0.  1.
         11   -1    0    0    0    0 -0.00000000000E+00 -0.00000000000E+00 -0.45593999997E+02  0.45594000000E+02  0.51100000000E-03 0. -1.
    9900012    2    1    2    0    0 -0.13743600370E+02  0.18321995639E+02 -0.33594392178E+02  0.50528864974E+02  0.30000015574E+02 0.  0.
        -12    1    1    2    0    0  0.13743600370E+02 -0.18321995639E+02  0.33594392178E+02  0.40659135026E+02  0.00000000000E+00 0.  1.
         11    1    3    3    0    0 -0.49837710082E+01  0.54774645075E+01 -0.59174955532E+01  0.94793114083E+01  0.51100000000E-03 0. -1.
        -11    1    3    3    0    0 -0.61557721503E+01  0.98015469291E+01  0.14354952022E+01  0.11662954159E+02  0.51100000000E-03 0.  1.
        -12    1    3    3    0    0 -0.26040572113E+01  0.30429842022E+01 -0.29112391827E+02  0.29386599407E+02  0.00000000000E+00 0.  1.
</event>
<event>
 7    1  0.5601662E-013  0.5052886E+02  0.7816164E-02  0.1300439E+00
        -11   -1    0    0    0    0  0.00000000000E+00  0.00000000000E+00  0.45593999997E+02  0.45594000000E+02  0.51100000000E-03 0. -1.
         11   -1    0    0    0    0 -0.00000000000E+00 -0.00000000000E+00 -0.45593999997E+02  0.45594000000E+02  0.51100000000E-03 0.  1.
    9900012    2    1    2    0    0  0.20204939196E+02  0.57617710948E+01  0.34809879479E+02  0.50528864700E+02  0.30000014742E+02 0.  0.
        -12    1    1    2    0    0 -0.20204939196E+02 -0.57617710948E+01 -0.34809879479E+02  0.40659135300E+02  0.00000000000E+00 0.  1.
         11    1    3    3    0    0  0.16680733778E+02 -0.19770375643E+01  0.26693586714E+02  0.31538914515E+02  0.51100000000E-03 0. -1.
        -11    1    3    3    0    0  0.76202981820E+01  0.39345839031E+00  0.72665153053E+01  0.10536887531E+02  0.51100000000E-03 0.  1.
        -12    1    3    3    0    0 -0.40960927640E+01  0.73453502687E+01  0.84977745939E+00  0.84530626540E+01  0.00000000000E+00 0.  1.
</event>
<event>
 7    1  0.5601662E-013  0.5052886E+02  0.7816164E-02  0.1300439E+00
        -11   -1    0    0    0    0  0.00000000000E+00  0.00000000000E+00  0.45593999997E+02  0.45594000000E+02  0.51100000000E-03 0. -1.
         11   -1    0    0    0    0 -0.00000000000E+00 -0.00000000000E+00 -0.45593999997E+02  0.45594000000E+02  0.51100000000E-03 0.  1.
    9900012    2    1    2    0    0  0.17798617869E+02  0.50591233243E+01  0.36204697309E+02  0.50528860387E+02  0.30000001633E+02 0.  0.
        -12    1    1    2    0    0 -0.17798617869E+02 -0.50591233243E+01 -0.36204697309E+02  0.40659139613E+02  0.00000000000E+00 0.  1.
         11    1    3    3    0    0 -0.91869216248E+00 -0.42209267840E+01  0.17246862250E+02  0.17779608430E+02  0.51100000000E-03 0. -1.
        -11    1    3    3    0    0 -0.15709018017E+01  0.12075677467E+01  0.81466611479E+01  0.83841541287E+01  0.51100000000E-03 0.  1.
        -12    1    3    3    0    0  0.20288211833E+02  0.80724823617E+01  0.10811173911E+02  0.24365097829E+02  0.00000000000E+00 0.  1.
</event>
<event>
 7    1  0.5601662E-013  0.5052885E+02  0.7816164E-02  0.1300439E+00
        -11   -1    0    0    0    0  0.00000000000E+00  0.00000000000E+00  0.45593999997E+02  0.45594000000E+02  0.51100000000E-03 0. -1.
         11   -1    0    0    0    0 -0.00000000000E+00 -0.00000000000E+00 -0.45593999997E+02  0.45594000000E+02  0.51100000000E-03 0.  1.
    9900012    2    1    2    0    0  0.14493424567E+02 -0.33102832834E+01  0.37843745981E+02  0.50528850465E+02  0.29999971473E+02 0.  0.
        -12    1    1    2    0    0 -0.14493424567E+02  0.33102832834E+01 -0.37843745981E+02  0.40659149535E+02  0.00000000000E+00 0.  1.
         11    1    3    3    0    0  0.11843315128E+02  0.30541369972E+01  0.25486394377E+02  0.28269208772E+02  0.51100000000E-03 0. -1.
        -11    1    3    3    0    0  0.70901155431E+01  0.62821659390E+00  0.12020241746E+02  0.13969631577E+02  0.51100000000E-03 0.  1.
        -12    1    3    3    0    0 -0.44400061041E+01 -0.69926368745E+01  0.33710985799E+00  0.82900101158E+01  0.00000000000E+00 0.  1.
</event>
<event>
 7    1  0.5601662E-013  0.5052886E+02  0.7816164E-02  0.1300439E+00
        -11   -1    0    0    0    0  0.00000000000E+00  0.00000000000E+00  0.45593999997E+02  0.45594000000E+02  0.51100000000E-03 0.  1.
         11   -1    0    0    0    0 -0.00000000000E+00 -0.00000000000E+00 -0.45593999997E+02  0.45594000000E+02  0.51100000000E-03 0. -1.
    9900012    2    1    2    0    0  0.15423966262E+02 -0.29163004174E+02 -0.23765232607E+02  0.50528857995E+02  0.29999994362E+02 0.  0.
        -12    1    1    2    0    0 -0.15423966262E+02  0.29163004174E+02  0.23765232607E+02  0.40659142005E+02  0.00000000000E+00 0.  1.
         11    1    3    3    0    0  0.87387221151E+01 -0.12822769811E+02 -0.24011610178E+02  0.28589265703E+02  0.51100000000E-03 0. -1.
        -11    1    3    3    0    0  0.38674097058E+01 -0.55029539022E+00 -0.37444564810E+01  0.54111586050E+01  0.51100000000E-03 0.  1.
         12    1    3    3    0    0  0.28178344413E+01 -0.15789938973E+02  0.39908340525E+01  0.16528433687E+02  0.00000000000E+00 0. -1.
</event>
<event>
 7    1  0.5601662E-013  0.5052886E+02  0.7816164E-02  0.1300439E+00
        -11   -1    0    0    0    0  0.00000000000E+00  0.00000000000E+00  0.45593999997E+02  0.45594000000E+02  0.51100000000E-03 0. -1.
         11   -1    0    0    0    0 -0.00000000000E+00 -0.00000000000E+00 -0.45593999997E+02  0.45594000000E+02  0.51100000000E-03 0.  1.
    9900012    2    1    2    0    0 -0.26174495798E+02 -0.17713395008E+02  0.25579231167E+02  0.50528860067E+02  0.30000000659E+02 0.  0.
        -12    1    1    2    0    0  0.26174495798E+02  0.17713395008E+02 -0.25579231167E+02  0.40659139933E+02  0.00000000000E+00 0.  1.
         11    1    3    3    0    0 -0.21816260890E+02 -0.98914060510E+01  0.37452519942E+01  0.24244918347E+02  0.51100000000E-03 0. -1.
        -11    1    3    3    0    0 -0.22507797256E+01 -0.45013189927E+00 -0.76522103788E+00  0.24195436755E+01  0.51100000000E-03 0.  1.
        -12    1    3    3    0    0 -0.21074551825E+01 -0.73718570575E+01  0.22599200211E+02  0.23864398044E+02  0.00000000000E+00 0.  1.
</event>
<event>
 7    1  0.5601662E-013  0.5052886E+02  0.7816164E-02  0.1300439E+00
        -11   -1    0    0    0    0  0.00000000000E+00  0.00000000000E+00  0.45593999997E+02  0.45594000000E+02  0.51100000000E-03 0.  1.
         11   -1    0    0    0    0 -0.00000000000E+00 -0.00000000000E+00 -0.45593999997E+02  0.45594000000E+02  0.51100000000E-03 0. -1.
    9900012    2    1    2    0    0  0.14154020044E+02 -0.18566839377E+02 -0.33288163306E+02  0.50528860509E+02  0.30000002004E+02 0.  0.
        -12    1    1    2    0    0 -0.14154020044E+02  0.18566839377E+02  0.33288163306E+02  0.40659139491E+02  0.00000000000E+00 0.  1.
         11    1    3    3    0    0  0.81527784963E+00 -0.10740689167E+02 -0.97768794772E+01  0.14546974061E+02  0.51100000000E-03 0. -1.
        -11    1    3    3    0    0 -0.58699378792E+01 -0.43279526362E+01 -0.37442873242E+01  0.81979895434E+01  0.51100000000E-03 0.  1.
        -12    1    3    3    0    0  0.19208680073E+02 -0.34981975740E+01 -0.19766996505E+02  0.27783896905E+02  0.00000000000E+00 0.  1.
</event>
<event>
 7    1  0.5601662E-013  0.5052885E+02  0.7816164E-02  0.1300439E+00
        -11   -1    0    0    0    0  0.00000000000E+00  0.00000000000E+00  0.45593999997E+02  0.45594000000E+02  0.51100000000E-03 0.  1.
         11   -1    0    0    0    0 -0.00000000000E+00 -0.00000000000E+00 -0.45593999997E+02  0.45594000000E+02  0.51100000000E-03 0. -1.
    9900012    2    1    2    0    0  0.44982864207E+01  0.23054730813E+02 -0.33187515196E+02  0.50528851478E+02  0.29999974553E+02 0.  0.
        -12    1    1    2    0    0 -0.44982864207E+01 -0.23054730813E+02  0.33187515196E+02  0.40659148522E+02  0.00000000000E+00 0.  1.
         11    1    3    3    0    0 -0.77376005221E+01  0.83903760678E+01 -0.15867988281E+02  0.19546404394E+02  0.51100000000E-03 0. -1.
        -11    1    3    3    0    0  0.61097815454E+01  0.62726652581E+01  0.20581428439E+01  0.89950937849E+01  0.51100000000E-03 0.  1.
         12    1    3    3    0    0  0.61261053975E+01  0.83916894874E+01 -0.19377669760E+02  0.21987353299E+02  0.00000000000E+00 0. -1.
</event>
<event>
 7    1  0.5601662E-013  0.5052886E+02  0.7816164E-02  0.1300439E+00
        -11   -1    0    0    0    0  0.00000000000E+00  0.00000000000E+00  0.45593999997E+02  0.45594000000E+02  0.51100000000E-03 0.  1.
         11   -1    0    0    0    0 -0.00000000000E+00 -0.00000000000E+00 -0.45593999997E+02  0.45594000000E+02  0.51100000000E-03 0. -1.
    9900012    2    1    2    0    0  0.29891995095E+02 -0.20970055752E+02 -0.17885507711E+02  0.50528855948E+02  0.29999988138E+02 0.  0.
        -12    1    1    2    0    0 -0.29891995095E+02  0.20970055752E+02  0.17885507711E+02  0.40659144052E+02  0.00000000000E+00 0.  1.
         11    1    3    3    0    0  0.11072737494E+02 -0.56211107957E+01 -0.14167167953E+02  0.18839083052E+02  0.51100000000E-03 0. -1.
        -11    1    3    3    0    0  0.20050839429E+02 -0.50713292930E+01  0.25924640396E-01  0.20682243953E+02  0.51100000000E-03 0.  1.
         12    1    3    3    0    0 -0.12315818274E+01 -0.10277615663E+02 -0.37442643979E+01  0.11007528942E+02  0.00000000000E+00 0. -1.
</event>
<event>
 7    1  0.5601662E-013  0.5052887E+02  0.7816164E-02  0.1300439E+00
        -11   -1    0    0    0    0  0.00000000000E+00  0.00000000000E+00  0.45593999997E+02  0.45594000000E+02  0.51100000000E-03 0. -1.
         11   -1    0    0    0    0 -0.00000000000E+00 -0.00000000000E+00 -0.45593999997E+02  0.45594000000E+02  0.51100000000E-03 0.  1.
    9900012    2    1    2    0    0  0.29844849975E+02  0.21263876294E+01  0.27530498313E+02  0.50528869024E+02  0.30000027886E+02 0.  0.
        -12    1    1    2    0    0 -0.29844849975E+02 -0.21263876294E+01 -0.27530498313E+02  0.40659130976E+02  0.00000000000E+00 0.  1.
         11    1    3    3    0    0  0.73432519326E+01  0.12808713019E+01  0.17047714360E+02  0.18606142679E+02  0.51100000000E-03 0. -1.
        -11    1    3    3    0    0  0.21194980472E+02 -0.10432049007E+01  0.30046326081E-01  0.21220659196E+02  0.51100000000E-03 0.  1.
         12    1    3    3    0    0  0.13066175695E+01  0.18887212282E+01  0.10452737627E+02  0.10702067149E+02  0.00000000000E+00 0. -1.
</event>
<event>
 7    1  0.5601662E-013  0.5052885E+02  0.7816164E-02  0.1300439E+00
        -11   -1    0    0    0    0  0.00000000000E+00  0.00000000000E+00  0.45593999997E+02  0.45594000000E+02  0.51100000000E-03 0.  1.
         11   -1    0    0    0    0 -0.00000000000E+00 -0.00000000000E+00 -0.45593999997E+02  0.45594000000E+02  0.51100000000E-03 0. -1.
    9900012    2    1    2    0    0 -0.17737315400E+02  0.25907654936E+02 -0.25833070572E+02  0.50528850021E+02  0.29999970123E+02 0.  0.
        -12    1    1    2    0    0  0.17737315400E+02 -0.25907654936E+02  0.25833070572E+02  0.40659149979E+02  0.00000000000E+00 0.  1.
         11    1    3    3    0    0  0.66961275450E+01  0.11725075590E+01 -0.89734794705E+01  0.11257718781E+02  0.51100000000E-03 0. -1.
        -11    1    3    3    0    0 -0.13091113186E+02  0.15392524183E+02 -0.62653927448E+01  0.21155665711E+02  0.51100000000E-03 0.  1.
        -12    1    3    3    0    0 -0.11342329760E+02  0.93426231938E+01 -0.10594198356E+02  0.18115465529E+02  0.00000000000E+00 0.  1.
</event>
<event>
 7    1  0.5601662E-013  0.5052887E+02  0.7816164E-02  0.1300439E+00
        -11   -1    0    0    0    0  0.00000000000E+00  0.00000000000E+00  0.45593999997E+02  0.45594000000E+02  0.51100000000E-03 0.  1.
         11   -1    0    0    0    0 -0.00000000000E+00 -0.00000000000E+00 -0.45593999997E+02  0.45594000000E+02  0.51100000000E-03 0. -1.
    9900012    2    1    2    0    0  0.34775012761E+02 -0.19525503974E+02 -0.79131712853E+01  0.50528866982E+02  0.30000021678E+02 0.  0.
        -12    1    1    2    0    0 -0.34775012761E+02  0.19525503974E+02  0.79131712853E+01  0.40659133018E+02  0.00000000000E+00 0.  1.
         11    1    3    3    0    0  0.26778697134E+02 -0.47043478930E+01 -0.61309575807E+01  0.27871457630E+02  0.51100000000E-03 0. -1.
        -11    1    3    3    0    0  0.21824802037E+01 -0.26662604439E+00 -0.60307267948E+01  0.64190322652E+01  0.51100000000E-03 0.  1.
        -12    1    3    3    0    0  0.58138354232E+01 -0.14554530037E+02  0.42485130902E+01  0.16238377086E+02  0.00000000000E+00 0.  1.
</event>
<event>
 7    1  0.5601662E-013  0.5052890E+02  0.7816164E-02  0.1300439E+00
        -11   -1    0    0    0    0  0.00000000000E+00  0.00000000000E+00  0.45593999997E+02  0.45594000000E+02  0.51100000000E-03 0. -1.
         11   -1    0    0    0    0 -0.00000000000E+00 -0.00000000000E+00 -0.45593999997E+02  0.45594000000E+02  0.51100000000E-03 0.  1.
    9900012    2    1    2    0    0  0.36208412453E+02  0.62535854643E+01  0.17407070149E+02  0.50528898255E+02  0.30000116736E+02 0.  0.
        -12    1    1    2    0    0 -0.36208412453E+02 -0.62535854643E+01 -0.17407070149E+02  0.40659101745E+02  0.00000000000E+00 0.  1.
         11    1    3    3    0    0  0.19866180805E+02  0.33326800873E+01  0.59116831551E+01  0.20993329758E+02  0.51100000000E-03 0. -1.
        -11    1    3    3    0    0  0.14592723825E+02  0.44242991344E+01 -0.24119326330E+01  0.15438245715E+02  0.51100000000E-03 0.  1.
        -12    1    3    3    0    0  0.17495078228E+01 -0.15033937573E+01  0.13907319627E+02  0.14097322782E+02  0.00000000000E+00 0.  1.
</event>
<event>
 7    1  0.5601662E-013  0.5052886E+02  0.7816164E-02  0.1300439E+00
        -11   -1    0    0    0    0  0.00000000000E+00  0.00000000000E+00  0.45593999997E+02  0.45594000000E+02  0.51100000000E-03 0.  1.
         11   -1    0    0    0    0 -0.00000000000E+00 -0.00000000000E+00 -0.45593999997E+02  0.45594000000E+02  0.51100000000E-03 0. -1.
    9900012    2    1    2    0    0  0.29581505776E+02  0.10359273358E+02 -0.25899531995E+02  0.50528858518E+02  0.29999995953E+02 0.  0.
        -12    1    1    2    0    0 -0.29581505776E+02 -0.10359273358E+02  0.25899531995E+02  0.40659141482E+02  0.00000000000E+00 0.  1.
         11    1    3    3    0    0  0.17207632285E+02  0.98905012055E+01 -0.15064829124E+02  0.24917337333E+02  0.51100000000E-03 0. -1.
        -11    1    3    3    0    0  0.17159853919E+02  0.31392786105E+01 -0.64720761502E+01  0.18606542577E+02  0.51100000000E-03 0.  1.
        -12    1    3    3    0    0 -0.47859804287E+01 -0.26705064575E+01 -0.43626267202E+01  0.70049786084E+01  0.00000000000E+00 0.  1.
</event>
<event>
 7    1  0.5601662E-013  0.5052886E+02  0.7816164E-02  0.1300439E+00
        -11   -1    0    0    0    0  0.00000000000E+00  0.00000000000E+00  0.45593999997E+02  0.45594000000E+02  0.51100000000E-03 0. -1.
         11   -1    0    0    0    0 -0.00000000000E+00 -0.00000000000E+00 -0.45593999997E+02  0.45594000000E+02  0.51100000000E-03 0.  1.
    9900012    2    1    2    0    0 -0.23830480831E+02  0.32773654566E+02 -0.33409003223E+01  0.50528857544E+02  0.29999992992E+02 0.  0.
        -12    1    1    2    0    0  0.23830480831E+02 -0.32773654566E+02  0.33409003223E+01  0.40659142456E+02  0.00000000000E+00 0.  1.
         11    1    3    3    0    0 -0.53771027777E+01  0.82397375770E+01 -0.35354050929E+01  0.10454931805E+02  0.51100000000E-03 0. -1.
        -11    1    3    3    0    0  0.45281622691E+01  0.75858955132E+00  0.48528394372E+01  0.66805510632E+01  0.51100000000E-03 0.  1.
         12    1    3    3    0    0 -0.22981540323E+02  0.23775327438E+02 -0.46583346666E+01  0.33393374676E+02  0.00000000000E+00 0. -1.
</event>
<event>
 7    1  0.5601662E-013  0.5052886E+02  0.7816164E-02  0.1300439E+00
        -11   -1    0    0    0    0  0.00000000000E+00  0.00000000000E+00  0.45593999997E+02  0.45594000000E+02  0.51100000000E-03 0. -1.
         11   -1    0    0    0    0 -0.00000000000E+00 -0.00000000000E+00 -0.45593999997E+02  0.45594000000E+02  0.51100000000E-03 0.  1.
    9900012    2    1    2    0    0  0.40064809264E+01  0.40323335710E+02 -0.33379744868E+01  0.50528863685E+02  0.30000011657E+02 0.  0.
        -12    1    1    2    0    0 -0.40064809264E+01 -0.40323335710E+02  0.33379744868E+01  0.40659136315E+02  0.00000000000E+00 0.  1.
         11    1    3    3    0    0 -0.22776391627E+01 -0.51705677444E+00  0.24945341687E+01  0.34172633559E+01  0.51100000000E-03 0. -1.
        -11    1    3    3    0    0 -0.50817467069E+00 -0.21160475656E+01  0.19601503071E+01  0.29288373603E+01  0.51100000000E-03 0.  1.
         12    1    3    3    0    0  0.67922947598E+01  0.42956440050E+02 -0.77926589625E+01  0.44182762969E+02  0.00000000000E+00 0. -1.
</event>
<event>
 7    1  0.5601662E-013  0.5052887E+02  0.7816164E-02  0.1300439E+00
        -11   -1    0    0    0    0  0.00000000000E+00  0.00000000000E+00  0.45593999997E+02  0.45594000000E+02  0.51100000000E-03 0. -1.
         11   -1    0    0    0    0 -0.00000000000E+00 -0.00000000000E+00 -0.45593999997E+02  0.45594000000E+02  0.51100000000E-03 0.  1.
    9900012    2    1    2    0    0 -0.18646950011E+02  0.15834874712E+02  0.32476339637E+02  0.50528872635E+02  0.30000038862E+02 0.  0.
        -12    1    1    2    0    0  0.18646950011E+02 -0.15834874712E+02 -0.32476339637E+02  0.40659127365E+02  0.00000000000E+00 0.  1.
         11    1    3    3    0    0  0.64538717567E+00 -0.35187747961E-02 -0.34240999295E+00  0.73060375902E+00  0.51100000000E-03 0.  1.
        -11    1    3    3    0    0 -0.13481091599E+02  0.17430871862E+02  0.36573313491E+02  0.42698739847E+02  0.51100000000E-03 0. -1.
        -12    1    3    3    0    0 -0.58112455878E+01 -0.15924783745E+01 -0.37545638607E+01  0.70995290294E+01  0.00000000000E+00 0.  1.
</event>
<event>
 7    1  0.5601662E-013  0.5052887E+02  0.7816164E-02  0.1300439E+00
        -11   -1    0    0    0    0  0.00000000000E+00  0.00000000000E+00  0.45593999997E+02  0.45594000000E+02  0.51100000000E-03 0. -1.
         11   -1    0    0    0    0 -0.00000000000E+00 -0.00000000000E+00 -0.45593999997E+02  0.45594000000E+02  0.51100000000E-03 0.  1.
    9900012    2    1    2    0    0  0.19284977519E+02 -0.35782565834E+02 -0.92870093256E+00  0.50528869893E+02  0.30000030528E+02 0.  0.
        -12    1    1    2    0    0 -0.19284977519E+02  0.35782565834E+02  0.92870093256E+00  0.40659130107E+02  0.00000000000E+00 0.  1.
         11    1    3    3    0    0  0.84544215560E+01 -0.13508421127E+02  0.71714748807E+00  0.15952084064E+02  0.51100000000E-03 0. -1.
        -11    1    3    3    0    0  0.83198831280E+01 -0.18805775665E+02  0.94885331016E+01  0.22647514528E+02  0.51100000000E-03 0.  1.
        -12    1    3    3    0    0  0.25106728349E+01 -0.34683690422E+01 -0.11134381522E+02  0.11929271301E+02  0.00000000000E+00 0.  1.
</event>
<event>
 7    1  0.5601662E-013  0.5052888E+02  0.7816164E-02  0.1300439E+00
        -11   -1    0    0    0    0  0.00000000000E+00  0.00000000000E+00  0.45593999997E+02  0.45594000000E+02  0.51100000000E-03 0.  1.
         11   -1    0    0    0    0 -0.00000000000E+00 -0.00000000000E+00 -0.45593999997E+02  0.45594000000E+02  0.51100000000E-03 0. -1.
    9900012    2    1    2    0    0  0.18787640715E+02 -0.32321181636E+01 -0.35912981506E+02  0.50528877135E+02  0.30000052540E+02 0.  0.
        -12    1    1    2    0    0 -0.18787640715E+02  0.32321181636E+01  0.35912981506E+02  0.40659122865E+02  0.00000000000E+00 0.  1.
         11    1    3    3    0    0  0.11473125555E+02 -0.96933182253E+01 -0.61211423845E+01  0.16219168061E+02  0.51100000000E-03 0. -1.
        -11    1    3    3    0    0 -0.82668099654E+00  0.20315230718E+01  0.80774154890E+00  0.23372920511E+01  0.51100000000E-03 0.  1.
         12    1    3    3    0    0  0.81411961564E+01  0.44296769900E+01 -0.30599580671E+02  0.31972417023E+02  0.00000000000E+00 0. -1.
</event>
<event>
 7    1  0.5601662E-013  0.5052886E+02  0.7816164E-02  0.1300439E+00
        -11   -1    0    0    0    0  0.00000000000E+00  0.00000000000E+00  0.45593999997E+02  0.45594000000E+02  0.51100000000E-03 0. -1.
         11   -1    0    0    0    0 -0.00000000000E+00 -0.00000000000E+00 -0.45593999997E+02  0.45594000000E+02  0.51100000000E-03 0.  1.
    9900012    2    1    2    0    0  0.15610843143E+02  0.32337323116E+02  0.19072618108E+02  0.50528860174E+02  0.30000000984E+02 0.  0.
        -12    1    1    2    0    0 -0.15610843143E+02 -0.32337323116E+02 -0.19072618108E+02  0.40659139826E+02  0.00000000000E+00 0.  1.
         11    1    3    3    0    0  0.42059796017E+01  0.17532260155E+02  0.12179448547E+02  0.21757972739E+02  0.51100000000E-03 0.  1.
        -11    1    3    3    0    0  0.15239307674E+01  0.14067847460E+02  0.11121872667E+02  0.17997854011E+02  0.51100000000E-03 0. -1.
        -12    1    3    3    0    0  0.98809327739E+01  0.73721550136E+00 -0.42287031059E+01  0.10773033423E+02  0.00000000000E+00 0.  1.
</event>
<event>
 7    1  0.5601662E-013  0.5052885E+02  0.7816164E-02  0.1300439E+00
        -11   -1    0    0    0    0  0.00000000000E+00  0.00000000000E+00  0.45593999997E+02  0.45594000000E+02  0.51100000000E-03 0. -1.
         11   -1    0    0    0    0 -0.00000000000E+00 -0.00000000000E+00 -0.45593999997E+02  0.45594000000E+02  0.51100000000E-03 0.  1.
    9900012    2    1    2    0    0 -0.26206403482E+02  0.30756113702E+02 -0.45223917660E+01  0.50528854156E+02  0.29999982692E+02 0.  0.
        -12    1    1    2    0    0  0.26206403482E+02 -0.30756113702E+02  0.45223917660E+01  0.40659145844E+02  0.00000000000E+00 0.  1.
         11    1    3    3    0    0 -0.74578090102E+01 -0.34539363700E+01  0.84636260013E+00  0.82622588674E+01  0.51100000000E-03 0. -1.
        -11    1    3    3    0    0 -0.11469006694E+01  0.65466116751E+01 -0.67182882835E+01  0.94503387924E+01  0.51100000000E-03 0.  1.
        -12    1    3    3    0    0 -0.17601693802E+02  0.27663438397E+02  0.13495339174E+01  0.32816256496E+02  0.00000000000E+00 0.  1.
</event>
<event>
 7    1  0.5601662E-013  0.5052886E+02  0.7816164E-02  0.1300439E+00
        -11   -1    0    0    0    0  0.00000000000E+00  0.00000000000E+00  0.45593999997E+02  0.45594000000E+02  0.51100000000E-03 0. -1.
         11   -1    0    0    0    0 -0.00000000000E+00 -0.00000000000E+00 -0.45593999997E+02  0.45594000000E+02  0.51100000000E-03 0.  1.
    9900012    2    1    2    0    0  0.28476832243E+02  0.27453674520E+02 -0.94091219629E+01  0.50528858404E+02  0.29999995603E+02 0.  0.
        -12    1    1    2    0    0 -0.28476832243E+02 -0.27453674520E+02  0.94091219629E+01  0.40659141596E+02  0.00000000000E+00 0.  1.
         11    1    3    3    0    0  0.23549055472E+01 -0.29307224860E+01 -0.83990828086E+00  0.38522929027E+01  0.51100000000E-03 0. -1.
        -11    1    3    3    0    0  0.54135053266E+00 -0.29682394358E+01 -0.30373097013E+01  0.42812096690E+01  0.51100000000E-03 0.  1.
         12    1    3    3    0    0  0.25580576163E+02  0.33352636442E+02 -0.55319039807E+01  0.42395355832E+02  0.00000000000E+00 0. -1.
</event>
<event>
 7    1  0.5601662E-013  0.5052883E+02  0.7816164E-02  0.1300439E+00
        -11   -1    0    0    0    0  0.00000000000E+00  0.00000000000E+00  0.45593999997E+02  0.45594000000E+02  0.51100000000E-03 0.  1.
         11   -1    0    0    0    0 -0.00000000000E+00 -0.00000000000E+00 -0.45593999997E+02  0.45594000000E+02  0.51100000000E-03 0. -1.
    9900012    2    1    2    0    0  0.14621411059E+02  0.21875503759E+02 -0.30997492610E+02  0.50528832839E+02  0.29999917899E+02 0.  0.
        -12    1    1    2    0    0 -0.14621411059E+02 -0.21875503759E+02  0.30997492610E+02  0.40659167161E+02  0.00000000000E+00 0.  1.
         11    1    3    3    0    0 -0.16742044925E+01 -0.18484754503E+01  0.14615929986E+01  0.28906878987E+01  0.51100000000E-03 0. -1.
        -11    1    3    3    0    0 -0.16220479767E+01 -0.22844032612E+01 -0.78712996450E+00  0.29101738334E+01  0.51100000000E-03 0.  1.
         12    1    3    3    0    0  0.17917663528E+02  0.26008382470E+02 -0.31671955644E+02  0.44727971107E+02  0.00000000000E+00 0. -1.
</event>
<event>
 7    1  0.5601662E-013  0.5052887E+02  0.7816164E-02  0.1300439E+00
        -11   -1    0    0    0    0  0.00000000000E+00  0.00000000000E+00  0.45593999997E+02  0.45594000000E+02  0.51100000000E-03 0. -1.
         11   -1    0    0    0    0 -0.00000000000E+00 -0.00000000000E+00 -0.45593999997E+02  0.45594000000E+02  0.51100000000E-03 0.  1.
    9900012    2    1    2    0    0  0.27071939244E+02 -0.21419555100E+02 -0.21482036989E+02  0.50528866361E+02  0.30000019790E+02 0.  0.
        -12    1    1    2    0    0 -0.27071939244E+02  0.21419555100E+02  0.21482036989E+02  0.40659133639E+02  0.00000000000E+00 0.  1.
         11    1    3    3    0    0  0.16380457764E+02 -0.11924104186E+02 -0.77739803650E+01  0.21701115828E+02  0.51100000000E-03 0. -1.
        -11    1    3    3    0    0  0.13096481436E+02 -0.10998769580E+02 -0.17249456113E+02  0.24290625656E+02  0.51100000000E-03 0.  1.
         12    1    3    3    0    0 -0.24049999571E+01  0.15033186656E+01  0.35413994895E+01  0.45371248769E+01  0.00000000000E+00 0. -1.
</event>
<event>
 7    1  0.5601662E-013  0.5052886E+02  0.7816164E-02  0.1300439E+00
        -11   -1    0    0    0    0  0.00000000000E+00  0.00000000000E+00  0.45593999997E+02  0.45594000000E+02  0.51100000000E-03 0. -1.
         11   -1    0    0    0    0 -0.00000000000E+00 -0.00000000000E+00 -0.45593999997E+02  0.45594000000E+02  0.51100000000E-03 0.  1.
    9900012    2    1    2    0    0 -0.25394333569E+02 -0.31538629790E+02  0.36889371082E+01  0.50528860763E+02  0.30000002776E+02 0.  0.
        -12    1    1    2    0    0  0.25394333569E+02  0.31538629790E+02 -0.36889371082E+01  0.40659139237E+02  0.00000000000E+00 0.  1.
         11    1    3    3    0    0 -0.17371867060E+01  0.24640713273E+01 -0.14177928133E+01  0.33316065014E+01  0.51100000000E-03 0. -1.
        -11    1    3    3    0    0  0.89493865378E+00 -0.67810222108E+01 -0.57817756056E+01  0.89561211935E+01  0.51100000000E-03 0.  1.
         12    1    3    3    0    0 -0.24552085517E+02 -0.27221678907E+02  0.10888505527E+02  0.38241133068E+02  0.00000000000E+00 0. -1.
</event>
<event>
 7    1  0.5601662E-013  0.5052886E+02  0.7816164E-02  0.1300439E+00
        -11   -1    0    0    0    0  0.00000000000E+00  0.00000000000E+00  0.45593999997E+02  0.45594000000E+02  0.51100000000E-03 0.  1.
         11   -1    0    0    0    0 -0.00000000000E+00 -0.00000000000E+00 -0.45593999997E+02  0.45594000000E+02  0.51100000000E-03 0. -1.
    9900012    2    1    2    0    0  0.23466497385E+02  0.12515119111E+02 -0.30754859187E+02  0.50528855032E+02  0.29999985356E+02 0.  0.
        -12    1    1    2    0    0 -0.23466497385E+02 -0.12515119111E+02  0.30754859187E+02  0.40659144968E+02  0.00000000000E+00 0.  1.
         11    1    3    3    0    0  0.10037027959E+02  0.92322709403E+01 -0.25794349947E+02  0.29177478410E+02  0.51100000000E-03 0. -1.
        -11    1    3    3    0    0  0.13685043045E+02  0.51850369839E+01 -0.87875514081E+01  0.17070034320E+02  0.51100000000E-03 0.  1.
        -12    1    3    3    0    0 -0.25557361827E+00 -0.19021888128E+01  0.38270421679E+01  0.42813423023E+01  0.00000000000E+00 0.  1.
</event>
<event>
 7    1  0.5601662E-013  0.5052885E+02  0.7816164E-02  0.1300439E+00
        -11   -1    0    0    0    0  0.00000000000E+00  0.00000000000E+00  0.45593999997E+02  0.45594000000E+02  0.51100000000E-03 0. -1.
         11   -1    0    0    0    0 -0.00000000000E+00 -0.00000000000E+00 -0.45593999997E+02  0.45594000000E+02  0.51100000000E-03 0.  1.
    9900012    2    1    2    0    0 -0.19888917827E+02  0.46703083327E+01  0.35153739574E+02  0.50528852957E+02  0.29999979048E+02 0.  0.
        -12    1    1    2    0    0  0.19888917827E+02 -0.46703083327E+01 -0.35153739574E+02  0.40659147043E+02  0.00000000000E+00 0.  1.
         11    1    3    3    0    0  0.46137885669E+00  0.76371792531E+00  0.28408930825E+00  0.93639869448E+00  0.51100000000E-03 0. -1.
        -11    1    3    3    0    0 -0.57368371314E+01  0.14875708428E+02  0.10331329467E+02  0.18998272825E+02  0.51100000000E-03 0.  1.
         12    1    3    3    0    0 -0.14613459552E+02 -0.10969118021E+02  0.24538320798E+02  0.30594181438E+02  0.00000000000E+00 0. -1.
</event>
<event>
 7    1  0.5601662E-013  0.5052886E+02  0.7816164E-02  0.1300439E+00
        -11   -1    0    0    0    0  0.00000000000E+00  0.00000000000E+00  0.45593999997E+02  0.45594000000E+02  0.51100000000E-03 0.  1.
         11   -1    0    0    0    0 -0.00000000000E+00 -0.00000000000E+00 -0.45593999997E+02  0.45594000000E+02  0.51100000000E-03 0. -1.
    9900012    2    1    2    0    0  0.15598852202E+01 -0.40543967130E+02 -0.26303900660E+01  0.50528862473E+02  0.30000007973E+02 0.  0.
        -12    1    1    2    0    0 -0.15598852202E+01  0.40543967130E+02  0.26303900660E+01  0.40659137527E+02  0.00000000000E+00 0.  1.
         11    1    3    3    0    0  0.38224947017E+01 -0.18205599970E+01  0.12096812455E+01  0.44033207269E+01  0.51100000000E-03 0. -1.
        -11    1    3    3    0    0 -0.13181195550E+02 -0.20132952859E+02  0.77861991290E+00  0.24076668294E+02  0.51100000000E-03 0.  1.
         12    1    3    3    0    0  0.10918586068E+02 -0.18590454274E+02 -0.46186912244E+01  0.22048873452E+02  0.00000000000E+00 0. -1.
</event>
<event>
 7    1  0.5601662E-013  0.5052887E+02  0.7816164E-02  0.1300439E+00
        -11   -1    0    0    0    0  0.00000000000E+00  0.00000000000E+00  0.45593999997E+02  0.45594000000E+02  0.51100000000E-03 0.  1.
         11   -1    0    0    0    0 -0.00000000000E+00 -0.00000000000E+00 -0.45593999997E+02  0.45594000000E+02  0.51100000000E-03 0. -1.
    9900012    2    1    2    0    0 -0.29244902584E+02 -0.13458711968E+02 -0.24834719849E+02  0.50528873534E+02  0.30000041594E+02 0.  0.
        -12    1    1    2    0    0  0.29244902584E+02  0.13458711968E+02  0.24834719849E+02  0.40659126466E+02  0.00000000000E+00 0.  1.
         11    1    3    3    0    0 -0.20242536819E+02 -0.12574257440E+02 -0.18587097393E+02  0.30221721274E+02  0.51100000000E-03 0. -1.
        -11    1    3    3    0    0  0.26431037896E+01 -0.17390677543E+01 -0.79037594571E+01  0.85135050428E+01  0.51100000000E-03 0.  1.
         12    1    3    3    0    0 -0.11645469555E+02  0.85461322577E+00  0.16561370008E+01  0.11793647217E+02  0.00000000000E+00 0. -1.
</event>
<event>
 7    1  0.5601662E-013  0.5052886E+02  0.7816164E-02  0.1300439E+00
        -11   -1    0    0    0    0  0.00000000000E+00  0.00000000000E+00  0.45593999997E+02  0.45594000000E+02  0.51100000000E-03 0. -1.
         11   -1    0    0    0    0 -0.00000000000E+00 -0.00000000000E+00 -0.45593999997E+02  0.45594000000E+02  0.51100000000E-03 0.  1.
    9900012    2    1    2    0    0  0.18971925925E+02  0.31282206230E+02 -0.17738520508E+02  0.50528861916E+02  0.30000006281E+02 0.  0.
        -12    1    1    2    0    0 -0.18971925925E+02 -0.31282206230E+02  0.17738520508E+02  0.40659138084E+02  0.00000000000E+00 0.  1.
         11    1    3    3    0    0  0.35296756413E+01  0.98789170430E+00 -0.10915364142E+01  0.38243943517E+01  0.51100000000E-03 0. -1.
        -11    1    3    3    0    0  0.19223086572E+02  0.83377511608E+01 -0.49045750755E+01  0.21519758566E+02  0.51100000000E-03 0.  1.
         12    1    3    3    0    0 -0.37808362885E+01  0.21956563365E+02 -0.11742409018E+02  0.25184708999E+02  0.00000000000E+00 0. -1.
</event>
<event>
 7    1  0.5601662E-013  0.5052885E+02  0.7816164E-02  0.1300439E+00
        -11   -1    0    0    0    0  0.00000000000E+00  0.00000000000E+00  0.45593999997E+02  0.45594000000E+02  0.51100000000E-03 0.  1.
         11   -1    0    0    0    0 -0.00000000000E+00 -0.00000000000E+00 -0.45593999997E+02  0.45594000000E+02  0.51100000000E-03 0. -1.
    9900012    2    1    2    0    0 -0.13242941256E+01  0.18243883400E+02 -0.36312164877E+02  0.50528851528E+02  0.29999974705E+02 0.  0.
        -12    1    1    2    0    0  0.13242941256E+01 -0.18243883400E+02  0.36312164877E+02  0.40659148472E+02  0.00000000000E+00 0.  1.
         11    1    3    3    0    0 -0.73817416618E+00  0.51926036210E+01 -0.90372447620E+01  0.10448915093E+02  0.51100000000E-03 0. -1.
        -11    1    3    3    0    0 -0.63562827788E+01  0.18669127641E+02 -0.12786890650E+02  0.23504110925E+02  0.51100000000E-03 0.  1.
        -12    1    3    3    0    0  0.57701628194E+01 -0.56178478622E+01 -0.14488029465E+02  0.16575825510E+02  0.00000000000E+00 0.  1.
</event>
<event>
 7    1  0.5601662E-013  0.5052886E+02  0.7816164E-02  0.1300439E+00
        -11   -1    0    0    0    0  0.00000000000E+00  0.00000000000E+00  0.45593999997E+02  0.45594000000E+02  0.51100000000E-03 0.  1.
         11   -1    0    0    0    0 -0.00000000000E+00 -0.00000000000E+00 -0.45593999997E+02  0.45594000000E+02  0.51100000000E-03 0. -1.
    9900012    2    1    2    0    0 -0.28183383631E+02 -0.22003522795E+02 -0.19357374187E+02  0.50528855103E+02  0.29999985572E+02 0.  0.
        -12    1    1    2    0    0  0.28183383631E+02  0.22003522795E+02  0.19357374187E+02  0.40659144897E+02  0.00000000000E+00 0.  1.
         11    1    3    3    0    0 -0.13220892982E+02 -0.56850943257E+01 -0.19164228965E+01  0.14518436063E+02  0.51100000000E-03 0. -1.
        -11    1    3    3    0    0 -0.33158472173E+01 -0.20724566829E+01  0.54078369120E+01  0.66734263912E+01  0.51100000000E-03 0.  1.
         12    1    3    3    0    0 -0.11646643432E+02 -0.14245971787E+02 -0.22848788202E+02  0.29336992649E+02  0.00000000000E+00 0. -1.
</event>
<event>
 7    1  0.5601662E-013  0.5052886E+02  0.7816164E-02  0.1300439E+00
        -11   -1    0    0    0    0  0.00000000000E+00  0.00000000000E+00  0.45593999997E+02  0.45594000000E+02  0.51100000000E-03 0. -1.
         11   -1    0    0    0    0 -0.00000000000E+00 -0.00000000000E+00 -0.45593999997E+02  0.45594000000E+02  0.51100000000E-03 0.  1.
    9900012    2    1    2    0    0 -0.65743286572E+01 -0.20104064815E+02  0.34724206673E+02  0.50528858980E+02  0.29999997356E+02 0.  0.
        -12    1    1    2    0    0  0.65743286572E+01  0.20104064815E+02 -0.34724206673E+02  0.40659141020E+02  0.00000000000E+00 0.  1.
         11    1    3    3    0    0  0.43310298040E+01  0.41282405405E+01  0.44337170680E+01  0.74470152694E+01  0.51100000000E-03 0. -1.
        -11    1    3    3    0    0 -0.23968490336E+01 -0.60251744665E+01 -0.28746736525E+00  0.64907819551E+01  0.51100000000E-03 0.  1.
         12    1    3    3    0    0 -0.85085094277E+01 -0.18207130889E+02  0.30577956971E+02  0.36591061755E+02  0.00000000000E+00 0. -1.
</event>
<event>
 7    1  0.5601662E-013  0.5052886E+02  0.7816164E-02  0.1300439E+00
        -11   -1    0    0    0    0  0.00000000000E+00  0.00000000000E+00  0.45593999997E+02  0.45594000000E+02  0.51100000000E-03 0.  1.
         11   -1    0    0    0    0 -0.00000000000E+00 -0.00000000000E+00 -0.45593999997E+02  0.45594000000E+02  0.51100000000E-03 0. -1.
    9900012    2    1    2    0    0  0.30989989539E+02 -0.25867396753E+02  0.48645780893E+01  0.50528858514E+02  0.29999995939E+02 0.  0.
        -12    1    1    2    0    0 -0.30989989539E+02  0.25867396753E+02 -0.48645780893E+01  0.40659141486E+02  0.00000000000E+00 0.  1.
         11    1    3    3    0    0  0.27959562189E+02 -0.26238555862E+02 -0.34883065017E+00  0.38344759937E+02  0.51100000000E-03 0. -1.
        -11    1    3    3    0    0  0.55175683490E+01 -0.34081424127E+01  0.29349330926E+01  0.71184849308E+01  0.51100000000E-03 0.  1.
        -12    1    3    3    0    0 -0.24871409991E+01  0.37793015215E+01  0.22784756469E+01  0.50656136463E+01  0.00000000000E+00 0.  1.
</event>
<event>
 7    1  0.5601662E-013  0.5052886E+02  0.7816164E-02  0.1300439E+00
        -11   -1    0    0    0    0  0.00000000000E+00  0.00000000000E+00  0.45593999997E+02  0.45594000000E+02  0.51100000000E-03 0.  1.
         11   -1    0    0    0    0 -0.00000000000E+00 -0.00000000000E+00 -0.45593999997E+02  0.45594000000E+02  0.51100000000E-03 0. -1.
    9900012    2    1    2    0    0  0.16604145601E+02  0.87001649167E+01 -0.36080119447E+02  0.50528861543E+02  0.30000005147E+02 0.  0.
        -12    1    1    2    0    0 -0.16604145601E+02 -0.87001649167E+01  0.36080119447E+02  0.40659138457E+02  0.00000000000E+00 0.  1.
         11    1    3    3    0    0  0.69000894562E+01 -0.83869433052E+01 -0.13175205005E+02  0.17074486221E+02  0.51100000000E-03 0. -1.
        -11    1    3    3    0    0  0.53343827816E+01 -0.12197633261E+01 -0.40017335188E+01  0.67791838483E+01  0.51100000000E-03 0.  1.
        -12    1    3    3    0    0  0.43696733630E+01  0.18306871548E+02 -0.18903180923E+02  0.26675191474E+02  0.00000000000E+00 0.  1.
</event>
<event>
 7    1  0.5601662E-013  0.5052886E+02  0.7816164E-02  0.1300439E+00
        -11   -1    0    0    0    0  0.00000000000E+00  0.00000000000E+00  0.45593999997E+02  0.45594000000E+02  0.51100000000E-03 0.  1.
         11   -1    0    0    0    0 -0.00000000000E+00 -0.00000000000E+00 -0.45593999997E+02  0.45594000000E+02  0.51100000000E-03 0. -1.
    9900012    2    1    2    0    0  0.20332941642E+02  0.28671854032E+02  0.20436781629E+02  0.50528858681E+02  0.29999996446E+02 0.  0.
        -12    1    1    2    0    0 -0.20332941642E+02 -0.28671854032E+02 -0.20436781629E+02  0.40659141319E+02  0.00000000000E+00 0.  1.
         11    1    3    3    0    0  0.65722162835E+01  0.10168086219E+02 -0.36099262705E+01  0.12633905658E+02  0.51100000000E-03 0. -1.
        -11    1    3    3    0    0 -0.85460383162E+00  0.29037257819E+01 -0.24187140981E+01  0.38745514934E+01  0.51100000000E-03 0.  1.
        -12    1    3    3    0    0  0.14615329190E+02  0.15600042032E+02  0.26465421998E+02  0.34020401530E+02  0.00000000000E+00 0.  1.
</event>
<event>
 7    1  0.5601662E-013  0.5052886E+02  0.7816164E-02  0.1300439E+00
        -11   -1    0    0    0    0  0.00000000000E+00  0.00000000000E+00  0.45593999997E+02  0.45594000000E+02  0.51100000000E-03 0. -1.
         11   -1    0    0    0    0 -0.00000000000E+00 -0.00000000000E+00 -0.45593999997E+02  0.45594000000E+02  0.51100000000E-03 0.  1.
    9900012    2    1    2    0    0 -0.37677824913E+02 -0.15195481643E+02 -0.16261411801E+01  0.50528862187E+02  0.30000007103E+02 0.  0.
        -12    1    1    2    0    0  0.37677824913E+02  0.15195481643E+02  0.16261411801E+01  0.40659137813E+02  0.00000000000E+00 0.  1.
         11    1    3    3    0    0 -0.67447893557E+01 -0.11678951740E+02  0.39981868638E+01  0.14066826069E+02  0.51100000000E-03 0.  1.
        -11    1    3    3    0    0 -0.17708807174E+02 -0.80844346936E+01  0.34719301400E+01  0.19774079878E+02  0.51100000000E-03 0. -1.
        -12    1    3    3    0    0 -0.13224228383E+02  0.45679047909E+01 -0.90962581838E+01  0.16687956240E+02  0.00000000000E+00 0.  1.
</event>
<event>
 7    1  0.5601662E-013  0.5052886E+02  0.7816164E-02  0.1300439E+00
        -11   -1    0    0    0    0  0.00000000000E+00  0.00000000000E+00  0.45593999997E+02  0.45594000000E+02  0.51100000000E-03 0. -1.
         11   -1    0    0    0    0 -0.00000000000E+00 -0.00000000000E+00 -0.45593999997E+02  0.45594000000E+02  0.51100000000E-03 0.  1.
    9900012    2    1    2    0    0 -0.75821543977E+01  0.39942100665E+02  0.55247458998E+00  0.50528859589E+02  0.29999999206E+02 0.  0.
        -12    1    1    2    0    0  0.75821543977E+01 -0.39942100665E+02 -0.55247458998E+00  0.40659140411E+02  0.00000000000E+00 0.  1.
         11    1    3    3    0    0 -0.89441842226E+00  0.21447448998E+01 -0.14301574653E+01  0.27286014066E+01  0.51100000000E-03 0.  1.
        -11    1    3    3    0    0 -0.11566595093E+02  0.22682315752E+02  0.12884660835E+02  0.28535732950E+02  0.51100000000E-03 0. -1.
         12    1    3    3    0    0  0.48788591178E+01  0.15115040013E+02 -0.10902028780E+02  0.19264525232E+02  0.00000000000E+00 0. -1.
</event>
<event>
 7    1  0.5601662E-013  0.5052886E+02  0.7816164E-02  0.1300439E+00
        -11   -1    0    0    0    0  0.00000000000E+00  0.00000000000E+00  0.45593999997E+02  0.45594000000E+02  0.51100000000E-03 0.  1.
         11   -1    0    0    0    0 -0.00000000000E+00 -0.00000000000E+00 -0.45593999997E+02  0.45594000000E+02  0.51100000000E-03 0. -1.
    9900012    2    1    2    0    0  0.27215585424E+02  0.24343174971E+02  0.17885393829E+02  0.50528861174E+02  0.30000004025E+02 0.  0.
        -12    1    1    2    0    0 -0.27215585424E+02 -0.24343174971E+02 -0.17885393829E+02  0.40659138826E+02  0.00000000000E+00 0.  1.
         11    1    3    3    0    0  0.18372627616E+02  0.15889693741E+02 -0.42777212326E+00  0.24294419152E+02  0.51100000000E-03 0. -1.
        -11    1    3    3    0    0  0.70648652088E+01 -0.24570838259E+01  0.95333960928E+01  0.12117558445E+02  0.51100000000E-03 0.  1.
        -12    1    3    3    0    0  0.17780925989E+01  0.10910565056E+02  0.87797698594E+01  0.14116883577E+02  0.00000000000E+00 0.  1.
</event>
<event>
 7    1  0.5601662E-013  0.5052885E+02  0.7816164E-02  0.1300439E+00
        -11   -1    0    0    0    0  0.00000000000E+00  0.00000000000E+00  0.45593999997E+02  0.45594000000E+02  0.51100000000E-03 0.  1.
         11   -1    0    0    0    0 -0.00000000000E+00 -0.00000000000E+00 -0.45593999997E+02  0.45594000000E+02  0.51100000000E-03 0. -1.
    9900012    2    1    2    0    0 -0.21857858991E+02  0.29892236458E+02 -0.16788532042E+02  0.50528848407E+02  0.29999965218E+02 0.  0.
        -12    1    1    2    0    0  0.21857858991E+02 -0.29892236458E+02  0.16788532042E+02  0.40659151593E+02  0.00000000000E+00 0.  1.
         11    1    3    3    0    0 -0.12627342727E+02  0.10504959183E+02 -0.15248762395E+02  0.22412690750E+02  0.51100000000E-03 0. -1.
        -11    1    3    3    0    0 -0.12153778089E+02  0.56779247872E+01 -0.37416915697E+01  0.13926715614E+02  0.51100000000E-03 0.  1.
        -12    1    3    3    0    0  0.29232618254E+01  0.13709352488E+02  0.22019219237E+01  0.14189442043E+02  0.00000000000E+00 0.  1.
</event>
<event>
 7    1  0.5601662E-013  0.5052886E+02  0.7816164E-02  0.1300439E+00
        -11   -1    0    0    0    0  0.00000000000E+00  0.00000000000E+00  0.45593999997E+02  0.45594000000E+02  0.51100000000E-03 0.  1.
         11   -1    0    0    0    0 -0.00000000000E+00 -0.00000000000E+00 -0.45593999997E+02  0.45594000000E+02  0.51100000000E-03 0. -1.
    9900012    2    1    2    0    0 -0.35616658545E+02  0.15891329798E+02  0.11492834844E+02  0.50528856116E+02  0.29999988649E+02 0.  0.
        -12    1    1    2    0    0  0.35616658545E+02 -0.15891329798E+02 -0.11492834844E+02  0.40659143884E+02  0.00000000000E+00 0.  1.
         11    1    3    3    0    0 -0.15558250025E+02  0.21354770249E+01  0.14355493024E+02  0.21276738147E+02  0.51100000000E-03 0. -1.
        -11    1    3    3    0    0  0.54461453477E+00 -0.21528810024E+01  0.17361043431E+01  0.28187870003E+01  0.51100000000E-03 0.  1.
        -12    1    3    3    0    0 -0.20603023055E+02  0.15908733776E+02 -0.45987625227E+01  0.26433330968E+02  0.00000000000E+00 0.  1.
</event>
<event>
 7    1  0.5601662E-013  0.5052886E+02  0.7816164E-02  0.1300439E+00
        -11   -1    0    0    0    0  0.00000000000E+00  0.00000000000E+00  0.45593999997E+02  0.45594000000E+02  0.51100000000E-03 0.  1.
         11   -1    0    0    0    0 -0.00000000000E+00 -0.00000000000E+00 -0.45593999997E+02  0.45594000000E+02  0.51100000000E-03 0. -1.
    9900012    2    1    2    0    0 -0.30202253549E+02  0.22476875255E+02 -0.15355114311E+02  0.50528861099E+02  0.30000003796E+02 0.  0.
        -12    1    1    2    0    0  0.30202253549E+02 -0.22476875255E+02  0.15355114311E+02  0.40659138901E+02  0.00000000000E+00 0.  1.
         11    1    3    3    0    0 -0.98437780207E+01  0.56027931442E+01  0.11338809131E+01  0.11383186853E+02  0.51100000000E-03 0.  1.
        -11    1    3    3    0    0 -0.17766816035E+02  0.13138312999E+02 -0.57808777579E-01  0.22097021577E+02  0.51100000000E-03 0. -1.
        -12    1    3    3    0    0 -0.25916594939E+01  0.37357691118E+01 -0.16431186446E+02  0.17048652669E+02  0.00000000000E+00 0.  1.
</event>
<event>
 7    1  0.5601662E-013  0.5052885E+02  0.7816164E-02  0.1300439E+00
        -11   -1    0    0    0    0  0.00000000000E+00  0.00000000000E+00  0.45593999997E+02  0.45594000000E+02  0.51100000000E-03 0.  1.
         11   -1    0    0    0    0 -0.00000000000E+00 -0.00000000000E+00 -0.45593999997E+02  0.45594000000E+02  0.51100000000E-03 0. -1.
    9900012    2    1    2    0    0  0.43483013679E+01  0.17244341168E+02 -0.36563526588E+02  0.50528849694E+02  0.29999969129E+02 0.  0.
        -12    1    1    2    0    0 -0.43483013679E+01 -0.17244341168E+02  0.36563526588E+02  0.40659150306E+02  0.00000000000E+00 0.  1.
         11    1    3    3    0    0  0.51827024485E+01 -0.39277878319E+01 -0.96009063892E+01  0.11595918492E+02  0.51100000000E-03 0. -1.
        -11    1    3    3    0    0  0.49073186518E+01  0.54160718082E+01 -0.19023128089E+02  0.20378788304E+02  0.51100000000E-03 0.  1.
        -12    1    3    3    0    0 -0.57417197325E+01  0.15756057192E+02 -0.79394921095E+01  0.18554142898E+02  0.00000000000E+00 0.  1.
</event>
<event>
 7    1  0.5601662E-013  0.5052887E+02  0.7816164E-02  0.1300439E+00
        -11   -1    0    0    0    0  0.00000000000E+00  0.00000000000E+00  0.45593999997E+02  0.45594000000E+02  0.51100000000E-03 0.  1.
         11   -1    0    0    0    0 -0.00000000000E+00 -0.00000000000E+00 -0.45593999997E+02  0.45594000000E+02  0.51100000000E-03 0. -1.
    9900012    2    1    2    0    0  0.25556946893E+00  0.99622053927E+01 -0.39418955302E+02  0.50528869547E+02  0.30000029476E+02 0.  0.
        -12    1    1    2    0    0 -0.25556946893E+00 -0.99622053927E+01  0.39418955302E+02  0.40659130453E+02  0.00000000000E+00 0.  1.
         11    1    3    3    0    0  0.30030485992E+01 -0.10157854430E+01 -0.22559722285E+02  0.22781378158E+02  0.51100000000E-03 0. -1.
        -11    1    3    3    0    0  0.73344177616E+01  0.44295836042E+01 -0.23102293483E+01  0.88742354437E+01  0.51100000000E-03 0.  1.
         12    1    3    3    0    0 -0.10081896892E+02  0.65484072315E+01 -0.14549003669E+02  0.18873255945E+02  0.00000000000E+00 0. -1.
</event>
<event>
 7    1  0.5601662E-013  0.5052885E+02  0.7816164E-02  0.1300439E+00
        -11   -1    0    0    0    0  0.00000000000E+00  0.00000000000E+00  0.45593999997E+02  0.45594000000E+02  0.51100000000E-03 0. -1.
         11   -1    0    0    0    0 -0.00000000000E+00 -0.00000000000E+00 -0.45593999997E+02  0.45594000000E+02  0.51100000000E-03 0.  1.
    9900012    2    1    2    0    0 -0.23936950816E+02 -0.30868561822E+02  0.11283644824E+02  0.50528851413E+02  0.29999974356E+02 0.  0.
        -12    1    1    2    0    0  0.23936950816E+02  0.30868561822E+02 -0.11283644824E+02  0.40659148587E+02  0.00000000000E+00 0.  1.
         11    1    3    3    0    0 -0.44338868356E+01 -0.22128533561E+01  0.76518398453E+01  0.91162890326E+01  0.51100000000E-03 0. -1.
        -11    1    3    3    0    0 -0.92124336451E+01 -0.18418065515E+02  0.12796769927E+02  0.24245646863E+02  0.51100000000E-03 0.  1.
        -12    1    3    3    0    0 -0.10290630335E+02 -0.10237642950E+02 -0.91649649486E+01  0.17166915517E+02  0.00000000000E+00 0.  1.
</event>
<event>
 7    1  0.5601662E-013  0.5052886E+02  0.7816164E-02  0.1300439E+00
        -11   -1    0    0    0    0  0.00000000000E+00  0.00000000000E+00  0.45593999997E+02  0.45594000000E+02  0.51100000000E-03 0.  1.
         11   -1    0    0    0    0 -0.00000000000E+00 -0.00000000000E+00 -0.45593999997E+02  0.45594000000E+02  0.51100000000E-03 0. -1.
    9900012    2    1    2    0    0 -0.27475542579E+02  0.20973562947E+02 -0.21409574815E+02  0.50528859865E+02  0.30000000047E+02 0.  0.
        -12    1    1    2    0    0  0.27475542579E+02 -0.20973562947E+02  0.21409574815E+02  0.40659140135E+02  0.00000000000E+00 0.  1.
         11    1    3    3    0    0 -0.37295110870E+01 -0.13770489244E+01 -0.35831599586E+01  0.53520605601E+01  0.51100000000E-03 0. -1.
        -11    1    3    3    0    0 -0.10600661796E+02 -0.62311470719E+00  0.35048943742E+01  0.11182423141E+02  0.51100000000E-03 0.  1.
         12    1    3    3    0    0 -0.13145369696E+02  0.22973726578E+02 -0.21331309231E+02  0.33994376165E+02  0.00000000000E+00 0. -1.
</event>
<event>
 7    1  0.5601662E-013  0.5052885E+02  0.7816164E-02  0.1300439E+00
        -11   -1    0    0    0    0  0.00000000000E+00  0.00000000000E+00  0.45593999997E+02  0.45594000000E+02  0.51100000000E-03 0.  1.
         11   -1    0    0    0    0 -0.00000000000E+00 -0.00000000000E+00 -0.45593999997E+02  0.45594000000E+02  0.51100000000E-03 0. -1.
    9900012    2    1    2    0    0 -0.38059909855E+01  0.16220758129E+02 -0.37088647985E+02  0.50528851324E+02  0.29999974084E+02 0.  0.
        -12    1    1    2    0    0  0.38059909855E+01 -0.16220758129E+02  0.37088647985E+02  0.40659148676E+02  0.00000000000E+00 0.  1.
         11    1    3    3    0    0 -0.34301481803E+00 -0.31594080335E+01 -0.67388547851E+01  0.74506162405E+01  0.51100000000E-03 0. -1.
        -11    1    3    3    0    0 -0.51428338907E+01 -0.39182423467E+01 -0.10939493950E+02  0.12707237766E+02  0.51100000000E-03 0.  1.
         12    1    3    3    0    0  0.16798577233E+01  0.23298408509E+02 -0.19410299251E+02  0.30370997317E+02  0.00000000000E+00 0. -1.
</event>
<event>
 7    1  0.5601662E-013  0.5052886E+02  0.7816164E-02  0.1300439E+00
        -11   -1    0    0    0    0  0.00000000000E+00  0.00000000000E+00  0.45593999997E+02  0.45594000000E+02  0.51100000000E-03 0.  1.
         11   -1    0    0    0    0 -0.00000000000E+00 -0.00000000000E+00 -0.45593999997E+02  0.45594000000E+02  0.51100000000E-03 0. -1.
    9900012    2    1    2    0    0 -0.37045668574E+02 -0.15131634161E+01 -0.16688155283E+02  0.50528858957E+02  0.29999997287E+02 0.  0.
        -12    1    1    2    0    0  0.37045668574E+02  0.15131634161E+01  0.16688155283E+02  0.40659141043E+02  0.00000000000E+00 0.  1.
         11    1    3    3    0    0 -0.97450126346E+01  0.26381599084E+01  0.24765541800E+01  0.10395118076E+02  0.51100000000E-03 0. -1.
        -11    1    3    3    0    0 -0.13345841818E+02 -0.64559221198E+01  0.17047073914E+01  0.14923017516E+02  0.51100000000E-03 0.  1.
        -12    1    3    3    0    0 -0.13954814121E+02  0.23045987953E+01 -0.20869416854E+02  0.25210723365E+02  0.00000000000E+00 0.  1.
</event>
<event>
 7    1  0.5601662E-013  0.5052887E+02  0.7816164E-02  0.1300439E+00
        -11   -1    0    0    0    0  0.00000000000E+00  0.00000000000E+00  0.45593999997E+02  0.45594000000E+02  0.51100000000E-03 0.  1.
         11   -1    0    0    0    0 -0.00000000000E+00 -0.00000000000E+00 -0.45593999997E+02  0.45594000000E+02  0.51100000000E-03 0. -1.
    9900012    2    1    2    0    0  0.41579576640E+01 -0.52512875048E+01 -0.40103622059E+02  0.50528866529E+02  0.30000020301E+02 0.  0.
        -12    1    1    2    0    0 -0.41579576640E+01  0.52512875048E+01  0.40103622059E+02  0.40659133471E+02  0.00000000000E+00 0.  1.
         11    1    3    3    0    0  0.27727480720E+01 -0.75152102642E+01 -0.35251474731E+02  0.36150145064E+02  0.51100000000E-03 0. -1.
        -11    1    3    3    0    0  0.41449017919E+01 -0.45664475340E+01 -0.21070271655E+01  0.65170712504E+01  0.51100000000E-03 0.  1.
         12    1    3    3    0    0 -0.27596922000E+01  0.68303702934E+01 -0.27451201623E+01  0.78616502141E+01  0.00000000000E+00 0. -1.
</event>
<event>
 7    1  0.5601662E-013  0.5052886E+02  0.7816164E-02  0.1300439E+00
        -11   -1    0    0    0    0  0.00000000000E+00  0.00000000000E+00  0.45593999997E+02  0.45594000000E+02  0.51100000000E-03 0.  1.
         11   -1    0    0    0    0 -0.00000000000E+00 -0.00000000000E+00 -0.45593999997E+02  0.45594000000E+02  0.51100000000E-03 0. -1.
    9900012    2    1    2    0    0 -0.20907255746E+02  0.34870649965E+02 -0.30044167560E+00  0.50528857892E+02  0.29999994048E+02 0.  0.
        -12    1    1    2    0    0  0.20907255746E+02 -0.34870649965E+02  0.30044167560E+00  0.40659142108E+02  0.00000000000E+00 0.  1.
         11    1    3    3    0    0 -0.14252928267E+02  0.25854917055E+02  0.45236671499E+01  0.29867813191E+02  0.51100000000E-03 0. -1.
        -11    1    3    3    0    0 -0.54509603998E+01 -0.19867095107E+01  0.35325257193E+01  0.67925490192E+01  0.51100000000E-03 0.  1.
        -12    1    3    3    0    0 -0.12033670789E+01  0.11002442421E+02 -0.83566345448E+01  0.13868495681E+02  0.00000000000E+00 0.  1.
</event>
<event>
 7    1  0.5601662E-013  0.5052883E+02  0.7816164E-02  0.1300439E+00
        -11   -1    0    0    0    0  0.00000000000E+00  0.00000000000E+00  0.45593999997E+02  0.45594000000E+02  0.51100000000E-03 0.  1.
         11   -1    0    0    0    0 -0.00000000000E+00 -0.00000000000E+00 -0.45593999997E+02  0.45594000000E+02  0.51100000000E-03 0. -1.
    9900012    2    1    2    0    0 -0.10163623995E+02 -0.35088595193E+02 -0.17851036403E+02  0.50528828021E+02  0.29999903253E+02 0.  0.
        -12    1    1    2    0    0  0.10163623995E+02  0.35088595193E+02  0.17851036403E+02  0.40659171979E+02  0.00000000000E+00 0.  1.
         11    1    3    3    0    0 -0.35319525914E+01 -0.23897758614E+01  0.70784701587E+00  0.43228191536E+01  0.51100000000E-03 0. -1.
        -11    1    3    3    0    0  0.44479415318E+01 -0.23734125992E+01  0.43168817990E+01  0.66372238145E+01  0.51100000000E-03 0.  1.
         12    1    3    3    0    0 -0.11079612935E+02 -0.30325406733E+02 -0.22875765218E+02  0.39568785053E+02  0.00000000000E+00 0. -1.
</event>
<event>
 7    1  0.5601662E-013  0.5052886E+02  0.7816164E-02  0.1300439E+00
        -11   -1    0    0    0    0  0.00000000000E+00  0.00000000000E+00  0.45593999997E+02  0.45594000000E+02  0.51100000000E-03 0.  1.
         11   -1    0    0    0    0 -0.00000000000E+00 -0.00000000000E+00 -0.45593999997E+02  0.45594000000E+02  0.51100000000E-03 0. -1.
    9900012    2    1    2    0    0 -0.27520986299E+02  0.43179941232E+01 -0.29616146434E+02  0.50528857243E+02  0.29999992077E+02 0.  0.
        -12    1    1    2    0    0  0.27520986299E+02 -0.43179941232E+01  0.29616146434E+02  0.40659142757E+02  0.00000000000E+00 0.  1.
         11    1    3    3    0    0 -0.13560343734E+01 -0.73952138056E+00  0.25660145263E+01  0.29950211860E+01  0.51100000000E-03 0. -1.
        -11    1    3    3    0    0  0.18473193358E+01 -0.38255562301E+01 -0.95157982826E+01  0.10421030967E+02  0.51100000000E-03 0.  1.
         12    1    3    3    0    0 -0.28012271261E+02  0.88830717339E+01 -0.22666362677E+02  0.37112805090E+02  0.00000000000E+00 0. -1.
</event>
<event>
 7    1  0.5601662E-013  0.5052886E+02  0.7816164E-02  0.1300439E+00
        -11   -1    0    0    0    0  0.00000000000E+00  0.00000000000E+00  0.45593999997E+02  0.45594000000E+02  0.51100000000E-03 0.  1.
         11   -1    0    0    0    0 -0.00000000000E+00 -0.00000000000E+00 -0.45593999997E+02  0.45594000000E+02  0.51100000000E-03 0. -1.
    9900012    2    1    2    0    0  0.29538958270E+02  0.15161209895E+02 -0.23468137258E+02  0.50528858253E+02  0.29999995147E+02 0.  0.
        -12    1    1    2    0    0 -0.29538958270E+02 -0.15161209895E+02  0.23468137258E+02  0.40659141747E+02  0.00000000000E+00 0.  1.
         11    1    3    3    0    0  0.96761039922E+01  0.56991059195E+01  0.29647820979E+01  0.11614505151E+02  0.51100000000E-03 0. -1.
        -11    1    3    3    0    0  0.87201831357E+01 -0.30055568500E+01 -0.22170763348E+01  0.94863266670E+01  0.51100000000E-03 0.  1.
         12    1    3    3    0    0  0.11142671142E+02  0.12467660826E+02 -0.24215843021E+02  0.29428026436E+02  0.00000000000E+00 0. -1.
</event>
<event>
 7    1  0.5601662E-013  0.5052886E+02  0.7816164E-02  0.1300439E+00
        -11   -1    0    0    0    0  0.00000000000E+00  0.00000000000E+00  0.45593999997E+02  0.45594000000E+02  0.51100000000E-03 0.  1.
         11   -1    0    0    0    0 -0.00000000000E+00 -0.00000000000E+00 -0.45593999997E+02  0.45594000000E+02  0.51100000000E-03 0. -1.
    9900012    2    1    2    0    0 -0.17104748323E+02 -0.23492522623E+02 -0.28437550087E+02  0.50528864626E+02  0.30000014518E+02 0.  0.
        -12    1    1    2    0    0  0.17104748323E+02  0.23492522623E+02  0.28437550087E+02  0.40659135374E+02  0.00000000000E+00 0.  1.
         11    1    3    3    0    0 -0.23496535464E+01 -0.14607789509E+02 -0.74738620062E+01  0.16576097239E+02  0.51100000000E-03 0. -1.
        -11    1    3    3    0    0 -0.15351490464E+02 -0.12758201021E+02 -0.22189422187E+02  0.29846447193E+02  0.51100000000E-03 0.  1.
        -12    1    3    3    0    0  0.59639568808E+00  0.38734679066E+01  0.12257341063E+01  0.41063201945E+01  0.00000000000E+00 0.  1.
</event>
<event>
 7    1  0.5601662E-013  0.5052885E+02  0.7816164E-02  0.1300439E+00
        -11   -1    0    0    0    0  0.00000000000E+00  0.00000000000E+00  0.45593999997E+02  0.45594000000E+02  0.51100000000E-03 0.  1.
         11   -1    0    0    0    0 -0.00000000000E+00 -0.00000000000E+00 -0.45593999997E+02  0.45594000000E+02  0.51100000000E-03 0. -1.
    9900012    2    1    2    0    0  0.16884172703E+02 -0.29763067841E+02 -0.21960216168E+02  0.50528848640E+02  0.29999965927E+02 0.  0.
        -12    1    1    2    0    0 -0.16884172703E+02  0.29763067841E+02  0.21960216168E+02  0.40659151360E+02  0.00000000000E+00 0.  1.
         11    1    3    3    0    0  0.15212246239E+02 -0.58264455135E+01 -0.10552944482E+02  0.19409393098E+02  0.51100000000E-03 0. -1.
        -11    1    3    3    0    0  0.28926678369E+01  0.16534374803E+01 -0.14382885198E+01  0.36290572940E+01  0.51100000000E-03 0.  1.
         12    1    3    3    0    0 -0.12207413730E+01 -0.25590059808E+02 -0.99689831657E+01  0.27490398248E+02  0.00000000000E+00 0. -1.
</event>
<event>
 7    1  0.5601662E-013  0.5052885E+02  0.7816164E-02  0.1300439E+00
        -11   -1    0    0    0    0  0.00000000000E+00  0.00000000000E+00  0.45593999997E+02  0.45594000000E+02  0.51100000000E-03 0.  1.
         11   -1    0    0    0    0 -0.00000000000E+00 -0.00000000000E+00 -0.45593999997E+02  0.45594000000E+02  0.51100000000E-03 0. -1.
    9900012    2    1    2    0    0 -0.24845262888E+01 -0.34820598786E+02  0.20845124379E+02  0.50528853660E+02  0.29999981185E+02 0.  0.
        -12    1    1    2    0    0  0.24845262888E+01  0.34820598786E+02 -0.20845124379E+02  0.40659146340E+02  0.00000000000E+00 0.  1.
         11    1    3    3    0    0  0.76397551574E+00  0.39417012929E+01  0.28808166821E+01  0.49416366406E+01  0.51100000000E-03 0. -1.
        -11    1    3    3    0    0  0.26889890395E+01 -0.89330389198E+00 -0.75012059278E+00  0.29310979279E+01  0.51100000000E-03 0.  1.
         12    1    3    3    0    0 -0.59374908441E+01 -0.37868996187E+02  0.18714428290E+02  0.42656119092E+02  0.00000000000E+00 0. -1.
</event>
<event>
 7    1  0.5601662E-013  0.5052884E+02  0.7816164E-02  0.1300439E+00
        -11   -1    0    0    0    0  0.00000000000E+00  0.00000000000E+00  0.45593999997E+02  0.45594000000E+02  0.51100000000E-03 0. -1.
         11   -1    0    0    0    0 -0.00000000000E+00 -0.00000000000E+00 -0.45593999997E+02  0.45594000000E+02  0.51100000000E-03 0.  1.
    9900012    2    1    2    0    0 -0.73370035532E+01  0.13810411049E+01  0.39967839672E+02  0.50528842315E+02  0.29999946699E+02 0.  0.
        -12    1    1    2    0    0  0.73370035532E+01 -0.13810411049E+01 -0.39967839672E+02  0.40659157685E+02  0.00000000000E+00 0.  1.
         11    1    3    3    0    0  0.33848185075E+01 -0.48398113092E+01  0.28388815215E+01  0.65528633735E+01  0.51100000000E-03 0.  1.
        -11    1    3    3    0    0 -0.12633532672E+02  0.92509472233E+01  0.15430683931E+02  0.21983907276E+02  0.51100000000E-03 0. -1.
         12    1    3    3    0    0  0.19117106113E+01 -0.30300948092E+01  0.21698274219E+02  0.21992071665E+02  0.00000000000E+00 0. -1.
</event>
<event>
 7    1  0.5601662E-013  0.5052885E+02  0.7816164E-02  0.1300439E+00
        -11   -1    0    0    0    0  0.00000000000E+00  0.00000000000E+00  0.45593999997E+02  0.45594000000E+02  0.51100000000E-03 0. -1.
         11   -1    0    0    0    0 -0.00000000000E+00 -0.00000000000E+00 -0.45593999997E+02  0.45594000000E+02  0.51100000000E-03 0.  1.
    9900012    2    1    2    0    0 -0.72108090679E+01  0.12470036595E+02  0.38021949959E+02  0.50528852705E+02  0.29999978282E+02 0.  0.
        -12    1    1    2    0    0  0.72108090679E+01 -0.12470036595E+02 -0.38021949959E+02  0.40659147295E+02  0.00000000000E+00 0.  1.
         11    1    3    3    0    0  0.58990327736E+01  0.10870369596E+01  0.11589922574E+02  0.13050154886E+02  0.51100000000E-03 0. -1.
        -11    1    3    3    0    0  0.43177064742E+01  0.73433637107E+01  0.10519274799E+02  0.13535978810E+02  0.51100000000E-03 0.  1.
        -12    1    3    3    0    0 -0.17427548316E+02  0.40396359248E+01  0.15912752586E+02  0.23942719010E+02  0.00000000000E+00 0.  1.
</event>
<event>
 7    1  0.5601662E-013  0.5052889E+02  0.7816164E-02  0.1300439E+00
        -11   -1    0    0    0    0  0.00000000000E+00  0.00000000000E+00  0.45593999997E+02  0.45594000000E+02  0.51100000000E-03 0. -1.
         11   -1    0    0    0    0 -0.00000000000E+00 -0.00000000000E+00 -0.45593999997E+02  0.45594000000E+02  0.51100000000E-03 0.  1.
    9900012    2    1    2    0    0 -0.23578561984E+01  0.73855417798E+01  0.39913122703E+02  0.50528891830E+02  0.30000097207E+02 0.  0.
        -12    1    1    2    0    0  0.23578561984E+01 -0.73855417798E+01 -0.39913122703E+02  0.40659108170E+02  0.00000000000E+00 0.  1.
         11    1    3    3    0    0  0.30971958433E+00 -0.39533552856E+01  0.21632627198E+02  0.21993078548E+02  0.51100000000E-03 0. -1.
        -11    1    3    3    0    0  0.49130147872E+01 -0.27646939338E+01  0.68032351233E+01  0.88354544451E+01  0.51100000000E-03 0.  1.
         12    1    3    3    0    0 -0.75805905699E+01  0.14103590999E+02  0.11477260382E+02  0.19700358838E+02  0.00000000000E+00 0. -1.
</event>
<event>
 7    1  0.5601662E-013  0.5052886E+02  0.7816164E-02  0.1300439E+00
        -11   -1    0    0    0    0  0.00000000000E+00  0.00000000000E+00  0.45593999997E+02  0.45594000000E+02  0.51100000000E-03 0.  1.
         11   -1    0    0    0    0 -0.00000000000E+00 -0.00000000000E+00 -0.45593999997E+02  0.45594000000E+02  0.51100000000E-03 0. -1.
    9900012    2    1    2    0    0  0.26654239787E+02 -0.84374338857E+01 -0.29521631055E+02  0.50528862166E+02  0.30000007041E+02 0.  0.
        -12    1    1    2    0    0 -0.26654239787E+02  0.84374338857E+01  0.29521631055E+02  0.40659137834E+02  0.00000000000E+00 0.  1.
         11    1    3    3    0    0  0.21376413712E+02 -0.93955389498E+01 -0.71575419693E+01  0.24422481910E+02  0.51100000000E-03 0. -1.
        -11    1    3    3    0    0  0.18351113369E+00  0.45646376575E+01 -0.23414527479E+01  0.51334193782E+01  0.51100000000E-03 0.  1.
        -12    1    3    3    0    0  0.50943149417E+01 -0.36065325934E+01 -0.20022636338E+02  0.20972960878E+02  0.00000000000E+00 0.  1.
</event>
<event>
 7    1  0.5601662E-013  0.5052884E+02  0.7816164E-02  0.1300439E+00
        -11   -1    0    0    0    0  0.00000000000E+00  0.00000000000E+00  0.45593999997E+02  0.45594000000E+02  0.51100000000E-03 0. -1.
         11   -1    0    0    0    0 -0.00000000000E+00 -0.00000000000E+00 -0.45593999997E+02  0.45594000000E+02  0.51100000000E-03 0.  1.
    9900012    2    1    2    0    0 -0.15171610730E+02  0.34665003836E+02  0.14877050388E+02  0.50528844926E+02  0.29999954638E+02 0.  0.
        -12    1    1    2    0    0  0.15171610730E+02 -0.34665003836E+02 -0.14877050388E+02  0.40659155074E+02  0.00000000000E+00 0.  1.
         11    1    3    3    0    0 -0.15129958912E+02  0.68366197231E+01  0.77528051304E+01  0.18323782731E+02  0.51100000000E-03 0.  1.
        -11    1    3    3    0    0 -0.28066012536E+01  0.24987737462E+02  0.13241170405E+01  0.25179700560E+02  0.51100000000E-03 0. -1.
        -12    1    3    3    0    0  0.27649494360E+01  0.28406466503E+01  0.58001282167E+01  0.70253616352E+01  0.00000000000E+00 0.  1.
</event>
<event>
 7    1  0.5601662E-013  0.5052886E+02  0.7816164E-02  0.1300439E+00
        -11   -1    0    0    0    0  0.00000000000E+00  0.00000000000E+00  0.45593999997E+02  0.45594000000E+02  0.51100000000E-03 0. -1.
         11   -1    0    0    0    0 -0.00000000000E+00 -0.00000000000E+00 -0.45593999997E+02  0.45594000000E+02  0.51100000000E-03 0.  1.
    9900012    2    1    2    0    0  0.28332860255E+02 -0.45074527529E+01  0.28811413055E+02  0.50528860526E+02  0.30000002054E+02 0.  0.
        -12    1    1    2    0    0 -0.28332860255E+02  0.45074527529E+01 -0.28811413055E+02  0.40659139474E+02  0.00000000000E+00 0.  1.
         11    1    3    3    0    0  0.15477027728E+02  0.21053973949E+01  0.74028707107E+01  0.17285068137E+02  0.51100000000E-03 0. -1.
        -11    1    3    3    0    0  0.10370031464E+02  0.60421065839E+01  0.69490664621E+01  0.13868458079E+02  0.51100000000E-03 0.  1.
        -12    1    3    3    0    0  0.24858010632E+01 -0.12654956732E+02  0.14459475883E+02  0.19375334310E+02  0.00000000000E+00 0.  1.
</event>
<event>
 7    1  0.5601662E-013  0.5052885E+02  0.7816164E-02  0.1300439E+00
        -11   -1    0    0    0    0  0.00000000000E+00  0.00000000000E+00  0.45593999997E+02  0.45594000000E+02  0.51100000000E-03 0. -1.
         11   -1    0    0    0    0 -0.00000000000E+00 -0.00000000000E+00 -0.45593999997E+02  0.45594000000E+02  0.51100000000E-03 0.  1.
    9900012    2    1    2    0    0  0.34089779441E+02  0.21731862013E+02  0.43335756682E+01  0.50528846456E+02  0.29999959286E+02 0.  0.
        -12    1    1    2    0    0 -0.34089779441E+02 -0.21731862013E+02 -0.43335756682E+01  0.40659153544E+02  0.00000000000E+00 0.  1.
         11    1    3    3    0    0  0.87052178461E+01  0.14002436562E+02  0.11597672690E+01  0.16528584567E+02  0.51100000000E-03 0. -1.
        -11    1    3    3    0    0  0.81776727282E+01  0.13400095582E+02  0.68878144655E+00  0.15713411883E+02  0.51100000000E-03 0.  1.
         12    1    3    3    0    0  0.17206888866E+02 -0.56706701301E+01  0.24850269527E+01  0.18286850006E+02  0.00000000000E+00 0. -1.
</event>
<event>
 7    1  0.5601662E-013  0.5052891E+02  0.7816164E-02  0.1300439E+00
        -11   -1    0    0    0    0  0.00000000000E+00  0.00000000000E+00  0.45593999997E+02  0.45594000000E+02  0.51100000000E-03 0.  1.
         11   -1    0    0    0    0 -0.00000000000E+00 -0.00000000000E+00 -0.45593999997E+02  0.45594000000E+02  0.51100000000E-03 0. -1.
    9900012    2    1    2    0    0 -0.21663710699E+02 -0.91234951199E+01 -0.33175404673E+02  0.50528905080E+02  0.30000137481E+02 0.  0.
        -12    1    1    2    0    0  0.21663710699E+02  0.91234951199E+01  0.33175404673E+02  0.40659094920E+02  0.00000000000E+00 0.  1.
         11    1    3    3    0    0 -0.35920654280E+01 -0.12967722727E+02 -0.23820607019E+02  0.27358473747E+02  0.51100000000E-03 0. -1.
        -11    1    3    3    0    0  0.12607555781E+01 -0.51651099604E+00 -0.83973433181E+00  0.16004506384E+01  0.51100000000E-03 0.  1.
         12    1    3    3    0    0 -0.19332400850E+02  0.43607386034E+01 -0.85150633223E+01  0.21569980694E+02  0.00000000000E+00 0. -1.
</event>
<event>
 7    1  0.5601662E-013  0.5052886E+02  0.7816164E-02  0.1300439E+00
        -11   -1    0    0    0    0  0.00000000000E+00  0.00000000000E+00  0.45593999997E+02  0.45594000000E+02  0.51100000000E-03 0.  1.
         11   -1    0    0    0    0 -0.00000000000E+00 -0.00000000000E+00 -0.45593999997E+02  0.45594000000E+02  0.51100000000E-03 0. -1.
    9900012    2    1    2    0    0 -0.25749294781E+02 -0.20716267890E+02 -0.23684930212E+02  0.50528857656E+02  0.29999993332E+02 0.  0.
        -12    1    1    2    0    0  0.25749294781E+02  0.20716267890E+02  0.23684930212E+02  0.40659142344E+02  0.00000000000E+00 0.  1.
         11    1    3    3    0    0 -0.17080491790E+01 -0.13856182045E+02 -0.17131292804E+02  0.22099601948E+02  0.51100000000E-03 0. -1.
        -11    1    3    3    0    0 -0.32716905728E+01  0.21632950283E+01 -0.40636947040E+01  0.56477800499E+01  0.51100000000E-03 0.  1.
         12    1    3    3    0    0 -0.20769555029E+02 -0.90233808737E+01 -0.24899427035E+01  0.22781475658E+02  0.00000000000E+00 0. -1.
</event>
<event>
 7    1  0.5601662E-013  0.5052886E+02  0.7816164E-02  0.1300439E+00
        -11   -1    0    0    0    0  0.00000000000E+00  0.00000000000E+00  0.45593999997E+02  0.45594000000E+02  0.51100000000E-03 0. -1.
         11   -1    0    0    0    0 -0.00000000000E+00 -0.00000000000E+00 -0.45593999997E+02  0.45594000000E+02  0.51100000000E-03 0.  1.
    9900012    2    1    2    0    0 -0.62981152641E+01 -0.36816010610E+02  0.16064888345E+02  0.50528861658E+02  0.30000005497E+02 0.  0.
        -12    1    1    2    0    0  0.62981152641E+01  0.36816010610E+02 -0.16064888345E+02  0.40659138342E+02  0.00000000000E+00 0.  1.
         11    1    3    3    0    0 -0.78324338510E+01 -0.19870898961E+02  0.11252342360E+02  0.24141558658E+02  0.51100000000E-03 0. -1.
        -11    1    3    3    0    0  0.58740520127E+00 -0.20963717018E+02  0.64566104325E+01  0.21943342832E+02  0.51100000000E-03 0.  1.
        -12    1    3    3    0    0  0.94691338563E+00  0.40186053697E+01 -0.16440644474E+01  0.44439601690E+01  0.00000000000E+00 0.  1.
</event>
<event>
 7    1  0.5601662E-013  0.5052885E+02  0.7816164E-02  0.1300439E+00
        -11   -1    0    0    0    0  0.00000000000E+00  0.00000000000E+00  0.45593999997E+02  0.45594000000E+02  0.51100000000E-03 0.  1.
         11   -1    0    0    0    0 -0.00000000000E+00 -0.00000000000E+00 -0.45593999997E+02  0.45594000000E+02  0.51100000000E-03 0. -1.
    9900012    2    1    2    0    0 -0.39976798459E+01  0.32168716109E+02  0.24542999299E+02  0.50528849064E+02  0.29999967215E+02 0.  0.
        -12    1    1    2    0    0  0.39976798459E+01 -0.32168716109E+02 -0.24542999299E+02  0.40659150936E+02  0.00000000000E+00 0.  1.
         11    1    3    3    0    0 -0.10691694527E+02  0.97590833039E+01  0.11797299950E+02  0.18674269066E+02  0.51100000000E-03 0. -1.
        -11    1    3    3    0    0 -0.26976210528E+01  0.16602043224E+01  0.79796555377E+01  0.85853561661E+01  0.51100000000E-03 0.  1.
         12    1    3    3    0    0  0.93916357340E+01  0.20749428483E+02  0.47660438118E+01  0.23269223832E+02  0.00000000000E+00 0. -1.
</event>
<event>
 7    1  0.5601662E-013  0.5052886E+02  0.7816164E-02  0.1300439E+00
        -11   -1    0    0    0    0  0.00000000000E+00  0.00000000000E+00  0.45593999997E+02  0.45594000000E+02  0.51100000000E-03 0. -1.
         11   -1    0    0    0    0 -0.00000000000E+00 -0.00000000000E+00 -0.45593999997E+02  0.45594000000E+02  0.51100000000E-03 0.  1.
    9900012    2    1    2    0    0 -0.16755924271E+02 -0.89508489348E+01  0.35948395962E+02  0.50528857521E+02  0.29999992922E+02 0.  0.
        -12    1    1    2    0    0  0.16755924271E+02  0.89508489348E+01 -0.35948395962E+02  0.40659142479E+02  0.00000000000E+00 0.  1.
         11    1    3    3    0    0 -0.18535831331E+02 -0.99195594963E+01  0.16073280978E+02  0.26463655556E+02  0.51100000000E-03 0. -1.
        -11    1    3    3    0    0 -0.49823664257E+01 -0.22263787971E+01  0.49352098554E+01  0.73577873255E+01  0.51100000000E-03 0.  1.
        -12    1    3    3    0    0  0.67622734851E+01  0.31950893587E+01  0.14939905129E+02  0.16707414640E+02  0.00000000000E+00 0.  1.
</event>
<event>
 7    1  0.5601662E-013  0.5052880E+02  0.7816164E-02  0.1300439E+00
        -11   -1    0    0    0    0  0.00000000000E+00  0.00000000000E+00  0.45593999997E+02  0.45594000000E+02  0.51100000000E-03 0. -1.
         11   -1    0    0    0    0 -0.00000000000E+00 -0.00000000000E+00 -0.45593999997E+02  0.45594000000E+02  0.51100000000E-03 0.  1.
    9900012    2    1    2    0    0 -0.14585545086E+02 -0.71253656528E+01  0.37278161391E+02  0.50528803281E+02  0.29999828052E+02 0.  0.
        -12    1    1    2    0    0  0.14585545086E+02  0.71253656528E+01 -0.37278161391E+02  0.40659196719E+02  0.00000000000E+00 0.  1.
         11    1    3    3    0    0 -0.15681001810E+02 -0.50590749634E+01  0.16357648350E+02  0.23217681130E+02  0.51100000000E-03 0. -1.
        -11    1    3    3    0    0 -0.42773468651E+01 -0.21049500835E+01 -0.88909422579E+00  0.48494329423E+01  0.51100000000E-03 0.  1.
        -12    1    3    3    0    0  0.53728035890E+01  0.38659394029E-01  0.21809607267E+02  0.22461689209E+02  0.00000000000E+00 0.  1.
</event>
<event>
 7    1  0.5601662E-013  0.5052886E+02  0.7816164E-02  0.1300439E+00
        -11   -1    0    0    0    0  0.00000000000E+00  0.00000000000E+00  0.45593999997E+02  0.45594000000E+02  0.51100000000E-03 0.  1.
         11   -1    0    0    0    0 -0.00000000000E+00 -0.00000000000E+00 -0.45593999997E+02  0.45594000000E+02  0.51100000000E-03 0. -1.
    9900012    2    1    2    0    0 -0.15786747370E+01  0.29860715830E+02 -0.27550156449E+02  0.50528859771E+02  0.29999999761E+02 0.  0.
        -12    1    1    2    0    0  0.15786747370E+01 -0.29860715830E+02  0.27550156449E+02  0.40659140229E+02  0.00000000000E+00 0.  1.
         11    1    3    3    0    0  0.54807477914E+01  0.91594176827E+01 -0.72471253706E+01  0.12901719073E+02  0.51100000000E-03 0. -1.
        -11    1    3    3    0    0  0.32412579821E+01  0.91234841356E+01 -0.19893990202E+02  0.22124975988E+02  0.51100000000E-03 0.  1.
        -12    1    3    3    0    0 -0.10300680511E+02  0.11577814011E+02 -0.40904087649E+00  0.15502164710E+02  0.00000000000E+00 0.  1.
</event>
<event>
 7    1  0.5601662E-013  0.5052886E+02  0.7816164E-02  0.1300439E+00
        -11   -1    0    0    0    0  0.00000000000E+00  0.00000000000E+00  0.45593999997E+02  0.45594000000E+02  0.51100000000E-03 0. -1.
         11   -1    0    0    0    0 -0.00000000000E+00 -0.00000000000E+00 -0.45593999997E+02  0.45594000000E+02  0.51100000000E-03 0.  1.
    9900012    2    1    2    0    0 -0.95698627765E+01 -0.37950295018E+02 -0.11016295922E+02  0.50528856608E+02  0.29999990147E+02 0.  0.
        -12    1    1    2    0    0  0.95698627765E+01  0.37950295018E+02  0.11016295922E+02  0.40659143392E+02  0.00000000000E+00 0.  1.
         11    1    3    3    0    0  0.83298880530E+00 -0.19605353995E+01 -0.48225224537E+01  0.52720292563E+01  0.51100000000E-03 0.  1.
        -11    1    3    3    0    0 -0.60277145588E+01 -0.15396920398E+02 -0.15105459304E+02  0.22395834470E+02  0.51100000000E-03 0. -1.
        -12    1    3    3    0    0 -0.43751370230E+01 -0.20592839220E+02  0.89116858361E+01  0.22860992882E+02  0.00000000000E+00 0.  1.
</event>
<event>
 7    1  0.5601662E-013  0.5052884E+02  0.7816164E-02  0.1300439E+00
        -11   -1    0    0    0    0  0.00000000000E+00  0.00000000000E+00  0.45593999997E+02  0.45594000000E+02  0.51100000000E-03 0.  1.
         11   -1    0    0    0    0 -0.00000000000E+00 -0.00000000000E+00 -0.45593999997E+02  0.45594000000E+02  0.51100000000E-03 0. -1.
    9900012    2    1    2    0    0 -0.36346086385E+02  0.16819432655E+02 -0.70168166573E+01  0.50528843266E+02  0.29999949592E+02 0.  0.
        -12    1    1    2    0    0  0.36346086385E+02 -0.16819432655E+02  0.70168166573E+01  0.40659156734E+02  0.00000000000E+00 0.  1.
         11    1    3    3    0    0 -0.97176648992E+01  0.48089233932E+01 -0.10683459127E+02  0.15221532593E+02  0.51100000000E-03 0. -1.
        -11    1    3    3    0    0  0.28317093260E+01  0.12903369163E+01  0.24033687826E+01  0.39318861670E+01  0.51100000000E-03 0.  1.
        -12    1    3    3    0    0 -0.29460130812E+02  0.10720172345E+02  0.12632736870E+01  0.31375424506E+02  0.00000000000E+00 0.  1.
</event>
<event>
 7    1  0.5601662E-013  0.5052886E+02  0.7816164E-02  0.1300439E+00
        -11   -1    0    0    0    0  0.00000000000E+00  0.00000000000E+00  0.45593999997E+02  0.45594000000E+02  0.51100000000E-03 0.  1.
         11   -1    0    0    0    0 -0.00000000000E+00 -0.00000000000E+00 -0.45593999997E+02  0.45594000000E+02  0.51100000000E-03 0. -1.
    9900012    2    1    2    0    0 -0.30185631031E+02 -0.19305362168E+02 -0.19217076592E+02  0.50528863733E+02  0.30000011804E+02 0.  0.
        -12    1    1    2    0    0  0.30185631031E+02  0.19305362168E+02  0.19217076592E+02  0.40659136267E+02  0.00000000000E+00 0.  1.
         11    1    3    3    0    0 -0.26506802574E+01 -0.23547138576E+01 -0.23903774651E+00  0.35535788275E+01  0.51100000000E-03 0. -1.
        -11    1    3    3    0    0 -0.28020557690E+02 -0.16676979669E+02 -0.50033640294E+01  0.32989497662E+02  0.51100000000E-03 0.  1.
         12    1    3    3    0    0  0.48560691570E+00 -0.27366864180E+00 -0.13974674817E+02  0.13985787244E+02  0.00000000000E+00 0. -1.
</event>
<event>
 7    1  0.5601662E-013  0.5052886E+02  0.7816164E-02  0.1300439E+00
        -11   -1    0    0    0    0  0.00000000000E+00  0.00000000000E+00  0.45593999997E+02  0.45594000000E+02  0.51100000000E-03 0.  1.
         11   -1    0    0    0    0 -0.00000000000E+00 -0.00000000000E+00 -0.45593999997E+02  0.45594000000E+02  0.51100000000E-03 0. -1.
    9900012    2    1    2    0    0 -0.69797706510E+01  0.32038411381E+02 -0.24041399464E+02  0.50528857235E+02  0.29999992052E+02 0.  0.
        -12    1    1    2    0    0  0.69797706510E+01 -0.32038411381E+02  0.24041399464E+02  0.40659142765E+02  0.00000000000E+00 0.  1.
         11    1    3    3    0    0 -0.19015930519E+01  0.89484351906E+01  0.53152605693E+01  0.10580290340E+02  0.51100000000E-03 0. -1.
        -11    1    3    3    0    0  0.19335976915E+01  0.22914468998E+01  0.34399064932E+00  0.30179229207E+01  0.51100000000E-03 0.  1.
         12    1    3    3    0    0 -0.70117752907E+01  0.20798529291E+02 -0.29700650683E+02  0.36930643975E+02  0.00000000000E+00 0. -1.
</event>
<event>
 7    1  0.5601662E-013  0.5052886E+02  0.7816164E-02  0.1300439E+00
        -11   -1    0    0    0    0  0.00000000000E+00  0.00000000000E+00  0.45593999997E+02  0.45594000000E+02  0.51100000000E-03 0. -1.
         11   -1    0    0    0    0 -0.00000000000E+00 -0.00000000000E+00 -0.45593999997E+02  0.45594000000E+02  0.51100000000E-03 0.  1.
    9900012    2    1    2    0    0 -0.28583217156E+02  0.26162617441E+02  0.12315953219E+02  0.50528861322E+02  0.30000004474E+02 0.  0.
        -12    1    1    2    0    0  0.28583217156E+02 -0.26162617441E+02 -0.12315953219E+02  0.40659138678E+02  0.00000000000E+00 0.  1.
         11    1    3    3    0    0 -0.62034034232E+01  0.12743366458E+02  0.24525218230E+01  0.14383687506E+02  0.51100000000E-03 0. -1.
        -11    1    3    3    0    0 -0.26328164708E+02  0.14662145377E+02  0.65406958393E+01  0.30837176691E+02  0.51100000000E-03 0.  1.
        -12    1    3    3    0    0  0.39483509756E+01 -0.12428943934E+01  0.33227355564E+01  0.53079971249E+01  0.00000000000E+00 0.  1.
</event>
<event>
 7    1  0.5601662E-013  0.5052886E+02  0.7816164E-02  0.1300439E+00
        -11   -1    0    0    0    0  0.00000000000E+00  0.00000000000E+00  0.45593999997E+02  0.45594000000E+02  0.51100000000E-03 0.  1.
         11   -1    0    0    0    0 -0.00000000000E+00 -0.00000000000E+00 -0.45593999997E+02  0.45594000000E+02  0.51100000000E-03 0. -1.
    9900012    2    1    2    0    0  0.15639628685E+02 -0.16388550993E+02 -0.33763636296E+02  0.50528859268E+02  0.29999998232E+02 0.  0.
        -12    1    1    2    0    0 -0.15639628685E+02  0.16388550993E+02  0.33763636296E+02  0.40659140732E+02  0.00000000000E+00 0.  1.
         11    1    3    3    0    0  0.74786007555E+00 -0.14723754025E+02 -0.15905786759E+02  0.21687376051E+02  0.51100000000E-03 0. -1.
        -11    1    3    3    0    0  0.43541266066E+01 -0.33131704934E+01  0.23788457144E+01  0.59661063030E+01  0.51100000000E-03 0.  1.
         12    1    3    3    0    0  0.10537642003E+02  0.16483735255E+01 -0.20236695252E+02  0.22875376914E+02  0.00000000000E+00 0. -1.
</event>
<event>
 7    1  0.5601662E-013  0.5052885E+02  0.7816164E-02  0.1300439E+00
        -11   -1    0    0    0    0  0.00000000000E+00  0.00000000000E+00  0.45593999997E+02  0.45594000000E+02  0.51100000000E-03 0. -1.
         11   -1    0    0    0    0 -0.00000000000E+00 -0.00000000000E+00 -0.45593999997E+02  0.45594000000E+02  0.51100000000E-03 0.  1.
    9900012    2    1    2    0    0 -0.18815599134E+02  0.30947077736E+02  0.18477504774E+02  0.50528848830E+02  0.29999966504E+02 0.  0.
        -12    1    1    2    0    0  0.18815599134E+02 -0.30947077736E+02 -0.18477504774E+02  0.40659151170E+02  0.00000000000E+00 0.  1.
         11    1    3    3    0    0 -0.56134480265E+01  0.73838348968E+01  0.21995842161E+01  0.95325750725E+01  0.51100000000E-03 0. -1.
        -11    1    3    3    0    0 -0.63898892707E+01  0.14085693132E+02 -0.53942593710E+01  0.16380948396E+02  0.51100000000E-03 0.  1.
        -12    1    3    3    0    0 -0.68122618369E+01  0.94775497068E+01  0.21672179929E+02  0.24615325362E+02  0.00000000000E+00 0.  1.
</event>
<event>
 7    1  0.5601662E-013  0.5052897E+02  0.7816164E-02  0.1300438E+00
        -11   -1    0    0    0    0  0.00000000000E+00  0.00000000000E+00  0.45593999997E+02  0.45594000000E+02  0.51100000000E-03 0.  1.
         11   -1    0    0    0    0 -0.00000000000E+00 -0.00000000000E+00 -0.45593999997E+02  0.45594000000E+02  0.51100000000E-03 0. -1.
    9900012    2    1    2    0    0 -0.19288901598E+02  0.35738123995E+02 -0.19702041095E+01  0.50528967353E+02  0.30000326766E+02 0.  0.
        -12    1    1    2    0    0  0.19288901598E+02 -0.35738123995E+02  0.19702041095E+01  0.40659032647E+02  0.00000000000E+00 0.  1.
         11    1    3    3    0    0 -0.28813224341E+01  0.16527077806E+02  0.35654005947E+01  0.17151046657E+02  0.51100000000E-03 0. -1.
        -11    1    3    3    0    0 -0.12047241657E+02  0.23738221990E+02 -0.41556088073E+01  0.26942685457E+02  0.51100000000E-03 0.  1.
        -12    1    3    3    0    0 -0.43603375073E+01 -0.45271758015E+01 -0.13799958969E+01  0.64352352398E+01  0.00000000000E+00 0.  1.
</event>
<event>
 7    1  0.5601662E-013  0.5052886E+02  0.7816164E-02  0.1300439E+00
        -11   -1    0    0    0    0  0.00000000000E+00  0.00000000000E+00  0.45593999997E+02  0.45594000000E+02  0.51100000000E-03 0.  1.
         11   -1    0    0    0    0 -0.00000000000E+00 -0.00000000000E+00 -0.45593999997E+02  0.45594000000E+02  0.51100000000E-03 0. -1.
    9900012    2    1    2    0    0 -0.13921703505E+01 -0.18540249894E+02 -0.36159185734E+02  0.50528859363E+02  0.29999998519E+02 0.  0.
        -12    1    1    2    0    0  0.13921703505E+01  0.18540249894E+02  0.36159185734E+02  0.40659140637E+02  0.00000000000E+00 0.  1.
         11    1    3    3    0    0 -0.32423957009E+01 -0.77031252623E+01  0.11295179482E+01  0.84336871975E+01  0.51100000000E-03 0.  1.
        -11    1    3    3    0    0  0.50719296973E+01 -0.11806841188E+02 -0.15900077132E+02  0.20443542324E+02  0.51100000000E-03 0. -1.
        -12    1    3    3    0    0 -0.32217043470E+01  0.96971655563E+00 -0.21388626550E+02  0.21651629842E+02  0.00000000000E+00 0.  1.
</event>
<event>
 7    1  0.5601662E-013  0.5052886E+02  0.7816164E-02  0.1300439E+00
        -11   -1    0    0    0    0  0.00000000000E+00  0.00000000000E+00  0.45593999997E+02  0.45594000000E+02  0.51100000000E-03 0.  1.
         11   -1    0    0    0    0 -0.00000000000E+00 -0.00000000000E+00 -0.45593999997E+02  0.45594000000E+02  0.51100000000E-03 0. -1.
    9900012    2    1    2    0    0  0.65565389634E+00 -0.46032762605E+01 -0.40392396253E+02  0.50528859461E+02  0.29999998816E+02 0.  0.
        -12    1    1    2    0    0 -0.65565389634E+00  0.46032762605E+01  0.40392396253E+02  0.40659140539E+02  0.00000000000E+00 0.  1.
         11    1    3    3    0    0 -0.50626756804E+00  0.53192429900E+01 -0.58444102653E+01  0.79188246885E+01  0.51100000000E-03 0. -1.
        -11    1    3    3    0    0 -0.41155818864E+01  0.22989205714E+01 -0.26791201348E+02  0.27202785151E+02  0.51100000000E-03 0.  1.
        -12    1    3    3    0    0  0.52775033508E+01 -0.12221439822E+02 -0.77567846398E+01  0.15407249621E+02  0.00000000000E+00 0.  1.
</event>
<event>
 7    1  0.5601662E-013  0.5052886E+02  0.7816164E-02  0.1300439E+00
        -11   -1    0    0    0    0  0.00000000000E+00  0.00000000000E+00  0.45593999997E+02  0.45594000000E+02  0.51100000000E-03 0.  1.
         11   -1    0    0    0    0 -0.00000000000E+00 -0.00000000000E+00 -0.45593999997E+02  0.45594000000E+02  0.51100000000E-03 0. -1.
    9900012    2    1    2    0    0  0.34694893507E+01 -0.77052563908E+01 -0.39771316267E+02  0.50528856748E+02  0.29999990570E+02 0.  0.
        -12    1    1    2    0    0 -0.34694893507E+01  0.77052563908E+01  0.39771316267E+02  0.40659143252E+02  0.00000000000E+00 0.  1.
         11    1    3    3    0    0  0.44854409037E-01  0.10884013381E+01 -0.25311009144E+02  0.25334439279E+02  0.51100000000E-03 0. -1.
        -11    1    3    3    0    0 -0.20412016109E+01  0.48161870741E+01 -0.70031733354E+01  0.87410868304E+01  0.51100000000E-03 0.  1.
        -12    1    3    3    0    0  0.54658365525E+01 -0.13609844803E+02 -0.74571337874E+01  0.16453330639E+02  0.00000000000E+00 0.  1.
</event>
<event>
 7    1  0.5601662E-013  0.5052886E+02  0.7816164E-02  0.1300439E+00
        -11   -1    0    0    0    0  0.00000000000E+00  0.00000000000E+00  0.45593999997E+02  0.45594000000E+02  0.51100000000E-03 0. -1.
         11   -1    0    0    0    0 -0.00000000000E+00 -0.00000000000E+00 -0.45593999997E+02  0.45594000000E+02  0.51100000000E-03 0.  1.
    9900012    2    1    2    0    0  0.36195290432E+02 -0.32422099909E+01 -0.18236086868E+02  0.50528857863E+02  0.29999993961E+02 0.  0.
        -12    1    1    2    0    0 -0.36195290432E+02  0.32422099909E+01  0.18236086868E+02  0.40659142137E+02  0.00000000000E+00 0.  1.
         11    1    3    3    0    0  0.36203688857E+00  0.55846245846E+01  0.96468901384E+00  0.56788843635E+01  0.51100000000E-03 0. -1.
        -11    1    3    3    0    0  0.27388227170E+01 -0.62359112722E+01 -0.61643254571E+01  0.91862205434E+01  0.51100000000E-03 0.  1.
         12    1    3    3    0    0  0.33094430826E+02 -0.25909233034E+01 -0.13036450424E+02  0.35663752956E+02  0.00000000000E+00 0. -1.
</event>
<event>
 7    1  0.5601662E-013  0.5052888E+02  0.7816164E-02  0.1300439E+00
        -11   -1    0    0    0    0  0.00000000000E+00  0.00000000000E+00  0.45593999997E+02  0.45594000000E+02  0.51100000000E-03 0. -1.
         11   -1    0    0    0    0 -0.00000000000E+00 -0.00000000000E+00 -0.45593999997E+02  0.45594000000E+02  0.51100000000E-03 0.  1.
    9900012    2    1    2    0    0 -0.23356888418E+02 -0.26300498979E+02  0.20393712676E+02  0.50528880484E+02  0.30000062720E+02 0.  0.
        -12    1    1    2    0    0  0.23356888418E+02  0.26300498979E+02 -0.20393712676E+02  0.40659119516E+02  0.00000000000E+00 0.  1.
         11    1    3    3    0    0 -0.59716783386E+01 -0.20141400546E+02  0.16565652202E+02  0.26753650055E+02  0.51100000000E-03 0.  1.
        -11    1    3    3    0    0  0.35565975485E+00 -0.37015096616E+01 -0.28242008092E+01  0.46694515854E+01  0.51100000000E-03 0. -1.
        -12    1    3    3    0    0 -0.17740869834E+02 -0.24575887705E+01  0.66522612832E+01  0.19105778844E+02  0.00000000000E+00 0.  1.
</event>
<event>
 7    1  0.5601662E-013  0.5052886E+02  0.7816164E-02  0.1300439E+00
        -11   -1    0    0    0    0  0.00000000000E+00  0.00000000000E+00  0.45593999997E+02  0.45594000000E+02  0.51100000000E-03 0. -1.
         11   -1    0    0    0    0 -0.00000000000E+00 -0.00000000000E+00 -0.45593999997E+02  0.45594000000E+02  0.51100000000E-03 0.  1.
    9900012    2    1    2    0    0  0.33043810561E+02  0.19806942577E+02 -0.12998354775E+02  0.50528860591E+02  0.30000002251E+02 0.  0.
        -12    1    1    2    0    0 -0.33043810561E+02 -0.19806942577E+02  0.12998354775E+02  0.40659139409E+02  0.00000000000E+00 0.  1.
         11    1    3    3    0    0  0.15889171834E+02  0.63884077177E+01 -0.38866174903E+00  0.17129757528E+02  0.51100000000E-03 0. -1.
        -11    1    3    3    0    0  0.20687632242E+02  0.43294001523E+01 -0.94104410525E+01  0.23136080795E+02  0.51100000000E-03 0.  1.
         12    1    3    3    0    0 -0.35329935149E+01  0.90891347067E+01 -0.31992519734E+01  0.10263022268E+02  0.00000000000E+00 0. -1.
</event>
<event>
 7    1  0.5601662E-013  0.5052886E+02  0.7816164E-02  0.1300439E+00
        -11   -1    0    0    0    0  0.00000000000E+00  0.00000000000E+00  0.45593999997E+02  0.45594000000E+02  0.51100000000E-03 0.  1.
         11   -1    0    0    0    0 -0.00000000000E+00 -0.00000000000E+00 -0.45593999997E+02  0.45594000000E+02  0.51100000000E-03 0. -1.
    9900012    2    1    2    0    0 -0.26465756794E+02  0.29484939572E+02 -0.91305920337E+01  0.50528860128E+02  0.30000000846E+02 0.  0.
        -12    1    1    2    0    0  0.26465756794E+02 -0.29484939572E+02  0.91305920337E+01  0.40659139872E+02  0.00000000000E+00 0.  1.
         11    1    3    3    0    0  0.40985821270E+01  0.54128916133E+01 -0.23293194813E+01  0.71779872232E+01  0.51100000000E-03 0. -1.
        -11    1    3    3    0    0 -0.42182296296E+01  0.12438705293E+02  0.18854522469E+01  0.13269128871E+02  0.51100000000E-03 0.  1.
         12    1    3    3    0    0 -0.26346109291E+02  0.11633342666E+02 -0.86867247993E+01  0.30081744034E+02  0.00000000000E+00 0. -1.
</event>
<event>
 7    1  0.5601662E-013  0.5052893E+02  0.7816164E-02  0.1300439E+00
        -11   -1    0    0    0    0  0.00000000000E+00  0.00000000000E+00  0.45593999997E+02  0.45594000000E+02  0.51100000000E-03 0. -1.
         11   -1    0    0    0    0 -0.00000000000E+00 -0.00000000000E+00 -0.45593999997E+02  0.45594000000E+02  0.51100000000E-03 0.  1.
    9900012    2    1    2    0    0 -0.89879282008E+01  0.39646143780E+02 -0.74835170298E+00  0.50528934587E+02  0.30000227171E+02 0.  0.
        -12    1    1    2    0    0  0.89879282008E+01 -0.39646143780E+02  0.74835170298E+00  0.40659065413E+02  0.00000000000E+00 0.  1.
         11    1    3    3    0    0 -0.40558732125E+01  0.40988155872E+01 -0.12842183593E+01  0.59075895075E+01  0.51100000000E-03 0.  1.
        -11    1    3    3    0    0 -0.77751379223E+01  0.39622849946E+01 -0.79371288255E+01  0.11796206439E+02  0.51100000000E-03 0. -1.
         12    1    3    3    0    0  0.28430829340E+01  0.31585043198E+02  0.84729954819E+01  0.32825138641E+02  0.00000000000E+00 0. -1.
</event>
<event>
 7    1  0.5601662E-013  0.5052886E+02  0.7816164E-02  0.1300439E+00
        -11   -1    0    0    0    0  0.00000000000E+00  0.00000000000E+00  0.45593999997E+02  0.45594000000E+02  0.51100000000E-03 0.  1.
         11   -1    0    0    0    0 -0.00000000000E+00 -0.00000000000E+00 -0.45593999997E+02  0.45594000000E+02  0.51100000000E-03 0. -1.
    9900012    2    1    2    0    0 -0.22624004826E+02 -0.16706139955E+02 -0.29363664882E+02  0.50528861767E+02  0.30000005827E+02 0.  0.
        -12    1    1    2    0    0  0.22624004826E+02  0.16706139955E+02  0.29363664882E+02  0.40659138233E+02  0.00000000000E+00 0.  1.
         11    1    3    3    0    0 -0.10007722065E+02  0.39364099784E+01 -0.14808907697E+01  0.10855545227E+02  0.51100000000E-03 0. -1.
        -11    1    3    3    0    0 -0.70913738040E+01 -0.12025458382E+02 -0.53974731459E+01  0.14967696828E+02  0.51100000000E-03 0.  1.
        -12    1    3    3    0    0 -0.55249089570E+01 -0.86170915513E+01 -0.22485300966E+02  0.24705619712E+02  0.00000000000E+00 0.  1.
</event>
<event>
 7    1  0.5601662E-013  0.5052886E+02  0.7816164E-02  0.1300439E+00
        -11   -1    0    0    0    0  0.00000000000E+00  0.00000000000E+00  0.45593999997E+02  0.45594000000E+02  0.51100000000E-03 0.  1.
         11   -1    0    0    0    0 -0.00000000000E+00 -0.00000000000E+00 -0.45593999997E+02  0.45594000000E+02  0.51100000000E-03 0. -1.
    9900012    2    1    2    0    0  0.11494736492E+02  0.21510728485E+02 -0.32531912560E+02  0.50528859063E+02  0.29999997607E+02 0.  0.
        -12    1    1    2    0    0 -0.11494736492E+02 -0.21510728485E+02  0.32531912560E+02  0.40659140937E+02  0.00000000000E+00 0.  1.
         11    1    3    3    0    0 -0.23820521265E+01 -0.41522455298E+01 -0.85675530722E+01  0.98141877493E+01  0.51100000000E-03 0. -1.
        -11    1    3    3    0    0  0.32341966077E+01 -0.41922101908E+00  0.62711976683E+00  0.33210018704E+01  0.51100000000E-03 0.  1.
         12    1    3    3    0    0  0.10642592011E+02  0.26082195034E+02 -0.24591479254E+02  0.37393669443E+02  0.00000000000E+00 0. -1.
</event>
<event>
 7    1  0.5601662E-013  0.5052885E+02  0.7816164E-02  0.1300439E+00
        -11   -1    0    0    0    0  0.00000000000E+00  0.00000000000E+00  0.45593999997E+02  0.45594000000E+02  0.51100000000E-03 0.  1.
         11   -1    0    0    0    0 -0.00000000000E+00 -0.00000000000E+00 -0.45593999997E+02  0.45594000000E+02  0.51100000000E-03 0. -1.
    9900012    2    1    2    0    0  0.27969934394E+02 -0.28939828705E+02 -0.57736637053E+01  0.50528854558E+02  0.29999983915E+02 0.  0.
        -12    1    1    2    0    0 -0.27969934394E+02  0.28939828705E+02  0.57736637053E+01  0.40659145442E+02  0.00000000000E+00 0.  1.
         11    1    3    3    0    0  0.19041177763E+02 -0.88829622230E+01 -0.42246620015E+01  0.21431781021E+02  0.51100000000E-03 0. -1.
        -11    1    3    3    0    0  0.11794848621E+02 -0.39621756810E+01 -0.26153006224E+01  0.12714444058E+02  0.51100000000E-03 0.  1.
        -12    1    3    3    0    0 -0.28660919887E+01 -0.16094690801E+02  0.10662989186E+01  0.16382629479E+02  0.00000000000E+00 0.  1.
</event>
<event>
 7    1  0.5601662E-013  0.5052885E+02  0.7816164E-02  0.1300439E+00
        -11   -1    0    0    0    0  0.00000000000E+00  0.00000000000E+00  0.45593999997E+02  0.45594000000E+02  0.51100000000E-03 0.  1.
         11   -1    0    0    0    0 -0.00000000000E+00 -0.00000000000E+00 -0.45593999997E+02  0.45594000000E+02  0.51100000000E-03 0. -1.
    9900012    2    1    2    0    0  0.23047601248E+02 -0.93030198556E+01 -0.32178067591E+02  0.50528854220E+02  0.29999982886E+02 0.  0.
        -12    1    1    2    0    0 -0.23047601248E+02  0.93030198556E+01  0.32178067591E+02  0.40659145780E+02  0.00000000000E+00 0.  1.
         11    1    3    3    0    0 -0.73606171985E+00  0.53562068782E+01 -0.60246261576E+00  0.54400092318E+01  0.51100000000E-03 0. -1.
        -11    1    3    3    0    0 -0.18471521902E+01 -0.34884641071E+01 -0.21360878436E+01  0.44882317874E+01  0.51100000000E-03 0.  1.
         12    1    3    3    0    0  0.25630815158E+02 -0.11170762627E+02 -0.29439517131E+02  0.40600613200E+02  0.00000000000E+00 0. -1.
</event>
<event>
 7    1  0.5601662E-013  0.5052886E+02  0.7816164E-02  0.1300439E+00
        -11   -1    0    0    0    0  0.00000000000E+00  0.00000000000E+00  0.45593999997E+02  0.45594000000E+02  0.51100000000E-03 0.  1.
         11   -1    0    0    0    0 -0.00000000000E+00 -0.00000000000E+00 -0.45593999997E+02  0.45594000000E+02  0.51100000000E-03 0. -1.
    9900012    2    1    2    0    0 -0.13188353603E+02 -0.38383824309E+02  0.24320539147E+01  0.50528861721E+02  0.30000005686E+02 0.  0.
        -12    1    1    2    0    0  0.13188353603E+02  0.38383824309E+02 -0.24320539147E+01  0.40659138279E+02  0.00000000000E+00 0.  1.
         11    1    3    3    0    0 -0.11200840397E+02 -0.18634988981E+02 -0.11804115279E+02  0.24739821699E+02  0.51100000000E-03 0. -1.
        -11    1    3    3    0    0 -0.29314890564E+01 -0.47248739617E+01  0.81216880081E+00  0.56194021447E+01  0.51100000000E-03 0.  1.
        -12    1    3    3    0    0  0.94397585021E+00 -0.15023961366E+02  0.13424000393E+02  0.20169637877E+02  0.00000000000E+00 0.  1.
</event>
<event>
 7    1  0.5601662E-013  0.5052886E+02  0.7816164E-02  0.1300439E+00
        -11   -1    0    0    0    0  0.00000000000E+00  0.00000000000E+00  0.45593999997E+02  0.45594000000E+02  0.51100000000E-03 0.  1.
         11   -1    0    0    0    0 -0.00000000000E+00 -0.00000000000E+00 -0.45593999997E+02  0.45594000000E+02  0.51100000000E-03 0. -1.
    9900012    2    1    2    0    0 -0.17930957662E+01 -0.40295566915E+02  0.51203557672E+01  0.50528856519E+02  0.29999989874E+02 0.  0.
        -12    1    1    2    0    0  0.17930957662E+01  0.40295566915E+02 -0.51203557672E+01  0.40659143481E+02  0.00000000000E+00 0.  1.
         11    1    3    3    0    0 -0.62953241913E+01 -0.30243943339E+02  0.14602259491E+02  0.34169477577E+02  0.51100000000E-03 0. -1.
        -11    1    3    3    0    0 -0.62361051541E+00 -0.29796818213E+01  0.51165061575E+00  0.30869370653E+01  0.51100000000E-03 0.  1.
        -12    1    3    3    0    0  0.51258389406E+01 -0.70719417549E+01 -0.99935543392E+01  0.13272441876E+02  0.00000000000E+00 0.  1.
</event>
<event>
 7    1  0.5601662E-013  0.5052887E+02  0.7816164E-02  0.1300439E+00
        -11   -1    0    0    0    0  0.00000000000E+00  0.00000000000E+00  0.45593999997E+02  0.45594000000E+02  0.51100000000E-03 0.  1.
         11   -1    0    0    0    0 -0.00000000000E+00 -0.00000000000E+00 -0.45593999997E+02  0.45594000000E+02  0.51100000000E-03 0. -1.
    9900012    2    1    2    0    0  0.37570732067E+02  0.12200005105E+02 -0.96314694927E+01  0.50528865268E+02  0.30000016468E+02 0.  0.
        -12    1    1    2    0    0 -0.37570732067E+02 -0.12200005105E+02  0.96314694927E+01  0.40659134732E+02  0.00000000000E+00 0.  1.
         11    1    3    3    0    0  0.21403801746E+00 -0.26478782528E+01 -0.22790729224E+00  0.26662733373E+01  0.51100000000E-03 0. -1.
        -11    1    3    3    0    0  0.63214596806E+00 -0.26179283956E+01  0.41931052355E+01  0.49835017193E+01  0.51100000000E-03 0.  1.
         12    1    3    3    0    0  0.36724548081E+02  0.17465811753E+02 -0.13596667436E+02  0.42879090211E+02  0.00000000000E+00 0. -1.
</event>
<event>
 7    1  0.5601662E-013  0.5052887E+02  0.7816164E-02  0.1300439E+00
        -11   -1    0    0    0    0  0.00000000000E+00  0.00000000000E+00  0.45593999997E+02  0.45594000000E+02  0.51100000000E-03 0. -1.
         11   -1    0    0    0    0 -0.00000000000E+00 -0.00000000000E+00 -0.45593999997E+02  0.45594000000E+02  0.51100000000E-03 0.  1.
    9900012    2    1    2    0    0 -0.28161052429E+01 -0.29805718102E+02  0.27510976765E+02  0.50528866673E+02  0.30000020740E+02 0.  0.
        -12    1    1    2    0    0  0.28161052429E+01  0.29805718102E+02 -0.27510976765E+02  0.40659133327E+02  0.00000000000E+00 0.  1.
         11    1    3    3    0    0  0.83069974806E+01 -0.11446687532E+02  0.61484363008E+01  0.15421936707E+02  0.51100000000E-03 0.  1.
        -11    1    3    3    0    0 -0.26356047221E+01 -0.14041814389E+01 -0.30017594965E+01  0.42342293396E+01  0.51100000000E-03 0. -1.
         12    1    3    3    0    0 -0.84874980015E+01 -0.16954849131E+02  0.24364299961E+02  0.30872700626E+02  0.00000000000E+00 0. -1.
</event>
<event>
 7    1  0.5601662E-013  0.5052891E+02  0.7816164E-02  0.1300439E+00
        -11   -1    0    0    0    0  0.00000000000E+00  0.00000000000E+00  0.45593999997E+02  0.45594000000E+02  0.51100000000E-03 0. -1.
         11   -1    0    0    0    0 -0.00000000000E+00 -0.00000000000E+00 -0.45593999997E+02  0.45594000000E+02  0.51100000000E-03 0.  1.
    9900012    2    1    2    0    0  0.35036823445E+02 -0.47195229617E+01  0.20082553729E+02  0.50528906818E+02  0.30000142764E+02 0.  0.
        -12    1    1    2    0    0 -0.35036823445E+02  0.47195229617E+01 -0.20082553729E+02  0.40659093182E+02  0.00000000000E+00 0.  1.
         11    1    3    3    0    0  0.25432663604E+01 -0.30170588037E+00 -0.16599121671E+01  0.30519729491E+01  0.51100000000E-03 0. -1.
        -11    1    3    3    0    0  0.64256581895E+01 -0.43592395892E+01 -0.56958384464E+01  0.96298820778E+01  0.51100000000E-03 0.  1.
         12    1    3    3    0    0  0.26067898895E+02 -0.58577492098E-01  0.27438304342E+02  0.37847051791E+02  0.00000000000E+00 0. -1.
</event>
<event>
 7    1  0.5601662E-013  0.5052885E+02  0.7816164E-02  0.1300439E+00
        -11   -1    0    0    0    0  0.00000000000E+00  0.00000000000E+00  0.45593999997E+02  0.45594000000E+02  0.51100000000E-03 0.  1.
         11   -1    0    0    0    0 -0.00000000000E+00 -0.00000000000E+00 -0.45593999997E+02  0.45594000000E+02  0.51100000000E-03 0. -1.
    9900012    2    1    2    0    0 -0.28626481877E+02  0.25779295599E+02 -0.13004563143E+02  0.50528853319E+02  0.29999980149E+02 0.  0.
        -12    1    1    2    0    0  0.28626481877E+02 -0.25779295599E+02  0.13004563143E+02  0.40659146681E+02  0.00000000000E+00 0.  1.
         11    1    3    3    0    0 -0.31828182245E+02  0.11596060558E+02 -0.81558726731E+01  0.34842790715E+02  0.51100000000E-03 0. -1.
        -11    1    3    3    0    0  0.83251599258E+00  0.10696874920E+01 -0.13400392702E+01  0.19060481933E+01  0.51100000000E-03 0.  1.
         12    1    3    3    0    0  0.23691843749E+01  0.13113547549E+02 -0.35086511997E+01  0.13780014411E+02  0.00000000000E+00 0. -1.
</event>
<event>
 7    1  0.5601662E-013  0.5052887E+02  0.7816164E-02  0.1300439E+00
        -11   -1    0    0    0    0  0.00000000000E+00  0.00000000000E+00  0.45593999997E+02  0.45594000000E+02  0.51100000000E-03 0. -1.
         11   -1    0    0    0    0 -0.00000000000E+00 -0.00000000000E+00 -0.45593999997E+02  0.45594000000E+02  0.51100000000E-03 0.  1.
    9900012    2    1    2    0    0 -0.38108643107E+02  0.40635455428E+01  0.13578800641E+02  0.50528869308E+02  0.30000028747E+02 0.  0.
        -12    1    1    2    0    0  0.38108643107E+02 -0.40635455428E+01 -0.13578800641E+02  0.40659130692E+02  0.00000000000E+00 0.  1.
         11    1    3    3    0    0 -0.12472827905E+02 -0.37612207362E+01  0.70454297829E+01  0.14810681904E+02  0.51100000000E-03 0. -1.
        -11    1    3    3    0    0 -0.26217882492E+02  0.55353964791E+01  0.12301834347E+02  0.29484794473E+02  0.51100000000E-03 0.  1.
        -12    1    3    3    0    0  0.58206729082E+00  0.22893697999E+01 -0.57684634883E+01  0.62333929306E+01  0.00000000000E+00 0.  1.
</event>
<event>
 7    1  0.5601662E-013  0.5052886E+02  0.7816164E-02  0.1300439E+00
        -11   -1    0    0    0    0  0.00000000000E+00  0.00000000000E+00  0.45593999997E+02  0.45594000000E+02  0.51100000000E-03 0. -1.
         11   -1    0    0    0    0 -0.00000000000E+00 -0.00000000000E+00 -0.45593999997E+02  0.45594000000E+02  0.51100000000E-03 0.  1.
    9900012    2    1    2    0    0  0.37739540167E+02 -0.81237901402E+01 -0.12763089591E+02  0.50528864320E+02  0.30000013588E+02 0.  0.
        -12    1    1    2    0    0 -0.37739540167E+02  0.81237901402E+01  0.12763089591E+02  0.40659135680E+02  0.00000000000E+00 0.  1.
         11    1    3    3    0    0  0.14744207127E+02 -0.74890149966E+01 -0.10546829361E+02  0.19614091854E+02  0.51100000000E-03 0. -1.
        -11    1    3    3    0    0  0.81617185522E+01 -0.99895014647E+01 -0.33923580027E+01  0.13338361306E+02  0.51100000000E-03 0.  1.
         12    1    3    3    0    0  0.14833614488E+02  0.93547263211E+01  0.11760977723E+01  0.17576411161E+02  0.00000000000E+00 0. -1.
</event>
<event>
 7    1  0.5601662E-013  0.5052885E+02  0.7816164E-02  0.1300439E+00
        -11   -1    0    0    0    0  0.00000000000E+00  0.00000000000E+00  0.45593999997E+02  0.45594000000E+02  0.51100000000E-03 0. -1.
         11   -1    0    0    0    0 -0.00000000000E+00 -0.00000000000E+00 -0.45593999997E+02  0.45594000000E+02  0.51100000000E-03 0.  1.
    9900012    2    1    2    0    0  0.31365230895E+02 -0.34917367942E+00  0.25870184699E+02  0.50528854809E+02  0.29999984676E+02 0.  0.
        -12    1    1    2    0    0 -0.31365230895E+02  0.34917367942E+00 -0.25870184699E+02  0.40659145191E+02  0.00000000000E+00 0.  1.
         11    1    3    3    0    0 -0.26970904647E+01 -0.16399875631E+01 -0.14471907222E+01  0.34724944103E+01  0.51100000000E-03 0. -1.
        -11    1    3    3    0    0  0.19841823252E+02  0.83519726027E+01  0.10583047410E+02  0.23988628328E+02  0.51100000000E-03 0.  1.
         12    1    3    3    0    0  0.14220498108E+02 -0.70611587190E+01  0.16734328011E+02  0.23067732071E+02  0.00000000000E+00 0. -1.
</event>
<event>
 7    1  0.5601662E-013  0.5052886E+02  0.7816164E-02  0.1300439E+00
        -11   -1    0    0    0    0  0.00000000000E+00  0.00000000000E+00  0.45593999997E+02  0.45594000000E+02  0.51100000000E-03 0.  1.
         11   -1    0    0    0    0 -0.00000000000E+00 -0.00000000000E+00 -0.45593999997E+02  0.45594000000E+02  0.51100000000E-03 0. -1.
    9900012    2    1    2    0    0  0.39574583481E+02  0.88419852889E+00 -0.92863586710E+01  0.50528856845E+02  0.29999990865E+02 0.  0.
        -12    1    1    2    0    0 -0.39574583481E+02 -0.88419852889E+00  0.92863586710E+01  0.40659143155E+02  0.00000000000E+00 0.  1.
         11    1    3    3    0    0 -0.22968417072E+01  0.96352406985E+00  0.23084506648E+00  0.25014296246E+01  0.51100000000E-03 0. -1.
        -11    1    3    3    0    0  0.28842009150E+00 -0.30766855269E+01 -0.52851939280E+01  0.61222916542E+01  0.51100000000E-03 0.  1.
         12    1    3    3    0    0  0.41583005097E+02  0.29973599860E+01 -0.42320098094E+01  0.41905135566E+02  0.00000000000E+00 0. -1.
</event>
<event>
 7    1  0.5601662E-013  0.5052889E+02  0.7816164E-02  0.1300439E+00
        -11   -1    0    0    0    0  0.00000000000E+00  0.00000000000E+00  0.45593999997E+02  0.45594000000E+02  0.51100000000E-03 0.  1.
         11   -1    0    0    0    0 -0.00000000000E+00 -0.00000000000E+00 -0.45593999997E+02  0.45594000000E+02  0.51100000000E-03 0. -1.
    9900012    2    1    2    0    0 -0.28443066331E+02 -0.25844956967E+02 -0.13273788054E+02  0.50528889432E+02  0.30000089916E+02 0.  0.
        -12    1    1    2    0    0  0.28443066331E+02  0.25844956967E+02  0.13273788054E+02  0.40659110568E+02  0.00000000000E+00 0.  1.
         11    1    3    3    0    0 -0.16736007533E+02 -0.35714023478E+01 -0.97833214142E+00  0.17140770021E+02  0.51100000000E-03 0. -1.
        -11    1    3    3    0    0 -0.46377669470E+01 -0.16548431211E+02  0.10715072222E+01  0.17219395628E+02  0.51100000000E-03 0.  1.
         12    1    3    3    0    0 -0.70692918507E+01 -0.57251234081E+01 -0.13366963135E+02  0.16168723783E+02  0.00000000000E+00 0. -1.
</event>
<event>
 7    1  0.5601662E-013  0.5052883E+02  0.7816164E-02  0.1300439E+00
        -11   -1    0    0    0    0  0.00000000000E+00  0.00000000000E+00  0.45593999997E+02  0.45594000000E+02  0.51100000000E-03 0. -1.
         11   -1    0    0    0    0 -0.00000000000E+00 -0.00000000000E+00 -0.45593999997E+02  0.45594000000E+02  0.51100000000E-03 0.  1.
    9900012    2    1    2    0    0  0.33664066449E+02  0.95133727588E+01  0.20721838387E+02  0.50528828621E+02  0.29999905076E+02 0.  0.
        -12    1    1    2    0    0 -0.33664066449E+02 -0.95133727588E+01 -0.20721838387E+02  0.40659171379E+02  0.00000000000E+00 0.  1.
         11    1    3    3    0    0  0.61221517992E+01  0.17709969998E+01 -0.22789719902E+01  0.67683740011E+01  0.51100000000E-03 0. -1.
        -11    1    3    3    0    0  0.16581406655E+02  0.16351103084E+02  0.14088356057E+02  0.27217336302E+02  0.51100000000E-03 0.  1.
         12    1    3    3    0    0  0.10960507995E+02 -0.86087273254E+01  0.89124543196E+01  0.16543118317E+02  0.00000000000E+00 0. -1.
</event>
<event>
 7    1  0.5601662E-013  0.5052886E+02  0.7816164E-02  0.1300439E+00
        -11   -1    0    0    0    0  0.00000000000E+00  0.00000000000E+00  0.45593999997E+02  0.45594000000E+02  0.51100000000E-03 0.  1.
         11   -1    0    0    0    0 -0.00000000000E+00 -0.00000000000E+00 -0.45593999997E+02  0.45594000000E+02  0.51100000000E-03 0. -1.
    9900012    2    1    2    0    0  0.22172829915E+01 -0.20773825465E+02 -0.34881187591E+02  0.50528863068E+02  0.30000009782E+02 0.  0.
        -12    1    1    2    0    0 -0.22172829915E+01  0.20773825465E+02  0.34881187591E+02  0.40659136932E+02  0.00000000000E+00 0.  1.
         11    1    3    3    0    0  0.64838927848E+01 -0.15905675264E+02 -0.54293288935E+01  0.18014132889E+02  0.51100000000E-03 0. -1.
        -11    1    3    3    0    0 -0.22152175388E+01 -0.89065167716E+01 -0.18137134507E+02  0.20327047944E+02  0.51100000000E-03 0.  1.
        -12    1    3    3    0    0 -0.20513922545E+01  0.40383665714E+01 -0.11314724190E+02  0.12187682235E+02  0.00000000000E+00 0.  1.
</event>
<event>
 7    1  0.5601662E-013  0.5052887E+02  0.7816164E-02  0.1300439E+00
        -11   -1    0    0    0    0  0.00000000000E+00  0.00000000000E+00  0.45593999997E+02  0.45594000000E+02  0.51100000000E-03 0.  1.
         11   -1    0    0    0    0 -0.00000000000E+00 -0.00000000000E+00 -0.45593999997E+02  0.45594000000E+02  0.51100000000E-03 0. -1.
    9900012    2    1    2    0    0 -0.40524450376E+02 -0.29343787281E+01 -0.15241724883E+01  0.50528871153E+02  0.30000034358E+02 0.  0.
        -12    1    1    2    0    0  0.40524450376E+02  0.29343787281E+01  0.15241724883E+01  0.40659128847E+02  0.00000000000E+00 0.  1.
         11    1    3    3    0    0 -0.23443339367E+02 -0.37646553093E+01  0.23310946378E+01  0.23857845517E+02  0.51100000000E-03 0. -1.
        -11    1    3    3    0    0 -0.11009907355E+01 -0.76407881145E+01  0.13798817618E+01  0.78420595220E+01  0.51100000000E-03 0.  1.
        -12    1    3    3    0    0 -0.15980120274E+02  0.84710646956E+01 -0.52351488878E+01  0.18828966114E+02  0.00000000000E+00 0.  1.
</event>
<event>
 7    1  0.5601662E-013  0.5052886E+02  0.7816164E-02  0.1300439E+00
        -11   -1    0    0    0    0  0.00000000000E+00  0.00000000000E+00  0.45593999997E+02  0.45594000000E+02  0.51100000000E-03 0.  1.
         11   -1    0    0    0    0 -0.00000000000E+00 -0.00000000000E+00 -0.45593999997E+02  0.45594000000E+02  0.51100000000E-03 0. -1.
    9900012    2    1    2    0    0 -0.33871312134E+02  0.20462144082E+02 -0.93381362654E+01  0.50528856932E+02  0.29999991129E+02 0.  0.
        -12    1    1    2    0    0  0.33871312134E+02 -0.20462144082E+02  0.93381362654E+01  0.40659143068E+02  0.00000000000E+00 0.  1.
         11    1    3    3    0    0 -0.12031090820E+02 -0.37556626380E+01 -0.41025134017E+01  0.13254537512E+02  0.51100000000E-03 0. -1.
        -11    1    3    3    0    0 -0.66152159459E+01 -0.22007231765E+00  0.30865610273E+01  0.73031755471E+01  0.51100000000E-03 0.  1.
         12    1    3    3    0    0 -0.15225005368E+02  0.24437879038E+02 -0.83221838910E+01  0.29971143873E+02  0.00000000000E+00 0. -1.
</event>
<event>
 7    1  0.5601662E-013  0.5052887E+02  0.7816164E-02  0.1300439E+00
        -11   -1    0    0    0    0  0.00000000000E+00  0.00000000000E+00  0.45593999997E+02  0.45594000000E+02  0.51100000000E-03 0. -1.
         11   -1    0    0    0    0 -0.00000000000E+00 -0.00000000000E+00 -0.45593999997E+02  0.45594000000E+02  0.51100000000E-03 0.  1.
    9900012    2    1    2    0    0  0.46003791654E+00  0.78962570411E+01  0.39882360209E+02  0.50528866143E+02  0.30000019128E+02 0.  0.
        -12    1    1    2    0    0 -0.46003791654E+00 -0.78962570411E+01 -0.39882360209E+02  0.40659133857E+02  0.00000000000E+00 0.  1.
         11    1    3    3    0    0 -0.28955925633E+01 -0.17972840321E+01 -0.10743854785E+01  0.35733724410E+01  0.51100000000E-03 0. -1.
        -11    1    3    3    0    0  0.16339435392E+01 -0.64852638922E+01  0.11435768717E+02  0.13247838527E+02  0.51100000000E-03 0.  1.
         12    1    3    3    0    0  0.17216869406E+01  0.16178804965E+02  0.29520976971E+02  0.33707655174E+02  0.00000000000E+00 0. -1.
</event>
<event>
 7    1  0.5601662E-013  0.5052886E+02  0.7816164E-02  0.1300439E+00
        -11   -1    0    0    0    0  0.00000000000E+00  0.00000000000E+00  0.45593999997E+02  0.45594000000E+02  0.51100000000E-03 0.  1.
         11   -1    0    0    0    0 -0.00000000000E+00 -0.00000000000E+00 -0.45593999997E+02  0.45594000000E+02  0.51100000000E-03 0. -1.
    9900012    2    1    2    0    0  0.20915606757E+02 -0.12824134400E+02 -0.32422907720E+02  0.50528856205E+02  0.29999988920E+02 0.  0.
        -12    1    1    2    0    0 -0.20915606757E+02  0.12824134400E+02  0.32422907720E+02  0.40659143795E+02  0.00000000000E+00 0.  1.
         11    1    3    3    0    0 -0.38782935082E+01 -0.36677805163E+01 -0.87084413564E+01  0.10214241312E+02  0.51100000000E-03 0. -1.
        -11    1    3    3    0    0  0.84245284837E+01  0.50571175971E+01 -0.28608378033E+01  0.10233841496E+02  0.51100000000E-03 0.  1.
         12    1    3    3    0    0  0.16369371782E+02 -0.14213471480E+02 -0.20853628560E+02  0.30080773398E+02  0.00000000000E+00 0. -1.
</event>
<event>
 7    1  0.5601662E-013  0.5052886E+02  0.7816164E-02  0.1300439E+00
        -11   -1    0    0    0    0  0.00000000000E+00  0.00000000000E+00  0.45593999997E+02  0.45594000000E+02  0.51100000000E-03 0. -1.
         11   -1    0    0    0    0 -0.00000000000E+00 -0.00000000000E+00 -0.45593999997E+02  0.45594000000E+02  0.51100000000E-03 0.  1.
    9900012    2    1    2    0    0 -0.29290153745E+02 -0.18169031900E+02  0.21567070576E+02  0.50528863760E+02  0.30000011884E+02 0.  0.
        -12    1    1    2    0    0  0.29290153745E+02  0.18169031900E+02 -0.21567070576E+02  0.40659136240E+02  0.00000000000E+00 0.  1.
         11    1    3    3    0    0 -0.39571207403E+01  0.38789843660E+01  0.88530904191E+01  0.10444258446E+02  0.51100000000E-03 0. -1.
        -11    1    3    3    0    0 -0.71903619949E+01  0.43338227100E+00  0.80827521200E+01  0.10826818919E+02  0.51100000000E-03 0.  1.
        -12    1    3    3    0    0 -0.18142671009E+02 -0.22481398537E+02  0.46312280371E+01  0.29257786394E+02  0.00000000000E+00 0.  1.
</event>
<event>
 7    1  0.5601662E-013  0.5052886E+02  0.7816164E-02  0.1300439E+00
        -11   -1    0    0    0    0  0.00000000000E+00  0.00000000000E+00  0.45593999997E+02  0.45594000000E+02  0.51100000000E-03 0. -1.
         11   -1    0    0    0    0 -0.00000000000E+00 -0.00000000000E+00 -0.45593999997E+02  0.45594000000E+02  0.51100000000E-03 0.  1.
    9900012    2    1    2    0    0  0.29933678142E+02 -0.20456488422E+02  0.18403060095E+02  0.50528860480E+02  0.30000001914E+02 0.  0.
        -12    1    1    2    0    0 -0.29933678142E+02  0.20456488422E+02 -0.18403060095E+02  0.40659139520E+02  0.00000000000E+00 0.  1.
         11    1    3    3    0    0  0.90526828690E+01 -0.93421423061E+01  0.13507614080E+01  0.13078656148E+02  0.51100000000E-03 0. -1.
        -11    1    3    3    0    0  0.17858412892E+02 -0.17865962846E+02  0.16187487178E+02  0.30002504575E+02  0.51100000000E-03 0.  1.
        -12    1    3    3    0    0  0.30225823814E+01  0.67516167293E+01  0.86481150908E+00  0.74476997561E+01  0.00000000000E+00 0.  1.
</event>
<event>
 7    1  0.5601662E-013  0.5052887E+02  0.7816164E-02  0.1300439E+00
        -11   -1    0    0    0    0  0.00000000000E+00  0.00000000000E+00  0.45593999997E+02  0.45594000000E+02  0.51100000000E-03 0.  1.
         11   -1    0    0    0    0 -0.00000000000E+00 -0.00000000000E+00 -0.45593999997E+02  0.45594000000E+02  0.51100000000E-03 0. -1.
    9900012    2    1    2    0    0 -0.21995624372E+02  0.31208052873E+01 -0.34053162216E+02  0.50528870963E+02  0.30000033780E+02 0.  0.
        -12    1    1    2    0    0  0.21995624372E+02 -0.31208052873E+01  0.34053162216E+02  0.40659129037E+02  0.00000000000E+00 0.  1.
         11    1    3    3    0    0 -0.11816876110E+02  0.90480301104E+01 -0.21470140115E+02  0.26124171311E+02  0.51100000000E-03 0. -1.
        -11    1    3    3    0    0 -0.58238391316E+01 -0.16267448771E+00 -0.15541609640E+02  0.16597746705E+02  0.51100000000E-03 0.  1.
        -12    1    3    3    0    0 -0.43549091300E+01 -0.57645503353E+01  0.29585875390E+01  0.78069529476E+01  0.00000000000E+00 0.  1.
</event>
<event>
 7    1  0.5601662E-013  0.5052887E+02  0.7816164E-02  0.1300439E+00
        -11   -1    0    0    0    0  0.00000000000E+00  0.00000000000E+00  0.45593999997E+02  0.45594000000E+02  0.51100000000E-03 0.  1.
         11   -1    0    0    0    0 -0.00000000000E+00 -0.00000000000E+00 -0.45593999997E+02  0.45594000000E+02  0.51100000000E-03 0. -1.
    9900012    2    1    2    0    0 -0.20280635870E+02  0.10802696832E+01 -0.35223476711E+02  0.50528874512E+02  0.30000044565E+02 0.  0.
        -12    1    1    2    0    0  0.20280635870E+02 -0.10802696832E+01  0.35223476711E+02  0.40659125488E+02  0.00000000000E+00 0.  1.
         11    1    3    3    0    0 -0.15669581438E+02 -0.44764191603E+01 -0.14083042420E+02  0.21538481725E+02  0.51100000000E-03 0. -1.
        -11    1    3    3    0    0 -0.11497662540E+02  0.27267063698E+01 -0.16212682360E+02  0.20061960051E+02  0.51100000000E-03 0.  1.
        -12    1    3    3    0    0  0.68866081079E+01  0.28299824737E+01 -0.49277519310E+01  0.89284327363E+01  0.00000000000E+00 0.  1.
</event>
<event>
 7    1  0.5601662E-013  0.5052886E+02  0.7816164E-02  0.1300439E+00
        -11   -1    0    0    0    0  0.00000000000E+00  0.00000000000E+00  0.45593999997E+02  0.45594000000E+02  0.51100000000E-03 0.  1.
         11   -1    0    0    0    0 -0.00000000000E+00 -0.00000000000E+00 -0.45593999997E+02  0.45594000000E+02  0.51100000000E-03 0. -1.
    9900012    2    1    2    0    0  0.32427150973E+01 -0.17663882816E+02 -0.36477909389E+02  0.50528857968E+02  0.29999994280E+02 0.  0.
        -12    1    1    2    0    0 -0.32427150973E+01  0.17663882816E+02  0.36477909389E+02  0.40659142032E+02  0.00000000000E+00 0.  1.
         11    1    3    3    0    0 -0.72984834099E+01 -0.13521196509E+02 -0.52251866359E+01  0.16229392804E+02  0.51100000000E-03 0. -1.
        -11    1    3    3    0    0  0.48906739416E+01  0.36274418302E+00 -0.47435659809E+01  0.68228801412E+01  0.51100000000E-03 0.  1.
        -12    1    3    3    0    0  0.56505245657E+01 -0.45054304900E+01 -0.26509156772E+02  0.27476585023E+02  0.00000000000E+00 0.  1.
</event>
<event>
 7    1  0.5601662E-013  0.5052886E+02  0.7816164E-02  0.1300439E+00
        -11   -1    0    0    0    0  0.00000000000E+00  0.00000000000E+00  0.45593999997E+02  0.45594000000E+02  0.51100000000E-03 0.  1.
         11   -1    0    0    0    0 -0.00000000000E+00 -0.00000000000E+00 -0.45593999997E+02  0.45594000000E+02  0.51100000000E-03 0. -1.
    9900012    2    1    2    0    0  0.63491023172E+01 -0.16571168380E+02 -0.36582109728E+02  0.50528862357E+02  0.30000007621E+02 0.  0.
        -12    1    1    2    0    0 -0.63491023172E+01  0.16571168380E+02  0.36582109728E+02  0.40659137643E+02  0.00000000000E+00 0.  1.
         11    1    3    3    0    0  0.26793684198E+01 -0.23811719517E+01  0.10795393473E+01  0.37435812340E+01  0.51100000000E-03 0. -1.
        -11    1    3    3    0    0 -0.51878674954E+01 -0.50554412738E+01 -0.22694707631E+00  0.72472726497E+01  0.51100000000E-03 0.  1.
        -12    1    3    3    0    0  0.88576013928E+01 -0.91345551542E+01 -0.37434701999E+02  0.39538008474E+02  0.00000000000E+00 0.  1.
</event>
<event>
 7    1  0.5601662E-013  0.5052886E+02  0.7816164E-02  0.1300439E+00
        -11   -1    0    0    0    0  0.00000000000E+00  0.00000000000E+00  0.45593999997E+02  0.45594000000E+02  0.51100000000E-03 0.  1.
         11   -1    0    0    0    0 -0.00000000000E+00 -0.00000000000E+00 -0.45593999997E+02  0.45594000000E+02  0.51100000000E-03 0. -1.
    9900012    2    1    2    0    0  0.47506196032E+01 -0.37383403669E+02 -0.15266912435E+02  0.50528857463E+02  0.29999992745E+02 0.  0.
        -12    1    1    2    0    0 -0.47506196032E+01  0.37383403669E+02  0.15266912435E+02  0.40659142537E+02  0.00000000000E+00 0.  1.
         11    1    3    3    0    0  0.50144650867E+01 -0.97704229203E+01 -0.19995991890E+01  0.11162635053E+02  0.51100000000E-03 0. -1.
        -11    1    3    3    0    0  0.43036553417E+01 -0.29268696961E+02 -0.16162545578E+02  0.33710620743E+02  0.51100000000E-03 0.  1.
        -12    1    3    3    0    0 -0.45675008253E+01  0.16557162117E+01  0.28952323316E+01  0.56556016671E+01  0.00000000000E+00 0.  1.
</event>
<event>
 7    1  0.5601662E-013  0.5052886E+02  0.7816164E-02  0.1300439E+00
        -11   -1    0    0    0    0  0.00000000000E+00  0.00000000000E+00  0.45593999997E+02  0.45594000000E+02  0.51100000000E-03 0.  1.
         11   -1    0    0    0    0 -0.00000000000E+00 -0.00000000000E+00 -0.45593999997E+02  0.45594000000E+02  0.51100000000E-03 0. -1.
    9900012    2    1    2    0    0 -0.29165265002E+02 -0.70628218402E+01 -0.27434828701E+02  0.50528856368E+02  0.29999989417E+02 0.  0.
        -12    1    1    2    0    0  0.29165265002E+02  0.70628218402E+01  0.27434828701E+02  0.40659143632E+02  0.00000000000E+00 0.  1.
         11    1    3    3    0    0 -0.13116234484E+02 -0.61517401939E+01  0.16454174708E+01  0.14580360536E+02  0.51100000000E-03 0.  1.
        -11    1    3    3    0    0 -0.10510702546E+02 -0.60189460074E+01 -0.11001315007E+02  0.16362503207E+02  0.51100000000E-03 0. -1.
         12    1    3    3    0    0 -0.55383279729E+01  0.51078643611E+01 -0.18078931164E+02  0.19585992625E+02  0.00000000000E+00 0. -1.
</event>
<event>
 7    1  0.5601662E-013  0.5052886E+02  0.7816164E-02  0.1300439E+00
        -11   -1    0    0    0    0  0.00000000000E+00  0.00000000000E+00  0.45593999997E+02  0.45594000000E+02  0.51100000000E-03 0.  1.
         11   -1    0    0    0    0 -0.00000000000E+00 -0.00000000000E+00 -0.45593999997E+02  0.45594000000E+02  0.51100000000E-03 0. -1.
    9900012    2    1    2    0    0  0.17924921982E+02 -0.33631873657E+02  0.14168964779E+02  0.50528864291E+02  0.30000013499E+02 0.  0.
        -12    1    1    2    0    0 -0.17924921982E+02  0.33631873657E+02 -0.14168964779E+02  0.40659135709E+02  0.00000000000E+00 0.  1.
         11    1    3    3    0    0  0.11589497642E+02 -0.63272154471E+01  0.61471689482E+01  0.14564950987E+02  0.51100000000E-03 0.  1.
        -11    1    3    3    0    0 -0.61666237910E+01 -0.18942656153E+02  0.32509826864E+01  0.20184656544E+02  0.51100000000E-03 0. -1.
         12    1    3    3    0    0  0.12502048130E+02 -0.83620020570E+01  0.47708131443E+01  0.15779256760E+02  0.00000000000E+00 0. -1.
</event>
<event>
 7    1  0.5601662E-013  0.5052886E+02  0.7816164E-02  0.1300439E+00
        -11   -1    0    0    0    0  0.00000000000E+00  0.00000000000E+00  0.45593999997E+02  0.45594000000E+02  0.51100000000E-03 0.  1.
         11   -1    0    0    0    0 -0.00000000000E+00 -0.00000000000E+00 -0.45593999997E+02  0.45594000000E+02  0.51100000000E-03 0. -1.
    9900012    2    1    2    0    0  0.81627124788E+01  0.90291974564E+01 -0.38794452904E+02  0.50528857636E+02  0.29999993269E+02 0.  0.
        -12    1    1    2    0    0 -0.81627124788E+01 -0.90291974564E+01  0.38794452904E+02  0.40659142364E+02  0.00000000000E+00 0.  1.
         11    1    3    3    0    0  0.83853666094E+01 -0.32321397180E+01 -0.42410591079E+01  0.99371868729E+01  0.51100000000E-03 0. -1.
        -11    1    3    3    0    0 -0.14022944730E+01 -0.81873118680E+00 -0.23125907249E+02  0.23182845746E+02  0.51100000000E-03 0.  1.
        -12    1    3    3    0    0  0.11796403424E+01  0.13080068361E+02 -0.11427486547E+02  0.17408825016E+02  0.00000000000E+00 0.  1.
</event>
<event>
 7    1  0.5601662E-013  0.5052886E+02  0.7816164E-02  0.1300439E+00
        -11   -1    0    0    0    0  0.00000000000E+00  0.00000000000E+00  0.45593999997E+02  0.45594000000E+02  0.51100000000E-03 0.  1.
         11   -1    0    0    0    0 -0.00000000000E+00 -0.00000000000E+00 -0.45593999997E+02  0.45594000000E+02  0.51100000000E-03 0. -1.
    9900012    2    1    2    0    0  0.28013265168E+02  0.29411982253E+02  0.18324285401E+01  0.50528861793E+02  0.30000005905E+02 0.  0.
        -12    1    1    2    0    0 -0.28013265168E+02 -0.29411982253E+02 -0.18324285401E+01  0.40659138207E+02  0.00000000000E+00 0.  1.
         11    1    3    3    0    0  0.10734838829E+02  0.15761525770E+02 -0.94322879368E+01  0.21275114929E+02  0.51100000000E-03 0. -1.
        -11    1    3    3    0    0  0.39321819746E+01  0.10063494700E+02 -0.90104523685E+00  0.10841949245E+02  0.51100000000E-03 0.  1.
         12    1    3    3    0    0  0.13346244364E+02  0.35869617835E+01  0.12165761714E+02  0.18411797618E+02  0.00000000000E+00 0. -1.
</event>
<event>
 7    1  0.5601662E-013  0.5052886E+02  0.7816164E-02  0.1300439E+00
        -11   -1    0    0    0    0  0.00000000000E+00  0.00000000000E+00  0.45593999997E+02  0.45594000000E+02  0.51100000000E-03 0.  1.
         11   -1    0    0    0    0 -0.00000000000E+00 -0.00000000000E+00 -0.45593999997E+02  0.45594000000E+02  0.51100000000E-03 0. -1.
    9900012    2    1    2    0    0  0.39856308253E+01 -0.23974895564E+02 -0.32595782521E+02  0.50528857012E+02  0.29999991373E+02 0.  0.
        -12    1    1    2    0    0 -0.39856308253E+01  0.23974895564E+02  0.32595782521E+02  0.40659142988E+02  0.00000000000E+00 0.  1.
         11    1    3    3    0    0  0.52274299921E+01 -0.22897663492E+02 -0.14922077961E+02  0.27826200399E+02  0.51100000000E-03 0. -1.
        -11    1    3    3    0    0  0.10143011347E+01 -0.91397069225E+00  0.22603319754E+01  0.26406912197E+01  0.51100000000E-03 0.  1.
         12    1    3    3    0    0 -0.22561003015E+01 -0.16326137984E+00 -0.19934036535E+02  0.20061965393E+02  0.00000000000E+00 0. -1.
</event>
<event>
 7    1  0.5601662E-013  0.5052886E+02  0.7816164E-02  0.1300439E+00
        -11   -1    0    0    0    0  0.00000000000E+00  0.00000000000E+00  0.45593999997E+02  0.45594000000E+02  0.51100000000E-03 0.  1.
         11   -1    0    0    0    0 -0.00000000000E+00 -0.00000000000E+00 -0.45593999997E+02  0.45594000000E+02  0.51100000000E-03 0. -1.
    9900012    2    1    2    0    0 -0.33117418339E+01  0.37108452682E+02 -0.16283769645E+02  0.50528855293E+02  0.29999986150E+02 0.  0.
        -12    1    1    2    0    0  0.33117418339E+01 -0.37108452682E+02  0.16283769645E+02  0.40659144707E+02  0.00000000000E+00 0.  1.
         11    1    3    3    0    0 -0.89790384080E+01  0.81781070102E+01 -0.18191265920E+01  0.12280626483E+02  0.51100000000E-03 0. -1.
        -11    1    3    3    0    0 -0.70921461414E+01  0.10174755158E+02 -0.26934166785E+01  0.12691677315E+02  0.51100000000E-03 0.  1.
        -12    1    3    3    0    0  0.12759442716E+02  0.18755590514E+02 -0.11771226374E+02  0.25556551495E+02  0.00000000000E+00 0.  1.
</event>
<event>
 7    1  0.5601662E-013  0.5052885E+02  0.7816164E-02  0.1300439E+00
        -11   -1    0    0    0    0  0.00000000000E+00  0.00000000000E+00  0.45593999997E+02  0.45594000000E+02  0.51100000000E-03 0. -1.
         11   -1    0    0    0    0 -0.00000000000E+00 -0.00000000000E+00 -0.45593999997E+02  0.45594000000E+02  0.51100000000E-03 0.  1.
    9900012    2    1    2    0    0  0.24465431098E+02 -0.30825505759E+02  0.10217484444E+02  0.50528854504E+02  0.29999983751E+02 0.  0.
        -12    1    1    2    0    0 -0.24465431098E+02  0.30825505759E+02 -0.10217484444E+02  0.40659145496E+02  0.00000000000E+00 0.  1.
         11    1    3    3    0    0  0.10002709655E+02 -0.32722409037E+01  0.84351608084E+01  0.13487538660E+02  0.51100000000E-03 0. -1.
        -11    1    3    3    0    0  0.74545670312E+01 -0.89073312766E+01  0.10160129859E+02  0.15431764614E+02  0.51100000000E-03 0.  1.
         12    1    3    3    0    0  0.70081544114E+01 -0.18645933578E+02 -0.83778062228E+01  0.21609551230E+02  0.00000000000E+00 0. -1.
</event>
<event>
 7    1  0.5601662E-013  0.5052886E+02  0.7816164E-02  0.1300439E+00
        -11   -1    0    0    0    0  0.00000000000E+00  0.00000000000E+00  0.45593999997E+02  0.45594000000E+02  0.51100000000E-03 0.  1.
         11   -1    0    0    0    0 -0.00000000000E+00 -0.00000000000E+00 -0.45593999997E+02  0.45594000000E+02  0.51100000000E-03 0. -1.
    9900012    2    1    2    0    0 -0.16864295581E+02  0.36601988574E+02 -0.53903052803E+01  0.50528862970E+02  0.30000009484E+02 0.  0.
        -12    1    1    2    0    0  0.16864295581E+02 -0.36601988574E+02  0.53903052803E+01  0.40659137030E+02  0.00000000000E+00 0.  1.
         11    1    3    3    0    0 -0.70243009871E+01  0.22498421995E+02 -0.21328828232E+01  0.23665776684E+02  0.51100000000E-03 0. -1.
        -11    1    3    3    0    0 -0.10028511557E+01  0.84696438589E+01 -0.10937708017E+02  0.13869896700E+02  0.51100000000E-03 0.  1.
         12    1    3    3    0    0 -0.88371434378E+01  0.56339227198E+01  0.76802855599E+01  0.12993189587E+02  0.00000000000E+00 0. -1.
</event>
<event>
 7    1  0.5601662E-013  0.5052889E+02  0.7816164E-02  0.1300439E+00
        -11   -1    0    0    0    0  0.00000000000E+00  0.00000000000E+00  0.45593999997E+02  0.45594000000E+02  0.51100000000E-03 0.  1.
         11   -1    0    0    0    0 -0.00000000000E+00 -0.00000000000E+00 -0.45593999997E+02  0.45594000000E+02  0.51100000000E-03 0. -1.
    9900012    2    1    2    0    0  0.13424246007E+02  0.26131567680E+02 -0.28108615869E+02  0.50528886675E+02  0.30000081538E+02 0.  0.
        -12    1    1    2    0    0 -0.13424246007E+02 -0.26131567680E+02  0.28108615869E+02  0.40659113325E+02  0.00000000000E+00 0.  1.
         11    1    3    3    0    0  0.74098551297E+01  0.68877632669E+01  0.76788717802E+00  0.10145781727E+02  0.51100000000E-03 0. -1.
        -11    1    3    3    0    0  0.12257407444E+02  0.82742290329E+01 -0.10698150124E+02  0.18252597615E+02  0.51100000000E-03 0.  1.
         12    1    3    3    0    0 -0.62430165667E+01  0.10969575380E+02 -0.18178352923E+02  0.22130507334E+02  0.00000000000E+00 0. -1.
</event>
<event>
 7    1  0.5601662E-013  0.5052886E+02  0.7816164E-02  0.1300439E+00
        -11   -1    0    0    0    0  0.00000000000E+00  0.00000000000E+00  0.45593999997E+02  0.45594000000E+02  0.51100000000E-03 0.  1.
         11   -1    0    0    0    0 -0.00000000000E+00 -0.00000000000E+00 -0.45593999997E+02  0.45594000000E+02  0.51100000000E-03 0. -1.
    9900012    2    1    2    0    0 -0.94615166726E+01 -0.39062593515E+02 -0.61448618627E+01  0.50528857889E+02  0.29999994040E+02 0.  0.
        -12    1    1    2    0    0  0.94615166726E+01  0.39062593515E+02  0.61448618627E+01  0.40659142111E+02  0.00000000000E+00 0.  1.
         11    1    3    3    0    0 -0.66642453944E+01 -0.18339956608E+01 -0.27038416106E+01  0.74220257664E+01  0.51100000000E-03 0. -1.
        -11    1    3    3    0    0  0.35198880929E+01 -0.64962049748E+01  0.68620087540E+01  0.10083523970E+02  0.51100000000E-03 0.  1.
        -12    1    3    3    0    0 -0.63171593710E+01 -0.30732392880E+02 -0.10303029006E+02  0.33023308152E+02  0.00000000000E+00 0.  1.
</event>
<event>
 7    1  0.5601662E-013  0.5052886E+02  0.7816164E-02  0.1300439E+00
        -11   -1    0    0    0    0  0.00000000000E+00  0.00000000000E+00  0.45593999997E+02  0.45594000000E+02  0.51100000000E-03 0. -1.
         11   -1    0    0    0    0 -0.00000000000E+00 -0.00000000000E+00 -0.45593999997E+02  0.45594000000E+02  0.51100000000E-03 0.  1.
    9900012    2    1    2    0    0 -0.32537298738E+01 -0.37902995324E+02  0.14350684203E+02  0.50528856505E+02  0.29999989833E+02 0.  0.
        -12    1    1    2    0    0  0.32537298738E+01  0.37902995324E+02 -0.14350684203E+02  0.40659143495E+02  0.00000000000E+00 0.  1.
         11    1    3    3    0    0 -0.68226291068E+01 -0.26885265397E+02  0.77221408774E+01  0.28792311880E+02  0.51100000000E-03 0. -1.
        -11    1    3    3    0    0 -0.16127916320E+01 -0.52623160911E+01 -0.52173657958E+01  0.75837967799E+01  0.51100000000E-03 0.  1.
         12    1    3    3    0    0  0.51816908651E+01 -0.57554138358E+01  0.11845909122E+02  0.14152747845E+02  0.00000000000E+00 0. -1.
</event>
<event>
 7    1  0.5601662E-013  0.5052886E+02  0.7816164E-02  0.1300439E+00
        -11   -1    0    0    0    0  0.00000000000E+00  0.00000000000E+00  0.45593999997E+02  0.45594000000E+02  0.51100000000E-03 0.  1.
         11   -1    0    0    0    0 -0.00000000000E+00 -0.00000000000E+00 -0.45593999997E+02  0.45594000000E+02  0.51100000000E-03 0. -1.
    9900012    2    1    2    0    0 -0.35507977887E+02 -0.68089962326E+01 -0.18600716327E+02  0.50528861160E+02  0.30000003982E+02 0.  0.
        -12    1    1    2    0    0  0.35507977887E+02  0.68089962326E+01  0.18600716327E+02  0.40659138840E+02  0.00000000000E+00 0.  1.
         11    1    3    3    0    0 -0.14619157168E+02 -0.57589716907E+01 -0.43139150271E+01  0.16294028795E+02  0.51100000000E-03 0.  1.
        -11    1    3    3    0    0 -0.22608512009E+02 -0.58284384294E+01 -0.16606981732E+02  0.28651480805E+02  0.51100000000E-03 0. -1.
         12    1    3    3    0    0  0.17196912906E+01  0.47784138875E+01  0.23201804316E+01  0.55833515607E+01  0.00000000000E+00 0. -1.
</event>
<event>
 7    1  0.5601662E-013  0.5052885E+02  0.7816164E-02  0.1300439E+00
        -11   -1    0    0    0    0  0.00000000000E+00  0.00000000000E+00  0.45593999997E+02  0.45594000000E+02  0.51100000000E-03 0. -1.
         11   -1    0    0    0    0 -0.00000000000E+00 -0.00000000000E+00 -0.45593999997E+02  0.45594000000E+02  0.51100000000E-03 0.  1.
    9900012    2    1    2    0    0 -0.23749665577E+02 -0.20832842521E+02  0.25595167376E+02  0.50528849302E+02  0.29999967937E+02 0.  0.
        -12    1    1    2    0    0  0.23749665577E+02  0.20832842521E+02 -0.25595167376E+02  0.40659150698E+02  0.00000000000E+00 0.  1.
         11    1    3    3    0    0 -0.51944398028E+01 -0.35584181360E+01  0.11979914268E+02  0.13533768530E+02  0.51100000000E-03 0. -1.
        -11    1    3    3    0    0  0.34456486523E+01 -0.10329368743E+01  0.84246228978E+01  0.91604434637E+01  0.51100000000E-03 0.  1.
         12    1    3    3    0    0 -0.22000874426E+02 -0.16241487510E+02  0.51906302100E+01  0.27834637308E+02  0.00000000000E+00 0. -1.
</event>
<event>
 7    1  0.5601662E-013  0.5052886E+02  0.7816164E-02  0.1300439E+00
        -11   -1    0    0    0    0  0.00000000000E+00  0.00000000000E+00  0.45593999997E+02  0.45594000000E+02  0.51100000000E-03 0.  1.
         11   -1    0    0    0    0 -0.00000000000E+00 -0.00000000000E+00 -0.45593999997E+02  0.45594000000E+02  0.51100000000E-03 0. -1.
    9900012    2    1    2    0    0 -0.21990275146E+02 -0.29128123492E+01 -0.34075048746E+02  0.50528860513E+02  0.30000002016E+02 0.  0.
        -12    1    1    2    0    0  0.21990275146E+02  0.29128123492E+01  0.34075048746E+02  0.40659139487E+02  0.00000000000E+00 0.  1.
         11    1    3    3    0    0 -0.17299391422E+01 -0.34175103955E+01 -0.24765474343E+02  0.25059943864E+02  0.51100000000E-03 0.  1.
        -11    1    3    3    0    0  0.16767933417E+01 -0.41247484290E+00 -0.39162928618E+00  0.17706341140E+01  0.51100000000E-03 0. -1.
         12    1    3    3    0    0 -0.21937129346E+02  0.91717288924E+00 -0.89179451162E+01  0.23698282536E+02  0.00000000000E+00 0. -1.
</event>
<event>
 7    1  0.5601662E-013  0.5052886E+02  0.7816164E-02  0.1300439E+00
        -11   -1    0    0    0    0  0.00000000000E+00  0.00000000000E+00  0.45593999997E+02  0.45594000000E+02  0.51100000000E-03 0.  1.
         11   -1    0    0    0    0 -0.00000000000E+00 -0.00000000000E+00 -0.45593999997E+02  0.45594000000E+02  0.51100000000E-03 0. -1.
    9900012    2    1    2    0    0 -0.76135651260E+01 -0.22364329474E+02 -0.33091335153E+02  0.50528855039E+02  0.29999985376E+02 0.  0.
        -12    1    1    2    0    0  0.76135651260E+01  0.22364329474E+02  0.33091335153E+02  0.40659144961E+02  0.00000000000E+00 0.  1.
         11    1    3    3    0    0  0.22440486854E+01 -0.72548383980E+01 -0.20586131434E+02  0.21942133952E+02  0.51100000000E-03 0. -1.
        -11    1    3    3    0    0  0.17050394889E+01  0.16381792148E+01  0.23936728536E+01  0.33645892453E+01  0.51100000000E-03 0.  1.
         12    1    3    3    0    0 -0.11562653300E+02 -0.16747670291E+02 -0.14898876573E+02  0.25222131842E+02  0.00000000000E+00 0. -1.
</event>
<event>
 7    1  0.5601662E-013  0.5052887E+02  0.7816164E-02  0.1300439E+00
        -11   -1    0    0    0    0  0.00000000000E+00  0.00000000000E+00  0.45593999997E+02  0.45594000000E+02  0.51100000000E-03 0.  1.
         11   -1    0    0    0    0 -0.00000000000E+00 -0.00000000000E+00 -0.45593999997E+02  0.45594000000E+02  0.51100000000E-03 0. -1.
    9900012    2    1    2    0    0  0.20877022249E+02  0.32724097420E+02 -0.12101578129E+02  0.50528870605E+02  0.30000032691E+02 0.  0.
        -12    1    1    2    0    0 -0.20877022249E+02 -0.32724097420E+02  0.12101578129E+02  0.40659129395E+02  0.00000000000E+00 0.  1.
         11    1    3    3    0    0  0.45859599929E+01  0.24235713048E+02 -0.83544958350E+01  0.26042242932E+02  0.51100000000E-03 0. -1.
        -11    1    3    3    0    0  0.40995857630E+01  0.94165045510E+01  0.27621271253E+01  0.10635154343E+02  0.51100000000E-03 0.  1.
        -12    1    3    3    0    0  0.12191476493E+02 -0.92812017914E+00 -0.65092094194E+01  0.13851473330E+02  0.00000000000E+00 0.  1.
</event>
<event>
 7    1  0.5601662E-013  0.5052899E+02  0.7816164E-02  0.1300438E+00
        -11   -1    0    0    0    0  0.00000000000E+00  0.00000000000E+00  0.45593999997E+02  0.45594000000E+02  0.51100000000E-03 0.  1.
         11   -1    0    0    0    0 -0.00000000000E+00 -0.00000000000E+00 -0.45593999997E+02  0.45594000000E+02  0.51100000000E-03 0. -1.
    9900012    2    1    2    0    0 -0.36918701130E+02 -0.15616694694E+02  0.68032212659E+01  0.50528985429E+02  0.30000381708E+02 0.  0.
        -12    1    1    2    0    0  0.36918701130E+02  0.15616694694E+02 -0.68032212659E+01  0.40659014571E+02  0.00000000000E+00 0.  1.
         11    1    3    3    0    0 -0.16993129550E+02 -0.10596783190E+02  0.38435660781E+01  0.20391941210E+02  0.51100000000E-03 0. -1.
        -11    1    3    3    0    0 -0.64377933113E+01 -0.10290833746E+02  0.82973853417E+01  0.14703504537E+02  0.51100000000E-03 0.  1.
        -12    1    3    3    0    0 -0.13487778269E+02  0.52709222420E+01 -0.53377301538E+01  0.15433539682E+02  0.00000000000E+00 0.  1.
</event>
<event>
 7    1  0.5601662E-013  0.5052886E+02  0.7816164E-02  0.1300439E+00
        -11   -1    0    0    0    0  0.00000000000E+00  0.00000000000E+00  0.45593999997E+02  0.45594000000E+02  0.51100000000E-03 0.  1.
         11   -1    0    0    0    0 -0.00000000000E+00 -0.00000000000E+00 -0.45593999997E+02  0.45594000000E+02  0.51100000000E-03 0. -1.
    9900012    2    1    2    0    0  0.23107520456E+02 -0.14130173167E+02 -0.30324027746E+02  0.50528856452E+02  0.29999989670E+02 0.  0.
        -12    1    1    2    0    0 -0.23107520456E+02  0.14130173167E+02  0.30324027746E+02  0.40659143548E+02  0.00000000000E+00 0.  1.
         11    1    3    3    0    0  0.61094173084E+01 -0.61924791044E+00 -0.20860221120E+02  0.21745281632E+02  0.51100000000E-03 0. -1.
        -11    1    3    3    0    0  0.12749179022E+02  0.27293079192E+00 -0.41079484925E+01  0.13397436248E+02  0.51100000000E-03 0.  1.
         12    1    3    3    0    0  0.42489241262E+01 -0.13783856048E+02 -0.53558581331E+01  0.15386138571E+02  0.00000000000E+00 0. -1.
</event>
<event>
 7    1  0.5601662E-013  0.5052886E+02  0.7816164E-02  0.1300439E+00
        -11   -1    0    0    0    0  0.00000000000E+00  0.00000000000E+00  0.45593999997E+02  0.45594000000E+02  0.51100000000E-03 0.  1.
         11   -1    0    0    0    0 -0.00000000000E+00 -0.00000000000E+00 -0.45593999997E+02  0.45594000000E+02  0.51100000000E-03 0. -1.
    9900012    2    1    2    0    0 -0.81720106203E+01  0.26206086953E+02 -0.29993744006E+02  0.50528862891E+02  0.30000009244E+02 0.  0.
        -12    1    1    2    0    0  0.81720106203E+01 -0.26206086953E+02  0.29993744006E+02  0.40659137109E+02  0.00000000000E+00 0.  1.
         11    1    3    3    0    0 -0.69216683790E+01  0.14203095651E+02 -0.70455695088E+01  0.17299637834E+02  0.51100000000E-03 0. -1.
        -11    1    3    3    0    0 -0.71827549726E+01  0.23380879944E+01  0.86633529599E-01  0.75542127383E+01  0.51100000000E-03 0.  1.
         12    1    3    3    0    0  0.59324127313E+01  0.96649033070E+01 -0.23034808027E+02  0.25675012319E+02  0.00000000000E+00 0. -1.
</event>
<event>
 7    1  0.5601662E-013  0.5052885E+02  0.7816164E-02  0.1300439E+00
        -11   -1    0    0    0    0  0.00000000000E+00  0.00000000000E+00  0.45593999997E+02  0.45594000000E+02  0.51100000000E-03 0.  1.
         11   -1    0    0    0    0 -0.00000000000E+00 -0.00000000000E+00 -0.45593999997E+02  0.45594000000E+02  0.51100000000E-03 0. -1.
    9900012    2    1    2    0    0  0.22246031914E+02 -0.23550623975E+02 -0.24569263351E+02  0.50528849405E+02  0.29999968250E+02 0.  0.
        -12    1    1    2    0    0 -0.22246031914E+02  0.23550623975E+02  0.24569263351E+02  0.40659150595E+02  0.00000000000E+00 0.  1.
         11    1    3    3    0    0  0.23636679939E+01 -0.68285472186E+00  0.28266712000E+01  0.37474374298E+01  0.51100000000E-03 0. -1.
        -11    1    3    3    0    0  0.93040030968E+01 -0.96488578460E+01  0.12963142384E+01  0.13466453216E+02  0.51100000000E-03 0.  1.
         12    1    3    3    0    0  0.10578360824E+02 -0.13218911407E+02 -0.28692248789E+02  0.33314958759E+02  0.00000000000E+00 0. -1.
</event>
<event>
 7    1  0.5601662E-013  0.5052886E+02  0.7816164E-02  0.1300439E+00
        -11   -1    0    0    0    0  0.00000000000E+00  0.00000000000E+00  0.45593999997E+02  0.45594000000E+02  0.51100000000E-03 0.  1.
         11   -1    0    0    0    0 -0.00000000000E+00 -0.00000000000E+00 -0.45593999997E+02  0.45594000000E+02  0.51100000000E-03 0. -1.
    9900012    2    1    2    0    0 -0.22495433091E+02  0.26420768727E+02 -0.21191140363E+02  0.50528856380E+02  0.29999989451E+02 0.  0.
        -12    1    1    2    0    0  0.22495433091E+02 -0.26420768727E+02  0.21191140363E+02  0.40659143620E+02  0.00000000000E+00 0.  1.
         11    1    3    3    0    0 -0.10422756963E+02  0.10567536737E+02 -0.87725631577E+00  0.14868633908E+02  0.51100000000E-03 0. -1.
        -11    1    3    3    0    0  0.18079504749E+01 -0.45905942630E+00  0.32930689114E+01  0.37846695487E+01  0.51100000000E-03 0.  1.
        -12    1    3    3    0    0 -0.13880626603E+02  0.16312291416E+02 -0.23606952958E+02  0.31875552922E+02  0.00000000000E+00 0.  1.
</event>
<event>
 7    1  0.5601662E-013  0.5052883E+02  0.7816164E-02  0.1300439E+00
        -11   -1    0    0    0    0  0.00000000000E+00  0.00000000000E+00  0.45593999997E+02  0.45594000000E+02  0.51100000000E-03 0. -1.
         11   -1    0    0    0    0 -0.00000000000E+00 -0.00000000000E+00 -0.45593999997E+02  0.45594000000E+02  0.51100000000E-03 0.  1.
    9900012    2    1    2    0    0 -0.80272506504E+01  0.39077657117E+02 -0.78528792411E+01  0.50528834353E+02  0.29999922498E+02 0.  0.
        -12    1    1    2    0    0  0.80272506504E+01 -0.39077657117E+02  0.78528792411E+01  0.40659165647E+02  0.00000000000E+00 0.  1.
         11    1    3    3    0    0  0.47589409363E+01  0.47498153673E+01 -0.55576765703E+01  0.87233040747E+01  0.51100000000E-03 0. -1.
        -11    1    3    3    0    0  0.16104297577E+01 -0.16190524880E+01 -0.20701302385E+01  0.30822482750E+01  0.51100000000E-03 0.  1.
        -12    1    3    3    0    0 -0.14396621344E+02  0.35946894238E+02 -0.22507243238E+00  0.38723282003E+02  0.00000000000E+00 0.  1.
</event>
<event>
 7    1  0.6072728E-013  0.5052886E+02  0.7816164E-02  0.1300439E+00
        -11   -1    0    0    0    0  0.00000000000E+00  0.00000000000E+00  0.45593999997E+02  0.45594000000E+02  0.51100000000E-03 0. -1.
         11   -1    0    0    0    0 -0.00000000000E+00 -0.00000000000E+00 -0.45593999997E+02  0.45594000000E+02  0.51100000000E-03 0.  1.
    9900012    2    1    2    0    0  0.26865577232E+01 -0.64477872809E+01  0.40054643762E+02  0.50528855394E+02  0.29999986456E+02 0.  0.
        -12    1    1    2    0    0 -0.26865577232E+01  0.64477872809E+01 -0.40054643762E+02  0.40659144606E+02  0.00000000000E+00 0.  1.
         11    1    3    3    0    0  0.68704534052E+01  0.18436211528E+01  0.32276160585E+02  0.33050758105E+02  0.51100000000E-03 0. -1.
        -11    1    3    3    0    0 -0.65491200761E+01 -0.38613636382E+01  0.95015260539E+01  0.12168816727E+02  0.51100000000E-03 0.  1.
        -12    1    3    3    0    0  0.23652243941E+01 -0.44300447955E+01 -0.17230428779E+01  0.53092805618E+01  0.00000000000E+00 0.  1.
</event>
<event>
 7    1  0.5601662E-013  0.5052886E+02  0.7816164E-02  0.1300439E+00
        -11   -1    0    0    0    0  0.00000000000E+00  0.00000000000E+00  0.45593999997E+02  0.45594000000E+02  0.51100000000E-03 0.  1.
         11   -1    0    0    0    0 -0.00000000000E+00 -0.00000000000E+00 -0.45593999997E+02  0.45594000000E+02  0.51100000000E-03 0. -1.
    9900012    2    1    2    0    0 -0.85434885946E+01  0.95131148388E+01 -0.38596312069E+02  0.50528857650E+02  0.29999993312E+02 0.  0.
        -12    1    1    2    0    0  0.85434885946E+01 -0.95131148388E+01  0.38596312069E+02  0.40659142350E+02  0.00000000000E+00 0.  1.
         11    1    3    3    0    0 -0.38178984000E+00 -0.45572847091E+01 -0.15609564429E+02  0.16265703468E+02  0.51100000000E-03 0.  1.
        -11    1    3    3    0    0  0.46820082104E+01 -0.17364855839E+01 -0.53848091183E+01  0.73438921947E+01  0.51100000000E-03 0. -1.
         12    1    3    3    0    0 -0.12843706965E+02  0.15806885132E+02 -0.17601938522E+02  0.26919261987E+02  0.00000000000E+00 0. -1.
</event>
<event>
 7    1  0.5601662E-013  0.5052886E+02  0.7816164E-02  0.1300439E+00
        -11   -1    0    0    0    0  0.00000000000E+00  0.00000000000E+00  0.45593999997E+02  0.45594000000E+02  0.51100000000E-03 0.  1.
         11   -1    0    0    0    0 -0.00000000000E+00 -0.00000000000E+00 -0.45593999997E+02  0.45594000000E+02  0.51100000000E-03 0. -1.
    9900012    2    1    2    0    0  0.10416415756E+02  0.40666048506E+01 -0.39091259469E+02  0.50528861309E+02  0.30000004435E+02 0.  0.
        -12    1    1    2    0    0 -0.10416415756E+02 -0.40666048506E+01  0.39091259469E+02  0.40659138691E+02  0.00000000000E+00 0.  1.
         11    1    3    3    0    0 -0.21009229347E+01 -0.48579488862E+01 -0.58406800982E+01  0.78820738914E+01  0.51100000000E-03 0. -1.
        -11    1    3    3    0    0  0.16093891752E+02 -0.16672133416E+00 -0.15282364122E+02  0.22194409232E+02  0.51100000000E-03 0.  1.
         12    1    3    3    0    0 -0.35765530620E+01  0.90912750710E+01 -0.17968215249E+02  0.20452378186E+02  0.00000000000E+00 0. -1.
</event>
<event>
 7    1  0.5601662E-013  0.5052886E+02  0.7816164E-02  0.1300439E+00
        -11   -1    0    0    0    0  0.00000000000E+00  0.00000000000E+00  0.45593999997E+02  0.45594000000E+02  0.51100000000E-03 0. -1.
         11   -1    0    0    0    0 -0.00000000000E+00 -0.00000000000E+00 -0.45593999997E+02  0.45594000000E+02  0.51100000000E-03 0.  1.
    9900012    2    1    2    0    0 -0.12991801503E+02 -0.31404533791E+02  0.22318923106E+02  0.50528856163E+02  0.29999988792E+02 0.  0.
        -12    1    1    2    0    0  0.12991801503E+02  0.31404533791E+02 -0.22318923106E+02  0.40659143837E+02  0.00000000000E+00 0.  1.
         11    1    3    3    0    0 -0.12351019017E+01 -0.25822277946E+02  0.22832716988E+02  0.34491281222E+02  0.51100000000E-03 0. -1.
        -11    1    3    3    0    0  0.11124018297E+01 -0.72939546586E+00  0.16449549037E+01  0.21154981618E+01  0.51100000000E-03 0.  1.
        -12    1    3    3    0    0 -0.12869101431E+02 -0.48528603791E+01 -0.21587487854E+01  0.13922076778E+02  0.00000000000E+00 0.  1.
</event>
<event>
 7    1  0.5601662E-013  0.5052885E+02  0.7816164E-02  0.1300439E+00
        -11   -1    0    0    0    0  0.00000000000E+00  0.00000000000E+00  0.45593999997E+02  0.45594000000E+02  0.51100000000E-03 0.  1.
         11   -1    0    0    0    0 -0.00000000000E+00 -0.00000000000E+00 -0.45593999997E+02  0.45594000000E+02  0.51100000000E-03 0. -1.
    9900012    2    1    2    0    0 -0.34049877791E+01 -0.19722832263E+02 -0.35391839174E+02  0.50528851775E+02  0.29999975456E+02 0.  0.
        -12    1    1    2    0    0  0.34049877791E+01  0.19722832263E+02  0.35391839174E+02  0.40659148225E+02  0.00000000000E+00 0.  1.
         11    1    3    3    0    0  0.88790234352E+01 -0.18238948966E+02 -0.18729793963E+02  0.27609808016E+02  0.51100000000E-03 0. -1.
        -11    1    3    3    0    0 -0.29768119852E+00 -0.34895543727E+01 -0.27994901020E+01  0.44836089156E+01  0.51100000000E-03 0.  1.
         12    1    3    3    0    0 -0.11986330016E+02  0.20056710758E+01 -0.13862555109E+02  0.18435434844E+02  0.00000000000E+00 0. -1.
</event>
<event>
 7    1  0.5601662E-013  0.5052886E+02  0.7816164E-02  0.1300439E+00
        -11   -1    0    0    0    0  0.00000000000E+00  0.00000000000E+00  0.45593999997E+02  0.45594000000E+02  0.51100000000E-03 0.  1.
         11   -1    0    0    0    0 -0.00000000000E+00 -0.00000000000E+00 -0.45593999997E+02  0.45594000000E+02  0.51100000000E-03 0. -1.
    9900012    2    1    2    0    0  0.12233410494E+02  0.22289564046E+02 -0.31728300535E+02  0.50528855241E+02  0.29999985992E+02 0.  0.
        -12    1    1    2    0    0 -0.12233410494E+02 -0.22289564046E+02  0.31728300535E+02  0.40659144759E+02  0.00000000000E+00 0.  1.
         11    1    3    3    0    0  0.14701095103E+01  0.60160449438E+01 -0.12740410479E+02  0.14165877247E+02  0.51100000000E-03 0. -1.
        -11    1    3    3    0    0  0.14286516323E+02  0.11736137552E+02 -0.22885533573E+02  0.29420895984E+02  0.51100000000E-03 0.  1.
        -12    1    3    3    0    0 -0.35232153391E+01  0.45373815498E+01  0.38976435175E+01  0.69420820107E+01  0.00000000000E+00 0.  1.
</event>
<event>
 7    1  0.6147645E-013  0.5052886E+02  0.7816164E-02  0.1300439E+00
        -11   -1    0    0    0    0  0.00000000000E+00  0.00000000000E+00  0.45593999997E+02  0.45594000000E+02  0.51100000000E-03 0. -1.
         11   -1    0    0    0    0 -0.00000000000E+00 -0.00000000000E+00 -0.45593999997E+02  0.45594000000E+02  0.51100000000E-03 0.  1.
    9900012    2    1    2    0    0 -0.38304710058E+02 -0.21049938686E+01  0.13471584464E+02  0.50528863268E+02  0.30000010389E+02 0.  0.
        -12    1    1    2    0    0  0.38304710058E+02  0.21049938686E+01 -0.13471584464E+02  0.40659136732E+02  0.00000000000E+00 0.  1.
         11    1    3    3    0    0 -0.38130126874E+01  0.73821844721E+01  0.59016175061E+01  0.10191408283E+02  0.51100000000E-03 0. -1.
        -11    1    3    3    0    0 -0.40019975073E+01  0.24569315979E+01 -0.34060159952E+01  0.58011586899E+01  0.51100000000E-03 0.  1.
         12    1    3    3    0    0 -0.30489699864E+02 -0.11944109939E+02  0.10975982953E+02  0.34536296295E+02  0.00000000000E+00 0. -1.
</event>
<event>
 7    1  0.5601662E-013  0.5052884E+02  0.7816164E-02  0.1300439E+00
        -11   -1    0    0    0    0  0.00000000000E+00  0.00000000000E+00  0.45593999997E+02  0.45594000000E+02  0.51100000000E-03 0. -1.
         11   -1    0    0    0    0 -0.00000000000E+00 -0.00000000000E+00 -0.45593999997E+02  0.45594000000E+02  0.51100000000E-03 0.  1.
    9900012    2    1    2    0    0 -0.34298666382E+02  0.29082510576E+01  0.21640487781E+02  0.50528841730E+02  0.29999944922E+02 0.  0.
        -12    1    1    2    0    0  0.34298666382E+02 -0.29082510576E+01 -0.21640487781E+02  0.40659158270E+02  0.00000000000E+00 0.  1.
         11    1    3    3    0    0 -0.10812476859E+02 -0.33055065190E+01  0.16471362159E+02  0.19978533500E+02  0.51100000000E-03 0. -1.
        -11    1    3    3    0    0 -0.21723773332E+02  0.74120503835E+01  0.10176546453E+02  0.25108224084E+02  0.51100000000E-03 0.  1.
        -12    1    3    3    0    0 -0.17624161916E+01 -0.11982928069E+01 -0.50074208305E+01  0.54420841465E+01  0.00000000000E+00 0.  1.
</event>
<event>
 7    1  0.5601662E-013  0.5052886E+02  0.7816164E-02  0.1300439E+00
        -11   -1    0    0    0    0  0.00000000000E+00  0.00000000000E+00  0.45593999997E+02  0.45594000000E+02  0.51100000000E-03 0.  1.
         11   -1    0    0    0    0 -0.00000000000E+00 -0.00000000000E+00 -0.45593999997E+02  0.45594000000E+02  0.51100000000E-03 0. -1.
    9900012    2    1    2    0    0 -0.30310392879E+02 -0.87151705999E+01 -0.25661097488E+02  0.50528855403E+02  0.29999986482E+02 0.  0.
        -12    1    1    2    0    0  0.30310392879E+02  0.87151705999E+01  0.25661097488E+02  0.40659144597E+02  0.00000000000E+00 0.  1.
         11    1    3    3    0    0 -0.23565156862E+02  0.28561424688E+01 -0.19414732161E+02  0.30666039733E+02  0.51100000000E-03 0. -1.
        -11    1    3    3    0    0  0.85229538216E+00  0.18647843584E+01  0.15499273901E+01  0.25702340940E+01  0.51100000000E-03 0.  1.
        -12    1    3    3    0    0 -0.75975313992E+01 -0.13436097427E+02 -0.77962927174E+01  0.17292581576E+02  0.00000000000E+00 0.  1.
</event>
<event>
 7    1  0.5601662E-013  0.5052886E+02  0.7816164E-02  0.1300439E+00
        -11   -1    0    0    0    0  0.00000000000E+00  0.00000000000E+00  0.45593999997E+02  0.45594000000E+02  0.51100000000E-03 0.  1.
         11   -1    0    0    0    0 -0.00000000000E+00 -0.00000000000E+00 -0.45593999997E+02  0.45594000000E+02  0.51100000000E-03 0. -1.
    9900012    2    1    2    0    0  0.32975656954E+02 -0.62216468401E+01 -0.22957853842E+02  0.50528857190E+02  0.29999991915E+02 0.  0.
        -12    1    1    2    0    0 -0.32975656954E+02  0.62216468401E+01  0.22957853842E+02  0.40659142810E+02  0.00000000000E+00 0.  1.
         11    1    3    3    0    0  0.21605326845E+02 -0.50924388990E+01 -0.15655764828E+02  0.27162953717E+02  0.51100000000E-03 0. -1.
        -11    1    3    3    0    0  0.12926716355E+02 -0.45564639611E+01 -0.11381140227E+02  0.17815490806E+02  0.51100000000E-03 0.  1.
        -12    1    3    3    0    0 -0.15563862456E+01  0.34272560200E+01  0.40790512128E+01  0.55504126665E+01  0.00000000000E+00 0.  1.
</event>
<event>
 7    1  0.5601662E-013  0.5052887E+02  0.7816164E-02  0.1300439E+00
        -11   -1    0    0    0    0  0.00000000000E+00  0.00000000000E+00  0.45593999997E+02  0.45594000000E+02  0.51100000000E-03 0. -1.
         11   -1    0    0    0    0 -0.00000000000E+00 -0.00000000000E+00 -0.45593999997E+02  0.45594000000E+02  0.51100000000E-03 0.  1.
    9900012    2    1    2    0    0 -0.72164460266E+01 -0.39790725087E+02 -0.42173566641E+01  0.50528868265E+02  0.30000025578E+02 0.  0.
        -12    1    1    2    0    0  0.72164460266E+01  0.39790725087E+02  0.42173566641E+01  0.40659131735E+02  0.00000000000E+00 0.  1.
         11    1    3    3    0    0  0.30619535552E+01  0.36026743229E+00 -0.14988302768E+01  0.34280963605E+01  0.51100000000E-03 0.  1.
        -11    1    3    3    0    0 -0.57188728760E+01 -0.40325941038E+02  0.16785900019E+01  0.40764012220E+02  0.51100000000E-03 0. -1.
         12    1    3    3    0    0 -0.45595267057E+01  0.17494851881E+00 -0.43971163892E+01  0.63367596850E+01  0.00000000000E+00 0. -1.
</event>
<event>
 7    1  0.5601662E-013  0.5052887E+02  0.7816164E-02  0.1300439E+00
        -11   -1    0    0    0    0  0.00000000000E+00  0.00000000000E+00  0.45593999997E+02  0.45594000000E+02  0.51100000000E-03 0.  1.
         11   -1    0    0    0    0 -0.00000000000E+00 -0.00000000000E+00 -0.45593999997E+02  0.45594000000E+02  0.51100000000E-03 0. -1.
    9900012    2    1    2    0    0 -0.50409701376E+01 -0.30400377514E+02 -0.26524904055E+02  0.50528869807E+02  0.30000030266E+02 0.  0.
        -12    1    1    2    0    0  0.50409701376E+01  0.30400377514E+02  0.26524904055E+02  0.40659130193E+02  0.00000000000E+00 0.  1.
         11    1    3    3    0    0  0.52044648842E+01 -0.12535362245E+02 -0.15273834645E+02  0.20433105157E+02  0.51100000000E-03 0. -1.
        -11    1    3    3    0    0  0.23881218731E+01  0.20040941490E+01  0.13420162763E+01  0.33941902400E+01  0.51100000000E-03 0.  1.
        -12    1    3    3    0    0 -0.12633556895E+02 -0.19869109418E+02 -0.12593085687E+02  0.26701574410E+02  0.00000000000E+00 0.  1.
</event>
<event>
 7    1  0.5601662E-013  0.5052888E+02  0.7816164E-02  0.1300439E+00
        -11   -1    0    0    0    0  0.00000000000E+00  0.00000000000E+00  0.45593999997E+02  0.45594000000E+02  0.51100000000E-03 0. -1.
         11   -1    0    0    0    0 -0.00000000000E+00 -0.00000000000E+00 -0.45593999997E+02  0.45594000000E+02  0.51100000000E-03 0.  1.
    9900012    2    1    2    0    0  0.52705900487E+00 -0.17107985207E+02  0.36880928606E+02  0.50528882402E+02  0.30000068548E+02 0.  0.
        -12    1    1    2    0    0 -0.52705900487E+00  0.17107985207E+02 -0.36880928606E+02  0.40659117598E+02  0.00000000000E+00 0.  1.
         11    1    3    3    0    0 -0.89344402742E+00 -0.14173450818E+02  0.51970943339E+01  0.15122656516E+02  0.51100000000E-03 0. -1.
        -11    1    3    3    0    0  0.49824776868E+01 -0.48718317394E+01  0.54117465396E+01  0.88230850198E+01  0.51100000000E-03 0.  1.
         12    1    3    3    0    0 -0.35619746545E+01  0.19372973506E+01  0.26272087732E+02  0.26583140866E+02  0.00000000000E+00 0. -1.
</event>
<event>
 7    1  0.5601662E-013  0.5052885E+02  0.7816164E-02  0.1300439E+00
        -11   -1    0    0    0    0  0.00000000000E+00  0.00000000000E+00  0.45593999997E+02  0.45594000000E+02  0.51100000000E-03 0.  1.
         11   -1    0    0    0    0 -0.00000000000E+00 -0.00000000000E+00 -0.45593999997E+02  0.45594000000E+02  0.51100000000E-03 0. -1.
    9900012    2    1    2    0    0 -0.23054857004E+02  0.19861224062E+01 -0.33431946044E+02  0.50528854289E+02  0.29999983097E+02 0.  0.
        -12    1    1    2    0    0  0.23054857004E+02 -0.19861224062E+01  0.33431946044E+02  0.40659145711E+02  0.00000000000E+00 0.  1.
         11    1    3    3    0    0  0.26496502135E+01  0.61464559196E+01 -0.15949489933E+02  0.17296988062E+02  0.51100000000E-03 0. -1.
        -11    1    3    3    0    0 -0.11089473306E+00 -0.20860391884E+01  0.13237844282E+00  0.20931749690E+01  0.51100000000E-03 0.  1.
         12    1    3    3    0    0 -0.25593612484E+02 -0.20742943250E+01 -0.17614834554E+02  0.31138691259E+02  0.00000000000E+00 0. -1.
</event>
<event>
 7    1  0.5601662E-013  0.5052891E+02  0.7816164E-02  0.1300439E+00
        -11   -1    0    0    0    0  0.00000000000E+00  0.00000000000E+00  0.45593999997E+02  0.45594000000E+02  0.51100000000E-03 0.  1.
         11   -1    0    0    0    0 -0.00000000000E+00 -0.00000000000E+00 -0.45593999997E+02  0.45594000000E+02  0.51100000000E-03 0. -1.
    9900012    2    1    2    0    0 -0.95022473945E+01  0.34184132703E+01 -0.39385066937E+02  0.50528908121E+02  0.30000146724E+02 0.  0.
        -12    1    1    2    0    0  0.95022473945E+01 -0.34184132703E+01  0.39385066937E+02  0.40659091879E+02  0.00000000000E+00 0.  1.
         11    1    3    3    0    0  0.44989668942E+01  0.92429929059E+01 -0.17594997003E+02  0.20377868897E+02  0.51100000000E-03 0. -1.
        -11    1    3    3    0    0  0.64260182626E+00  0.28789179098E+01 -0.68402479924E+00  0.30280349446E+01  0.51100000000E-03 0.  1.
         12    1    3    3    0    0 -0.14643816115E+02 -0.87034975454E+01 -0.21106045134E+02  0.27123004279E+02  0.00000000000E+00 0. -1.
</event>
<event>
 7    1  0.5601662E-013  0.5052885E+02  0.7816164E-02  0.1300439E+00
        -11   -1    0    0    0    0  0.00000000000E+00  0.00000000000E+00  0.45593999997E+02  0.45594000000E+02  0.51100000000E-03 0.  1.
         11   -1    0    0    0    0 -0.00000000000E+00 -0.00000000000E+00 -0.45593999997E+02  0.45594000000E+02  0.51100000000E-03 0. -1.
    9900012    2    1    2    0    0 -0.35109028627E+02  0.27553634170E+01 -0.20320682948E+02  0.50528854975E+02  0.29999985181E+02 0.  0.
        -12    1    1    2    0    0  0.35109028627E+02 -0.27553634170E+01  0.20320682948E+02  0.40659145025E+02  0.00000000000E+00 0.  1.
         11    1    3    3    0    0 -0.42754322208E+01 -0.77248874623E+00 -0.10806063880E+01  0.44770269113E+01  0.51100000000E-03 0. -1.
        -11    1    3    3    0    0 -0.15801813122E+02  0.32226189876E+01  0.55529212497E+01  0.17056303988E+02  0.51100000000E-03 0.  1.
         12    1    3    3    0    0 -0.15031783285E+02  0.30523317562E+00 -0.24792997809E+02  0.28995524075E+02  0.00000000000E+00 0. -1.
</event>
<event>
 7    1  0.5601662E-013  0.5052884E+02  0.7816164E-02  0.1300439E+00
        -11   -1    0    0    0    0  0.00000000000E+00  0.00000000000E+00  0.45593999997E+02  0.45594000000E+02  0.51100000000E-03 0. -1.
         11   -1    0    0    0    0 -0.00000000000E+00 -0.00000000000E+00 -0.45593999997E+02  0.45594000000E+02  0.51100000000E-03 0.  1.
    9900012    2    1    2    0    0  0.38396733553E+02  0.85343996496E+01  0.10296695215E+02  0.50528842886E+02  0.29999948435E+02 0.  0.
        -12    1    1    2    0    0 -0.38396733553E+02 -0.85343996496E+01 -0.10296695215E+02  0.40659157114E+02  0.00000000000E+00 0.  1.
         11    1    3    3    0    0  0.99817849738E+01  0.91430803220E+01  0.43164313577E+01  0.14207868558E+02  0.51100000000E-03 0. -1.
        -11    1    3    3    0    0  0.15192925144E+02 -0.76085951728E+01  0.11341157894E+02  0.20428841317E+02  0.51100000000E-03 0.  1.
         12    1    3    3    0    0  0.13222023435E+02  0.69999145004E+01 -0.53608940368E+01  0.15892133010E+02  0.00000000000E+00 0. -1.
</event>
<event>
 7    1  0.5601662E-013  0.5052886E+02  0.7816164E-02  0.1300439E+00
        -11   -1    0    0    0    0  0.00000000000E+00  0.00000000000E+00  0.45593999997E+02  0.45594000000E+02  0.51100000000E-03 0. -1.
         11   -1    0    0    0    0 -0.00000000000E+00 -0.00000000000E+00 -0.45593999997E+02  0.45594000000E+02  0.51100000000E-03 0.  1.
    9900012    2    1    2    0    0 -0.11060557106E+02  0.39048318792E+02 -0.24614845485E+01  0.50528855516E+02  0.29999986827E+02 0.  0.
        -12    1    1    2    0    0  0.11060557106E+02 -0.39048318792E+02  0.24614845485E+01  0.40659144484E+02  0.00000000000E+00 0.  1.
         11    1    3    3    0    0  0.56811977736E+01  0.15210645466E+02  0.17800641255E-01  0.16236996667E+02  0.51100000000E-03 0. -1.
        -11    1    3    3    0    0  0.34140581808E+00  0.13058633138E+02  0.29151099231E+01  0.13384405982E+02  0.51100000000E-03 0.  1.
         12    1    3    3    0    0 -0.17083160697E+02  0.10779040188E+02 -0.53943951129E+01  0.20907452868E+02  0.00000000000E+00 0. -1.
</event>
<event>
 7    1  0.5601662E-013  0.5052884E+02  0.7816164E-02  0.1300439E+00
        -11   -1    0    0    0    0  0.00000000000E+00  0.00000000000E+00  0.45593999997E+02  0.45594000000E+02  0.51100000000E-03 0.  1.
         11   -1    0    0    0    0 -0.00000000000E+00 -0.00000000000E+00 -0.45593999997E+02  0.45594000000E+02  0.51100000000E-03 0. -1.
    9900012    2    1    2    0    0 -0.16790656462E+02  0.12176138959E+01 -0.37010245099E+02  0.50528843955E+02  0.29999951684E+02 0.  0.
        -12    1    1    2    0    0  0.16790656462E+02 -0.12176138959E+01  0.37010245099E+02  0.40659156045E+02  0.00000000000E+00 0.  1.
         11    1    3    3    0    0 -0.12223279852E+02  0.43746396657E+00 -0.23026832426E+02  0.26073644871E+02  0.51100000000E-03 0. -1.
        -11    1    3    3    0    0 -0.11530436808E-01 -0.11522681971E+01 -0.18027456290E+02  0.18064247438E+02  0.51100000000E-03 0.  1.
        -12    1    3    3    0    0 -0.45558461727E+01  0.19324181263E+01  0.40440436161E+01  0.63909516453E+01  0.00000000000E+00 0.  1.
</event>
<event>
 7    1  0.5601662E-013  0.5052884E+02  0.7816164E-02  0.1300439E+00
        -11   -1    0    0    0    0  0.00000000000E+00  0.00000000000E+00  0.45593999997E+02  0.45594000000E+02  0.51100000000E-03 0.  1.
         11   -1    0    0    0    0 -0.00000000000E+00 -0.00000000000E+00 -0.45593999997E+02  0.45594000000E+02  0.51100000000E-03 0. -1.
    9900012    2    1    2    0    0 -0.24377189084E+02  0.19420864975E+02 -0.26110345777E+02  0.50528837434E+02  0.29999931864E+02 0.  0.
        -12    1    1    2    0    0  0.24377189084E+02 -0.19420864975E+02  0.26110345777E+02  0.40659162566E+02  0.00000000000E+00 0.  1.
         11    1    3    3    0    0 -0.86182912129E+01 -0.28865425562E+00 -0.33925802738E+01  0.92664915629E+01  0.51100000000E-03 0. -1.
        -11    1    3    3    0    0 -0.18665286545E+02  0.12066476238E+02 -0.65937048073E+01  0.23183393063E+02  0.51100000000E-03 0.  1.
         12    1    3    3    0    0  0.29063886739E+01  0.76430429928E+01 -0.16124060696E+02  0.18078952808E+02  0.00000000000E+00 0. -1.
</event>
<event>
 7    1  0.5601662E-013  0.5052886E+02  0.7816164E-02  0.1300439E+00
        -11   -1    0    0    0    0  0.00000000000E+00  0.00000000000E+00  0.45593999997E+02  0.45594000000E+02  0.51100000000E-03 0.  1.
         11   -1    0    0    0    0 -0.00000000000E+00 -0.00000000000E+00 -0.45593999997E+02  0.45594000000E+02  0.51100000000E-03 0. -1.
    9900012    2    1    2    0    0  0.19404294191E+02  0.28936682806E+02  0.20959662674E+02  0.50528859524E+02  0.29999999009E+02 0.  0.
        -12    1    1    2    0    0 -0.19404294191E+02 -0.28936682806E+02 -0.20959662674E+02  0.40659140476E+02  0.00000000000E+00 0.  1.
         11    1    3    3    0    0 -0.60126096520E+01  0.55788105740E+01  0.11069134732E+02  0.13776804645E+02  0.51100000000E-03 0.  1.
        -11    1    3    3    0    0  0.24065599354E+01 -0.19366807271E-01 -0.24695366154E+00  0.24192751327E+01  0.51100000000E-03 0. -1.
         12    1    3    3    0    0  0.23010343907E+02  0.23377239040E+02  0.10137481603E+02  0.34332779746E+02  0.00000000000E+00 0. -1.
</event>
<event>
 7    1  0.5601662E-013  0.5052884E+02  0.7816164E-02  0.1300439E+00
        -11   -1    0    0    0    0  0.00000000000E+00  0.00000000000E+00  0.45593999997E+02  0.45594000000E+02  0.51100000000E-03 0. -1.
         11   -1    0    0    0    0 -0.00000000000E+00 -0.00000000000E+00 -0.45593999997E+02  0.45594000000E+02  0.51100000000E-03 0.  1.
    9900012    2    1    2    0    0  0.28938968323E+02  0.28308273595E+02  0.37874387392E+01  0.50528844405E+02  0.29999953052E+02 0.  0.
        -12    1    1    2    0    0 -0.28938968323E+02 -0.28308273595E+02 -0.37874387392E+01  0.40659155595E+02  0.00000000000E+00 0.  1.
         11    1    3    3    0    0  0.26053200341E+01  0.19348952155E+02  0.57317531975E+00  0.19531978194E+02  0.51100000000E-03 0. -1.
        -11    1    3    3    0    0 -0.14671136123E+00  0.13473112947E+01 -0.25130313319E+01  0.28551880296E+01  0.51100000000E-03 0.  1.
         12    1    3    3    0    0  0.26480359650E+02  0.76120101456E+01  0.57272947513E+01  0.28141678181E+02  0.00000000000E+00 0. -1.
</event>
<event>
 7    1  0.5601662E-013  0.5052886E+02  0.7816164E-02  0.1300439E+00
        -11   -1    0    0    0    0  0.00000000000E+00  0.00000000000E+00  0.45593999997E+02  0.45594000000E+02  0.51100000000E-03 0. -1.
         11   -1    0    0    0    0 -0.00000000000E+00 -0.00000000000E+00 -0.45593999997E+02  0.45594000000E+02  0.51100000000E-03 0.  1.
    9900012    2    1    2    0    0  0.87852472794E+01  0.34315210593E+02  0.19961254986E+02  0.50528856521E+02  0.29999989882E+02 0.  0.
        -12    1    1    2    0    0 -0.87852472794E+01 -0.34315210593E+02 -0.19961254986E+02  0.40659143479E+02  0.00000000000E+00 0.  1.
         11    1    3    3    0    0  0.43518492818E+01  0.74298961206E+01  0.93004219234E+01  0.12674375596E+02  0.51100000000E-03 0. -1.
        -11    1    3    3    0    0 -0.27892027848E+01 -0.29604793172E+00  0.92815352410E+01  0.96960916478E+01  0.51100000000E-03 0.  1.
         12    1    3    3    0    0  0.72226007824E+01  0.27181362404E+02  0.13792978213E+01  0.28158389277E+02  0.00000000000E+00 0. -1.
</event>
<event>
 7    1  0.5601662E-013  0.5052887E+02  0.7816164E-02  0.1300439E+00
        -11   -1    0    0    0    0  0.00000000000E+00  0.00000000000E+00  0.45593999997E+02  0.45594000000E+02  0.51100000000E-03 0.  1.
         11   -1    0    0    0    0 -0.00000000000E+00 -0.00000000000E+00 -0.45593999997E+02  0.45594000000E+02  0.51100000000E-03 0. -1.
    9900012    2    1    2    0    0 -0.44421639110E+01  0.15802438816E+02 -0.37198324741E+02  0.50528865033E+02  0.30000015755E+02 0.  0.
        -12    1    1    2    0    0  0.44421639110E+01 -0.15802438816E+02  0.37198324741E+02  0.40659134967E+02  0.00000000000E+00 0.  1.
         11    1    3    3    0    0  0.13824574817E+01 -0.10717838305E+01 -0.67102400661E+01  0.69344957477E+01  0.51100000000E-03 0. -1.
        -11    1    3    3    0    0  0.38922511518E+01 -0.54996781977E+01 -0.73968076399E+01  0.10005440661E+02  0.51100000000E-03 0.  1.
        -12    1    3    3    0    0 -0.97168725445E+01  0.22373900844E+02 -0.23091277035E+02  0.33588928624E+02  0.00000000000E+00 0.  1.
</event>
<event>
 7    1  0.5601662E-013  0.5052887E+02  0.7816164E-02  0.1300439E+00
        -11   -1    0    0    0    0  0.00000000000E+00  0.00000000000E+00  0.45593999997E+02  0.45594000000E+02  0.51100000000E-03 0.  1.
         11   -1    0    0    0    0 -0.00000000000E+00 -0.00000000000E+00 -0.45593999997E+02  0.45594000000E+02  0.51100000000E-03 0. -1.
    9900012    2    1    2    0    0  0.19524986439E+02 -0.28625721470E+02 -0.21272235344E+02  0.50528867918E+02  0.30000024522E+02 0.  0.
        -12    1    1    2    0    0 -0.19524986439E+02  0.28625721470E+02  0.21272235344E+02  0.40659132082E+02  0.00000000000E+00 0.  1.
         11    1    3    3    0    0  0.58966289406E+01 -0.57261312356E+01 -0.95115861713E+01  0.12570961918E+02  0.51100000000E-03 0. -1.
        -11    1    3    3    0    0 -0.54610917409E+01 -0.12528226401E+02 -0.82144959408E+01  0.15945467180E+02  0.51100000000E-03 0.  1.
        -12    1    3    3    0    0  0.19089449240E+02 -0.10371363834E+02 -0.35461532321E+01  0.22012438820E+02  0.00000000000E+00 0.  1.
</event>
<event>
 7    1  0.5601662E-013  0.5052882E+02  0.7816164E-02  0.1300439E+00
        -11   -1    0    0    0    0  0.00000000000E+00  0.00000000000E+00  0.45593999997E+02  0.45594000000E+02  0.51100000000E-03 0. -1.
         11   -1    0    0    0    0 -0.00000000000E+00 -0.00000000000E+00 -0.45593999997E+02  0.45594000000E+02  0.51100000000E-03 0.  1.
    9900012    2    1    2    0    0  0.17536029294E+02  0.13819755746E+02  0.33980451994E+02  0.50528817888E+02  0.29999872452E+02 0.  0.
        -12    1    1    2    0    0 -0.17536029294E+02 -0.13819755746E+02 -0.33980451994E+02  0.40659182112E+02  0.00000000000E+00 0.  1.
         11    1    3    3    0    0 -0.50681045172E+01 -0.25312013808E+00  0.51349547785E+01  0.72192460853E+01  0.51100000000E-03 0. -1.
        -11    1    3    3    0    0  0.20379695982E+01 -0.40915847320E+01  0.22431059044E+01  0.50917492144E+01  0.51100000000E-03 0.  1.
         12    1    3    3    0    0  0.20566164213E+02  0.18164460616E+02  0.26602391311E+02  0.38217822588E+02  0.00000000000E+00 0. -1.
</event>
<event>
 7    1  0.5601662E-013  0.5052885E+02  0.7816164E-02  0.1300439E+00
        -11   -1    0    0    0    0  0.00000000000E+00  0.00000000000E+00  0.45593999997E+02  0.45594000000E+02  0.51100000000E-03 0. -1.
         11   -1    0    0    0    0 -0.00000000000E+00 -0.00000000000E+00 -0.45593999997E+02  0.45594000000E+02  0.51100000000E-03 0.  1.
    9900012    2    1    2    0    0  0.38246374325E+02 -0.12994064647E+02  0.46406717094E+01  0.50528847291E+02  0.29999961827E+02 0.  0.
        -12    1    1    2    0    0 -0.38246374325E+02  0.12994064647E+02 -0.46406717094E+01  0.40659152709E+02  0.00000000000E+00 0.  1.
         11    1    3    3    0    0  0.13272525380E+02  0.18350166990E+01 -0.48164674397E+01  0.14238173166E+02  0.51100000000E-03 0. -1.
        -11    1    3    3    0    0  0.12764658003E+02  0.32486072786E+01  0.45107475864E+01  0.13922528048E+02  0.51100000000E-03 0.  1.
        -12    1    3    3    0    0  0.12209190942E+02 -0.18077688624E+02  0.49463915626E+01  0.22368146078E+02  0.00000000000E+00 0.  1.
</event>
<event>
 7    1  0.5601662E-013  0.5052886E+02  0.7816164E-02  0.1300439E+00
        -11   -1    0    0    0    0  0.00000000000E+00  0.00000000000E+00  0.45593999997E+02  0.45594000000E+02  0.51100000000E-03 0.  1.
         11   -1    0    0    0    0 -0.00000000000E+00 -0.00000000000E+00 -0.45593999997E+02  0.45594000000E+02  0.51100000000E-03 0. -1.
    9900012    2    1    2    0    0 -0.25519987126E+02  0.13932966700E+02  0.28421263243E+02  0.50528861934E+02  0.30000006334E+02 0.  0.
        -12    1    1    2    0    0  0.25519987126E+02 -0.13932966700E+02 -0.28421263243E+02  0.40659138066E+02  0.00000000000E+00 0.  1.
         11    1    3    3    0    0 -0.19983337075E+02  0.16659379855E+02  0.15140829283E+02  0.30101717716E+02  0.51100000000E-03 0. -1.
        -11    1    3    3    0    0 -0.67213645138E+01  0.26846326458E+01  0.14745373932E+01  0.73863559456E+01  0.51100000000E-03 0.  1.
        -12    1    3    3    0    0  0.11847144631E+01 -0.54110458009E+01  0.11805896566E+02  0.13040788272E+02  0.00000000000E+00 0.  1.
</event>
<event>
 7    1  0.5601662E-013  0.5052886E+02  0.7816164E-02  0.1300439E+00
        -11   -1    0    0    0    0  0.00000000000E+00  0.00000000000E+00  0.45593999997E+02  0.45594000000E+02  0.51100000000E-03 0. -1.
         11   -1    0    0    0    0 -0.00000000000E+00 -0.00000000000E+00 -0.45593999997E+02  0.45594000000E+02  0.51100000000E-03 0.  1.
    9900012    2    1    2    0    0 -0.26453528280E+02  0.19951678330E+02  0.23564948898E+02  0.50528862734E+02  0.30000008765E+02 0.  0.
        -12    1    1    2    0    0  0.26453528280E+02 -0.19951678330E+02 -0.23564948898E+02  0.40659137266E+02  0.00000000000E+00 0.  1.
         11    1    3    3    0    0 -0.18083595723E+02  0.94593436242E+01  0.12151146010E+02  0.23751757108E+02  0.51100000000E-03 0. -1.
        -11    1    3    3    0    0 -0.10852657318E+01  0.14934423986E+02  0.40633748476E+01  0.15515341985E+02  0.51100000000E-03 0.  1.
        -12    1    3    3    0    0 -0.72846668257E+01 -0.44420892797E+01  0.73504280402E+01  0.11261763641E+02  0.00000000000E+00 0.  1.
</event>
<event>
 7    1  0.5601662E-013  0.5052886E+02  0.7816164E-02  0.1300439E+00
        -11   -1    0    0    0    0  0.00000000000E+00  0.00000000000E+00  0.45593999997E+02  0.45594000000E+02  0.51100000000E-03 0.  1.
         11   -1    0    0    0    0 -0.00000000000E+00 -0.00000000000E+00 -0.45593999997E+02  0.45594000000E+02  0.51100000000E-03 0. -1.
    9900012    2    1    2    0    0  0.39433709351E+02 -0.63462620842E+01  0.76074378733E+01  0.50528860970E+02  0.30000003406E+02 0.  0.
        -12    1    1    2    0    0 -0.39433709351E+02  0.63462620842E+01 -0.76074378733E+01  0.40659139030E+02  0.00000000000E+00 0.  1.
         11    1    3    3    0    0  0.55299870594E+01 -0.45809118935E+01  0.54318103599E+01  0.90038921973E+01  0.51100000000E-03 0. -1.
        -11    1    3    3    0    0  0.75252207769E+01 -0.40919278769E+01  0.10699582872E+02  0.13705980279E+02  0.51100000000E-03 0.  1.
         12    1    3    3    0    0  0.26378501515E+02  0.23265776862E+01 -0.85239553591E+01  0.27818988495E+02  0.00000000000E+00 0. -1.
</event>
<event>
 7    1  0.5601662E-013  0.5052886E+02  0.7816164E-02  0.1300439E+00
        -11   -1    0    0    0    0  0.00000000000E+00  0.00000000000E+00  0.45593999997E+02  0.45594000000E+02  0.51100000000E-03 0. -1.
         11   -1    0    0    0    0 -0.00000000000E+00 -0.00000000000E+00 -0.45593999997E+02  0.45594000000E+02  0.51100000000E-03 0.  1.
    9900012    2    1    2    0    0  0.20154035420E+02  0.31171716178E+02  0.16592316415E+02  0.50528855921E+02  0.29999988059E+02 0.  0.
        -12    1    1    2    0    0 -0.20154035420E+02 -0.31171716178E+02 -0.16592316415E+02  0.40659144079E+02  0.00000000000E+00 0.  1.
         11    1    3    3    0    0 -0.12982376052E+01 -0.30075525826E+01 -0.79737876001E+00  0.33714398356E+01  0.51100000000E-03 0. -1.
        -11    1    3    3    0    0  0.50885761396E+00  0.33080390251E+01 -0.31290861022E+01  0.45818378800E+01  0.51100000000E-03 0.  1.
         12    1    3    3    0    0  0.20943415411E+02  0.30871229735E+02  0.20518781277E+02  0.42575578206E+02  0.00000000000E+00 0. -1.
</event>
<event>
 7    1  0.5601662E-013  0.5052885E+02  0.7816164E-02  0.1300439E+00
        -11   -1    0    0    0    0  0.00000000000E+00  0.00000000000E+00  0.45593999997E+02  0.45594000000E+02  0.51100000000E-03 0.  1.
         11   -1    0    0    0    0 -0.00000000000E+00 -0.00000000000E+00 -0.45593999997E+02  0.45594000000E+02  0.51100000000E-03 0. -1.
    9900012    2    1    2    0    0  0.34529180645E+02 -0.16296608602E+02 -0.13975783869E+02  0.50528852165E+02  0.29999976641E+02 0.  0.
        -12    1    1    2    0    0 -0.34529180645E+02  0.16296608602E+02  0.13975783869E+02  0.40659147835E+02  0.00000000000E+00 0.  1.
         11    1    3    3    0    0  0.16637283717E+02 -0.12784223414E+02 -0.30779654432E+01  0.21206353985E+02  0.51100000000E-03 0.  1.
        -11    1    3    3    0    0 -0.26150206232E+01  0.39676478598E+01 -0.45759237327E+01  0.65969417663E+01  0.51100000000E-03 0. -1.
         12    1    3    3    0    0  0.20506917551E+02 -0.74800330471E+01 -0.63218946933E+01  0.22725556414E+02  0.00000000000E+00 0. -1.
</event>
<event>
 7    1  0.5601662E-013  0.5052887E+02  0.7816164E-02  0.1300439E+00
        -11   -1    0    0    0    0  0.00000000000E+00  0.00000000000E+00  0.45593999997E+02  0.45594000000E+02  0.51100000000E-03 0. -1.
         11   -1    0    0    0    0 -0.00000000000E+00 -0.00000000000E+00 -0.45593999997E+02  0.45594000000E+02  0.51100000000E-03 0.  1.
    9900012    2    1    2    0    0  0.59250375994E+01  0.39852867456E+02  0.54596828077E+01  0.50528865093E+02  0.30000015937E+02 0.  0.
        -12    1    1    2    0    0 -0.59250375994E+01 -0.39852867456E+02 -0.54596828077E+01  0.40659134907E+02  0.00000000000E+00 0.  1.
         11    1    3    3    0    0  0.29666532405E+01  0.18717636729E+02  0.71267360205E+01  0.20247007748E+02  0.51100000000E-03 0. -1.
        -11    1    3    3    0    0  0.65563610081E+01  0.24308399313E+02  0.77465512514E-01  0.25177175139E+02  0.51100000000E-03 0.  1.
        -12    1    3    3    0    0 -0.35979766493E+01 -0.31731685860E+01 -0.17445187253E+01  0.51046822063E+01  0.00000000000E+00 0.  1.
</event>
<event>
 7    1  0.5601662E-013  0.5052886E+02  0.7816164E-02  0.1300439E+00
        -11   -1    0    0    0    0  0.00000000000E+00  0.00000000000E+00  0.45593999997E+02  0.45594000000E+02  0.51100000000E-03 0. -1.
         11   -1    0    0    0    0 -0.00000000000E+00 -0.00000000000E+00 -0.45593999997E+02  0.45594000000E+02  0.51100000000E-03 0.  1.
    9900012    2    1    2    0    0 -0.32093552148E+02  0.82097559190E+01  0.23574759511E+02  0.50528862432E+02  0.30000007849E+02 0.  0.
        -12    1    1    2    0    0  0.32093552148E+02 -0.82097559190E+01 -0.23574759511E+02  0.40659137568E+02  0.00000000000E+00 0.  1.
         11    1    3    3    0    0 -0.41380829889E+01 -0.30953528719E+01  0.68121179961E+01  0.85504322744E+01  0.51100000000E-03 0. -1.
        -11    1    3    3    0    0  0.38494991038E+01 -0.12670585229E+01  0.41917438935E+00  0.40742837506E+01  0.51100000000E-03 0.  1.
        -12    1    3    3    0    0 -0.31804968263E+02  0.12572167314E+02  0.16343467126E+02  0.37904146407E+02  0.00000000000E+00 0.  1.
</event>
<event>
 7    1  0.5601662E-013  0.5052889E+02  0.7816164E-02  0.1300439E+00
        -11   -1    0    0    0    0  0.00000000000E+00  0.00000000000E+00  0.45593999997E+02  0.45594000000E+02  0.51100000000E-03 0. -1.
         11   -1    0    0    0    0 -0.00000000000E+00 -0.00000000000E+00 -0.45593999997E+02  0.45594000000E+02  0.51100000000E-03 0.  1.
    9900012    2    1    2    0    0 -0.27047855161E+02 -0.15548283310E+02 -0.26073506457E+02  0.50528888824E+02  0.30000088069E+02 0.  0.
        -12    1    1    2    0    0  0.27047855161E+02  0.15548283310E+02  0.26073506457E+02  0.40659111176E+02  0.00000000000E+00 0.  1.
         11    1    3    3    0    0 -0.70188148670E+01 -0.54009110496E+01  0.11740059777E+01  0.89337501980E+01  0.51100000000E-03 0. -1.
        -11    1    3    3    0    0  0.78624171235E+00  0.19614487395E+01 -0.13905196521E+02  0.14064847946E+02  0.51100000000E-03 0.  1.
         12    1    3    3    0    0 -0.20815282006E+02 -0.12108820999E+02 -0.13342315914E+02  0.27530290680E+02  0.00000000000E+00 0. -1.
</event>
<event>
 7    1  0.5601662E-013  0.5052886E+02  0.7816164E-02  0.1300439E+00
        -11   -1    0    0    0    0  0.00000000000E+00  0.00000000000E+00  0.45593999997E+02  0.45594000000E+02  0.51100000000E-03 0. -1.
         11   -1    0    0    0    0 -0.00000000000E+00 -0.00000000000E+00 -0.45593999997E+02  0.45594000000E+02  0.51100000000E-03 0.  1.
    9900012    2    1    2    0    0  0.97428518271E+01 -0.29832826260E+02  0.25850429175E+02  0.50528863599E+02  0.30000011394E+02 0.  0.
        -12    1    1    2    0    0 -0.97428518271E+01  0.29832826260E+02 -0.25850429175E+02  0.40659136401E+02  0.00000000000E+00 0.  1.
         11    1    3    3    0    0  0.79844629381E+01 -0.12628145733E+02  0.66605357681E+01  0.16358008743E+02  0.51100000000E-03 0. -1.
        -11    1    3    3    0    0  0.11585850353E+02 -0.77342187141E+01  0.13454074086E+02  0.19366522076E+02  0.51100000000E-03 0.  1.
         12    1    3    3    0    0 -0.98274614641E+01 -0.94704618129E+01  0.57358193203E+01  0.14804332780E+02  0.00000000000E+00 0. -1.
</event>
<event>
 7    1  0.5601662E-013  0.5052888E+02  0.7816164E-02  0.1300439E+00
        -11   -1    0    0    0    0  0.00000000000E+00  0.00000000000E+00  0.45593999997E+02  0.45594000000E+02  0.51100000000E-03 0. -1.
         11   -1    0    0    0    0 -0.00000000000E+00 -0.00000000000E+00 -0.45593999997E+02  0.45594000000E+02  0.51100000000E-03 0.  1.
    9900012    2    1    2    0    0 -0.37442883087E+02 -0.72966875274E+00  0.15832313532E+02  0.50528879718E+02  0.30000060389E+02 0.  0.
        -12    1    1    2    0    0  0.37442883087E+02  0.72966875274E+00 -0.15832313532E+02  0.40659120282E+02  0.00000000000E+00 0.  1.
         11    1    3    3    0    0 -0.18777135245E+02  0.87367716391E+01  0.14386072223E+02  0.25216483913E+02  0.51100000000E-03 0. -1.
        -11    1    3    3    0    0 -0.81039734071E+01  0.17974045029E+01 -0.36278346111E+01  0.90590414590E+01  0.51100000000E-03 0.  1.
        -12    1    3    3    0    0 -0.10561774435E+02 -0.11263844895E+02  0.50740759202E+01  0.16253354345E+02  0.00000000000E+00 0.  1.
</event>
<event>
 7    1  0.5601662E-013  0.5052887E+02  0.7816164E-02  0.1300439E+00
        -11   -1    0    0    0    0  0.00000000000E+00  0.00000000000E+00  0.45593999997E+02  0.45594000000E+02  0.51100000000E-03 0.  1.
         11   -1    0    0    0    0 -0.00000000000E+00 -0.00000000000E+00 -0.45593999997E+02  0.45594000000E+02  0.51100000000E-03 0. -1.
    9900012    2    1    2    0    0 -0.33929235915E+02 -0.21214677809E+02 -0.72048327124E+01  0.50528865495E+02  0.30000017158E+02 0.  0.
        -12    1    1    2    0    0  0.33929235915E+02  0.21214677809E+02  0.72048327124E+01  0.40659134505E+02  0.00000000000E+00 0.  1.
         11    1    3    3    0    0  0.62200225630E+00  0.21575407722E+01 -0.65313973999E+01  0.69065925931E+01  0.51100000000E-03 0. -1.
        -11    1    3    3    0    0 -0.41592955983E+01  0.79930845060E+00  0.20288287878E+01  0.46962517377E+01  0.51100000000E-03 0.  1.
         12    1    3    3    0    0 -0.30391942573E+02 -0.24171527031E+02 -0.27022641003E+01  0.38926021164E+02  0.00000000000E+00 0. -1.
</event>
<event>
 7    1  0.5601662E-013  0.5052886E+02  0.7816164E-02  0.1300439E+00
        -11   -1    0    0    0    0  0.00000000000E+00  0.00000000000E+00  0.45593999997E+02  0.45594000000E+02  0.51100000000E-03 0. -1.
         11   -1    0    0    0    0 -0.00000000000E+00 -0.00000000000E+00 -0.45593999997E+02  0.45594000000E+02  0.51100000000E-03 0.  1.
    9900012    2    1    2    0    0  0.11565155011E+02 -0.32696100256E+02 -0.21222108605E+02  0.50528859871E+02  0.30000000064E+02 0.  0.
        -12    1    1    2    0    0 -0.11565155011E+02  0.32696100256E+02  0.21222108605E+02  0.40659140129E+02  0.00000000000E+00 0.  1.
         11    1    3    3    0    0  0.10488618920E+02 -0.61401220400E+01 -0.93322746131E+01  0.15323301708E+02  0.51100000000E-03 0. -1.
        -11    1    3    3    0    0  0.27029533922E+01 -0.72754208997E+01 -0.13727293693E+02  0.15769473634E+02  0.51100000000E-03 0.  1.
        -12    1    3    3    0    0 -0.16264173012E+01 -0.19280557316E+02  0.18374597006E+01  0.19436084529E+02  0.00000000000E+00 0.  1.
</event>
<event>
 7    1  0.5601662E-013  0.5052886E+02  0.7816164E-02  0.1300439E+00
        -11   -1    0    0    0    0  0.00000000000E+00  0.00000000000E+00  0.45593999997E+02  0.45594000000E+02  0.51100000000E-03 0. -1.
         11   -1    0    0    0    0 -0.00000000000E+00 -0.00000000000E+00 -0.45593999997E+02  0.45594000000E+02  0.51100000000E-03 0.  1.
    9900012    2    1    2    0    0  0.66847260711E+01  0.13047871645E+02  0.37924039220E+02  0.50528864890E+02  0.30000015320E+02 0.  0.
        -12    1    1    2    0    0 -0.66847260711E+01 -0.13047871645E+02 -0.37924039220E+02  0.40659135110E+02  0.00000000000E+00 0.  1.
         11    1    3    3    0    0  0.88541256347E+00 -0.49678275277E+01  0.38083256513E+01  0.63219150801E+01  0.51100000000E-03 0. -1.
        -11    1    3    3    0    0  0.48175966716E+01 -0.18889722022E+01  0.59399162622E+00  0.52086735340E+01  0.51100000000E-03 0.  1.
         12    1    3    3    0    0  0.98171683602E+00  0.19904671375E+02  0.33521721943E+02  0.38998276276E+02  0.00000000000E+00 0. -1.
</event>
<event>
 7    1  0.5601662E-013  0.5052891E+02  0.7816164E-02  0.1300439E+00
        -11   -1    0    0    0    0  0.00000000000E+00  0.00000000000E+00  0.45593999997E+02  0.45594000000E+02  0.51100000000E-03 0. -1.
         11   -1    0    0    0    0 -0.00000000000E+00 -0.00000000000E+00 -0.45593999997E+02  0.45594000000E+02  0.51100000000E-03 0.  1.
    9900012    2    1    2    0    0  0.18104948558E+02  0.34674180036E+02  0.11093867006E+02  0.50528907430E+02  0.30000144622E+02 0.  0.
        -12    1    1    2    0    0 -0.18104948558E+02 -0.34674180036E+02 -0.11093867006E+02  0.40659092570E+02  0.00000000000E+00 0.  1.
         11    1    3    3    0    0 -0.27142377091E+01  0.48173609541E+01  0.13197077371E+01  0.56846883535E+01  0.51100000000E-03 0. -1.
        -11    1    3    3    0    0  0.29689861036E+01  0.23591604059E+02  0.10315063116E+02  0.25918703438E+02  0.51100000000E-03 0.  1.
         12    1    3    3    0    0  0.17850200164E+02  0.62652150229E+01 -0.54090384682E+00  0.18925515638E+02  0.00000000000E+00 0. -1.
</event>
<event>
 7    1  0.5601662E-013  0.5052886E+02  0.7816164E-02  0.1300439E+00
        -11   -1    0    0    0    0  0.00000000000E+00  0.00000000000E+00  0.45593999997E+02  0.45594000000E+02  0.51100000000E-03 0. -1.
         11   -1    0    0    0    0 -0.00000000000E+00 -0.00000000000E+00 -0.45593999997E+02  0.45594000000E+02  0.51100000000E-03 0.  1.
    9900012    2    1    2    0    0  0.35811469983E+02 -0.18988989678E+02 -0.31815842891E+01  0.50528860930E+02  0.30000003281E+02 0.  0.
        -12    1    1    2    0    0 -0.35811469983E+02  0.18988989678E+02  0.31815842891E+01  0.40659139070E+02  0.00000000000E+00 0.  1.
         11    1    3    3    0    0  0.25118949588E+02 -0.33280222270E+01 -0.52445438107E+01  0.25875521259E+02  0.51100000000E-03 0. -1.
        -11    1    3    3    0    0  0.13882951940E+02 -0.78000014539E+01  0.26765361174E+01  0.16147452527E+02  0.51100000000E-03 0.  1.
        -12    1    3    3    0    0 -0.31904315458E+01 -0.78609659976E+01 -0.61357659581E+00  0.85058871437E+01  0.00000000000E+00 0.  1.
</event>
<event>
 7    1  0.5601662E-013  0.5052887E+02  0.7816164E-02  0.1300439E+00
        -11   -1    0    0    0    0  0.00000000000E+00  0.00000000000E+00  0.45593999997E+02  0.45594000000E+02  0.51100000000E-03 0.  1.
         11   -1    0    0    0    0 -0.00000000000E+00 -0.00000000000E+00 -0.45593999997E+02  0.45594000000E+02  0.51100000000E-03 0. -1.
    9900012    2    1    2    0    0  0.36135304525E+02 -0.17132104136E+02 -0.73413726164E+01  0.50528868466E+02  0.30000026188E+02 0.  0.
        -12    1    1    2    0    0 -0.36135304525E+02  0.17132104136E+02  0.73413726164E+01  0.40659131534E+02  0.00000000000E+00 0.  1.
         11    1    3    3    0    0  0.20100639247E+02 -0.36440318167E+01 -0.61539012257E+01  0.21335068937E+02  0.51100000000E-03 0. -1.
        -11    1    3    3    0    0  0.72363732310E+01 -0.12543471582E+02 -0.92824860996E+01  0.17200823391E+02  0.51100000000E-03 0.  1.
         12    1    3    3    0    0  0.87982920474E+01 -0.94460073714E+00  0.80950147089E+01  0.11992976138E+02  0.00000000000E+00 0. -1.
</event>
<event>
 7    1  0.5601662E-013  0.5052886E+02  0.7816164E-02  0.1300439E+00
        -11   -1    0    0    0    0  0.00000000000E+00  0.00000000000E+00  0.45593999997E+02  0.45594000000E+02  0.51100000000E-03 0.  1.
         11   -1    0    0    0    0 -0.00000000000E+00 -0.00000000000E+00 -0.45593999997E+02  0.45594000000E+02  0.51100000000E-03 0. -1.
    9900012    2    1    2    0    0 -0.23258235877E+02 -0.15966316212E+02 -0.29279635609E+02  0.50528857720E+02  0.29999993527E+02 0.  0.
        -12    1    1    2    0    0  0.23258235877E+02  0.15966316212E+02  0.29279635609E+02  0.40659142280E+02  0.00000000000E+00 0.  1.
         11    1    3    3    0    0 -0.74530236290E+01 -0.61539425248E+00  0.48247115418E+00  0.74939342122E+01  0.51100000000E-03 0. -1.
        -11    1    3    3    0    0  0.19113757833E+01 -0.26092379936E+01  0.24981615935E+01  0.40868437578E+01  0.51100000000E-03 0.  1.
         12    1    3    3    0    0 -0.17716588032E+02 -0.12741683966E+02 -0.32260268357E+02  0.38948079750E+02  0.00000000000E+00 0. -1.
</event>
<event>
 7    1  0.5601662E-013  0.5052887E+02  0.7816164E-02  0.1300439E+00
        -11   -1    0    0    0    0  0.00000000000E+00  0.00000000000E+00  0.45593999997E+02  0.45594000000E+02  0.51100000000E-03 0.  1.
         11   -1    0    0    0    0 -0.00000000000E+00 -0.00000000000E+00 -0.45593999997E+02  0.45594000000E+02  0.51100000000E-03 0. -1.
    9900012    2    1    2    0    0  0.39221371727E+02  0.10634704108E+02  0.13237125667E+01  0.50528866382E+02  0.30000019854E+02 0.  0.
        -12    1    1    2    0    0 -0.39221371727E+02 -0.10634704108E+02 -0.13237125667E+01  0.40659133618E+02  0.00000000000E+00 0.  1.
         11    1    3    3    0    0  0.14732934015E+02  0.79168249976E+01  0.87766098639E+01  0.18888206471E+02  0.51100000000E-03 0. -1.
        -11    1    3    3    0    0  0.19000623996E+02  0.28904572777E+01  0.33627471413E+01  0.19511189715E+02  0.51100000000E-03 0.  1.
         12    1    3    3    0    0  0.54878137170E+01 -0.17257816712E+00 -0.10815644439E+02  0.12129470196E+02  0.00000000000E+00 0. -1.
</event>
<event>
 7    1  0.5601662E-013  0.5052886E+02  0.7816164E-02  0.1300439E+00
        -11   -1    0    0    0    0  0.00000000000E+00  0.00000000000E+00  0.45593999997E+02  0.45594000000E+02  0.51100000000E-03 0. -1.
         11   -1    0    0    0    0 -0.00000000000E+00 -0.00000000000E+00 -0.45593999997E+02  0.45594000000E+02  0.51100000000E-03 0.  1.
    9900012    2    1    2    0    0 -0.37414283565E+02 -0.92194599812E+00  0.15889834846E+02  0.50528862644E+02  0.30000008492E+02 0.  0.
        -12    1    1    2    0    0  0.37414283565E+02  0.92194599812E+00 -0.15889834846E+02  0.40659137356E+02  0.00000000000E+00 0.  1.
         11    1    3    3    0    0 -0.93883200388E+01 -0.38716724270E+01  0.10322365708E+02  0.14480387930E+02  0.51100000000E-03 0. -1.
        -11    1    3    3    0    0 -0.21879788838E+02 -0.69808784868E+01 -0.32217251952E+00  0.22968709572E+02  0.51100000000E-03 0.  1.
         12    1    3    3    0    0 -0.61461746889E+01  0.99306049157E+01  0.58896416573E+01  0.13079765141E+02  0.00000000000E+00 0. -1.
</event>
<event>
 7    1  0.5601662E-013  0.5052885E+02  0.7816164E-02  0.1300439E+00
        -11   -1    0    0    0    0  0.00000000000E+00  0.00000000000E+00  0.45593999997E+02  0.45594000000E+02  0.51100000000E-03 0.  1.
         11   -1    0    0    0    0 -0.00000000000E+00 -0.00000000000E+00 -0.45593999997E+02  0.45594000000E+02  0.51100000000E-03 0. -1.
    9900012    2    1    2    0    0  0.49572906200E+01  0.10815643017E+02 -0.38879476300E+02  0.50528849228E+02  0.29999967713E+02 0.  0.
        -12    1    1    2    0    0 -0.49572906200E+01 -0.10815643017E+02  0.38879476300E+02  0.40659150772E+02  0.00000000000E+00 0.  1.
         11    1    3    3    0    0 -0.60988363259E+01  0.59419011854E+01 -0.19261890231E+01  0.87299598304E+01  0.51100000000E-03 0. -1.
        -11    1    3    3    0    0 -0.37579292732E+01  0.86262751680E+00 -0.10891849067E+02  0.11554156612E+02  0.51100000000E-03 0.  1.
        -12    1    3    3    0    0  0.14814056219E+02  0.40111143143E+01 -0.26061438210E+02  0.30244732786E+02  0.00000000000E+00 0.  1.
</event>
<event>
 7    1  0.5601662E-013  0.5052885E+02  0.7816164E-02  0.1300439E+00
        -11   -1    0    0    0    0  0.00000000000E+00  0.00000000000E+00  0.45593999997E+02  0.45594000000E+02  0.51100000000E-03 0. -1.
         11   -1    0    0    0    0 -0.00000000000E+00 -0.00000000000E+00 -0.45593999997E+02  0.45594000000E+02  0.51100000000E-03 0.  1.
    9900012    2    1    2    0    0 -0.28842053441E+00  0.39412213390E+02  0.99880147310E+01  0.50528853563E+02  0.29999980891E+02 0.  0.
        -12    1    1    2    0    0  0.28842053441E+00 -0.39412213390E+02 -0.99880147310E+01  0.40659146437E+02  0.00000000000E+00 0.  1.
         11    1    3    3    0    0 -0.85353182285E+00  0.30674278951E+02  0.29377851251E+01  0.30826457589E+02  0.51100000000E-03 0. -1.
        -11    1    3    3    0    0  0.19722386469E+01  0.86945672084E+01  0.11776667881E+02  0.14770752549E+02  0.51100000000E-03 0.  1.
        -12    1    3    3    0    0 -0.14071273584E+01  0.43367230072E-01 -0.47264382746E+01  0.49316434262E+01  0.00000000000E+00 0.  1.
</event>
<event>
 7    1  0.5601662E-013  0.5052886E+02  0.7816164E-02  0.1300439E+00
        -11   -1    0    0    0    0  0.00000000000E+00  0.00000000000E+00  0.45593999997E+02  0.45594000000E+02  0.51100000000E-03 0.  1.
         11   -1    0    0    0    0 -0.00000000000E+00 -0.00000000000E+00 -0.45593999997E+02  0.45594000000E+02  0.51100000000E-03 0. -1.
    9900012    2    1    2    0    0  0.15585045526E+02  0.29731916578E+02  0.22940905964E+02  0.50528859897E+02  0.30000000143E+02 0.  0.
        -12    1    1    2    0    0 -0.15585045526E+02 -0.29731916578E+02 -0.22940905964E+02  0.40659140103E+02  0.00000000000E+00 0.  1.
         11    1    3    3    0    0 -0.37165143138E+01  0.68365883217E+01  0.11036724736E+02  0.13504099810E+02  0.51100000000E-03 0. -1.
        -11    1    3    3    0    0  0.13803997079E+01  0.76919702770E+01  0.11016328338E+02  0.13506716863E+02  0.51100000000E-03 0.  1.
         12    1    3    3    0    0  0.17921160132E+02  0.15203357979E+02  0.88785288936E+00  0.23518043224E+02  0.00000000000E+00 0. -1.
</event>
<event>
 7    1  0.5601662E-013  0.5052887E+02  0.7816164E-02  0.1300439E+00
        -11   -1    0    0    0    0  0.00000000000E+00  0.00000000000E+00  0.45593999997E+02  0.45594000000E+02  0.51100000000E-03 0.  1.
         11   -1    0    0    0    0 -0.00000000000E+00 -0.00000000000E+00 -0.45593999997E+02  0.45594000000E+02  0.51100000000E-03 0. -1.
    9900012    2    1    2    0    0 -0.49140250683E+01  0.26503225164E+02 -0.30440048876E+02  0.50528866192E+02  0.30000019276E+02 0.  0.
        -12    1    1    2    0    0  0.49140250683E+01 -0.26503225164E+02  0.30440048876E+02  0.40659133808E+02  0.00000000000E+00 0.  1.
         11    1    3    3    0    0  0.14636569673E+01 -0.31356253626E+01 -0.22063889593E+01  0.41039725430E+01  0.51100000000E-03 0. -1.
        -11    1    3    3    0    0  0.63003328177E+01  0.23838187924E+01 -0.41957341243E+01  0.79360551127E+01  0.51100000000E-03 0.  1.
         12    1    3    3    0    0 -0.12678014853E+02  0.27255031734E+02 -0.24037925792E+02  0.38488838536E+02  0.00000000000E+00 0. -1.
</event>
<event>
 7    1  0.5601662E-013  0.5052886E+02  0.7816164E-02  0.1300439E+00
        -11   -1    0    0    0    0  0.00000000000E+00  0.00000000000E+00  0.45593999997E+02  0.45594000000E+02  0.51100000000E-03 0. -1.
         11   -1    0    0    0    0 -0.00000000000E+00 -0.00000000000E+00 -0.45593999997E+02  0.45594000000E+02  0.51100000000E-03 0.  1.
    9900012    2    1    2    0    0 -0.56329135545E+01 -0.35620357917E+02  0.18778343114E+02  0.50528858551E+02  0.29999996052E+02 0.  0.
        -12    1    1    2    0    0  0.56329135545E+01  0.35620357917E+02 -0.18778343114E+02  0.40659141449E+02  0.00000000000E+00 0.  1.
         11    1    3    3    0    0  0.55354155268E+01 -0.23123224531E+02  0.17933108504E+02  0.29781214191E+02  0.51100000000E-03 0. -1.
        -11    1    3    3    0    0  0.21780593783E+01  0.12719941887E+00  0.94144227259E+00  0.23762230875E+01  0.51100000000E-03 0.  1.
         12    1    3    3    0    0 -0.13346388460E+02 -0.12624332805E+02 -0.96207663426E-01  0.18371421273E+02  0.00000000000E+00 0. -1.
</event>
<event>
 7    1  0.5601662E-013  0.5052885E+02  0.7816164E-02  0.1300439E+00
        -11   -1    0    0    0    0  0.00000000000E+00  0.00000000000E+00  0.45593999997E+02  0.45594000000E+02  0.51100000000E-03 0. -1.
         11   -1    0    0    0    0 -0.00000000000E+00 -0.00000000000E+00 -0.45593999997E+02  0.45594000000E+02  0.51100000000E-03 0.  1.
    9900012    2    1    2    0    0  0.26345280516E+01  0.32957009342E+02  0.23665611930E+02  0.50528851080E+02  0.29999973344E+02 0.  0.
        -12    1    1    2    0    0 -0.26345280516E+01 -0.32957009342E+02 -0.23665611930E+02  0.40659148920E+02  0.00000000000E+00 0.  1.
         11    1    3    3    0    0  0.10453500662E+02  0.25371536762E+02  0.16672564394E+02  0.32108643034E+02  0.51100000000E-03 0. -1.
        -11    1    3    3    0    0  0.35681995622E+01  0.29497228989E+01  0.28967264063E+01  0.54611296844E+01  0.51100000000E-03 0.  1.
        -12    1    3    3    0    0 -0.11387172172E+02  0.46357496807E+01  0.40963211298E+01  0.12959078362E+02  0.00000000000E+00 0.  1.
</event>
<event>
 7    1  0.5601662E-013  0.5052886E+02  0.7816164E-02  0.1300439E+00
        -11   -1    0    0    0    0  0.00000000000E+00  0.00000000000E+00  0.45593999997E+02  0.45594000000E+02  0.51100000000E-03 0.  1.
         11   -1    0    0    0    0 -0.00000000000E+00 -0.00000000000E+00 -0.45593999997E+02  0.45594000000E+02  0.51100000000E-03 0. -1.
    9900012    2    1    2    0    0 -0.14302486397E+01  0.40605958525E+02  0.15086490849E+01  0.50528862024E+02  0.30000006608E+02 0.  0.
        -12    1    1    2    0    0  0.14302486397E+01 -0.40605958525E+02 -0.15086490849E+01  0.40659137976E+02  0.00000000000E+00 0.  1.
         11    1    3    3    0    0  0.39980517239E+01  0.22659571361E+02  0.15247025908E+01  0.23060037079E+02  0.51100000000E-03 0. -1.
        -11    1    3    3    0    0 -0.54228423205E+00  0.20651309514E+02  0.33791735785E+01  0.20932975688E+02  0.51100000000E-03 0.  1.
        -12    1    3    3    0    0 -0.48860161316E+01 -0.27049223495E+01 -0.33952270844E+01  0.65358492569E+01  0.00000000000E+00 0.  1.
</event>
<event>
 7    1  0.5601662E-013  0.5052883E+02  0.7816164E-02  0.1300439E+00
        -11   -1    0    0    0    0  0.00000000000E+00  0.00000000000E+00  0.45593999997E+02  0.45594000000E+02  0.51100000000E-03 0.  1.
         11   -1    0    0    0    0 -0.00000000000E+00 -0.00000000000E+00 -0.45593999997E+02  0.45594000000E+02  0.51100000000E-03 0. -1.
    9900012    2    1    2    0    0  0.19521610788E+02 -0.32313679933E+02 -0.15096393370E+02  0.50528827709E+02  0.29999902305E+02 0.  0.
        -12    1    1    2    0    0 -0.19521610788E+02  0.32313679933E+02  0.15096393370E+02  0.40659172291E+02  0.00000000000E+00 0.  1.
         11    1    3    3    0    0  0.53452573789E+01 -0.18213722398E+02 -0.14987061958E+02  0.24185191470E+02  0.51100000000E-03 0. -1.
        -11    1    3    3    0    0  0.60870086191E+01 -0.50397670431E+01 -0.84809092282E+01  0.11592098489E+02  0.51100000000E-03 0.  1.
        -12    1    3    3    0    0  0.80893447898E+01 -0.90601904924E+01  0.83715778161E+01  0.14751537751E+02  0.00000000000E+00 0.  1.
</event>
<event>
 7    1  0.5601662E-013  0.5052886E+02  0.7816164E-02  0.1300439E+00
        -11   -1    0    0    0    0  0.00000000000E+00  0.00000000000E+00  0.45593999997E+02  0.45594000000E+02  0.51100000000E-03 0.  1.
         11   -1    0    0    0    0 -0.00000000000E+00 -0.00000000000E+00 -0.45593999997E+02  0.45594000000E+02  0.51100000000E-03 0. -1.
    9900012    2    1    2    0    0 -0.26235460837E+02  0.12349456203E+02 -0.28501884165E+02  0.50528857427E+02  0.29999992635E+02 0.  0.
        -12    1    1    2    0    0  0.26235460837E+02 -0.12349456203E+02  0.28501884165E+02  0.40659142573E+02  0.00000000000E+00 0.  1.
         11    1    3    3    0    0 -0.64311622243E+01  0.57277360958E+01 -0.68887575713E+01  0.11028226942E+02  0.51100000000E-03 0. -1.
        -11    1    3    3    0    0 -0.25647340921E+02  0.82265674988E+01 -0.18606433546E+02  0.32736247169E+02  0.51100000000E-03 0.  1.
        -12    1    3    3    0    0  0.58430423085E+01 -0.16048473917E+01 -0.30066930469E+01  0.67643833162E+01  0.00000000000E+00 0.  1.
</event>
<event>
 7    1  0.5601662E-013  0.5052886E+02  0.7816164E-02  0.1300439E+00
        -11   -1    0    0    0    0  0.00000000000E+00  0.00000000000E+00  0.45593999997E+02  0.45594000000E+02  0.51100000000E-03 0.  1.
         11   -1    0    0    0    0 -0.00000000000E+00 -0.00000000000E+00 -0.45593999997E+02  0.45594000000E+02  0.51100000000E-03 0. -1.
    9900012    2    1    2    0    0  0.14307330375E+02 -0.37684343768E+02 -0.53250308906E+01  0.50528862999E+02  0.30000009572E+02 0.  0.
        -12    1    1    2    0    0 -0.14307330375E+02  0.37684343768E+02  0.53250308906E+01  0.40659137001E+02  0.00000000000E+00 0.  1.
         11    1    3    3    0    0  0.25843862577E+01  0.78288449076E+00  0.78613723389E+00  0.28124673272E+01  0.51100000000E-03 0. -1.
        -11    1    3    3    0    0  0.12418018307E+02 -0.80957461846E+01  0.45725474288E+01  0.15513106562E+02  0.51100000000E-03 0.  1.
         12    1    3    3    0    0 -0.69507418926E+00 -0.30371482074E+02 -0.10683715553E+02  0.32203289110E+02  0.00000000000E+00 0. -1.
</event>
<event>
 7    1  0.5601662E-013  0.5052886E+02  0.7816164E-02  0.1300439E+00
        -11   -1    0    0    0    0  0.00000000000E+00  0.00000000000E+00  0.45593999997E+02  0.45594000000E+02  0.51100000000E-03 0.  1.
         11   -1    0    0    0    0 -0.00000000000E+00 -0.00000000000E+00 -0.45593999997E+02  0.45594000000E+02  0.51100000000E-03 0. -1.
    9900012    2    1    2    0    0 -0.59332846333E+01 -0.47642133470E+01 -0.39940758904E+02  0.50528858135E+02  0.29999994787E+02 0.  0.
        -12    1    1    2    0    0  0.59332846333E+01  0.47642133470E+01  0.39940758904E+02  0.40659141865E+02  0.00000000000E+00 0.  1.
         11    1    3    3    0    0 -0.11939759573E+02  0.25176154185E+01 -0.31270624785E+02  0.33567070482E+02  0.51100000000E-03 0. -1.
        -11    1    3    3    0    0  0.27436077333E+01 -0.77732406059E+01 -0.10372282967E+02  0.13248958718E+02  0.51100000000E-03 0.  1.
        -12    1    3    3    0    0  0.32628672060E+01  0.49141184051E+00  0.17021488474E+01  0.37128289349E+01  0.00000000000E+00 0.  1.
</event>
<event>
 7    1  0.5601662E-013  0.5052887E+02  0.7816164E-02  0.1300439E+00
        -11   -1    0    0    0    0  0.00000000000E+00  0.00000000000E+00  0.45593999997E+02  0.45594000000E+02  0.51100000000E-03 0.  1.
         11   -1    0    0    0    0 -0.00000000000E+00 -0.00000000000E+00 -0.45593999997E+02  0.45594000000E+02  0.51100000000E-03 0. -1.
    9900012    2    1    2    0    0 -0.31632708715E+02  0.21454296243E+02 -0.13865423304E+02  0.50528867553E+02  0.30000023413E+02 0.  0.
        -12    1    1    2    0    0  0.31632708715E+02 -0.21454296243E+02  0.13865423304E+02  0.40659132447E+02  0.00000000000E+00 0.  1.
         11    1    3    3    0    0 -0.10314824437E+02  0.98266865689E+01  0.75003647929E+00  0.14266111140E+02  0.51100000000E-03 0. -1.
        -11    1    3    3    0    0 -0.18808546877E+01  0.12846271238E+02 -0.22042850332E+01  0.13169023193E+02  0.51100000000E-03 0.  1.
         12    1    3    3    0    0 -0.19437029591E+02 -0.12186615639E+01 -0.12411174751E+02  0.23093733220E+02  0.00000000000E+00 0. -1.
</event>
<event>
 7    1  0.5601662E-013  0.5052886E+02  0.7816164E-02  0.1300439E+00
        -11   -1    0    0    0    0  0.00000000000E+00  0.00000000000E+00  0.45593999997E+02  0.45594000000E+02  0.51100000000E-03 0.  1.
         11   -1    0    0    0    0 -0.00000000000E+00 -0.00000000000E+00 -0.45593999997E+02  0.45594000000E+02  0.51100000000E-03 0. -1.
    9900012    2    1    2    0    0 -0.20186122370E+02 -0.47457258171E+01 -0.34973769961E+02  0.50528855455E+02  0.29999986641E+02 0.  0.
        -12    1    1    2    0    0  0.20186122370E+02  0.47457258171E+01  0.34973769961E+02  0.40659144545E+02  0.00000000000E+00 0.  1.
         11    1    3    3    0    0 -0.10165304653E+02  0.80755042225E+01 -0.18693586137E+02  0.22759555138E+02  0.51100000000E-03 0. -1.
        -11    1    3    3    0    0 -0.69004138291E+01  0.19516501847E+00 -0.11769344537E+02  0.13644459370E+02  0.51100000000E-03 0.  1.
        -12    1    3    3    0    0 -0.31204038878E+01 -0.13016395058E+02 -0.45108392866E+01  0.14124840948E+02  0.00000000000E+00 0.  1.
</event>
<event>
 7    1  0.5601662E-013  0.5052884E+02  0.7816164E-02  0.1300439E+00
        -11   -1    0    0    0    0  0.00000000000E+00  0.00000000000E+00  0.45593999997E+02  0.45594000000E+02  0.51100000000E-03 0.  1.
         11   -1    0    0    0    0 -0.00000000000E+00 -0.00000000000E+00 -0.45593999997E+02  0.45594000000E+02  0.51100000000E-03 0. -1.
    9900012    2    1    2    0    0  0.15990937593E+02  0.13418703724E+02 -0.34891194291E+02  0.50528841944E+02  0.29999945574E+02 0.  0.
        -12    1    1    2    0    0 -0.15990937593E+02 -0.13418703724E+02  0.34891194291E+02  0.40659158056E+02  0.00000000000E+00 0.  1.
         11    1    3    3    0    0  0.38842058566E+01  0.12869429018E+02 -0.17080722650E+02  0.21736152946E+02  0.51100000000E-03 0. -1.
        -11    1    3    3    0    0  0.15805394980E+02  0.44619988243E+01 -0.16437950399E+02  0.23236311187E+02  0.51100000000E-03 0.  1.
         12    1    3    3    0    0 -0.36986632443E+01 -0.39127241184E+01 -0.13725212419E+01  0.55563778112E+01  0.00000000000E+00 0. -1.
</event>
<event>
 7    1  0.5601662E-013  0.5052878E+02  0.7816164E-02  0.1300439E+00
        -11   -1    0    0    0    0  0.00000000000E+00  0.00000000000E+00  0.45593999997E+02  0.45594000000E+02  0.51100000000E-03 0.  1.
         11   -1    0    0    0    0 -0.00000000000E+00 -0.00000000000E+00 -0.45593999997E+02  0.45594000000E+02  0.51100000000E-03 0. -1.
    9900012    2    1    2    0    0  0.36584891370E+02  0.17585150223E+02 -0.23410661922E+01  0.50528777482E+02  0.29999749632E+02 0.  0.
        -12    1    1    2    0    0 -0.36584891370E+02 -0.17585150223E+02  0.23410661922E+01  0.40659222518E+02  0.00000000000E+00 0.  1.
         11    1    3    3    0    0  0.18246996176E+02  0.22019011139E+01 -0.14128141575E+01  0.18433591133E+02  0.51100000000E-03 0. -1.
        -11    1    3    3    0    0  0.12826539929E+02 -0.24039503963E+01  0.21352209274E+01  0.13223398683E+02  0.51100000000E-03 0.  1.
         12    1    3    3    0    0  0.55113552648E+01  0.17787199506E+02 -0.30634729620E+01  0.18871787666E+02  0.00000000000E+00 0. -1.
</event>
<event>
 7    1  0.5601662E-013  0.5052886E+02  0.7816164E-02  0.1300439E+00
        -11   -1    0    0    0    0  0.00000000000E+00  0.00000000000E+00  0.45593999997E+02  0.45594000000E+02  0.51100000000E-03 0.  1.
         11   -1    0    0    0    0 -0.00000000000E+00 -0.00000000000E+00 -0.45593999997E+02  0.45594000000E+02  0.51100000000E-03 0. -1.
    9900012    2    1    2    0    0  0.54367385003E+01 -0.10628481679E+02 -0.38866994499E+02  0.50528855767E+02  0.29999987590E+02 0.  0.
        -12    1    1    2    0    0 -0.54367385003E+01  0.10628481679E+02  0.38866994499E+02  0.40659144233E+02  0.00000000000E+00 0.  1.
         11    1    3    3    0    0 -0.46797810543E+01  0.40830900596E+01 -0.20074125801E+02  0.21012912746E+02  0.51100000000E-03 0. -1.
        -11    1    3    3    0    0  0.48199426236E+01 -0.78593566386E+01 -0.18706269744E+02  0.20854876208E+02  0.51100000000E-03 0.  1.
        -12    1    3    3    0    0  0.52965769310E+01 -0.68522150998E+01 -0.86598954740E-01  0.86610668130E+01  0.00000000000E+00 0.  1.
</event>
<event>
 7    1  0.5601662E-013  0.5052887E+02  0.7816164E-02  0.1300439E+00
        -11   -1    0    0    0    0  0.00000000000E+00  0.00000000000E+00  0.45593999997E+02  0.45594000000E+02  0.51100000000E-03 0. -1.
         11   -1    0    0    0    0 -0.00000000000E+00 -0.00000000000E+00 -0.45593999997E+02  0.45594000000E+02  0.51100000000E-03 0.  1.
    9900012    2    1    2    0    0  0.32949398313E+02  0.17509117246E+02  0.16153425651E+02  0.50528865772E+02  0.30000018000E+02 0.  0.
        -12    1    1    2    0    0 -0.32949398313E+02 -0.17509117246E+02 -0.16153425651E+02  0.40659134228E+02  0.00000000000E+00 0.  1.
         11    1    3    3    0    0  0.69398065639E+01 -0.89711785402E-02 -0.25727143943E+01  0.74013414488E+01  0.51100000000E-03 0. -1.
        -11    1    3    3    0    0  0.56468154265E+01  0.17358178705E+02  0.11211935708E+02  0.21421960578E+02  0.51100000000E-03 0.  1.
         12    1    3    3    0    0  0.20362776323E+02  0.15990971937E+00  0.75142043372E+01  0.21705563746E+02  0.00000000000E+00 0. -1.
</event>
<event>
 7    1  0.5601662E-013  0.5052886E+02  0.7816164E-02  0.1300439E+00
        -11   -1    0    0    0    0  0.00000000000E+00  0.00000000000E+00  0.45593999997E+02  0.45594000000E+02  0.51100000000E-03 0.  1.
         11   -1    0    0    0    0 -0.00000000000E+00 -0.00000000000E+00 -0.45593999997E+02  0.45594000000E+02  0.51100000000E-03 0. -1.
    9900012    2    1    2    0    0  0.57370367499E+01 -0.35667071177E+02 -0.18657754959E+02  0.50528863547E+02  0.30000011238E+02 0.  0.
        -12    1    1    2    0    0 -0.57370367499E+01  0.35667071177E+02  0.18657754959E+02  0.40659136453E+02  0.00000000000E+00 0.  1.
         11    1    3    3    0    0  0.85930203986E+01 -0.29458560635E+02 -0.11449371228E+02  0.32752631895E+02  0.51100000000E-03 0. -1.
        -11    1    3    3    0    0  0.55572095642E+01  0.50611284501E-01 -0.11818860160E+01  0.56817246025E+01  0.51100000000E-03 0.  1.
         12    1    3    3    0    0 -0.84131932130E+01 -0.62591218258E+01 -0.60264977150E+01  0.12094507050E+02  0.00000000000E+00 0. -1.
</event>
<event>
 7    1  0.5601662E-013  0.5052887E+02  0.7816164E-02  0.1300439E+00
        -11   -1    0    0    0    0  0.00000000000E+00  0.00000000000E+00  0.45593999997E+02  0.45594000000E+02  0.51100000000E-03 0.  1.
         11   -1    0    0    0    0 -0.00000000000E+00 -0.00000000000E+00 -0.45593999997E+02  0.45594000000E+02  0.51100000000E-03 0. -1.
    9900012    2    1    2    0    0  0.12476671622E+02 -0.38673106759E+02 -0.13742775229E+01  0.50528866218E+02  0.30000019357E+02 0.  0.
        -12    1    1    2    0    0 -0.12476671622E+02  0.38673106759E+02  0.13742775229E+01  0.40659133782E+02  0.00000000000E+00 0.  1.
         11    1    3    3    0    0  0.10571168497E+02 -0.56212644942E+01  0.27108585471E+01  0.12275869510E+02  0.51100000000E-03 0. -1.
        -11    1    3    3    0    0  0.66366385041E+01 -0.28937506129E+01  0.98868093984E+00  0.73072740133E+01  0.51100000000E-03 0.  1.
         12    1    3    3    0    0 -0.47311353788E+01 -0.30158091652E+02 -0.50738170099E+01  0.30945722695E+02  0.00000000000E+00 0. -1.
</event>
<event>
 7    1  0.5601662E-013  0.5052890E+02  0.7816164E-02  0.1300439E+00
        -11   -1    0    0    0    0  0.00000000000E+00  0.00000000000E+00  0.45593999997E+02  0.45594000000E+02  0.51100000000E-03 0. -1.
         11   -1    0    0    0    0 -0.00000000000E+00 -0.00000000000E+00 -0.45593999997E+02  0.45594000000E+02  0.51100000000E-03 0.  1.
    9900012    2    1    2    0    0  0.19083078696E+02 -0.34873176106E+02 -0.85358176149E+01  0.50528899093E+02  0.30000119282E+02 0.  0.
        -12    1    1    2    0    0 -0.19083078696E+02  0.34873176106E+02  0.85358176149E+01  0.40659100907E+02  0.00000000000E+00 0.  1.
         11    1    3    3    0    0  0.26342217790E+01 -0.16161782871E+02 -0.66697078334E+01  0.17681271244E+02  0.51100000000E-03 0.  1.
        -11    1    3    3    0    0 -0.44626314203E+01 -0.63471466080E+01 -0.34739729822E+01  0.85011668493E+01  0.51100000000E-03 0. -1.
         12    1    3    3    0    0  0.20911488337E+02 -0.12364246627E+02  0.16078632007E+01  0.24346461000E+02  0.00000000000E+00 0. -1.
</event>
<event>
 7    1  0.5601662E-013  0.5052886E+02  0.7816164E-02  0.1300439E+00
        -11   -1    0    0    0    0  0.00000000000E+00  0.00000000000E+00  0.45593999997E+02  0.45594000000E+02  0.51100000000E-03 0. -1.
         11   -1    0    0    0    0 -0.00000000000E+00 -0.00000000000E+00 -0.45593999997E+02  0.45594000000E+02  0.51100000000E-03 0.  1.
    9900012    2    1    2    0    0 -0.20396231981E+02 -0.33475284282E+02 -0.10796501549E+02  0.50528863481E+02  0.30000011037E+02 0.  0.
        -12    1    1    2    0    0  0.20396231981E+02  0.33475284282E+02  0.10796501549E+02  0.40659136519E+02  0.00000000000E+00 0.  1.
         11    1    3    3    0    0 -0.20051245045E+02 -0.13284916550E+02 -0.57310757588E+01  0.24726234352E+02  0.51100000000E-03 0. -1.
        -11    1    3    3    0    0 -0.43100947759E+01 -0.17647180750E+01 -0.51652292155E+01  0.69549076177E+01  0.51100000000E-03 0.  1.
        -12    1    3    3    0    0  0.39651078399E+01 -0.18425649657E+02  0.99803425775E-01  0.18847721512E+02  0.00000000000E+00 0.  1.
</event>
<event>
 7    1  0.5601662E-013  0.5052889E+02  0.7816164E-02  0.1300439E+00
        -11   -1    0    0    0    0  0.00000000000E+00  0.00000000000E+00  0.45593999997E+02  0.45594000000E+02  0.51100000000E-03 0.  1.
         11   -1    0    0    0    0 -0.00000000000E+00 -0.00000000000E+00 -0.45593999997E+02  0.45594000000E+02  0.51100000000E-03 0. -1.
    9900012    2    1    2    0    0  0.37132794595E+02 -0.94606328905E+01 -0.13594679627E+02  0.50528888804E+02  0.30000088007E+02 0.  0.
        -12    1    1    2    0    0 -0.37132794595E+02  0.94606328905E+01  0.13594679627E+02  0.40659111196E+02  0.00000000000E+00 0.  1.
         11    1    3    3    0    0 -0.20004482561E+01 -0.18033210673E+01 -0.97196931894E+00  0.28632996202E+01  0.51100000000E-03 0. -1.
        -11    1    3    3    0    0  0.27467668224E+02 -0.69959395953E+01  0.26136216593E+01  0.28464837729E+02  0.51100000000E-03 0.  1.
         12    1    3    3    0    0  0.11665574627E+02 -0.66137222797E+00 -0.15236331967E+02  0.19200751454E+02  0.00000000000E+00 0. -1.
</event>
<event>
 7    1  0.5751182E-013  0.5052886E+02  0.7816164E-02  0.1300439E+00
        -11   -1    0    0    0    0  0.00000000000E+00  0.00000000000E+00  0.45593999997E+02  0.45594000000E+02  0.51100000000E-03 0. -1.
         11   -1    0    0    0    0 -0.00000000000E+00 -0.00000000000E+00 -0.45593999997E+02  0.45594000000E+02  0.51100000000E-03 0.  1.
    9900012    2    1    2    0    0  0.36248766667E+02 -0.95829372052E+01  0.15727680584E+02  0.50528859491E+02  0.29999998910E+02 0.  0.
        -12    1    1    2    0    0 -0.36248766667E+02  0.95829372052E+01 -0.15727680584E+02  0.40659140509E+02  0.00000000000E+00 0.  1.
         11    1    3    3    0    0  0.26089358415E+02 -0.28265546427E+01  0.10992457485E+02  0.28451329591E+02  0.51100000000E-03 0. -1.
        -11    1    3    3    0    0  0.12448569065E+02 -0.11067417274E+02  0.32080207216E+01  0.16963077377E+02  0.51100000000E-03 0.  1.
        -12    1    3    3    0    0 -0.22891608143E+01  0.43110347110E+01  0.15272023780E+01  0.51144525236E+01  0.00000000000E+00 0.  1.
</event>
<event>
 7    1  0.5601662E-013  0.5052886E+02  0.7816164E-02  0.1300439E+00
        -11   -1    0    0    0    0  0.00000000000E+00  0.00000000000E+00  0.45593999997E+02  0.45594000000E+02  0.51100000000E-03 0. -1.
         11   -1    0    0    0    0 -0.00000000000E+00 -0.00000000000E+00 -0.45593999997E+02  0.45594000000E+02  0.51100000000E-03 0.  1.
    9900012    2    1    2    0    0  0.28439847038E+02  0.65364709044E+01  0.28312807932E+02  0.50528862719E+02  0.30000008721E+02 0.  0.
        -12    1    1    2    0    0 -0.28439847038E+02 -0.65364709044E+01 -0.28312807932E+02  0.40659137281E+02  0.00000000000E+00 0.  1.
         11    1    3    3    0    0  0.77052466717E+01 -0.15294082994E+01  0.92715256582E+01  0.12152000013E+02  0.51100000000E-03 0. -1.
        -11    1    3    3    0    0  0.26227819165E+02  0.79426525588E+01  0.17993133579E+02  0.32783182946E+02  0.51100000000E-03 0.  1.
        -12    1    3    3    0    0 -0.54932187986E+01  0.12322664503E+00  0.10481486948E+01  0.55936797604E+01  0.00000000000E+00 0.  1.
</event>
<event>
 7    1  0.5601662E-013  0.5052886E+02  0.7816164E-02  0.1300439E+00
        -11   -1    0    0    0    0  0.00000000000E+00  0.00000000000E+00  0.45593999997E+02  0.45594000000E+02  0.51100000000E-03 0. -1.
         11   -1    0    0    0    0 -0.00000000000E+00 -0.00000000000E+00 -0.45593999997E+02  0.45594000000E+02  0.51100000000E-03 0.  1.
    9900012    2    1    2    0    0 -0.25768292019E+01  0.30129772142E+02  0.27179449115E+02  0.50528859918E+02  0.30000000205E+02 0.  0.
        -12    1    1    2    0    0  0.25768292019E+01 -0.30129772142E+02 -0.27179449115E+02  0.40659140082E+02  0.00000000000E+00 0.  1.
         11    1    3    3    0    0 -0.72850904272E+00  0.29368776227E+01  0.13668402360E+02  0.13999328517E+02  0.51100000000E-03 0. -1.
        -11    1    3    3    0    0  0.30033464104E+01 -0.90673217984E-01  0.76306323077E+01  0.82009061067E+01  0.51100000000E-03 0.  1.
         12    1    3    3    0    0 -0.48516665696E+01  0.27283567737E+02  0.58804144472E+01  0.28328625294E+02  0.00000000000E+00 0. -1.
</event>
<event>
 7    1  0.6223038E-013  0.5052885E+02  0.7816164E-02  0.1300439E+00
        -11   -1    0    0    0    0  0.00000000000E+00  0.00000000000E+00  0.45593999997E+02  0.45594000000E+02  0.51100000000E-03 0. -1.
         11   -1    0    0    0    0 -0.00000000000E+00 -0.00000000000E+00 -0.45593999997E+02  0.45594000000E+02  0.51100000000E-03 0.  1.
    9900012    2    1    2    0    0 -0.15116211327E+02  0.12903338090E+02  0.35470700712E+02  0.50528848660E+02  0.29999965986E+02 0.  0.
        -12    1    1    2    0    0  0.15116211327E+02 -0.12903338090E+02 -0.35470700712E+02  0.40659151340E+02  0.00000000000E+00 0.  1.
         11    1    3    3    0    0  0.34143841839E+01  0.29614187615E+01  0.14544094200E+02  0.15230190307E+02  0.51100000000E-03 0. -1.
        -11    1    3    3    0    0  0.32183620607E+01  0.31957082376E+01  0.25263041349E+00  0.45424913738E+01  0.51100000000E-03 0.  1.
         12    1    3    3    0    0 -0.21748957571E+02  0.67462110904E+01  0.20673976099E+02  0.30756166979E+02  0.00000000000E+00 0. -1.
</event>
<event>
 7    1  0.5601662E-013  0.5052886E+02  0.7816164E-02  0.1300439E+00
        -11   -1    0    0    0    0  0.00000000000E+00  0.00000000000E+00  0.45593999997E+02  0.45594000000E+02  0.51100000000E-03 0. -1.
         11   -1    0    0    0    0 -0.00000000000E+00 -0.00000000000E+00 -0.45593999997E+02  0.45594000000E+02  0.51100000000E-03 0.  1.
    9900012    2    1    2    0    0 -0.34242177824E+02 -0.18860712389E+01  0.21842200459E+02  0.50528859235E+02  0.29999998131E+02 0.  0.
        -12    1    1    2    0    0  0.34242177824E+02  0.18860712389E+01 -0.21842200459E+02  0.40659140765E+02  0.00000000000E+00 0.  1.
         11    1    3    3    0    0 -0.87723748884E+01  0.11208900857E+01  0.28974791505E+01  0.93062528149E+01  0.51100000000E-03 0. -1.
        -11    1    3    3    0    0 -0.74604296153E+01  0.96611010009E+01  0.14151250977E+02  0.18688306158E+02  0.51100000000E-03 0.  1.
         12    1    3    3    0    0 -0.18009373320E+02 -0.12668062326E+02  0.47934703314E+01  0.22534300262E+02  0.00000000000E+00 0. -1.
</event>
<event>
 7    1  0.5601662E-013  0.5052886E+02  0.7816164E-02  0.1300439E+00
        -11   -1    0    0    0    0  0.00000000000E+00  0.00000000000E+00  0.45593999997E+02  0.45594000000E+02  0.51100000000E-03 0. -1.
         11   -1    0    0    0    0 -0.00000000000E+00 -0.00000000000E+00 -0.45593999997E+02  0.45594000000E+02  0.51100000000E-03 0.  1.
    9900012    2    1    2    0    0 -0.23937264402E+02 -0.31723598480E+02 -0.85898987220E+01  0.50528859729E+02  0.29999999632E+02 0.  0.
        -12    1    1    2    0    0  0.23937264402E+02  0.31723598480E+02  0.85898987220E+01  0.40659140271E+02  0.00000000000E+00 0.  1.
         11    1    3    3    0    0  0.63568835277E+00 -0.57878620417E+01  0.57541008952E+01  0.81861544127E+01  0.51100000000E-03 0.  1.
        -11    1    3    3    0    0 -0.40937233625E+01 -0.30321631825E+01  0.40721997955E+01  0.65219165872E+01  0.51100000000E-03 0. -1.
        -12    1    3    3    0    0 -0.20479229392E+02 -0.22903573255E+02 -0.18416199413E+02  0.35820788729E+02  0.00000000000E+00 0.  1.
</event>
<event>
 7    1  0.5601662E-013  0.5052886E+02  0.7816164E-02  0.1300439E+00
        -11   -1    0    0    0    0  0.00000000000E+00  0.00000000000E+00  0.45593999997E+02  0.45594000000E+02  0.51100000000E-03 0.  1.
         11   -1    0    0    0    0 -0.00000000000E+00 -0.00000000000E+00 -0.45593999997E+02  0.45594000000E+02  0.51100000000E-03 0. -1.
    9900012    2    1    2    0    0  0.88348158081E+01  0.31656713624E+02 -0.23936674388E+02  0.50528857503E+02  0.29999992865E+02 0.  0.
        -12    1    1    2    0    0 -0.88348158081E+01 -0.31656713624E+02  0.23936674388E+02  0.40659142497E+02  0.00000000000E+00 0.  1.
         11    1    3    3    0    0 -0.16634467778E+01 -0.12950926876E+01 -0.14622933224E+01  0.25656621511E+01  0.51100000000E-03 0. -1.
        -11    1    3    3    0    0  0.36392712464E+01  0.93428228674E+01 -0.21074632081E+02  0.23338225124E+02  0.51100000000E-03 0.  1.
         12    1    3    3    0    0  0.68589913394E+01  0.23608983445E+02 -0.13997489847E+01  0.24624970227E+02  0.00000000000E+00 0. -1.
</event>
<event>
 7    1  0.5601662E-013  0.5052886E+02  0.7816164E-02  0.1300439E+00
        -11   -1    0    0    0    0  0.00000000000E+00  0.00000000000E+00  0.45593999997E+02  0.45594000000E+02  0.51100000000E-03 0. -1.
         11   -1    0    0    0    0 -0.00000000000E+00 -0.00000000000E+00 -0.45593999997E+02  0.45594000000E+02  0.51100000000E-03 0.  1.
    9900012    2    1    2    0    0  0.12089678917E+02  0.33417931434E+02  0.19754682299E+02  0.50528856498E+02  0.29999989811E+02 0.  0.
        -12    1    1    2    0    0 -0.12089678917E+02 -0.33417931434E+02 -0.19754682299E+02  0.40659143502E+02  0.00000000000E+00 0.  1.
         11    1    3    3    0    0  0.32157991510E+01  0.75342657971E+01  0.17948058772E+02  0.19729149481E+02  0.51100000000E-03 0.  1.
        -11    1    3    3    0    0 -0.92366548606E+00  0.44359104560E+01  0.52888380433E+01  0.69643569418E+01  0.51100000000E-03 0. -1.
        -12    1    3    3    0    0  0.97975452522E+01  0.21447755181E+02 -0.34822145172E+01  0.23835350075E+02  0.00000000000E+00 0.  1.
</event>
<event>
 7    1  0.5601662E-013  0.5052886E+02  0.7816164E-02  0.1300439E+00
        -11   -1    0    0    0    0  0.00000000000E+00  0.00000000000E+00  0.45593999997E+02  0.45594000000E+02  0.51100000000E-03 0.  1.
         11   -1    0    0    0    0 -0.00000000000E+00 -0.00000000000E+00 -0.45593999997E+02  0.45594000000E+02  0.51100000000E-03 0. -1.
    9900012    2    1    2    0    0  0.72511678518E+01  0.41843518314E+01 -0.39787908835E+02  0.50528856810E+02  0.29999990761E+02 0.  0.
        -12    1    1    2    0    0 -0.72511678518E+01 -0.41843518314E+01  0.39787908835E+02  0.40659143190E+02  0.00000000000E+00 0.  1.
         11    1    3    3    0    0  0.97808293249E+01 -0.49304641439E+00 -0.31823623386E+02  0.33296407054E+02  0.51100000000E-03 0. -1.
        -11    1    3    3    0    0  0.12482313970E+01 -0.12598524231E+01 -0.98003977124E+01  0.99595735517E+01  0.51100000000E-03 0.  1.
        -12    1    3    3    0    0 -0.37778928701E+01  0.59372506689E+01  0.18361122633E+01  0.72728762045E+01  0.00000000000E+00 0.  1.
</event>
<event>
 7    1  0.5601662E-013  0.5052885E+02  0.7816164E-02  0.1300439E+00
        -11   -1    0    0    0    0  0.00000000000E+00  0.00000000000E+00  0.45593999997E+02  0.45594000000E+02  0.51100000000E-03 0.  1.
         11   -1    0    0    0    0 -0.00000000000E+00 -0.00000000000E+00 -0.45593999997E+02  0.45594000000E+02  0.51100000000E-03 0. -1.
    9900012    2    1    2    0    0  0.31068727161E+02 -0.17223077493E+02 -0.19780456086E+02  0.50528847910E+02  0.29999963707E+02 0.  0.
        -12    1    1    2    0    0 -0.31068727161E+02  0.17223077493E+02  0.19780456086E+02  0.40659152090E+02  0.00000000000E+00 0.  1.
         11    1    3    3    0    0  0.21194709333E+01 -0.20063673774E+01 -0.12800956856E+01  0.31868969728E+01  0.51100000000E-03 0. -1.
        -11    1    3    3    0    0  0.11407321869E+02 -0.18776221205E+02 -0.19554144002E+02  0.29411528741E+02  0.51100000000E-03 0.  1.
        -12    1    3    3    0    0  0.17541934359E+02  0.35595110902E+01  0.10537836012E+01  0.17930422196E+02  0.00000000000E+00 0.  1.
</event>
<event>
 7    1  0.5601662E-013  0.5052886E+02  0.7816164E-02  0.1300439E+00
        -11   -1    0    0    0    0  0.00000000000E+00  0.00000000000E+00  0.45593999997E+02  0.45594000000E+02  0.51100000000E-03 0.  1.
         11   -1    0    0    0    0 -0.00000000000E+00 -0.00000000000E+00 -0.45593999997E+02  0.45594000000E+02  0.51100000000E-03 0. -1.
    9900012    2    1    2    0    0 -0.67448519826E+01 -0.39928258407E+02  0.36615389493E+01  0.50528859390E+02  0.29999998600E+02 0.  0.
        -12    1    1    2    0    0  0.67448519826E+01  0.39928258407E+02 -0.36615389493E+01  0.40659140610E+02  0.00000000000E+00 0.  1.
         11    1    3    3    0    0 -0.62618050375E+01 -0.12002756923E+02 -0.67921868048E+01  0.15146292548E+02  0.51100000000E-03 0.  1.
        -11    1    3    3    0    0 -0.71051916006E+01 -0.91363062488E+01 -0.22006668020E+01  0.11781289156E+02  0.51100000000E-03 0. -1.
         12    1    3    3    0    0  0.66221446555E+01 -0.18789195235E+02  0.12654392556E+02  0.23601277685E+02  0.00000000000E+00 0. -1.
</event>
<event>
 7    1  0.5601662E-013  0.5052886E+02  0.7816164E-02  0.1300439E+00
        -11   -1    0    0    0    0  0.00000000000E+00  0.00000000000E+00  0.45593999997E+02  0.45594000000E+02  0.51100000000E-03 0.  1.
         11   -1    0    0    0    0 -0.00000000000E+00 -0.00000000000E+00 -0.45593999997E+02  0.45594000000E+02  0.51100000000E-03 0. -1.
    9900012    2    1    2    0    0 -0.20028079850E-01  0.34823031943E+02 -0.20988612101E+02  0.50528858436E+02  0.29999995702E+02 0.  0.
        -12    1    1    2    0    0  0.20028079850E-01 -0.34823031943E+02  0.20988612101E+02  0.40659141564E+02  0.00000000000E+00 0.  1.
         11    1    3    3    0    0  0.55319787243E+01  0.16298801730E+02  0.17332139378E+01  0.17299068104E+02  0.51100000000E-03 0. -1.
        -11    1    3    3    0    0 -0.83035616660E+00  0.12318089563E+02 -0.40473322233E+01  0.12992525553E+02  0.51100000000E-03 0.  1.
         12    1    3    3    0    0 -0.47216506375E+01  0.62061406493E+01 -0.18674493815E+02  0.20237264780E+02  0.00000000000E+00 0. -1.
</event>
<event>
 7    1  0.5601662E-013  0.5052887E+02  0.7816164E-02  0.1300439E+00
        -11   -1    0    0    0    0  0.00000000000E+00  0.00000000000E+00  0.45593999997E+02  0.45594000000E+02  0.51100000000E-03 0. -1.
         11   -1    0    0    0    0 -0.00000000000E+00 -0.00000000000E+00 -0.45593999997E+02  0.45594000000E+02  0.51100000000E-03 0.  1.
    9900012    2    1    2    0    0  0.38849531621E+02  0.11477830003E+01 -0.11939900467E+02  0.50528871429E+02  0.30000035196E+02 0.  0.
        -12    1    1    2    0    0 -0.38849531621E+02 -0.11477830003E+01  0.11939900467E+02  0.40659128571E+02  0.00000000000E+00 0.  1.
         11    1    3    3    0    0  0.48285905802E+01 -0.39641288175E+01 -0.96102607790E+01  0.11462404494E+02  0.51100000000E-03 0. -1.
        -11    1    3    3    0    0  0.18870301805E+01 -0.44619709748E+01  0.20333318934E+01  0.52539991180E+01  0.51100000000E-03 0.  1.
        -12    1    3    3    0    0  0.32133910860E+02  0.95738827926E+01 -0.43629715818E+01  0.33812467818E+02  0.00000000000E+00 0.  1.
</event>
<event>
 7    1  0.5601662E-013  0.5052886E+02  0.7816164E-02  0.1300439E+00
        -11   -1    0    0    0    0  0.00000000000E+00  0.00000000000E+00  0.45593999997E+02  0.45594000000E+02  0.51100000000E-03 0.  1.
         11   -1    0    0    0    0 -0.00000000000E+00 -0.00000000000E+00 -0.45593999997E+02  0.45594000000E+02  0.51100000000E-03 0. -1.
    9900012    2    1    2    0    0 -0.65587492748E+01  0.10652008278E+02 -0.38686990263E+02  0.50528859723E+02  0.29999999615E+02 0.  0.
        -12    1    1    2    0    0  0.65587492748E+01 -0.10652008278E+02  0.38686990263E+02  0.40659140277E+02  0.00000000000E+00 0.  1.
         11    1    3    3    0    0  0.67706361489E+01 -0.54712111511E+00 -0.11440070542E+02  0.13304738616E+02  0.51100000000E-03 0. -1.
        -11    1    3    3    0    0 -0.11212562932E+02  0.59453535709E+00 -0.23022148253E+02  0.25614338762E+02  0.51100000000E-03 0.  1.
        -12    1    3    3    0    0 -0.21168224916E+01  0.10604594037E+02 -0.42247714687E+01  0.11609782345E+02  0.00000000000E+00 0.  1.
</event>
<event>
 7    1  0.5601662E-013  0.5052889E+02  0.7816164E-02  0.1300439E+00
        -11   -1    0    0    0    0  0.00000000000E+00  0.00000000000E+00  0.45593999997E+02  0.45594000000E+02  0.51100000000E-03 0.  1.
         11   -1    0    0    0    0 -0.00000000000E+00 -0.00000000000E+00 -0.45593999997E+02  0.45594000000E+02  0.51100000000E-03 0. -1.
    9900012    2    1    2    0    0  0.12885302813E+02 -0.37562437985E+02 -0.87290154282E+01  0.50528886799E+02  0.30000081915E+02 0.  0.
        -12    1    1    2    0    0 -0.12885302813E+02  0.37562437985E+02  0.87290154282E+01  0.40659113201E+02  0.00000000000E+00 0.  1.
         11    1    3    3    0    0  0.32454556057E+01 -0.61786965020E+01 -0.28808785716E+01  0.75504128469E+01  0.51100000000E-03 0. -1.
        -11    1    3    3    0    0 -0.92168449457E+01 -0.85882516524E+01  0.91566294067E+00  0.12631181104E+02  0.51100000000E-03 0.  1.
        -12    1    3    3    0    0  0.18856692153E+02 -0.22795489830E+02 -0.67637997972E+01  0.30347292848E+02  0.00000000000E+00 0.  1.
</event>
<event>
 7    1  0.5601662E-013  0.5052888E+02  0.7816164E-02  0.1300439E+00
        -11   -1    0    0    0    0  0.00000000000E+00  0.00000000000E+00  0.45593999997E+02  0.45594000000E+02  0.51100000000E-03 0.  1.
         11   -1    0    0    0    0 -0.00000000000E+00 -0.00000000000E+00 -0.45593999997E+02  0.45594000000E+02  0.51100000000E-03 0. -1.
    9900012    2    1    2    0    0 -0.29325561120E+02  0.18567210167E+02 -0.21176273747E+02  0.50528875585E+02  0.30000047827E+02 0.  0.
        -12    1    1    2    0    0  0.29325561120E+02 -0.18567210167E+02  0.21176273747E+02  0.40659124415E+02  0.00000000000E+00 0.  1.
         11    1    3    3    0    0 -0.60878903355E+01  0.20508310302E+02 -0.66604024611E+01  0.22405672527E+02  0.51100000000E-03 0. -1.
        -11    1    3    3    0    0 -0.12383278755E+01 -0.84881213033E+00  0.36012230322E+00  0.15438997034E+01  0.51100000000E-03 0.  1.
         12    1    3    3    0    0 -0.21999342909E+02 -0.10922880046E+01 -0.14875993589E+02  0.26579303354E+02  0.00000000000E+00 0. -1.
</event>
<event>
 7    1  0.5601662E-013  0.5052886E+02  0.7816164E-02  0.1300439E+00
        -11   -1    0    0    0    0  0.00000000000E+00  0.00000000000E+00  0.45593999997E+02  0.45594000000E+02  0.51100000000E-03 0.  1.
         11   -1    0    0    0    0 -0.00000000000E+00 -0.00000000000E+00 -0.45593999997E+02  0.45594000000E+02  0.51100000000E-03 0. -1.
    9900012    2    1    2    0    0  0.19900744676E+02  0.16059985778E+02 -0.31610167562E+02  0.50528862342E+02  0.30000007574E+02 0.  0.
        -12    1    1    2    0    0 -0.19900744676E+02 -0.16059985778E+02  0.31610167562E+02  0.40659137658E+02  0.00000000000E+00 0.  1.
         11    1    3    3    0    0 -0.20485090431E+01  0.18160727316E+01  0.90680669759E+00  0.28838876736E+01  0.51100000000E-03 0. -1.
        -11    1    3    3    0    0  0.35902312038E+01  0.30098628282E+01  0.33889302435E+01  0.57822039741E+01  0.51100000000E-03 0.  1.
         12    1    3    3    0    0  0.18359022515E+02  0.11234050219E+02 -0.35905904503E+02  0.41862770694E+02  0.00000000000E+00 0. -1.
</event>
<event>
 7    1  0.5601662E-013  0.5052885E+02  0.7816164E-02  0.1300439E+00
        -11   -1    0    0    0    0  0.00000000000E+00  0.00000000000E+00  0.45593999997E+02  0.45594000000E+02  0.51100000000E-03 0. -1.
         11   -1    0    0    0    0 -0.00000000000E+00 -0.00000000000E+00 -0.45593999997E+02  0.45594000000E+02  0.51100000000E-03 0.  1.
    9900012    2    1    2    0    0 -0.28089577183E+02  0.13517296664E+02  0.26104111075E+02  0.50528852561E+02  0.29999977845E+02 0.  0.
        -12    1    1    2    0    0  0.28089577183E+02 -0.13517296664E+02 -0.26104111075E+02  0.40659147439E+02  0.00000000000E+00 0.  1.
         11    1    3    3    0    0 -0.10149437424E+02  0.10648726064E+02  0.22173140514E+02  0.26609295506E+02  0.51100000000E-03 0.  1.
        -11    1    3    3    0    0 -0.48815737574E+01 -0.51176955923E+01  0.48646687947E+01  0.85840301297E+01  0.51100000000E-03 0. -1.
        -12    1    3    3    0    0 -0.13058566002E+02  0.79862661918E+01 -0.93369823285E+00  0.15335526926E+02  0.00000000000E+00 0.  1.
</event>
<event>
 7    1  0.5601662E-013  0.5052886E+02  0.7816164E-02  0.1300439E+00
        -11   -1    0    0    0    0  0.00000000000E+00  0.00000000000E+00  0.45593999997E+02  0.45594000000E+02  0.51100000000E-03 0.  1.
         11   -1    0    0    0    0 -0.00000000000E+00 -0.00000000000E+00 -0.45593999997E+02  0.45594000000E+02  0.51100000000E-03 0. -1.
    9900012    2    1    2    0    0 -0.71560927610E+01  0.70527954772E+01 -0.39398150865E+02  0.50528857372E+02  0.29999992468E+02 0.  0.
        -12    1    1    2    0    0  0.71560927610E+01 -0.70527954772E+01  0.39398150865E+02  0.40659142628E+02  0.00000000000E+00 0.  1.
         11    1    3    3    0    0 -0.62099099091E+01 -0.40812723103E+00 -0.77489481631E+01  0.99385988354E+01  0.51100000000E-03 0. -1.
        -11    1    3    3    0    0 -0.23531292812E+01 -0.25714815890E+01 -0.30148263002E+02  0.30349093846E+02  0.51100000000E-03 0.  1.
         12    1    3    3    0    0  0.14069464294E+01  0.10032404297E+02 -0.15009397004E+01  0.10241164691E+02  0.00000000000E+00 0. -1.
</event>
<event>
 7    1  0.5601662E-013  0.5052886E+02  0.7816164E-02  0.1300439E+00
        -11   -1    0    0    0    0  0.00000000000E+00  0.00000000000E+00  0.45593999997E+02  0.45594000000E+02  0.51100000000E-03 0. -1.
         11   -1    0    0    0    0 -0.00000000000E+00 -0.00000000000E+00 -0.45593999997E+02  0.45594000000E+02  0.51100000000E-03 0.  1.
    9900012    2    1    2    0    0 -0.26505208822E+02  0.29678072341E+01  0.30689276297E+02  0.50528860141E+02  0.30000000884E+02 0.  0.
        -12    1    1    2    0    0  0.26505208822E+02 -0.29678072341E+01 -0.30689276297E+02  0.40659139859E+02  0.00000000000E+00 0.  1.
         11    1    3    3    0    0 -0.56693132662E+01  0.39002135058E+01 -0.54120659389E+00  0.69025852504E+01  0.51100000000E-03 0. -1.
        -11    1    3    3    0    0  0.80806768739E+00  0.47399685898E+01 -0.46287242072E+00  0.48305824451E+01  0.51100000000E-03 0.  1.
         12    1    3    3    0    0 -0.21643963243E+02 -0.56723748616E+01  0.31693355311E+02  0.38795692445E+02  0.00000000000E+00 0. -1.
</event>
<event>
 7    1  0.5601662E-013  0.5052885E+02  0.7816164E-02  0.1300439E+00
        -11   -1    0    0    0    0  0.00000000000E+00  0.00000000000E+00  0.45593999997E+02  0.45594000000E+02  0.51100000000E-03 0.  1.
         11   -1    0    0    0    0 -0.00000000000E+00 -0.00000000000E+00 -0.45593999997E+02  0.45594000000E+02  0.51100000000E-03 0. -1.
    9900012    2    1    2    0    0  0.26219523706E+02 -0.15538428338E+01 -0.31036896160E+02  0.50528846367E+02  0.29999959017E+02 0.  0.
        -12    1    1    2    0    0 -0.26219523706E+02  0.15538428338E+01  0.31036896160E+02  0.40659153633E+02  0.00000000000E+00 0.  1.
         11    1    3    3    0    0 -0.65417025147E+00  0.29882941588E+01  0.45756557262E-02  0.30590622575E+01  0.51100000000E-03 0. -1.
        -11    1    3    3    0    0 -0.14796748823E+01 -0.32213016296E+01  0.18710694918E+01  0.40083816248E+01  0.51100000000E-03 0.  1.
         12    1    3    3    0    0  0.28353368840E+02 -0.13208353631E+01 -0.32912541307E+02  0.43461402485E+02  0.00000000000E+00 0. -1.
</event>
<event>
 7    1  0.5601662E-013  0.5052886E+02  0.7816164E-02  0.1300439E+00
        -11   -1    0    0    0    0  0.00000000000E+00  0.00000000000E+00  0.45593999997E+02  0.45594000000E+02  0.51100000000E-03 0. -1.
         11   -1    0    0    0    0 -0.00000000000E+00 -0.00000000000E+00 -0.45593999997E+02  0.45594000000E+02  0.51100000000E-03 0.  1.
    9900012    2    1    2    0    0 -0.39617674224E+02 -0.32816651904E+01 -0.85344015151E+01  0.50528862693E+02  0.30000008640E+02 0.  0.
        -12    1    1    2    0    0  0.39617674224E+02  0.32816651904E+01  0.85344015151E+01  0.40659137307E+02  0.00000000000E+00 0.  1.
         11    1    3    3    0    0 -0.29915936487E+02 -0.21961632758E+01 -0.27144668120E+00  0.29997667786E+02  0.51100000000E-03 0. -1.
        -11    1    3    3    0    0 -0.89476937074E+01 -0.68261805288E+01 -0.93603767257E+01  0.14638122011E+02  0.51100000000E-03 0.  1.
         12    1    3    3    0    0 -0.75404403004E+00  0.57406786142E+01  0.10974218918E+01  0.58930728962E+01  0.00000000000E+00 0. -1.
</event>
<event>
 7    1  0.5601662E-013  0.5052886E+02  0.7816164E-02  0.1300439E+00
        -11   -1    0    0    0    0  0.00000000000E+00  0.00000000000E+00  0.45593999997E+02  0.45594000000E+02  0.51100000000E-03 0.  1.
         11   -1    0    0    0    0 -0.00000000000E+00 -0.00000000000E+00 -0.45593999997E+02  0.45594000000E+02  0.51100000000E-03 0. -1.
    9900012    2    1    2    0    0 -0.59637748957E+01 -0.26850841266E+02  0.29943804408E+02  0.50528859452E+02  0.29999998790E+02 0.  0.
        -12    1    1    2    0    0  0.59637748957E+01  0.26850841266E+02 -0.29943804408E+02  0.40659140548E+02  0.00000000000E+00 0.  1.
         11    1    3    3    0    0 -0.65551688510E+01 -0.13921362708E+02 -0.33496563225E+00  0.15391126683E+02  0.51100000000E-03 0. -1.
        -11    1    3    3    0    0  0.26244816137E+01  0.13196445555E+01  0.25248938327E+01  0.38735583927E+01  0.51100000000E-03 0.  1.
         12    1    3    3    0    0 -0.20330876584E+01 -0.14249123113E+02  0.27753876207E+02  0.31264174377E+02  0.00000000000E+00 0. -1.
</event>
<event>
 7    1  0.5601662E-013  0.5052886E+02  0.7816164E-02  0.1300439E+00
        -11   -1    0    0    0    0  0.00000000000E+00  0.00000000000E+00  0.45593999997E+02  0.45594000000E+02  0.51100000000E-03 0.  1.
         11   -1    0    0    0    0 -0.00000000000E+00 -0.00000000000E+00 -0.45593999997E+02  0.45594000000E+02  0.51100000000E-03 0. -1.
    9900012    2    1    2    0    0 -0.22881859131E+02 -0.23655648016E+02 -0.23874607219E+02  0.50528855515E+02  0.29999986825E+02 0.  0.
        -12    1    1    2    0    0  0.22881859131E+02  0.23655648016E+02  0.23874607219E+02  0.40659144485E+02  0.00000000000E+00 0.  1.
         11    1    3    3    0    0 -0.20122852966E+02 -0.14562892089E+02 -0.13837356554E+02  0.28433773477E+02  0.51100000000E-03 0. -1.
        -11    1    3    3    0    0 -0.97870658968E+01 -0.76688490312E+01 -0.54019246118E+01  0.13556500068E+02  0.51100000000E-03 0.  1.
        -12    1    3    3    0    0  0.70280597314E+01 -0.14239068953E+01 -0.46353260532E+01  0.85385819698E+01  0.00000000000E+00 0.  1.
</event>
<event>
 7    1  0.5601662E-013  0.5052885E+02  0.7816164E-02  0.1300439E+00
        -11   -1    0    0    0    0  0.00000000000E+00  0.00000000000E+00  0.45593999997E+02  0.45594000000E+02  0.51100000000E-03 0.  1.
         11   -1    0    0    0    0 -0.00000000000E+00 -0.00000000000E+00 -0.45593999997E+02  0.45594000000E+02  0.51100000000E-03 0. -1.
    9900012    2    1    2    0    0 -0.21759295075E+02 -0.30624524947E+02  0.15551136689E+02  0.50528852165E+02  0.29999976640E+02 0.  0.
        -12    1    1    2    0    0  0.21759295075E+02  0.30624524947E+02 -0.15551136689E+02  0.40659147835E+02  0.00000000000E+00 0.  1.
         11    1    3    3    0    0 -0.99041037760E+01 -0.95673593349E+01  0.30876093738E-01  0.13770497080E+02  0.51100000000E-03 0. -1.
        -11    1    3    3    0    0  0.52649752182E+01 -0.10050326492E+02  0.31082703797E+00  0.11350138341E+02  0.51100000000E-03 0.  1.
         12    1    3    3    0    0 -0.17120166517E+02 -0.11006839120E+02  0.15209433557E+02  0.25408216744E+02  0.00000000000E+00 0. -1.
</event>
<event>
 7    1  0.5601662E-013  0.5052886E+02  0.7816164E-02  0.1300439E+00
        -11   -1    0    0    0    0  0.00000000000E+00  0.00000000000E+00  0.45593999997E+02  0.45594000000E+02  0.51100000000E-03 0.  1.
         11   -1    0    0    0    0 -0.00000000000E+00 -0.00000000000E+00 -0.45593999997E+02  0.45594000000E+02  0.51100000000E-03 0. -1.
    9900012    2    1    2    0    0  0.27025692045E+02 -0.21223224584E+02 -0.21733677761E+02  0.50528855380E+02  0.29999986412E+02 0.  0.
        -12    1    1    2    0    0 -0.27025692045E+02  0.21223224584E+02  0.21733677761E+02  0.40659144620E+02  0.00000000000E+00 0.  1.
         11    1    3    3    0    0  0.17122505564E+02 -0.10876854745E+02 -0.24493291013E+02  0.31802633080E+02  0.51100000000E-03 0. -1.
        -11    1    3    3    0    0 -0.76530174793E+00  0.17627975942E+01  0.16786059042E+01  0.25516387217E+01  0.51100000000E-03 0.  1.
        -12    1    3    3    0    0  0.10668488229E+02 -0.12109167433E+02  0.10810073479E+01  0.16174583577E+02  0.00000000000E+00 0.  1.
</event>
<event>
 7    1  0.5601662E-013  0.5052887E+02  0.7816164E-02  0.1300439E+00
        -11   -1    0    0    0    0  0.00000000000E+00  0.00000000000E+00  0.45593999997E+02  0.45594000000E+02  0.51100000000E-03 0. -1.
         11   -1    0    0    0    0 -0.00000000000E+00 -0.00000000000E+00 -0.45593999997E+02  0.45594000000E+02  0.51100000000E-03 0.  1.
    9900012    2    1    2    0    0  0.18015926918E+02 -0.23604789848E+02  0.27774180631E+02  0.50528870199E+02  0.30000031456E+02 0.  0.
        -12    1    1    2    0    0 -0.18015926918E+02  0.23604789848E+02 -0.27774180631E+02  0.40659129801E+02  0.00000000000E+00 0.  1.
         11    1    3    3    0    0  0.95876965993E+01  0.19768425464E+01  0.51458118024E+01  0.11059439945E+02  0.51100000000E-03 0. -1.
        -11    1    3    3    0    0  0.29774886091E+01  0.12705662931E+01  0.75040003331E+01  0.81725025777E+01  0.51100000000E-03 0.  1.
         12    1    3    3    0    0  0.54507417092E+01 -0.26852198688E+02  0.15124368496E+02  0.31296927676E+02  0.00000000000E+00 0. -1.
</event>
<event>
 7    1  0.5601662E-013  0.5052886E+02  0.7816164E-02  0.1300439E+00
        -11   -1    0    0    0    0  0.00000000000E+00  0.00000000000E+00  0.45593999997E+02  0.45594000000E+02  0.51100000000E-03 0. -1.
         11   -1    0    0    0    0 -0.00000000000E+00 -0.00000000000E+00 -0.45593999997E+02  0.45594000000E+02  0.51100000000E-03 0.  1.
    9900012    2    1    2    0    0  0.24032365759E+02  0.27553702451E+02  0.17787768964E+02  0.50528857763E+02  0.29999993657E+02 0.  0.
        -12    1    1    2    0    0 -0.24032365759E+02 -0.27553702451E+02 -0.17787768964E+02  0.40659142237E+02  0.00000000000E+00 0.  1.
         11    1    3    3    0    0  0.91553284442E+01  0.10397829176E+02  0.36557443020E+01  0.14328271255E+02  0.51100000000E-03 0. -1.
        -11    1    3    3    0    0 -0.34702224703E+01  0.10752784423E+02  0.12268805880E+02  0.16678981228E+02  0.51100000000E-03 0.  1.
         12    1    3    3    0    0  0.18347259785E+02  0.64030888516E+01  0.18632187818E+01  0.19521605280E+02  0.00000000000E+00 0. -1.
</event>
<event>
 7    1  0.5601662E-013  0.5052878E+02  0.7816164E-02  0.1300439E+00
        -11   -1    0    0    0    0  0.00000000000E+00  0.00000000000E+00  0.45593999997E+02  0.45594000000E+02  0.51100000000E-03 0.  1.
         11   -1    0    0    0    0 -0.00000000000E+00 -0.00000000000E+00 -0.45593999997E+02  0.45594000000E+02  0.51100000000E-03 0. -1.
    9900012    2    1    2    0    0  0.24352701883E+02 -0.27534874110E+02 -0.17376679042E+02  0.50528777728E+02  0.29999750381E+02 0.  0.
        -12    1    1    2    0    0 -0.24352701883E+02  0.27534874110E+02  0.17376679042E+02  0.40659222272E+02  0.00000000000E+00 0.  1.
         11    1    3    3    0    0  0.12437593738E+02 -0.96044154953E+01 -0.70502059728E+01  0.17223354480E+02  0.51100000000E-03 0. -1.
        -11    1    3    3    0    0  0.50378093691E+01 -0.10221226873E+02 -0.17389664372E+02  0.20790705358E+02  0.51100000000E-03 0.  1.
         12    1    3    3    0    0  0.68772987759E+01 -0.77092317410E+01  0.70631913033E+01  0.12514717890E+02  0.00000000000E+00 0. -1.
</event>
<event>
 7    1  0.5601662E-013  0.5052886E+02  0.7816164E-02  0.1300439E+00
        -11   -1    0    0    0    0  0.00000000000E+00  0.00000000000E+00  0.45593999997E+02  0.45594000000E+02  0.51100000000E-03 0.  1.
         11   -1    0    0    0    0 -0.00000000000E+00 -0.00000000000E+00 -0.45593999997E+02  0.45594000000E+02  0.51100000000E-03 0. -1.
    9900012    2    1    2    0    0 -0.18761187059E+02 -0.69246108374E+01 -0.35401033187E+02  0.50528861718E+02  0.30000005679E+02 0.  0.
        -12    1    1    2    0    0  0.18761187059E+02  0.69246108374E+01  0.35401033187E+02  0.40659138282E+02  0.00000000000E+00 0.  1.
         11    1    3    3    0    0 -0.15443503835E+02 -0.80159637590E+00 -0.63041946835E+01  0.16699917315E+02  0.51100000000E-03 0. -1.
        -11    1    3    3    0    0 -0.72664691869E+01 -0.95078400580E+01 -0.21796742307E+02  0.24865610237E+02  0.51100000000E-03 0.  1.
        -12    1    3    3    0    0  0.39487859629E+01  0.33848255966E+01 -0.73000961967E+01  0.89633341665E+01  0.00000000000E+00 0.  1.
</event>
<event>
 7    1  0.5601662E-013  0.5052886E+02  0.7816164E-02  0.1300439E+00
        -11   -1    0    0    0    0  0.00000000000E+00  0.00000000000E+00  0.45593999997E+02  0.45594000000E+02  0.51100000000E-03 0.  1.
         11   -1    0    0    0    0 -0.00000000000E+00 -0.00000000000E+00 -0.45593999997E+02  0.45594000000E+02  0.51100000000E-03 0. -1.
    9900012    2    1    2    0    0  0.18800251925E+02  0.26451830836E+02 -0.24495244538E+02  0.50528857953E+02  0.29999994235E+02 0.  0.
        -12    1    1    2    0    0 -0.18800251925E+02 -0.26451830836E+02  0.24495244538E+02  0.40659142047E+02  0.00000000000E+00 0.  1.
         11    1    3    3    0    0 -0.45236984198E+01  0.17811475631E+02 -0.95836822883E+01  0.20725816703E+02  0.51100000000E-03 0. -1.
        -11    1    3    3    0    0  0.78128589557E+00  0.15480158495E+01  0.21068231402E+00  0.17467535658E+01  0.51100000000E-03 0.  1.
        -12    1    3    3    0    0  0.22542664449E+02  0.70923393549E+01 -0.15122244563E+02  0.28056287684E+02  0.00000000000E+00 0.  1.
</event>
<event>
 7    1  0.5601662E-013  0.5052885E+02  0.7816164E-02  0.1300439E+00
        -11   -1    0    0    0    0  0.00000000000E+00  0.00000000000E+00  0.45593999997E+02  0.45594000000E+02  0.51100000000E-03 0.  1.
         11   -1    0    0    0    0 -0.00000000000E+00 -0.00000000000E+00 -0.45593999997E+02  0.45594000000E+02  0.51100000000E-03 0. -1.
    9900012    2    1    2    0    0 -0.30126667280E+02  0.82544667670E+01 -0.26027177501E+02  0.50528852546E+02  0.29999977800E+02 0.  0.
        -12    1    1    2    0    0  0.30126667280E+02 -0.82544667670E+01  0.26027177501E+02  0.40659147454E+02  0.00000000000E+00 0.  1.
         11    1    3    3    0    0 -0.21599061186E+02  0.94983538331E+01 -0.47583080096E+01  0.24070306708E+02  0.51100000000E-03 0. -1.
        -11    1    3    3    0    0 -0.21917440155E-01  0.69106441561E+00  0.17289059255E+01  0.18620328572E+01  0.51100000000E-03 0.  1.
        -12    1    3    3    0    0 -0.85056886540E+01 -0.19349514817E+01 -0.22997775417E+02  0.24596512981E+02  0.00000000000E+00 0.  1.
</event>
<event>
 7    1  0.5601662E-013  0.5052886E+02  0.7816164E-02  0.1300439E+00
        -11   -1    0    0    0    0  0.00000000000E+00  0.00000000000E+00  0.45593999997E+02  0.45594000000E+02  0.51100000000E-03 0.  1.
         11   -1    0    0    0    0 -0.00000000000E+00 -0.00000000000E+00 -0.45593999997E+02  0.45594000000E+02  0.51100000000E-03 0. -1.
    9900012    2    1    2    0    0  0.34105131134E+02 -0.22097774599E+02 -0.13015847797E+01  0.50528859147E+02  0.29999997864E+02 0.  0.
        -12    1    1    2    0    0 -0.34105131134E+02  0.22097774599E+02  0.13015847797E+01  0.40659140853E+02  0.00000000000E+00 0.  1.
         11    1    3    3    0    0  0.15976090509E+02 -0.57763998428E+01  0.11382425478E+01  0.17026387152E+02  0.51100000000E-03 0. -1.
        -11    1    3    3    0    0  0.22845959025E+02 -0.13774600930E+02 -0.56294213160E+01  0.27264773227E+02  0.51100000000E-03 0.  1.
        -12    1    3    3    0    0 -0.47169183991E+01 -0.25467738269E+01  0.31895939885E+01  0.62376987680E+01  0.00000000000E+00 0.  1.
</event>
<event>
 7    1  0.5601662E-013  0.5052887E+02  0.7816164E-02  0.1300439E+00
        -11   -1    0    0    0    0  0.00000000000E+00  0.00000000000E+00  0.45593999997E+02  0.45594000000E+02  0.51100000000E-03 0. -1.
         11   -1    0    0    0    0 -0.00000000000E+00 -0.00000000000E+00 -0.45593999997E+02  0.45594000000E+02  0.51100000000E-03 0.  1.
    9900012    2    1    2    0    0 -0.93333159423E+01 -0.21665478972E+02  0.33115879604E+02  0.50528865141E+02  0.30000016081E+02 0.  0.
        -12    1    1    2    0    0  0.93333159423E+01  0.21665478972E+02 -0.33115879604E+02  0.40659134859E+02  0.00000000000E+00 0.  1.
         11    1    3    3    0    0  0.82286576374E+01 -0.41600427158E+01  0.12157594782E+02  0.15258567202E+02  0.51100000000E-03 0. -1.
        -11    1    3    3    0    0 -0.41233199260E+01 -0.87404191078E+00 -0.12947782705E+01  0.44093273302E+01  0.51100000000E-03 0.  1.
        -12    1    3    3    0    0 -0.13438653654E+02 -0.16631394346E+02  0.22253063092E+02  0.30860970609E+02  0.00000000000E+00 0.  1.
</event>
<event>
 7    1  0.5601662E-013  0.5052886E+02  0.7816164E-02  0.1300439E+00
        -11   -1    0    0    0    0  0.00000000000E+00  0.00000000000E+00  0.45593999997E+02  0.45594000000E+02  0.51100000000E-03 0.  1.
         11   -1    0    0    0    0 -0.00000000000E+00 -0.00000000000E+00 -0.45593999997E+02  0.45594000000E+02  0.51100000000E-03 0. -1.
    9900012    2    1    2    0    0 -0.31111903905E+02 -0.22059759056E+02 -0.14091930293E+02  0.50528855474E+02  0.29999986700E+02 0.  0.
        -12    1    1    2    0    0  0.31111903905E+02  0.22059759056E+02  0.14091930293E+02  0.40659144526E+02  0.00000000000E+00 0.  1.
         11    1    3    3    0    0 -0.14375105262E+02 -0.11219966889E+02  0.20122940326E+01  0.18346134083E+02  0.51100000000E-03 0. -1.
        -11    1    3    3    0    0 -0.77769972078E+01 -0.35191086587E+01  0.36545600550E+01  0.92855597989E+01  0.51100000000E-03 0.  1.
         12    1    3    3    0    0 -0.89598014355E+01 -0.73206835078E+01 -0.19758784380E+02  0.22897161592E+02  0.00000000000E+00 0. -1.
</event>
<event>
 7    1  0.5601662E-013  0.5052884E+02  0.7816164E-02  0.1300439E+00
        -11   -1    0    0    0    0  0.00000000000E+00  0.00000000000E+00  0.45593999997E+02  0.45594000000E+02  0.51100000000E-03 0. -1.
         11   -1    0    0    0    0 -0.00000000000E+00 -0.00000000000E+00 -0.45593999997E+02  0.45594000000E+02  0.51100000000E-03 0.  1.
    9900012    2    1    2    0    0  0.23070127868E+02 -0.32734867704E+02  0.70260373683E+01  0.50528836647E+02  0.29999929472E+02 0.  0.
        -12    1    1    2    0    0 -0.23070127868E+02  0.32734867704E+02 -0.70260373683E+01  0.40659163353E+02  0.00000000000E+00 0.  1.
         11    1    3    3    0    0  0.77139452139E+01 -0.61604036836E+01  0.11997090215E+01  0.99445877896E+01  0.51100000000E-03 0. -1.
        -11    1    3    3    0    0  0.77640290003E+01 -0.12282864348E+01 -0.75825245915E+01  0.10921699196E+02  0.51100000000E-03 0.  1.
        -12    1    3    3    0    0  0.75921536542E+01 -0.25346177586E+02  0.13408852938E+02  0.29662549662E+02  0.00000000000E+00 0.  1.
</event>
<event>
 7    1  0.5601662E-013  0.5052886E+02  0.7816164E-02  0.1300439E+00
        -11   -1    0    0    0    0  0.00000000000E+00  0.00000000000E+00  0.45593999997E+02  0.45594000000E+02  0.51100000000E-03 0. -1.
         11   -1    0    0    0    0 -0.00000000000E+00 -0.00000000000E+00 -0.45593999997E+02  0.45594000000E+02  0.51100000000E-03 0.  1.
    9900012    2    1    2    0    0 -0.36810306897E+02 -0.17005417824E+02  0.29971235311E+01  0.50528859838E+02  0.29999999963E+02 0.  0.
        -12    1    1    2    0    0  0.36810306897E+02  0.17005417824E+02 -0.29971235311E+01  0.40659140162E+02  0.00000000000E+00 0.  1.
         11    1    3    3    0    0  0.42454840530E+01 -0.26281867564E+01 -0.18951125960E+01  0.53406883904E+01  0.51100000000E-03 0.  1.
        -11    1    3    3    0    0 -0.10085009449E+02  0.12316968547E+01  0.22482451617E+01  0.10405724352E+02  0.51100000000E-03 0. -1.
        -12    1    3    3    0    0 -0.30970781501E+02 -0.15608927923E+02  0.26439909655E+01  0.34782447095E+02  0.00000000000E+00 0.  1.
</event>
<event>
 7    1  0.5601662E-013  0.5052886E+02  0.7816164E-02  0.1300439E+00
        -11   -1    0    0    0    0  0.00000000000E+00  0.00000000000E+00  0.45593999997E+02  0.45594000000E+02  0.51100000000E-03 0. -1.
         11   -1    0    0    0    0 -0.00000000000E+00 -0.00000000000E+00 -0.45593999997E+02  0.45594000000E+02  0.51100000000E-03 0.  1.
    9900012    2    1    2    0    0  0.76175016088E+01  0.27936078890E+02  0.28543213665E+02  0.50528857352E+02  0.29999992408E+02 0.  0.
        -12    1    1    2    0    0 -0.76175016088E+01 -0.27936078890E+02 -0.28543213665E+02  0.40659142648E+02  0.00000000000E+00 0.  1.
         11    1    3    3    0    0  0.30890241437E+01  0.88716902197E+01  0.84599892507E+01  0.12642008381E+02  0.51100000000E-03 0. -1.
        -11    1    3    3    0    0  0.15366179623E+01  0.24458263286E+02  0.10892386108E+02  0.26818126577E+02  0.51100000000E-03 0.  1.
         12    1    3    3    0    0  0.29918595029E+01 -0.53938746161E+01  0.91908383072E+01  0.11068722395E+02  0.00000000000E+00 0. -1.
</event>
<event>
 7    1  0.5601662E-013  0.5052886E+02  0.7816164E-02  0.1300439E+00
        -11   -1    0    0    0    0  0.00000000000E+00  0.00000000000E+00  0.45593999997E+02  0.45594000000E+02  0.51100000000E-03 0.  1.
         11   -1    0    0    0    0 -0.00000000000E+00 -0.00000000000E+00 -0.45593999997E+02  0.45594000000E+02  0.51100000000E-03 0. -1.
    9900012    2    1    2    0    0 -0.22404601581E+02  0.87936549632E+01 -0.32769971500E+02  0.50528861153E+02  0.30000003961E+02 0.  0.
        -12    1    1    2    0    0  0.22404601581E+02 -0.87936549632E+01  0.32769971500E+02  0.40659138847E+02  0.00000000000E+00 0.  1.
         11    1    3    3    0    0 -0.14275904805E+02  0.47095422130E+01 -0.25402439319E+02  0.29517201247E+02  0.51100000000E-03 0. -1.
        -11    1    3    3    0    0  0.22928332695E+01  0.79132729242E+01 -0.50697643195E+01  0.96736489129E+01  0.51100000000E-03 0.  1.
        -12    1    3    3    0    0 -0.10421530046E+02 -0.38291601740E+01 -0.22977678618E+01  0.11338010993E+02  0.00000000000E+00 0.  1.
</event>
<event>
 7    1  0.5601662E-013  0.5052885E+02  0.7816164E-02  0.1300439E+00
        -11   -1    0    0    0    0  0.00000000000E+00  0.00000000000E+00  0.45593999997E+02  0.45594000000E+02  0.51100000000E-03 0. -1.
         11   -1    0    0    0    0 -0.00000000000E+00 -0.00000000000E+00 -0.45593999997E+02  0.45594000000E+02  0.51100000000E-03 0.  1.
    9900012    2    1    2    0    0  0.27958039557E+02 -0.29229564239E+02  0.41408663093E+01  0.50528853732E+02  0.29999981403E+02 0.  0.
        -12    1    1    2    0    0 -0.27958039557E+02  0.29229564239E+02 -0.41408663093E+01  0.40659146268E+02  0.00000000000E+00 0.  1.
         11    1    3    3    0    0 -0.42414298114E+01 -0.48680789973E+01  0.29790271347E+01  0.71107329369E+01  0.51100000000E-03 0.  1.
        -11    1    3    3    0    0  0.14489178507E+02 -0.16235486777E+02  0.73582161333E+01  0.22971083336E+02  0.51100000000E-03 0. -1.
         12    1    3    3    0    0  0.17710290862E+02 -0.81259984648E+01 -0.61963769587E+01  0.20447037459E+02  0.00000000000E+00 0. -1.
</event>
<event>
 7    1  0.5601662E-013  0.5052885E+02  0.7816164E-02  0.1300439E+00
        -11   -1    0    0    0    0  0.00000000000E+00  0.00000000000E+00  0.45593999997E+02  0.45594000000E+02  0.51100000000E-03 0.  1.
         11   -1    0    0    0    0 -0.00000000000E+00 -0.00000000000E+00 -0.45593999997E+02  0.45594000000E+02  0.51100000000E-03 0. -1.
    9900012    2    1    2    0    0 -0.14736739337E+00 -0.25305444731E+02 -0.31824194802E+02  0.50528848201E+02  0.29999964593E+02 0.  0.
        -12    1    1    2    0    0  0.14736739337E+00  0.25305444731E+02  0.31824194802E+02  0.40659151799E+02  0.00000000000E+00 0.  1.
         11    1    3    3    0    0 -0.29156832186E+01 -0.23781403055E+02 -0.16291497199E+02  0.28973595240E+02  0.51100000000E-03 0. -1.
        -11    1    3    3    0    0  0.22242368075E+01 -0.25832827101E+01  0.20198425041E+01  0.39623658259E+01  0.51100000000E-03 0.  1.
        -12    1    3    3    0    0  0.54407901775E+00  0.10592410342E+01 -0.17552540107E+02  0.17592887135E+02  0.00000000000E+00 0.  1.
</event>
<event>
 7    1  0.5601662E-013  0.5052884E+02  0.7816164E-02  0.1300439E+00
        -11   -1    0    0    0    0  0.00000000000E+00  0.00000000000E+00  0.45593999997E+02  0.45594000000E+02  0.51100000000E-03 0. -1.
         11   -1    0    0    0    0 -0.00000000000E+00 -0.00000000000E+00 -0.45593999997E+02  0.45594000000E+02  0.51100000000E-03 0.  1.
    9900012    2    1    2    0    0  0.12897433183E+02 -0.33554138328E+02  0.18998512528E+02  0.50528837934E+02  0.29999933385E+02 0.  0.
        -12    1    1    2    0    0 -0.12897433183E+02  0.33554138328E+02 -0.18998512528E+02  0.40659162066E+02  0.00000000000E+00 0.  1.
         11    1    3    3    0    0  0.11735137396E+02 -0.85546783433E+01  0.44911461261E+01  0.15200867246E+02  0.51100000000E-03 0. -1.
        -11    1    3    3    0    0  0.93211894238E+01 -0.49270622908E+01  0.48996006281E+01  0.11626117222E+02  0.51100000000E-03 0.  1.
         12    1    3    3    0    0 -0.81588936363E+01 -0.20072397694E+02  0.96077657734E+01  0.23701853465E+02  0.00000000000E+00 0. -1.
</event>
<event>
 7    1  0.5601662E-013  0.5052886E+02  0.7816164E-02  0.1300439E+00
        -11   -1    0    0    0    0  0.00000000000E+00  0.00000000000E+00  0.45593999997E+02  0.45594000000E+02  0.51100000000E-03 0.  1.
         11   -1    0    0    0    0 -0.00000000000E+00 -0.00000000000E+00 -0.45593999997E+02  0.45594000000E+02  0.51100000000E-03 0. -1.
    9900012    2    1    2    0    0 -0.15208298206E+01  0.57749982335E+01 -0.40218182786E+02  0.50528858905E+02  0.29999997129E+02 0.  0.
        -12    1    1    2    0    0  0.15208298206E+01 -0.57749982335E+01  0.40218182786E+02  0.40659141095E+02  0.00000000000E+00 0.  1.
         11    1    3    3    0    0 -0.35220345086E+01 -0.16633563578E+00 -0.25476125531E+02  0.25718969010E+02  0.51100000000E-03 0. -1.
        -11    1    3    3    0    0 -0.46983204886E+01 -0.46858057901E+01 -0.84958802466E+01  0.10780119329E+02  0.51100000000E-03 0.  1.
        -12    1    3    3    0    0  0.66995251765E+01  0.10627139659E+02 -0.62461770089E+01  0.14029770567E+02  0.00000000000E+00 0.  1.
</event>
<event>
 7    1  0.5601662E-013  0.5052886E+02  0.7816164E-02  0.1300439E+00
        -11   -1    0    0    0    0  0.00000000000E+00  0.00000000000E+00  0.45593999997E+02  0.45594000000E+02  0.51100000000E-03 0.  1.
         11   -1    0    0    0    0 -0.00000000000E+00 -0.00000000000E+00 -0.45593999997E+02  0.45594000000E+02  0.51100000000E-03 0. -1.
    9900012    2    1    2    0    0  0.37828520671E+02 -0.65271740321E+01 -0.13400188839E+02  0.50528855421E+02  0.29999986537E+02 0.  0.
        -12    1    1    2    0    0 -0.37828520671E+02  0.65271740321E+01  0.13400188839E+02  0.40659144579E+02  0.00000000000E+00 0.  1.
         11    1    3    3    0    0  0.31153711830E+02 -0.88125040651E+01 -0.84824861253E+01  0.33468889432E+02  0.51100000000E-03 0. -1.
        -11    1    3    3    0    0 -0.79782676691E+00 -0.54629883052E+01 -0.10387564054E+01  0.56178095289E+01  0.51100000000E-03 0.  1.
         12    1    3    3    0    0  0.74726356080E+01  0.77483183381E+01 -0.38789463082E+01  0.11442156460E+02  0.00000000000E+00 0. -1.
</event>
<event>
 7    1  0.5601662E-013  0.5052884E+02  0.7816164E-02  0.1300439E+00
        -11   -1    0    0    0    0  0.00000000000E+00  0.00000000000E+00  0.45593999997E+02  0.45594000000E+02  0.51100000000E-03 0. -1.
         11   -1    0    0    0    0 -0.00000000000E+00 -0.00000000000E+00 -0.45593999997E+02  0.45594000000E+02  0.51100000000E-03 0.  1.
    9900012    2    1    2    0    0  0.33721153878E+02  0.59012308016E+01  0.21936881477E+02  0.50528837284E+02  0.29999931408E+02 0.  0.
        -12    1    1    2    0    0 -0.33721153878E+02 -0.59012308016E+01 -0.21936881477E+02  0.40659162716E+02  0.00000000000E+00 0.  1.
         11    1    3    3    0    0  0.95795606757E+01  0.14522821010E+01  0.37209916046E+01  0.10378963572E+02  0.51100000000E-03 0. -1.
        -11    1    3    3    0    0  0.21048365932E+02 -0.82128094937E+01  0.97510990059E+01  0.24608288853E+02  0.51100000000E-03 0.  1.
        -12    1    3    3    0    0  0.30932272701E+01  0.12661758194E+02  0.84647908666E+01  0.15541584859E+02  0.00000000000E+00 0.  1.
</event>
<event>
 7    1  0.5601662E-013  0.5052887E+02  0.7816164E-02  0.1300439E+00
        -11   -1    0    0    0    0  0.00000000000E+00  0.00000000000E+00  0.45593999997E+02  0.45594000000E+02  0.51100000000E-03 0. -1.
         11   -1    0    0    0    0 -0.00000000000E+00 -0.00000000000E+00 -0.45593999997E+02  0.45594000000E+02  0.51100000000E-03 0.  1.
    9900012    2    1    2    0    0  0.22253937179E+02  0.32485844438E+02  0.10129037321E+02  0.50528865653E+02  0.30000017638E+02 0.  0.
        -12    1    1    2    0    0 -0.22253937179E+02 -0.32485844438E+02 -0.10129037321E+02  0.40659134347E+02  0.00000000000E+00 0.  1.
         11    1    3    3    0    0  0.12281481133E+01  0.63363101924E+01 -0.32323953343E+01  0.72184177283E+01  0.51100000000E-03 0.  1.
        -11    1    3    3    0    0  0.15641584217E+02  0.23387044837E+02  0.19853683992E+02  0.34435182464E+02  0.51100000000E-03 0. -1.
         12    1    3    3    0    0  0.53842048486E+01  0.27624894083E+01 -0.64922513359E+01  0.88752654603E+01  0.00000000000E+00 0. -1.
</event>
<event>
 7    1  0.5718653E-013  0.5052886E+02  0.7816164E-02  0.1300439E+00
        -11   -1    0    0    0    0  0.00000000000E+00  0.00000000000E+00  0.45593999997E+02  0.45594000000E+02  0.51100000000E-03 0. -1.
         11   -1    0    0    0    0 -0.00000000000E+00 -0.00000000000E+00 -0.45593999997E+02  0.45594000000E+02  0.51100000000E-03 0.  1.
    9900012    2    1    2    0    0  0.28979314564E+02 -0.19209081373E+02  0.21080227091E+02  0.50528862601E+02  0.30000008363E+02 0.  0.
        -12    1    1    2    0    0 -0.28979314564E+02  0.19209081373E+02 -0.21080227091E+02  0.40659137399E+02  0.00000000000E+00 0.  1.
         11    1    3    3    0    0  0.11802376653E+02 -0.51583009974E+01  0.58001578647E+01  0.14126075016E+02  0.51100000000E-03 0. -1.
        -11    1    3    3    0    0  0.15315023399E+02 -0.20291741242E+02  0.80379888274E+01  0.26662969995E+02  0.51100000000E-03 0.  1.
        -12    1    3    3    0    0  0.18619145119E+01  0.62409608659E+01  0.72420803990E+01  0.97398175899E+01  0.00000000000E+00 0.  1.
</event>
<event>
 7    1  0.5601662E-013  0.5052886E+02  0.7816164E-02  0.1300439E+00
        -11   -1    0    0    0    0  0.00000000000E+00  0.00000000000E+00  0.45593999997E+02  0.45594000000E+02  0.51100000000E-03 0.  1.
         11   -1    0    0    0    0 -0.00000000000E+00 -0.00000000000E+00 -0.45593999997E+02  0.45594000000E+02  0.51100000000E-03 0. -1.
    9900012    2    1    2    0    0  0.31782650328E+02 -0.23044398424E+02 -0.10582262169E+02  0.50528862857E+02  0.30000009140E+02 0.  0.
        -12    1    1    2    0    0 -0.31782650328E+02  0.23044398424E+02  0.10582262169E+02  0.40659137143E+02  0.00000000000E+00 0.  1.
         11    1    3    3    0    0  0.40335944606E+01  0.41882753891E+01  0.16893071671E+01  0.60551873607E+01  0.51100000000E-03 0.  1.
        -11    1    3    3    0    0  0.16260797045E+01  0.26157641355E+01 -0.77943187184E+00  0.31770853816E+01  0.51100000000E-03 0. -1.
         12    1    3    3    0    0  0.26122976163E+02 -0.29848437949E+02 -0.11492137465E+02  0.41296590115E+02  0.00000000000E+00 0. -1.
</event>
<event>
 7    1  0.5601662E-013  0.5052888E+02  0.7816164E-02  0.1300439E+00
        -11   -1    0    0    0    0  0.00000000000E+00  0.00000000000E+00  0.45593999997E+02  0.45594000000E+02  0.51100000000E-03 0. -1.
         11   -1    0    0    0    0 -0.00000000000E+00 -0.00000000000E+00 -0.45593999997E+02  0.45594000000E+02  0.51100000000E-03 0.  1.
    9900012    2    1    2    0    0 -0.53341620074E+01  0.21344879891E+02  0.34192208524E+02  0.50528876723E+02  0.30000051288E+02 0.  0.
        -12    1    1    2    0    0  0.53341620074E+01 -0.21344879891E+02 -0.34192208524E+02  0.40659123277E+02  0.00000000000E+00 0.  1.
         11    1    3    3    0    0  0.18926908234E+01  0.12200224021E+02  0.52138773538E+01  0.13401949934E+02  0.51100000000E-03 0. -1.
        -11    1    3    3    0    0  0.31609828018E+01  0.96924598652E+01  0.58189153175E+01  0.11738627102E+02  0.51100000000E-03 0.  1.
        -12    1    3    3    0    0 -0.10387835633E+02 -0.54780399510E+00  0.23159415853E+02  0.25388299687E+02  0.00000000000E+00 0.  1.
</event>
<event>
 7    1  0.5601662E-013  0.5052885E+02  0.7816164E-02  0.1300439E+00
        -11   -1    0    0    0    0  0.00000000000E+00  0.00000000000E+00  0.45593999997E+02  0.45594000000E+02  0.51100000000E-03 0.  1.
         11   -1    0    0    0    0 -0.00000000000E+00 -0.00000000000E+00 -0.45593999997E+02  0.45594000000E+02  0.51100000000E-03 0. -1.
    9900012    2    1    2    0    0  0.62891216239E+01 -0.68218156061E+01 -0.39586312410E+02  0.50528851593E+02  0.29999974902E+02 0.  0.
        -12    1    1    2    0    0 -0.62891216239E+01  0.68218156061E+01  0.39586312410E+02  0.40659148407E+02  0.00000000000E+00 0.  1.
         11    1    3    3    0    0  0.52700729480E+01  0.95115619619E+01 -0.13612470247E+02  0.17422480487E+02  0.51100000000E-03 0. -1.
        -11    1    3    3    0    0  0.12446871974E+01  0.18097465964E+01 -0.15862564521E+01  0.27093613187E+01  0.51100000000E-03 0.  1.
        -12    1    3    3    0    0 -0.22563852151E+00 -0.18143124164E+02 -0.24387585711E+02  0.30397009787E+02  0.00000000000E+00 0.  1.
</event>
<event>
 7    1  0.5601662E-013  0.5052883E+02  0.7816164E-02  0.1300439E+00
        -11   -1    0    0    0    0  0.00000000000E+00  0.00000000000E+00  0.45593999997E+02  0.45594000000E+02  0.51100000000E-03 0.  1.
         11   -1    0    0    0    0 -0.00000000000E+00 -0.00000000000E+00 -0.45593999997E+02  0.45594000000E+02  0.51100000000E-03 0. -1.
    9900012    2    1    2    0    0  0.19135687724E+02  0.60060591464E+01 -0.35368354515E+02  0.50528833847E+02  0.29999920961E+02 0.  0.
        -12    1    1    2    0    0 -0.19135687724E+02 -0.60060591464E+01  0.35368354515E+02  0.40659166153E+02  0.00000000000E+00 0.  1.
         11    1    3    3    0    0  0.77865046520E-02  0.22013370645E+01 -0.88620898551E+01  0.91314063738E+01  0.51100000000E-03 0. -1.
        -11    1    3    3    0    0 -0.11902284233E+00 -0.53296824612E+01 -0.17453211400E+02  0.18249226559E+02  0.51100000000E-03 0.  1.
         12    1    3    3    0    0  0.19246924062E+02  0.91344045431E+01 -0.90530532598E+01  0.23148200914E+02  0.00000000000E+00 0. -1.
</event>
<event>
 7    1  0.5601662E-013  0.5052888E+02  0.7816164E-02  0.1300439E+00
        -11   -1    0    0    0    0  0.00000000000E+00  0.00000000000E+00  0.45593999997E+02  0.45594000000E+02  0.51100000000E-03 0.  1.
         11   -1    0    0    0    0 -0.00000000000E+00 -0.00000000000E+00 -0.45593999997E+02  0.45594000000E+02  0.51100000000E-03 0. -1.
    9900012    2    1    2    0    0  0.22416993562E+02 -0.28309848379E+02 -0.18686760448E+02  0.50528878863E+02  0.30000057792E+02 0.  0.
        -12    1    1    2    0    0 -0.22416993562E+02  0.28309848379E+02  0.18686760448E+02  0.40659121137E+02  0.00000000000E+00 0.  1.
         11    1    3    3    0    0  0.41066712608E+01 -0.40820332829E+01  0.21315445117E+01  0.61701885574E+01  0.51100000000E-03 0. -1.
        -11    1    3    3    0    0  0.34294998837E+01 -0.10046511342E+02  0.46841012707E+01  0.11603217855E+02  0.51100000000E-03 0.  1.
         12    1    3    3    0    0  0.14880822417E+02 -0.14181303753E+02 -0.25502406230E+02  0.32755472451E+02  0.00000000000E+00 0. -1.
</event>
<event>
 7    1  0.5601662E-013  0.5052888E+02  0.7816164E-02  0.1300439E+00
        -11   -1    0    0    0    0  0.00000000000E+00  0.00000000000E+00  0.45593999997E+02  0.45594000000E+02  0.51100000000E-03 0.  1.
         11   -1    0    0    0    0 -0.00000000000E+00 -0.00000000000E+00 -0.45593999997E+02  0.45594000000E+02  0.51100000000E-03 0. -1.
    9900012    2    1    2    0    0  0.31358274064E+02 -0.15261061666E+02 -0.20902702366E+02  0.50528876526E+02  0.30000050689E+02 0.  0.
        -12    1    1    2    0    0 -0.31358274064E+02  0.15261061666E+02  0.20902702366E+02  0.40659123474E+02  0.00000000000E+00 0.  1.
         11    1    3    3    0    0  0.17586266355E+02 -0.12690934768E+01 -0.17006819502E+02  0.24497331945E+02  0.51100000000E-03 0. -1.
        -11    1    3    3    0    0  0.11534627487E+02 -0.13386176063E+02 -0.94318427546E+01  0.20029902618E+02  0.51100000000E-03 0.  1.
        -12    1    3    3    0    0  0.22373802215E+01 -0.60579212604E+00  0.55359598905E+01  0.60016419641E+01  0.00000000000E+00 0.  1.
</event>
<event>
 7    1  0.5601662E-013  0.5052886E+02  0.7816164E-02  0.1300439E+00
        -11   -1    0    0    0    0  0.00000000000E+00  0.00000000000E+00  0.45593999997E+02  0.45594000000E+02  0.51100000000E-03 0. -1.
         11   -1    0    0    0    0 -0.00000000000E+00 -0.00000000000E+00 -0.45593999997E+02  0.45594000000E+02  0.51100000000E-03 0.  1.
    9900012    2    1    2    0    0  0.18489706380E+02  0.42735012161E+01  0.35958771402E+02  0.50528864552E+02  0.30000014292E+02 0.  0.
        -12    1    1    2    0    0 -0.18489706380E+02 -0.42735012161E+01 -0.35958771402E+02  0.40659135448E+02  0.00000000000E+00 0.  1.
         11    1    3    3    0    0  0.33568702194E+00 -0.61665410554E+01  0.45990953039E+01  0.77000384570E+01  0.51100000000E-03 0. -1.
        -11    1    3    3    0    0  0.77277557522E+01 -0.20693842496E+01  0.59769725058E+00  0.80223314817E+01  0.51100000000E-03 0.  1.
        -12    1    3    3    0    0  0.10426263606E+02  0.12509426521E+02  0.30761978847E+02  0.34806494613E+02  0.00000000000E+00 0.  1.
</event>
<event>
 7    1  0.5601662E-013  0.5052886E+02  0.7816164E-02  0.1300439E+00
        -11   -1    0    0    0    0  0.00000000000E+00  0.00000000000E+00  0.45593999997E+02  0.45594000000E+02  0.51100000000E-03 0.  1.
         11   -1    0    0    0    0 -0.00000000000E+00 -0.00000000000E+00 -0.45593999997E+02  0.45594000000E+02  0.51100000000E-03 0. -1.
    9900012    2    1    2    0    0  0.10001488732E+02 -0.39405472483E+02 -0.58686876090E+00  0.50528862609E+02  0.30000008387E+02 0.  0.
        -12    1    1    2    0    0 -0.10001488732E+02  0.39405472483E+02  0.58686876090E+00  0.40659137391E+02  0.00000000000E+00 0.  1.
         11    1    3    3    0    0  0.13824498279E+01 -0.35893654141E+01  0.59052284534E+01  0.70474417309E+01  0.51100000000E-03 0. -1.
        -11    1    3    3    0    0  0.93023942356E+01 -0.31953907411E+01  0.13398011882E+01  0.99267380336E+01  0.51100000000E-03 0.  1.
         12    1    3    3    0    0 -0.68335533177E+00 -0.32620716327E+02 -0.78318984025E+01  0.33554682845E+02  0.00000000000E+00 0. -1.
</event>
<event>
 7    1  0.5601662E-013  0.5052884E+02  0.7816164E-02  0.1300439E+00
        -11   -1    0    0    0    0  0.00000000000E+00  0.00000000000E+00  0.45593999997E+02  0.45594000000E+02  0.51100000000E-03 0.  1.
         11   -1    0    0    0    0 -0.00000000000E+00 -0.00000000000E+00 -0.45593999997E+02  0.45594000000E+02  0.51100000000E-03 0. -1.
    9900012    2    1    2    0    0 -0.25172488748E+02 -0.11655512509E+02 -0.29726449418E+02  0.50528844124E+02  0.29999952198E+02 0.  0.
        -12    1    1    2    0    0  0.25172488748E+02  0.11655512509E+02  0.29726449418E+02  0.40659155876E+02  0.00000000000E+00 0.  1.
         11    1    3    3    0    0  0.17022303471E+01  0.18332041504E+01 -0.20730631601E+00  0.25102194687E+01  0.51100000000E-03 0. -1.
        -11    1    3    3    0    0  0.22049985472E+01 -0.51089027770E+01  0.24729549035E+00  0.55699247301E+01  0.51100000000E-03 0.  1.
         12    1    3    3    0    0 -0.29079717642E+02 -0.83798138821E+01 -0.29766438592E+02  0.42448699925E+02  0.00000000000E+00 0. -1.
</event>
<event>
 7    1  0.5601662E-013  0.5052886E+02  0.7816164E-02  0.1300439E+00
        -11   -1    0    0    0    0  0.00000000000E+00  0.00000000000E+00  0.45593999997E+02  0.45594000000E+02  0.51100000000E-03 0.  1.
         11   -1    0    0    0    0 -0.00000000000E+00 -0.00000000000E+00 -0.45593999997E+02  0.45594000000E+02  0.51100000000E-03 0. -1.
    9900012    2    1    2    0    0  0.19894436151E+02  0.26528356451E+02 -0.23529194334E+02  0.50528864842E+02  0.30000015175E+02 0.  0.
        -12    1    1    2    0    0 -0.19894436151E+02 -0.26528356451E+02  0.23529194334E+02  0.40659135158E+02  0.00000000000E+00 0.  1.
         11    1    3    3    0    0  0.75632228838E+01 -0.10689060201E+01 -0.98743524209E+01  0.12483899089E+02  0.51100000000E-03 0. -1.
        -11    1    3    3    0    0  0.12470295163E+02  0.94940765371E+01 -0.52620565559E+00  0.15681920909E+02  0.51100000000E-03 0.  1.
        -12    1    3    3    0    0 -0.13908189590E+00  0.18103185934E+02 -0.13128636258E+02  0.22363044844E+02  0.00000000000E+00 0.  1.
</event>
<event>
 7    1  0.5601662E-013  0.5052886E+02  0.7816164E-02  0.1300439E+00
        -11   -1    0    0    0    0  0.00000000000E+00  0.00000000000E+00  0.45593999997E+02  0.45594000000E+02  0.51100000000E-03 0.  1.
         11   -1    0    0    0    0 -0.00000000000E+00 -0.00000000000E+00 -0.45593999997E+02  0.45594000000E+02  0.51100000000E-03 0. -1.
    9900012    2    1    2    0    0  0.35786636751E+01  0.20126148033E+02 -0.35146788053E+02  0.50528863527E+02  0.30000011176E+02 0.  0.
        -12    1    1    2    0    0 -0.35786636751E+01 -0.20126148033E+02  0.35146788053E+02  0.40659136473E+02  0.00000000000E+00 0.  1.
         11    1    3    3    0    0  0.61690149245E-01  0.91140008986E+01 -0.22431910518E+02  0.24212794712E+02  0.51100000000E-03 0. -1.
        -11    1    3    3    0    0  0.57934408481E+01  0.69462486688E+00 -0.14473157838E+02  0.15605087588E+02  0.51100000000E-03 0.  1.
        -12    1    3    3    0    0 -0.22764673222E+01  0.10317522267E+02  0.17582803034E+01  0.10710981226E+02  0.00000000000E+00 0.  1.
</event>
<event>
 7    1  0.5601662E-013  0.5052887E+02  0.7816164E-02  0.1300439E+00
        -11   -1    0    0    0    0  0.00000000000E+00  0.00000000000E+00  0.45593999997E+02  0.45594000000E+02  0.51100000000E-03 0. -1.
         11   -1    0    0    0    0 -0.00000000000E+00 -0.00000000000E+00 -0.45593999997E+02  0.45594000000E+02  0.51100000000E-03 0.  1.
    9900012    2    1    2    0    0 -0.29135549921E+02  0.28187821746E+02  0.31195583053E+01  0.50528865627E+02  0.30000017559E+02 0.  0.
        -12    1    1    2    0    0  0.29135549921E+02 -0.28187821746E+02 -0.31195583053E+01  0.40659134373E+02  0.00000000000E+00 0.  1.
         11    1    3    3    0    0  0.51794190437E+00 -0.28920640387E+01  0.87000549831E+00  0.30641814647E+01  0.51100000000E-03 0. -1.
        -11    1    3    3    0    0  0.18128963604E+01  0.74554751718E+01  0.26423293620E+01  0.81149619820E+01  0.51100000000E-03 0.  1.
         12    1    3    3    0    0 -0.31466388185E+02  0.23624410613E+02 -0.39277655505E+00  0.39349722180E+02  0.00000000000E+00 0. -1.
</event>
<event>
 7    1  0.5601662E-013  0.5052886E+02  0.7816164E-02  0.1300439E+00
        -11   -1    0    0    0    0  0.00000000000E+00  0.00000000000E+00  0.45593999997E+02  0.45594000000E+02  0.51100000000E-03 0. -1.
         11   -1    0    0    0    0 -0.00000000000E+00 -0.00000000000E+00 -0.45593999997E+02  0.45594000000E+02  0.51100000000E-03 0.  1.
    9900012    2    1    2    0    0 -0.22921928438E+02 -0.33503858413E+02  0.22895784854E+01  0.50528862017E+02  0.30000006588E+02 0.  0.
        -12    1    1    2    0    0  0.22921928438E+02  0.33503858413E+02 -0.22895784854E+01  0.40659137983E+02  0.00000000000E+00 0.  1.
         11    1    3    3    0    0 -0.54623296128E+01 -0.65108384804E+01 -0.94350663904E+01  0.12698367634E+02  0.51100000000E-03 0. -1.
        -11    1    3    3    0    0 -0.36949899021E+01 -0.42361295862E-01 -0.24289087728E+01  0.44220292789E+01  0.51100000000E-03 0.  1.
         12    1    3    3    0    0 -0.13764608923E+02 -0.26950658636E+02  0.14153553649E+02  0.33408465104E+02  0.00000000000E+00 0. -1.
</event>
<event>
 7    1  0.5601662E-013  0.5052886E+02  0.7816164E-02  0.1300439E+00
        -11   -1    0    0    0    0  0.00000000000E+00  0.00000000000E+00  0.45593999997E+02  0.45594000000E+02  0.51100000000E-03 0.  1.
         11   -1    0    0    0    0 -0.00000000000E+00 -0.00000000000E+00 -0.45593999997E+02  0.45594000000E+02  0.51100000000E-03 0. -1.
    9900012    2    1    2    0    0 -0.37858249072E+02  0.14261737689E+02  0.40646830797E+01  0.50528857938E+02  0.29999994187E+02 0.  0.
        -12    1    1    2    0    0  0.37858249072E+02 -0.14261737689E+02 -0.40646830797E+01  0.40659142062E+02  0.00000000000E+00 0.  1.
         11    1    3    3    0    0 -0.16822178614E+02 -0.19900435145E+01 -0.33655893438E+01  0.17270586510E+02  0.51100000000E-03 0. -1.
        -11    1    3    3    0    0 -0.90053408926E+01 -0.31271070097E+01  0.11646239468E+01  0.96037134506E+01  0.51100000000E-03 0.  1.
        -12    1    3    3    0    0 -0.12030729566E+02  0.19378888213E+02  0.62656484768E+01  0.23654557977E+02  0.00000000000E+00 0.  1.
</event>
<event>
 7    1  0.5601662E-013  0.5052886E+02  0.7816164E-02  0.1300439E+00
        -11   -1    0    0    0    0  0.00000000000E+00  0.00000000000E+00  0.45593999997E+02  0.45594000000E+02  0.51100000000E-03 0.  1.
         11   -1    0    0    0    0 -0.00000000000E+00 -0.00000000000E+00 -0.45593999997E+02  0.45594000000E+02  0.51100000000E-03 0. -1.
    9900012    2    1    2    0    0 -0.56830758022E+01 -0.38787518063E+02 -0.10788723587E+02  0.50528862470E+02  0.30000007965E+02 0.  0.
        -12    1    1    2    0    0  0.56830758022E+01  0.38787518063E+02  0.10788723587E+02  0.40659137530E+02  0.00000000000E+00 0.  1.
         11    1    3    3    0    0  0.10145441485E+02 -0.13972201977E+02 -0.45631623856E+01  0.17859867363E+02  0.51100000000E-03 0. -1.
        -11    1    3    3    0    0  0.16297439954E+01 -0.60213807380E+01 -0.26174322450E+01  0.67649126602E+01  0.51100000000E-03 0.  1.
         12    1    3    3    0    0 -0.17458261282E+02 -0.18793935348E+02 -0.36081289563E+01  0.25904082447E+02  0.00000000000E+00 0. -1.
</event>
<event>
 7    1  0.5601662E-013  0.5052887E+02  0.7816164E-02  0.1300439E+00
        -11   -1    0    0    0    0  0.00000000000E+00  0.00000000000E+00  0.45593999997E+02  0.45594000000E+02  0.51100000000E-03 0.  1.
         11   -1    0    0    0    0 -0.00000000000E+00 -0.00000000000E+00 -0.45593999997E+02  0.45594000000E+02  0.51100000000E-03 0. -1.
    9900012    2    1    2    0    0 -0.12784681179E+01  0.18347565657E+01 -0.40597583700E+02  0.50528872923E+02  0.30000039736E+02 0.  0.
        -12    1    1    2    0    0  0.12784681179E+01 -0.18347565657E+01  0.40597583700E+02  0.40659127077E+02  0.00000000000E+00 0.  1.
         11    1    3    3    0    0  0.11541491895E+02  0.50029248426E+01 -0.18925361886E+02  0.22724537727E+02  0.51100000000E-03 0. -1.
        -11    1    3    3    0    0  0.46842150685E+00  0.22268348418E+01 -0.66944288715E+00  0.23719962397E+01  0.51100000000E-03 0.  1.
         12    1    3    3    0    0 -0.13288381520E+02 -0.53950031187E+01 -0.21002778928E+02  0.25432338956E+02  0.00000000000E+00 0. -1.
</event>
<event>
 7    1  0.5601662E-013  0.5052886E+02  0.7816164E-02  0.1300439E+00
        -11   -1    0    0    0    0  0.00000000000E+00  0.00000000000E+00  0.45593999997E+02  0.45594000000E+02  0.51100000000E-03 0. -1.
         11   -1    0    0    0    0 -0.00000000000E+00 -0.00000000000E+00 -0.45593999997E+02  0.45594000000E+02  0.51100000000E-03 0.  1.
    9900012    2    1    2    0    0 -0.14420012925E+02  0.50748803945E+01  0.37675913966E+02  0.50528859860E+02  0.30000000029E+02 0.  0.
        -12    1    1    2    0    0  0.14420012925E+02 -0.50748803945E+01 -0.37675913966E+02  0.40659140140E+02  0.00000000000E+00 0.  1.
         11    1    3    3    0    0 -0.97852360828E+00 -0.74339832608E+01  0.10429999006E+02  0.12845485398E+02  0.51100000000E-03 0. -1.
        -11    1    3    3    0    0 -0.24728659108E+01  0.53295314159E+00  0.19548756430E+02  0.19711747338E+02  0.51100000000E-03 0.  1.
        -12    1    3    3    0    0 -0.10968623406E+02  0.11975910514E+02  0.76971585295E+01  0.17971627124E+02  0.00000000000E+00 0.  1.
</event>
<event>
 7    1  0.5601662E-013  0.5052875E+02  0.7816164E-02  0.1300439E+00
        -11   -1    0    0    0    0  0.00000000000E+00  0.00000000000E+00  0.45593999997E+02  0.45594000000E+02  0.51100000000E-03 0. -1.
         11   -1    0    0    0    0 -0.00000000000E+00 -0.00000000000E+00 -0.45593999997E+02  0.45594000000E+02  0.51100000000E-03 0.  1.
    9900012    2    1    2    0    0  0.27729103195E+02 -0.82059938429E+01  0.28582048673E+02  0.50528745146E+02  0.29999651344E+02 0.  0.
        -12    1    1    2    0    0 -0.27729103195E+02  0.82059938429E+01 -0.28582048673E+02  0.40659254854E+02  0.00000000000E+00 0.  1.
         11    1    3    3    0    0  0.10961652868E+02  0.34619547653E+01  0.28336502251E+01  0.11839448394E+02  0.51100000000E-03 0. -1.
        -11    1    3    3    0    0  0.47355681688E+01 -0.11824506338E+02  0.32034909707E+01  0.13134188619E+02  0.51100000000E-03 0.  1.
         12    1    3    3    0    0  0.12031882158E+02  0.15655772956E+00  0.22544907477E+02  0.25555108134E+02  0.00000000000E+00 0. -1.
</event>
<event>
 7    1  0.5601662E-013  0.5052885E+02  0.7816164E-02  0.1300439E+00
        -11   -1    0    0    0    0  0.00000000000E+00  0.00000000000E+00  0.45593999997E+02  0.45594000000E+02  0.51100000000E-03 0.  1.
         11   -1    0    0    0    0 -0.00000000000E+00 -0.00000000000E+00 -0.45593999997E+02  0.45594000000E+02  0.51100000000E-03 0. -1.
    9900012    2    1    2    0    0 -0.12727635073E+02 -0.38566310443E+02 -0.19527278576E+01  0.50528854143E+02  0.29999982653E+02 0.  0.
        -12    1    1    2    0    0  0.12727635073E+02  0.38566310443E+02  0.19527278576E+01  0.40659145857E+02  0.00000000000E+00 0.  1.
         11    1    3    3    0    0 -0.14449533098E+02 -0.21643605766E+02 -0.12575040860E+01  0.26054097453E+02  0.51100000000E-03 0. -1.
        -11    1    3    3    0    0 -0.10286958823E+01 -0.95647862833E+01  0.81764131391E+01  0.12625255797E+02  0.51100000000E-03 0.  1.
         12    1    3    3    0    0  0.27505939077E+01 -0.73579183942E+01 -0.88716369107E+01  0.11849500893E+02  0.00000000000E+00 0. -1.
</event>
<event>
 7    1  0.5601662E-013  0.5052884E+02  0.7816164E-02  0.1300439E+00
        -11   -1    0    0    0    0  0.00000000000E+00  0.00000000000E+00  0.45593999997E+02  0.45594000000E+02  0.51100000000E-03 0.  1.
         11   -1    0    0    0    0 -0.00000000000E+00 -0.00000000000E+00 -0.45593999997E+02  0.45594000000E+02  0.51100000000E-03 0. -1.
    9900012    2    1    2    0    0  0.14875884498E+02 -0.28419190727E+02 -0.24984486309E+02  0.50528844852E+02  0.29999954413E+02 0.  0.
        -12    1    1    2    0    0 -0.14875884498E+02  0.28419190727E+02  0.24984486309E+02  0.40659155148E+02  0.00000000000E+00 0.  1.
         11    1    3    3    0    0  0.20630101377E+01  0.12950760257E+01 -0.20220932550E+01  0.31657691220E+01  0.51100000000E-03 0. -1.
        -11    1    3    3    0    0  0.73537636207E+01 -0.14792027556E+01 -0.16153341614E+02  0.17810006338E+02  0.51100000000E-03 0.  1.
         12    1    3    3    0    0  0.54591107395E+01 -0.28235063998E+02 -0.68090514400E+01  0.29553069393E+02  0.00000000000E+00 0. -1.
</event>
<event>
 7    1  0.5601662E-013  0.5052886E+02  0.7816164E-02  0.1300439E+00
        -11   -1    0    0    0    0  0.00000000000E+00  0.00000000000E+00  0.45593999997E+02  0.45594000000E+02  0.51100000000E-03 0. -1.
         11   -1    0    0    0    0 -0.00000000000E+00 -0.00000000000E+00 -0.45593999997E+02  0.45594000000E+02  0.51100000000E-03 0.  1.
    9900012    2    1    2    0    0  0.35145816665E+02  0.91445225629E+01  0.18284286426E+02  0.50528857706E+02  0.29999993484E+02 0.  0.
        -12    1    1    2    0    0 -0.35145816665E+02 -0.91445225629E+01 -0.18284286426E+02  0.40659142294E+02  0.00000000000E+00 0.  1.
         11    1    3    3    0    0  0.78260315460E+01 -0.52915242135E+01 -0.71877281917E+00  0.94743671497E+01  0.51100000000E-03 0. -1.
        -11    1    3    3    0    0  0.15153163694E+02  0.11463291168E+02  0.87521049795E+00  0.19020815125E+02  0.51100000000E-03 0.  1.
         12    1    3    3    0    0  0.12166621425E+02  0.29727556079E+01  0.18127848747E+02  0.22033675431E+02  0.00000000000E+00 0. -1.
</event>
<event>
 7    1  0.5601662E-013  0.5052886E+02  0.7816164E-02  0.1300439E+00
        -11   -1    0    0    0    0  0.00000000000E+00  0.00000000000E+00  0.45593999997E+02  0.45594000000E+02  0.51100000000E-03 0.  1.
         11   -1    0    0    0    0 -0.00000000000E+00 -0.00000000000E+00 -0.45593999997E+02  0.45594000000E+02  0.51100000000E-03 0. -1.
    9900012    2    1    2    0    0 -0.23620779999E+02  0.32832253738E+02 -0.41554214611E+01  0.50528860058E+02  0.30000000633E+02 0.  0.
        -12    1    1    2    0    0  0.23620779999E+02 -0.32832253738E+02  0.41554214611E+01  0.40659139942E+02  0.00000000000E+00 0.  1.
         11    1    3    3    0    0 -0.75603858743E+01  0.23300398869E-01 -0.38064051591E+01  0.84645553914E+01  0.51100000000E-03 0. -1.
        -11    1    3    3    0    0 -0.17800140573E+02  0.12686869828E+02  0.20279490786E+00  0.21859615653E+02  0.51100000000E-03 0.  1.
        -12    1    3    3    0    0  0.17397464486E+01  0.20122083511E+02 -0.55181120983E+00  0.20204689014E+02  0.00000000000E+00 0.  1.
</event>
<event>
 7    1  0.5601662E-013  0.5052885E+02  0.7816164E-02  0.1300439E+00
        -11   -1    0    0    0    0  0.00000000000E+00  0.00000000000E+00  0.45593999997E+02  0.45594000000E+02  0.51100000000E-03 0.  1.
         11   -1    0    0    0    0 -0.00000000000E+00 -0.00000000000E+00 -0.45593999997E+02  0.45594000000E+02  0.51100000000E-03 0. -1.
    9900012    2    1    2    0    0 -0.26680325406E+02  0.17731978881E+02 -0.25038037889E+02  0.50528853672E+02  0.29999981221E+02 0.  0.
        -12    1    1    2    0    0  0.26680325406E+02 -0.17731978881E+02  0.25038037889E+02  0.40659146328E+02  0.00000000000E+00 0.  1.
         11    1    3    3    0    0 -0.68773351772E+01  0.15648387660E+02 -0.17922861389E+02  0.24766887897E+02  0.51100000000E-03 0. -1.
        -11    1    3    3    0    0 -0.15338263349E+02  0.73078114536E+01 -0.18219290319E+01  0.17087593641E+02  0.51100000000E-03 0.  1.
        -12    1    3    3    0    0 -0.44647268802E+01 -0.52242202323E+01 -0.52932474674E+01  0.86743721330E+01  0.00000000000E+00 0.  1.
</event>
<event>
 7    1  0.5601662E-013  0.5052885E+02  0.7816164E-02  0.1300439E+00
        -11   -1    0    0    0    0  0.00000000000E+00  0.00000000000E+00  0.45593999997E+02  0.45594000000E+02  0.51100000000E-03 0. -1.
         11   -1    0    0    0    0 -0.00000000000E+00 -0.00000000000E+00 -0.45593999997E+02  0.45594000000E+02  0.51100000000E-03 0.  1.
    9900012    2    1    2    0    0 -0.34592074350E+01 -0.11597314461E+02  0.38816262925E+02  0.50528854826E+02  0.29999984729E+02 0.  0.
        -12    1    1    2    0    0  0.34592074350E+01  0.11597314461E+02 -0.38816262925E+02  0.40659145174E+02  0.00000000000E+00 0.  1.
         11    1    3    3    0    0  0.13338325309E+01  0.17116481237E+00  0.17121866750E+00  0.13556263153E+01  0.51100000000E-03 0. -1.
        -11    1    3    3    0    0  0.46777645280E+01 -0.15913134919E+02  0.11657303505E+02  0.20273185965E+02  0.51100000000E-03 0.  1.
         12    1    3    3    0    0 -0.94708044939E+01  0.41446556451E+01  0.26987740753E+02  0.28900042545E+02  0.00000000000E+00 0. -1.
</event>
<event>
 7    1  0.5601662E-013  0.5052887E+02  0.7816164E-02  0.1300439E+00
        -11   -1    0    0    0    0  0.00000000000E+00  0.00000000000E+00  0.45593999997E+02  0.45594000000E+02  0.51100000000E-03 0.  1.
         11   -1    0    0    0    0 -0.00000000000E+00 -0.00000000000E+00 -0.45593999997E+02  0.45594000000E+02  0.51100000000E-03 0. -1.
    9900012    2    1    2    0    0  0.32775223384E+02 -0.77960932323E+00 -0.24048743269E+02  0.50528866815E+02  0.30000021171E+02 0.  0.
        -12    1    1    2    0    0 -0.32775223384E+02  0.77960932323E+00  0.24048743269E+02  0.40659133185E+02  0.00000000000E+00 0.  1.
         11    1    3    3    0    0  0.52149144697E+01 -0.73927226982E+01 -0.14124924252E+02  0.16773823869E+02  0.51100000000E-03 0. -1.
        -11    1    3    3    0    0  0.34874243399E+01 -0.23243348666E+01 -0.66614992748E+01  0.78702118109E+01  0.51100000000E-03 0.  1.
         12    1    3    3    0    0  0.24072884574E+02  0.89374482417E+01 -0.32623197422E+01  0.25884831135E+02  0.00000000000E+00 0. -1.
</event>
<event>
 7    1  0.5601662E-013  0.5052886E+02  0.7816164E-02  0.1300439E+00
        -11   -1    0    0    0    0  0.00000000000E+00  0.00000000000E+00  0.45593999997E+02  0.45594000000E+02  0.51100000000E-03 0. -1.
         11   -1    0    0    0    0 -0.00000000000E+00 -0.00000000000E+00 -0.45593999997E+02  0.45594000000E+02  0.51100000000E-03 0.  1.
    9900012    2    1    2    0    0  0.31609586027E+02 -0.21177616985E+02  0.14335562246E+02  0.50528859147E+02  0.29999997865E+02 0.  0.
        -12    1    1    2    0    0 -0.31609586027E+02  0.21177616985E+02 -0.14335562246E+02  0.40659140853E+02  0.00000000000E+00 0.  1.
         11    1    3    3    0    0  0.18218278014E+02 -0.16957539864E+02  0.84819471537E+01  0.26294623781E+02  0.51100000000E-03 0. -1.
        -11    1    3    3    0    0 -0.29851926165E+01 -0.35455050340E+01  0.63198112345E+01  0.78372185886E+01  0.51100000000E-03 0.  1.
         12    1    3    3    0    0  0.16376500629E+02 -0.67457208758E+00 -0.46619614206E+00  0.16397016778E+02  0.00000000000E+00 0. -1.
</event>
<event>
 7    1  0.5601662E-013  0.5052887E+02  0.7816164E-02  0.1300439E+00
        -11   -1    0    0    0    0  0.00000000000E+00  0.00000000000E+00  0.45593999997E+02  0.45594000000E+02  0.51100000000E-03 0.  1.
         11   -1    0    0    0    0 -0.00000000000E+00 -0.00000000000E+00 -0.45593999997E+02  0.45594000000E+02  0.51100000000E-03 0. -1.
    9900012    2    1    2    0    0  0.15345755271E+02  0.20501539541E+02 -0.31581001749E+02  0.50528868186E+02  0.30000025337E+02 0.  0.
        -12    1    1    2    0    0 -0.15345755271E+02 -0.20501539541E+02  0.31581001749E+02  0.40659131814E+02  0.00000000000E+00 0.  1.
         11    1    3    3    0    0  0.58483189469E+01  0.29812399829E+01 -0.35355744018E+00  0.65738595562E+01  0.51100000000E-03 0. -1.
        -11    1    3    3    0    0  0.51222196102E+01 -0.17605390281E+01  0.15875645359E+01  0.56441999275E+01  0.51100000000E-03 0.  1.
        -12    1    3    3    0    0  0.43752167137E+01  0.19280838587E+02 -0.32815008845E+02  0.38310808702E+02  0.00000000000E+00 0.  1.
</event>
<event>
 7    1  0.5601662E-013  0.5052886E+02  0.7816164E-02  0.1300439E+00
        -11   -1    0    0    0    0  0.00000000000E+00  0.00000000000E+00  0.45593999997E+02  0.45594000000E+02  0.51100000000E-03 0.  1.
         11   -1    0    0    0    0 -0.00000000000E+00 -0.00000000000E+00 -0.45593999997E+02  0.45594000000E+02  0.51100000000E-03 0. -1.
    9900012    2    1    2    0    0  0.63835564959E+01 -0.69704789664E+01 -0.39545271356E+02  0.50528857643E+02  0.29999993293E+02 0.  0.
        -12    1    1    2    0    0 -0.63835564959E+01  0.69704789664E+01  0.39545271356E+02  0.40659142357E+02  0.00000000000E+00 0.  1.
         11    1    3    3    0    0 -0.51101617790E+01 -0.45538360955E+00 -0.10365044123E+02  0.11565261241E+02  0.51100000000E-03 0. -1.
        -11    1    3    3    0    0  0.79427731138E+01  0.83480287170E+00 -0.29728378054E+02  0.30782478824E+02  0.51100000000E-03 0.  1.
        -12    1    3    3    0    0  0.35509451611E+01 -0.73498982286E+01  0.54815082100E+00  0.81811175783E+01  0.00000000000E+00 0.  1.
</event>
<event>
 7    1  0.5601662E-013  0.5052886E+02  0.7816164E-02  0.1300439E+00
        -11   -1    0    0    0    0  0.00000000000E+00  0.00000000000E+00  0.45593999997E+02  0.45594000000E+02  0.51100000000E-03 0.  1.
         11   -1    0    0    0    0 -0.00000000000E+00 -0.00000000000E+00 -0.45593999997E+02  0.45594000000E+02  0.51100000000E-03 0. -1.
    9900012    2    1    2    0    0 -0.37925242973E+02 -0.14633534648E+01 -0.14584243815E+02  0.50528860491E+02  0.30000001949E+02 0.  0.
        -12    1    1    2    0    0  0.37925242973E+02  0.14633534648E+01  0.14584243815E+02  0.40659139509E+02  0.00000000000E+00 0.  1.
         11    1    3    3    0    0  0.29341860702E+01  0.37310094002E+01 -0.14755165001E+01  0.49706164851E+01  0.51100000000E-03 0. -1.
        -11    1    3    3    0    0 -0.32605748945E+01 -0.50029125115E+01 -0.26365817011E+01  0.65277902516E+01  0.51100000000E-03 0.  1.
        -12    1    3    3    0    0 -0.37598854149E+02 -0.19145035349E+00 -0.10472145614E+02  0.39030453755E+02  0.00000000000E+00 0.  1.
</event>
<event>
 7    1  0.5601662E-013  0.5052886E+02  0.7816164E-02  0.1300439E+00
        -11   -1    0    0    0    0  0.00000000000E+00  0.00000000000E+00  0.45593999997E+02  0.45594000000E+02  0.51100000000E-03 0.  1.
         11   -1    0    0    0    0 -0.00000000000E+00 -0.00000000000E+00 -0.45593999997E+02  0.45594000000E+02  0.51100000000E-03 0. -1.
    9900012    2    1    2    0    0 -0.32484669978E+02 -0.18989374088E+02 -0.15405036883E+02  0.50528864825E+02  0.30000015121E+02 0.  0.
        -12    1    1    2    0    0  0.32484669978E+02  0.18989374088E+02  0.15405036883E+02  0.40659135175E+02  0.00000000000E+00 0.  1.
         11    1    3    3    0    0 -0.75848225451E+01 -0.10916251719E+02  0.35241792253E+01  0.13751869840E+02  0.51100000000E-03 0. -1.
        -11    1    3    3    0    0  0.94681036257E+00  0.23039452495E+01 -0.51107749899E+01  0.56854757790E+01  0.51100000000E-03 0.  1.
         12    1    3    3    0    0 -0.25846657795E+02 -0.10377067619E+02 -0.13818441119E+02  0.31091519205E+02  0.00000000000E+00 0. -1.
</event>
<event>
 7    1  0.5601662E-013  0.5052886E+02  0.7816164E-02  0.1300439E+00
        -11   -1    0    0    0    0  0.00000000000E+00  0.00000000000E+00  0.45593999997E+02  0.45594000000E+02  0.51100000000E-03 0. -1.
         11   -1    0    0    0    0 -0.00000000000E+00 -0.00000000000E+00 -0.45593999997E+02  0.45594000000E+02  0.51100000000E-03 0.  1.
    9900012    2    1    2    0    0  0.30359751873E+02 -0.12861649678E+02  0.23791374520E+02  0.50528855053E+02  0.29999985420E+02 0.  0.
        -12    1    1    2    0    0 -0.30359751873E+02  0.12861649678E+02 -0.23791374520E+02  0.40659144947E+02  0.00000000000E+00 0.  1.
         11    1    3    3    0    0  0.11864360944E+02 -0.87471930407E+01  0.47249003883E+01  0.15479054578E+02  0.51100000000E-03 0. -1.
        -11    1    3    3    0    0  0.13954399208E+02  0.44702476237E+01  0.11844388080E+01  0.14700723336E+02  0.51100000000E-03 0.  1.
         12    1    3    3    0    0  0.45409917218E+01 -0.85847042613E+01  0.17882035324E+02  0.20349077139E+02  0.00000000000E+00 0. -1.
</event>
<event>
 7    1  0.5601662E-013  0.5052886E+02  0.7816164E-02  0.1300439E+00
        -11   -1    0    0    0    0  0.00000000000E+00  0.00000000000E+00  0.45593999997E+02  0.45594000000E+02  0.51100000000E-03 0.  1.
         11   -1    0    0    0    0 -0.00000000000E+00 -0.00000000000E+00 -0.45593999997E+02  0.45594000000E+02  0.51100000000E-03 0. -1.
    9900012    2    1    2    0    0 -0.11737252867E+02 -0.31350724039E+02 -0.23076715905E+02  0.50528858105E+02  0.29999994697E+02 0.  0.
        -12    1    1    2    0    0  0.11737252867E+02  0.31350724039E+02  0.23076715905E+02  0.40659141895E+02  0.00000000000E+00 0.  1.
         11    1    3    3    0    0 -0.13436324242E+02 -0.25561447212E+02 -0.25952009774E+02  0.38825625613E+02  0.51100000000E-03 0. -1.
        -11    1    3    3    0    0 -0.34933844806E+00 -0.11450975208E+01 -0.34159454200E+01  0.36196642188E+01  0.51100000000E-03 0.  1.
        -12    1    3    3    0    0  0.20484098234E+01 -0.46441793066E+01  0.62912392887E+01  0.80835682730E+01  0.00000000000E+00 0.  1.
</event>
<event>
 7    1  0.5601662E-013  0.5052886E+02  0.7816164E-02  0.1300439E+00
        -11   -1    0    0    0    0  0.00000000000E+00  0.00000000000E+00  0.45593999997E+02  0.45594000000E+02  0.51100000000E-03 0. -1.
         11   -1    0    0    0    0 -0.00000000000E+00 -0.00000000000E+00 -0.45593999997E+02  0.45594000000E+02  0.51100000000E-03 0.  1.
    9900012    2    1    2    0    0  0.22564710963E+02 -0.29733081615E+02  0.16122769709E+02  0.50528855564E+02  0.29999986973E+02 0.  0.
        -12    1    1    2    0    0 -0.22564710963E+02  0.29733081615E+02 -0.16122769709E+02  0.40659144436E+02  0.00000000000E+00 0.  1.
         11    1    3    3    0    0  0.25906092105E+01 -0.82036530278E+01  0.67149607201E+01  0.10913380632E+02  0.51100000000E-03 0. -1.
        -11    1    3    3    0    0  0.10149929150E+02 -0.21344595730E+02  0.15303156636E+02  0.28156694264E+02  0.51100000000E-03 0.  1.
        -12    1    3    3    0    0  0.98241726028E+01 -0.18483285734E+00 -0.58953476471E+01  0.11458780668E+02  0.00000000000E+00 0.  1.
</event>
<event>
 7    1  0.5601662E-013  0.5052886E+02  0.7816164E-02  0.1300439E+00
        -11   -1    0    0    0    0  0.00000000000E+00  0.00000000000E+00  0.45593999997E+02  0.45594000000E+02  0.51100000000E-03 0. -1.
         11   -1    0    0    0    0 -0.00000000000E+00 -0.00000000000E+00 -0.45593999997E+02  0.45594000000E+02  0.51100000000E-03 0.  1.
    9900012    2    1    2    0    0 -0.16182720524E+02  0.37262313498E+02 -0.16748873755E+01  0.50528859594E+02  0.29999999222E+02 0.  0.
        -12    1    1    2    0    0  0.16182720524E+02 -0.37262313498E+02  0.16748873755E+01  0.40659140406E+02  0.00000000000E+00 0.  1.
         11    1    3    3    0    0  0.35759961484E+01  0.56851786627E+01  0.13992932937E+01  0.68605412952E+01  0.51100000000E-03 0. -1.
        -11    1    3    3    0    0  0.43340450942E+01  0.10996307952E+02  0.12964883482E+00  0.11820302218E+02  0.51100000000E-03 0.  1.
         12    1    3    3    0    0 -0.24092761767E+02  0.20580826884E+02 -0.32038295041E+01  0.31848016081E+02  0.00000000000E+00 0. -1.
</event>
<event>
 7    1  0.5601662E-013  0.5052887E+02  0.7816164E-02  0.1300439E+00
        -11   -1    0    0    0    0  0.00000000000E+00  0.00000000000E+00  0.45593999997E+02  0.45594000000E+02  0.51100000000E-03 0. -1.
         11   -1    0    0    0    0 -0.00000000000E+00 -0.00000000000E+00 -0.45593999997E+02  0.45594000000E+02  0.51100000000E-03 0.  1.
    9900012    2    1    2    0    0 -0.64987134718E+01 -0.31614462284E+02  0.24727660585E+02  0.50528871870E+02  0.30000036536E+02 0.  0.
        -12    1    1    2    0    0  0.64987134718E+01  0.31614462284E+02 -0.24727660585E+02  0.40659128130E+02  0.00000000000E+00 0.  1.
         11    1    3    3    0    0  0.35053399926E+01 -0.52492074903E+01  0.12710913139E+02  0.14191860372E+02  0.51100000000E-03 0. -1.
        -11    1    3    3    0    0  0.29632421716E+01 -0.79452984385E+01 -0.32968379889E+01  0.90982257847E+01  0.51100000000E-03 0.  1.
        -12    1    3    3    0    0 -0.12967295636E+02 -0.18419956355E+02  0.15313585435E+02  0.27238785713E+02  0.00000000000E+00 0.  1.
</event>
<event>
 7    1  0.5601662E-013  0.5052887E+02  0.7816164E-02  0.1300439E+00
        -11   -1    0    0    0    0  0.00000000000E+00  0.00000000000E+00  0.45593999997E+02  0.45594000000E+02  0.51100000000E-03 0.  1.
         11   -1    0    0    0    0 -0.00000000000E+00 -0.00000000000E+00 -0.45593999997E+02  0.45594000000E+02  0.51100000000E-03 0. -1.
    9900012    2    1    2    0    0  0.16379265774E+02 -0.30899092491E+02 -0.20739590472E+02  0.50528869697E+02  0.30000029930E+02 0.  0.
        -12    1    1    2    0    0 -0.16379265774E+02  0.30899092491E+02  0.20739590472E+02  0.40659130303E+02  0.00000000000E+00 0.  1.
         11    1    3    3    0    0  0.62354174199E+01 -0.66335358648E+01 -0.20362349293E+02  0.22304920925E+02  0.51100000000E-03 0. -1.
        -11    1    3    3    0    0  0.19793186952E+01  0.57573716216E+00  0.18195090746E+00  0.20693675776E+01  0.51100000000E-03 0.  1.
         12    1    3    3    0    0  0.81645296584E+01 -0.24841293789E+02 -0.55919208631E+00  0.26154581194E+02  0.00000000000E+00 0. -1.
</event>
<event>
 7    1  0.5601662E-013  0.5052887E+02  0.7816164E-02  0.1300439E+00
        -11   -1    0    0    0    0  0.00000000000E+00  0.00000000000E+00  0.45593999997E+02  0.45594000000E+02  0.51100000000E-03 0.  1.
         11   -1    0    0    0    0 -0.00000000000E+00 -0.00000000000E+00 -0.45593999997E+02  0.45594000000E+02  0.51100000000E-03 0. -1.
    9900012    2    1    2    0    0 -0.22422515699E+02  0.32665065094E+02  0.91317778731E+01  0.50528867508E+02  0.30000023278E+02 0.  0.
        -12    1    1    2    0    0  0.22422515699E+02 -0.32665065094E+02 -0.91317778731E+01  0.40659132492E+02  0.00000000000E+00 0.  1.
         11    1    3    3    0    0 -0.46433256252E+01  0.69823117798E+01  0.11181311088E+02  0.13976225118E+02  0.51100000000E-03 0. -1.
        -11    1    3    3    0    0  0.23782580621E+01  0.86184520869E+01  0.34367248870E+01  0.95783561217E+01  0.51100000000E-03 0.  1.
         12    1    3    3    0    0 -0.20157448136E+02  0.17064301227E+02 -0.54862581016E+01  0.26974286268E+02  0.00000000000E+00 0. -1.
</event>
<event>
 7    1  0.5601662E-013  0.5052888E+02  0.7816164E-02  0.1300439E+00
        -11   -1    0    0    0    0  0.00000000000E+00  0.00000000000E+00  0.45593999997E+02  0.45594000000E+02  0.51100000000E-03 0.  1.
         11   -1    0    0    0    0 -0.00000000000E+00 -0.00000000000E+00 -0.45593999997E+02  0.45594000000E+02  0.51100000000E-03 0. -1.
    9900012    2    1    2    0    0  0.16092508360E+02  0.11261501460E+02 -0.35600190564E+02  0.50528882835E+02  0.30000069867E+02 0.  0.
        -12    1    1    2    0    0 -0.16092508360E+02 -0.11261501460E+02  0.35600190564E+02  0.40659117165E+02  0.00000000000E+00 0.  1.
         11    1    3    3    0    0  0.98676250823E+01  0.67724276907E+00 -0.12523455559E+02  0.15958246205E+02  0.51100000000E-03 0. -1.
        -11    1    3    3    0    0  0.54695567665E+01 -0.12698890213E+01 -0.21929755504E+02  0.22637200491E+02  0.51100000000E-03 0.  1.
        -12    1    3    3    0    0  0.75532651071E+00  0.11854147712E+02 -0.11469795004E+01  0.11933436139E+02  0.00000000000E+00 0.  1.
</event>
<event>
 7    1  0.5601662E-013  0.5052886E+02  0.7816164E-02  0.1300439E+00
        -11   -1    0    0    0    0  0.00000000000E+00  0.00000000000E+00  0.45593999997E+02  0.45594000000E+02  0.51100000000E-03 0.  1.
         11   -1    0    0    0    0 -0.00000000000E+00 -0.00000000000E+00 -0.45593999997E+02  0.45594000000E+02  0.51100000000E-03 0. -1.
    9900012    2    1    2    0    0  0.63785613112E+01  0.38649534834E+02 -0.10894651387E+02  0.50528855688E+02  0.29999987351E+02 0.  0.
        -12    1    1    2    0    0 -0.63785613112E+01 -0.38649534834E+02  0.10894651387E+02  0.40659144312E+02  0.00000000000E+00 0.  1.
         11    1    3    3    0    0  0.97561249360E+00  0.18555342297E+02 -0.61909831515E+01  0.19585219430E+02  0.51100000000E-03 0. -1.
        -11    1    3    3    0    0 -0.11554550091E+01  0.22984275985E+02 -0.14110435367E+01  0.23056518882E+02  0.51100000000E-03 0.  1.
         12    1    3    3    0    0  0.65584038267E+01 -0.28900834481E+01 -0.32926246983E+01  0.78871173755E+01  0.00000000000E+00 0. -1.
</event>
<event>
 7    1  0.5601662E-013  0.5052886E+02  0.7816164E-02  0.1300439E+00
        -11   -1    0    0    0    0  0.00000000000E+00  0.00000000000E+00  0.45593999997E+02  0.45594000000E+02  0.51100000000E-03 0. -1.
         11   -1    0    0    0    0 -0.00000000000E+00 -0.00000000000E+00 -0.45593999997E+02  0.45594000000E+02  0.51100000000E-03 0.  1.
    9900012    2    1    2    0    0 -0.15373359304E+01 -0.83356499839E+01  0.39765804720E+02  0.50528859730E+02  0.29999999637E+02 0.  0.
        -12    1    1    2    0    0  0.15373359304E+01  0.83356499839E+01 -0.39765804720E+02  0.40659140270E+02  0.00000000000E+00 0.  1.
         11    1    3    3    0    0 -0.57897776826E+01  0.22435579568E+01  0.21110464245E+02  0.22004699017E+02  0.51100000000E-03 0.  1.
        -11    1    3    3    0    0 -0.66050263516E+01 -0.61729917020E+01  0.12078360457E+02  0.15087047135E+02  0.51100000000E-03 0. -1.
         12    1    3    3    0    0  0.10857468104E+02 -0.44062162387E+01  0.65769800180E+01  0.13437113579E+02  0.00000000000E+00 0. -1.
</event>
<event>
 7    1  0.5601662E-013  0.5052886E+02  0.7816164E-02  0.1300439E+00
        -11   -1    0    0    0    0  0.00000000000E+00  0.00000000000E+00  0.45593999997E+02  0.45594000000E+02  0.51100000000E-03 0.  1.
         11   -1    0    0    0    0 -0.00000000000E+00 -0.00000000000E+00 -0.45593999997E+02  0.45594000000E+02  0.51100000000E-03 0. -1.
    9900012    2    1    2    0    0 -0.29194104673E+02  0.13680705945E+02 -0.24773138178E+02  0.50528857880E+02  0.29999994011E+02 0.  0.
        -12    1    1    2    0    0  0.29194104673E+02 -0.13680705945E+02  0.24773138178E+02  0.40659142120E+02  0.00000000000E+00 0.  1.
         11    1    3    3    0    0 -0.51160712907E+01 -0.37904125988E+01  0.21667860553E+01  0.67257992232E+01  0.51100000000E-03 0. -1.
        -11    1    3    3    0    0  0.90672886625E+00  0.26643554753E+01  0.14702237805E+01  0.31752961376E+01  0.51100000000E-03 0.  1.
         12    1    3    3    0    0 -0.24984762248E+02  0.14806763068E+02 -0.28410148013E+02  0.40627762519E+02  0.00000000000E+00 0. -1.
</event>
<event>
 7    1  0.5601662E-013  0.5052886E+02  0.7816164E-02  0.1300439E+00
        -11   -1    0    0    0    0  0.00000000000E+00  0.00000000000E+00  0.45593999997E+02  0.45594000000E+02  0.51100000000E-03 0.  1.
         11   -1    0    0    0    0 -0.00000000000E+00 -0.00000000000E+00 -0.45593999997E+02  0.45594000000E+02  0.51100000000E-03 0. -1.
    9900012    2    1    2    0    0  0.19909025668E+02 -0.35114755515E+02  0.48734619581E+01  0.50528856018E+02  0.29999988351E+02 0.  0.
        -12    1    1    2    0    0 -0.19909025668E+02  0.35114755515E+02 -0.48734619581E+01  0.40659143982E+02  0.00000000000E+00 0.  1.
         11    1    3    3    0    0  0.73971465541E+01 -0.65703637255E+01  0.89850843989E+01  0.13364849365E+02  0.51100000000E-03 0.  1.
        -11    1    3    3    0    0 -0.15075392196E+01 -0.11856388978E+01  0.47898866742E+01  0.51595957891E+01  0.51100000000E-03 0. -1.
         12    1    3    3    0    0  0.14019418333E+02 -0.27358752892E+02 -0.89015091150E+01  0.32004410864E+02  0.00000000000E+00 0. -1.
</event>
<event>
 7    1  0.5601662E-013  0.5052890E+02  0.7816164E-02  0.1300439E+00
        -11   -1    0    0    0    0  0.00000000000E+00  0.00000000000E+00  0.45593999997E+02  0.45594000000E+02  0.51100000000E-03 0.  1.
         11   -1    0    0    0    0 -0.00000000000E+00 -0.00000000000E+00 -0.45593999997E+02  0.45594000000E+02  0.51100000000E-03 0. -1.
    9900012    2    1    2    0    0  0.13841728913E+02 -0.91228185329E+00 -0.38219585305E+02  0.50528899932E+02  0.30000121832E+02 0.  0.
        -12    1    1    2    0    0 -0.13841728913E+02  0.91228185329E+00  0.38219585305E+02  0.40659100068E+02  0.00000000000E+00 0.  1.
         11    1    3    3    0    0 -0.48903751133E+01 -0.91635247674E+00 -0.14771834394E+02  0.15587256405E+02  0.51100000000E-03 0. -1.
        -11    1    3    3    0    0  0.28644578641E+01  0.72975035775E+00  0.29226047717E+01  0.41568345351E+01  0.51100000000E-03 0.  1.
         12    1    3    3    0    0  0.15867646162E+02 -0.72567973430E+00 -0.26370355682E+02  0.30784808991E+02  0.00000000000E+00 0. -1.
</event>
<event>
 7    1  0.5601662E-013  0.5052884E+02  0.7816164E-02  0.1300439E+00
        -11   -1    0    0    0    0  0.00000000000E+00  0.00000000000E+00  0.45593999997E+02  0.45594000000E+02  0.51100000000E-03 0. -1.
         11   -1    0    0    0    0 -0.00000000000E+00 -0.00000000000E+00 -0.45593999997E+02  0.45594000000E+02  0.51100000000E-03 0.  1.
    9900012    2    1    2    0    0 -0.10366691689E+01 -0.14248689260E+02  0.38066617132E+02  0.50528841518E+02  0.29999944278E+02 0.  0.
        -12    1    1    2    0    0  0.10366691689E+01  0.14248689260E+02 -0.38066617132E+02  0.40659158482E+02  0.00000000000E+00 0.  1.
         11    1    3    3    0    0  0.13387956129E-01 -0.47596600744E+01  0.25176422268E+02  0.25622388291E+02  0.51100000000E-03 0. -1.
        -11    1    3    3    0    0  0.53258212092E+00  0.57001565628E+01  0.55078098199E+01  0.79442682374E+01  0.51100000000E-03 0.  1.
        -12    1    3    3    0    0 -0.15826392460E+01 -0.15189185748E+02  0.73823850445E+01  0.16962184990E+02  0.00000000000E+00 0.  1.
</event>
<event>
 7    1  0.5601662E-013  0.5052886E+02  0.7816164E-02  0.1300439E+00
        -11   -1    0    0    0    0  0.00000000000E+00  0.00000000000E+00  0.45593999997E+02  0.45594000000E+02  0.51100000000E-03 0.  1.
         11   -1    0    0    0    0 -0.00000000000E+00 -0.00000000000E+00 -0.45593999997E+02  0.45594000000E+02  0.51100000000E-03 0. -1.
    9900012    2    1    2    0    0  0.10270850477E+02  0.37042146085E+01 -0.39165722145E+02  0.50528863677E+02  0.30000011632E+02 0.  0.
        -12    1    1    2    0    0 -0.10270850477E+02 -0.37042146085E+01  0.39165722145E+02  0.40659136323E+02  0.00000000000E+00 0.  1.
         11    1    3    3    0    0 -0.82663434218E+01 -0.15968165024E+00 -0.69969940780E+01  0.10831244535E+02  0.51100000000E-03 0. -1.
        -11    1    3    3    0    0  0.88728391313E+01  0.62966157231E+01 -0.78506012536E+01  0.13416653238E+02  0.51100000000E-03 0.  1.
        -12    1    3    3    0    0  0.96643547677E+01 -0.24327194644E+01 -0.24318126814E+02  0.26280965903E+02  0.00000000000E+00 0.  1.
</event>
<event>
 7    1  0.5601662E-013  0.5052886E+02  0.7816164E-02  0.1300439E+00
        -11   -1    0    0    0    0  0.00000000000E+00  0.00000000000E+00  0.45593999997E+02  0.45594000000E+02  0.51100000000E-03 0.  1.
         11   -1    0    0    0    0 -0.00000000000E+00 -0.00000000000E+00 -0.45593999997E+02  0.45594000000E+02  0.51100000000E-03 0. -1.
    9900012    2    1    2    0    0  0.98302024417E+01 -0.38969257637E+01 -0.39259986933E+02  0.50528862227E+02  0.30000007226E+02 0.  0.
        -12    1    1    2    0    0 -0.98302024417E+01  0.38969257637E+01  0.39259986933E+02  0.40659137773E+02  0.00000000000E+00 0.  1.
         11    1    3    3    0    0  0.59831725291E+01 -0.12960558470E+02 -0.26548439095E+02  0.30142893823E+02  0.51100000000E-03 0. -1.
        -11    1    3    3    0    0  0.78811137852E+00  0.88550271223E-01 -0.10653721229E+02  0.10683198817E+02  0.51100000000E-03 0.  1.
        -12    1    3    3    0    0  0.30589185341E+01  0.89750824346E+01 -0.20578266092E+01  0.97027695871E+01  0.00000000000E+00 0.  1.
</event>
<event>
 7    1  0.5601662E-013  0.5052886E+02  0.7816164E-02  0.1300439E+00
        -11   -1    0    0    0    0  0.00000000000E+00  0.00000000000E+00  0.45593999997E+02  0.45594000000E+02  0.51100000000E-03 0.  1.
         11   -1    0    0    0    0 -0.00000000000E+00 -0.00000000000E+00 -0.45593999997E+02  0.45594000000E+02  0.51100000000E-03 0. -1.
    9900012    2    1    2    0    0 -0.30350269182E+02 -0.17444501588E+02 -0.20681298945E+02  0.50528860792E+02  0.30000002864E+02 0.  0.
        -12    1    1    2    0    0  0.30350269182E+02  0.17444501588E+02  0.20681298945E+02  0.40659139208E+02  0.00000000000E+00 0.  1.
         11    1    3    3    0    0 -0.19764019145E+02 -0.13639422792E+02 -0.42428042366E+01  0.24385481232E+02  0.51100000000E-03 0. -1.
        -11    1    3    3    0    0 -0.10006447499E+02 -0.71317969264E+01 -0.35073942156E+01  0.12778627993E+02  0.51100000000E-03 0.  1.
         12    1    3    3    0    0 -0.57980253837E+00  0.33267181300E+01 -0.12931100493E+02  0.13364751567E+02  0.00000000000E+00 0. -1.
</event>
<event>
 7    1  0.5601662E-013  0.5052884E+02  0.7816164E-02  0.1300439E+00
        -11   -1    0    0    0    0  0.00000000000E+00  0.00000000000E+00  0.45593999997E+02  0.45594000000E+02  0.51100000000E-03 0.  1.
         11   -1    0    0    0    0 -0.00000000000E+00 -0.00000000000E+00 -0.45593999997E+02  0.45594000000E+02  0.51100000000E-03 0. -1.
    9900012    2    1    2    0    0  0.25347690943E+02  0.27561436867E+02 -0.15843887477E+02  0.50528843482E+02  0.29999950248E+02 0.  0.
        -12    1    1    2    0    0 -0.25347690943E+02 -0.27561436867E+02  0.15843887477E+02  0.40659156518E+02  0.00000000000E+00 0.  1.
         11    1    3    3    0    0  0.10078798882E+02  0.11534906703E+02 -0.25831751228E+01  0.15534125451E+02  0.51100000000E-03 0. -1.
        -11    1    3    3    0    0  0.21291817222E+02  0.14690030703E+02 -0.12649940154E+02  0.28795129256E+02  0.51100000000E-03 0.  1.
        -12    1    3    3    0    0 -0.60229251610E+01  0.13364994609E+01 -0.61077220047E+00  0.61995887755E+01  0.00000000000E+00 0.  1.
</event>
<event>
 7    1  0.5601662E-013  0.5052885E+02  0.7816164E-02  0.1300439E+00
        -11   -1    0    0    0    0  0.00000000000E+00  0.00000000000E+00  0.45593999997E+02  0.45594000000E+02  0.51100000000E-03 0.  1.
         11   -1    0    0    0    0 -0.00000000000E+00 -0.00000000000E+00 -0.45593999997E+02  0.45594000000E+02  0.51100000000E-03 0. -1.
    9900012    2    1    2    0    0 -0.60721380787E+01 -0.30008541901E-01 -0.40203163153E+02  0.50528854794E+02  0.29999984631E+02 0.  0.
        -12    1    1    2    0    0  0.60721380787E+01  0.30008541901E-01  0.40203163153E+02  0.40659145206E+02  0.00000000000E+00 0.  1.
         11    1    3    3    0    0 -0.51340332713E+01  0.11370540877E+02 -0.14208748044E+02  0.18908622866E+02  0.51100000000E-03 0. -1.
        -11    1    3    3    0    0  0.25125975492E+01 -0.51474416040E+00  0.63784515514E+00  0.26429064868E+01  0.51100000000E-03 0.  1.
        -12    1    3    3    0    0 -0.34507023565E+01 -0.10885805259E+02 -0.26632260265E+02  0.28977325441E+02  0.00000000000E+00 0.  1.
</event>
<event>
 7    1  0.5601662E-013  0.5052887E+02  0.7816164E-02  0.1300439E+00
        -11   -1    0    0    0    0  0.00000000000E+00  0.00000000000E+00  0.45593999997E+02  0.45594000000E+02  0.51100000000E-03 0.  1.
         11   -1    0    0    0    0 -0.00000000000E+00 -0.00000000000E+00 -0.45593999997E+02  0.45594000000E+02  0.51100000000E-03 0. -1.
    9900012    2    1    2    0    0 -0.16409191055E+02  0.16549505822E+02 -0.33316922747E+02  0.50528867750E+02  0.30000024012E+02 0.  0.
        -12    1    1    2    0    0  0.16409191055E+02 -0.16549505822E+02  0.33316922747E+02  0.40659132250E+02  0.00000000000E+00 0.  1.
         11    1    3    3    0    0  0.38651568794E+01  0.68895783127E+01 -0.53869602602E+01  0.95616456813E+01  0.51100000000E-03 0. -1.
        -11    1    3    3    0    0  0.25394459174E+01  0.30865675536E+01  0.38527386727E+00  0.40154851568E+01  0.51100000000E-03 0.  1.
         12    1    3    3    0    0 -0.22813793852E+02  0.65733599561E+01 -0.28315236354E+02  0.36951736912E+02  0.00000000000E+00 0. -1.
</event>
<event>
 7    1  0.5601662E-013  0.5052887E+02  0.7816164E-02  0.1300439E+00
        -11   -1    0    0    0    0  0.00000000000E+00  0.00000000000E+00  0.45593999997E+02  0.45594000000E+02  0.51100000000E-03 0.  1.
         11   -1    0    0    0    0 -0.00000000000E+00 -0.00000000000E+00 -0.45593999997E+02  0.45594000000E+02  0.51100000000E-03 0. -1.
    9900012    2    1    2    0    0  0.29445660397E+02 -0.27989143163E+02  0.16510467383E+01  0.50528868104E+02  0.30000025088E+02 0.  0.
        -12    1    1    2    0    0 -0.29445660397E+02  0.27989143163E+02 -0.16510467383E+01  0.40659131896E+02  0.00000000000E+00 0.  1.
         11    1    3    3    0    0  0.31495372735E+01 -0.28642588965E+01 -0.70189271363E+01  0.82090743978E+01  0.51100000000E-03 0. -1.
        -11    1    3    3    0    0 -0.30267558228E+01 -0.34930613902E+01 -0.75218718423E+00  0.46827891803E+01  0.51100000000E-03 0.  1.
        -12    1    3    3    0    0  0.29322878946E+02 -0.21631822877E+02  0.94221610588E+01  0.37637004526E+02  0.00000000000E+00 0.  1.
</event>
<event>
 7    1  0.5601662E-013  0.5052885E+02  0.7816164E-02  0.1300439E+00
        -11   -1    0    0    0    0  0.00000000000E+00  0.00000000000E+00  0.45593999997E+02  0.45594000000E+02  0.51100000000E-03 0.  1.
         11   -1    0    0    0    0 -0.00000000000E+00 -0.00000000000E+00 -0.45593999997E+02  0.45594000000E+02  0.51100000000E-03 0. -1.
    9900012    2    1    2    0    0 -0.25500294777E+02 -0.33113109671E+01 -0.31495030755E+02  0.50528846340E+02  0.29999958936E+02 0.  0.
        -12    1    1    2    0    0  0.25500294777E+02  0.33113109671E+01  0.31495030755E+02  0.40659153660E+02  0.00000000000E+00 0.  1.
         11    1    3    3    0    0 -0.98403692726E+01  0.39235541064E+00 -0.97706205000E+01  0.13872701085E+02  0.51100000000E-03 0. -1.
        -11    1    3    3    0    0 -0.12894955767E+02  0.88269642585E+01 -0.69943680484E+01  0.17120641545E+02  0.51100000000E-03 0.  1.
         12    1    3    3    0    0 -0.27649697374E+01 -0.12530630636E+02 -0.14730042207E+02  0.19535503710E+02  0.00000000000E+00 0. -1.
</event>
<event>
 7    1  0.5601662E-013  0.5052888E+02  0.7816164E-02  0.1300439E+00
        -11   -1    0    0    0    0  0.00000000000E+00  0.00000000000E+00  0.45593999997E+02  0.45594000000E+02  0.51100000000E-03 0. -1.
         11   -1    0    0    0    0 -0.00000000000E+00 -0.00000000000E+00 -0.45593999997E+02  0.45594000000E+02  0.51100000000E-03 0.  1.
    9900012    2    1    2    0    0 -0.39497758857E+02 -0.12585434995E+01  0.95659436664E+01  0.50528878457E+02  0.30000056557E+02 0.  0.
        -12    1    1    2    0    0  0.39497758857E+02  0.12585434995E+01 -0.95659436664E+01  0.40659121543E+02  0.00000000000E+00 0.  1.
         11    1    3    3    0    0 -0.20146410373E+02 -0.31688389914E+01  0.68004717792E+01  0.21498041961E+02  0.51100000000E-03 0. -1.
        -11    1    3    3    0    0 -0.81704798039E+00 -0.47758443583E+01  0.73478819229E+01  0.88015695050E+01  0.51100000000E-03 0.  1.
         12    1    3    3    0    0 -0.18534300503E+02  0.66861398502E+01 -0.45824100356E+01  0.20229266990E+02  0.00000000000E+00 0. -1.
</event>
<event>
 7    1  0.7527457E-013  0.5052886E+02  0.7816164E-02  0.1300439E+00
        -11   -1    0    0    0    0  0.00000000000E+00  0.00000000000E+00  0.45593999997E+02  0.45594000000E+02  0.51100000000E-03 0. -1.
         11   -1    0    0    0    0 -0.00000000000E+00 -0.00000000000E+00 -0.45593999997E+02  0.45594000000E+02  0.51100000000E-03 0.  1.
    9900012    2    1    2    0    0  0.33808589581E+02 -0.65500582650E+01  0.21615765228E+02  0.50528864506E+02  0.30000014153E+02 0.  0.
        -12    1    1    2    0    0 -0.33808589581E+02  0.65500582650E+01 -0.21615765228E+02  0.40659135494E+02  0.00000000000E+00 0.  1.
         11    1    3    3    0    0 -0.89838134190E+00  0.30553578816E+01  0.53099568365E+01  0.61917641013E+01  0.51100000000E-03 0. -1.
        -11    1    3    3    0    0  0.56414754477E-02 -0.42857061732E+01 -0.20168708982E+01  0.47365681363E+01  0.51100000000E-03 0.  1.
         12    1    3    3    0    0  0.34701329447E+02 -0.53197099733E+01  0.18322679290E+02  0.39600532269E+02  0.00000000000E+00 0. -1.
</event>
<event>
 7    1  0.5601662E-013  0.5052885E+02  0.7816164E-02  0.1300439E+00
        -11   -1    0    0    0    0  0.00000000000E+00  0.00000000000E+00  0.45593999997E+02  0.45594000000E+02  0.51100000000E-03 0. -1.
         11   -1    0    0    0    0 -0.00000000000E+00 -0.00000000000E+00 -0.45593999997E+02  0.45594000000E+02  0.51100000000E-03 0.  1.
    9900012    2    1    2    0    0 -0.24239300821E+02 -0.32787480837E-01  0.32643855703E+02  0.50528854725E+02  0.29999984423E+02 0.  0.
        -12    1    1    2    0    0  0.24239300821E+02  0.32787480837E-01 -0.32643855703E+02  0.40659145275E+02  0.00000000000E+00 0.  1.
         11    1    3    3    0    0 -0.26750227880E+02  0.67260872132E+00  0.17700291238E+02  0.32083132707E+02  0.51100000000E-03 0. -1.
        -11    1    3    3    0    0 -0.21696412734E+01  0.30150209339E+01  0.20722193259E+01  0.42534442142E+01  0.51100000000E-03 0.  1.
         12    1    3    3    0    0  0.46805683326E+01 -0.37204171361E+01  0.12871345139E+02  0.14192277804E+02  0.00000000000E+00 0. -1.
</event>
<event>
 7    1  0.5601662E-013  0.5052886E+02  0.7816164E-02  0.1300439E+00
        -11   -1    0    0    0    0  0.00000000000E+00  0.00000000000E+00  0.45593999997E+02  0.45594000000E+02  0.51100000000E-03 0.  1.
         11   -1    0    0    0    0 -0.00000000000E+00 -0.00000000000E+00 -0.45593999997E+02  0.45594000000E+02  0.51100000000E-03 0. -1.
    9900012    2    1    2    0    0 -0.79273117089E+00  0.39408804867E+02 -0.99741329021E+01  0.50528860180E+02  0.30000001003E+02 0.  0.
        -12    1    1    2    0    0  0.79273117089E+00 -0.39408804867E+02  0.99741329021E+01  0.40659139820E+02  0.00000000000E+00 0.  1.
         11    1    3    3    0    0  0.73822220638E+01  0.25311809610E+02 -0.14702005309E+01  0.26407317134E+02  0.51100000000E-03 0. -1.
        -11    1    3    3    0    0  0.46589838203E+01  0.40845724352E+01 -0.13501532987E+01  0.63413544616E+01  0.51100000000E-03 0.  1.
        -12    1    3    3    0    0 -0.12833937055E+02  0.10012422822E+02 -0.71537790725E+01  0.17780188585E+02  0.00000000000E+00 0.  1.
</event>
<event>
 7    1  0.5601662E-013  0.5052886E+02  0.7816164E-02  0.1300439E+00
        -11   -1    0    0    0    0  0.00000000000E+00  0.00000000000E+00  0.45593999997E+02  0.45594000000E+02  0.51100000000E-03 0.  1.
         11   -1    0    0    0    0 -0.00000000000E+00 -0.00000000000E+00 -0.45593999997E+02  0.45594000000E+02  0.51100000000E-03 0. -1.
    9900012    2    1    2    0    0 -0.13345141583E+02 -0.30626519998E+02 -0.23175179942E+02  0.50528862080E+02  0.30000006778E+02 0.  0.
        -12    1    1    2    0    0  0.13345141583E+02  0.30626519998E+02  0.23175179942E+02  0.40659137920E+02  0.00000000000E+00 0.  1.
         11    1    3    3    0    0  0.49616199728E+01 -0.37232299067E+01 -0.89824702442E+01  0.10916267019E+02  0.51100000000E-03 0.  1.
        -11    1    3    3    0    0 -0.13496908217E+02 -0.12066557146E+02  0.60285469021E+00  0.18114407714E+02  0.51100000000E-03 0. -1.
         12    1    3    3    0    0 -0.48098533381E+01 -0.14836732945E+02 -0.14795564388E+02  0.21498187346E+02  0.00000000000E+00 0. -1.
</event>
<event>
 7    1  0.5601662E-013  0.5052887E+02  0.7816164E-02  0.1300439E+00
        -11   -1    0    0    0    0  0.00000000000E+00  0.00000000000E+00  0.45593999997E+02  0.45594000000E+02  0.51100000000E-03 0.  1.
         11   -1    0    0    0    0 -0.00000000000E+00 -0.00000000000E+00 -0.45593999997E+02  0.45594000000E+02  0.51100000000E-03 0. -1.
    9900012    2    1    2    0    0 -0.29140020553E+02  0.21621384705E+02 -0.18345025527E+02  0.50528867742E+02  0.30000023988E+02 0.  0.
        -12    1    1    2    0    0  0.29140020553E+02 -0.21621384705E+02  0.18345025527E+02  0.40659132258E+02  0.00000000000E+00 0.  1.
         11    1    3    3    0    0 -0.24643163508E+02  0.93346629060E+01 -0.11587575779E+02  0.28787034442E+02  0.51100000000E-03 0. -1.
        -11    1    3    3    0    0 -0.48756763035E+01 -0.17390483957E+01 -0.56567943207E+01  0.76678439595E+01  0.51100000000E-03 0.  1.
        -12    1    3    3    0    0  0.37881925855E+00  0.14025770195E+02 -0.11006554274E+01  0.14073989341E+02  0.00000000000E+00 0.  1.
</event>
<event>
 7    1  0.5601662E-013  0.5052887E+02  0.7816164E-02  0.1300439E+00
        -11   -1    0    0    0    0  0.00000000000E+00  0.00000000000E+00  0.45593999997E+02  0.45594000000E+02  0.51100000000E-03 0. -1.
         11   -1    0    0    0    0 -0.00000000000E+00 -0.00000000000E+00 -0.45593999997E+02  0.45594000000E+02  0.51100000000E-03 0.  1.
    9900012    2    1    2    0    0  0.13685641261E+02 -0.35950909193E+02  0.13168137375E+02  0.50528874450E+02  0.30000044379E+02 0.  0.
        -12    1    1    2    0    0 -0.13685641261E+02  0.35950909193E+02 -0.13168137375E+02  0.40659125550E+02  0.00000000000E+00 0.  1.
         11    1    3    3    0    0  0.62248768622E+01 -0.12647220220E+02  0.15037431166E+02  0.20611298056E+02  0.51100000000E-03 0. -1.
        -11    1    3    3    0    0  0.10001192106E+01  0.17243376382E+00 -0.52392066914E+01  0.53365961862E+01  0.51100000000E-03 0.  1.
        -12    1    3    3    0    0  0.64606451885E+01 -0.23476122737E+02  0.33699129010E+01  0.24580980208E+02  0.00000000000E+00 0.  1.
</event>
<event>
 7    1  0.5601662E-013  0.5052885E+02  0.7816164E-02  0.1300439E+00
        -11   -1    0    0    0    0  0.00000000000E+00  0.00000000000E+00  0.45593999997E+02  0.45594000000E+02  0.51100000000E-03 0.  1.
         11   -1    0    0    0    0 -0.00000000000E+00 -0.00000000000E+00 -0.45593999997E+02  0.45594000000E+02  0.51100000000E-03 0. -1.
    9900012    2    1    2    0    0  0.96788961596E+01  0.29530836405E+02 -0.26218602083E+02  0.50528850663E+02  0.29999972075E+02 0.  0.
        -12    1    1    2    0    0 -0.96788961596E+01 -0.29530836405E+02  0.26218602083E+02  0.40659149337E+02  0.00000000000E+00 0.  1.
         11    1    3    3    0    0 -0.29655144853E-01  0.10064039835E+02 -0.17291324492E+02  0.20006890817E+02  0.51100000000E-03 0. -1.
        -11    1    3    3    0    0 -0.13556111065E+01 -0.34672055543E+01 -0.10531285177E+01  0.38688855971E+01  0.51100000000E-03 0.  1.
         12    1    3    3    0    0  0.11064162411E+02  0.22934002124E+02 -0.78741490739E+01  0.26653074249E+02  0.00000000000E+00 0. -1.
</event>
<event>
 7    1  0.5601662E-013  0.5052886E+02  0.7816164E-02  0.1300439E+00
        -11   -1    0    0    0    0  0.00000000000E+00  0.00000000000E+00  0.45593999997E+02  0.45594000000E+02  0.51100000000E-03 0. -1.
         11   -1    0    0    0    0 -0.00000000000E+00 -0.00000000000E+00 -0.45593999997E+02  0.45594000000E+02  0.51100000000E-03 0.  1.
    9900012    2    1    2    0    0 -0.20535057312E+02 -0.12010514475E+02  0.32973089088E+02  0.50528860304E+02  0.30000001381E+02 0.  0.
        -12    1    1    2    0    0  0.20535057312E+02  0.12010514475E+02 -0.32973089088E+02  0.40659139696E+02  0.00000000000E+00 0.  1.
         11    1    3    3    0    0 -0.50007924733E+01 -0.10230918678E+02  0.12040577174E+02  0.16572722205E+02  0.51100000000E-03 0. -1.
        -11    1    3    3    0    0 -0.24128989481E+00  0.47224265663E+01  0.15907167697E+02  0.16595105239E+02  0.51100000000E-03 0.  1.
         12    1    3    3    0    0 -0.15292974944E+02 -0.65020223635E+01  0.50253442166E+01  0.17361032860E+02  0.00000000000E+00 0. -1.
</event>
<event>
 7    1  0.5601662E-013  0.5052886E+02  0.7816164E-02  0.1300439E+00
        -11   -1    0    0    0    0  0.00000000000E+00  0.00000000000E+00  0.45593999997E+02  0.45594000000E+02  0.51100000000E-03 0.  1.
         11   -1    0    0    0    0 -0.00000000000E+00 -0.00000000000E+00 -0.45593999997E+02  0.45594000000E+02  0.51100000000E-03 0. -1.
    9900012    2    1    2    0    0 -0.31300611085E+02  0.23241953512E+02  0.11543350262E+02  0.50528860897E+02  0.30000003182E+02 0.  0.
        -12    1    1    2    0    0  0.31300611085E+02 -0.23241953512E+02 -0.11543350262E+02  0.40659139103E+02  0.00000000000E+00 0.  1.
         11    1    3    3    0    0 -0.15563477885E+02  0.58300377587E+01  0.70785579427E+01  0.18064251076E+02  0.51100000000E-03 0. -1.
        -11    1    3    3    0    0 -0.52447463948E+01 -0.11625007931E+01  0.91617856674E+01  0.10620597427E+02  0.51100000000E-03 0.  1.
         12    1    3    3    0    0 -0.10492386805E+02  0.18574416547E+02 -0.46969933482E+01  0.21844012393E+02  0.00000000000E+00 0. -1.
</event>
<event>
 7    1  0.5601662E-013  0.5052886E+02  0.7816164E-02  0.1300439E+00
        -11   -1    0    0    0    0  0.00000000000E+00  0.00000000000E+00  0.45593999997E+02  0.45594000000E+02  0.51100000000E-03 0.  1.
         11   -1    0    0    0    0 -0.00000000000E+00 -0.00000000000E+00 -0.45593999997E+02  0.45594000000E+02  0.51100000000E-03 0. -1.
    9900012    2    1    2    0    0 -0.17301496179E+02 -0.60545569165E+01 -0.36292785508E+02  0.50528859461E+02  0.29999998817E+02 0.  0.
        -12    1    1    2    0    0  0.17301496179E+02  0.60545569165E+01  0.36292785508E+02  0.40659140539E+02  0.00000000000E+00 0.  1.
         11    1    3    3    0    0  0.30207057048E+01  0.12205202296E+00 -0.11110136237E+02  0.11514108177E+02  0.51100000000E-03 0. -1.
        -11    1    3    3    0    0 -0.47070707450E+01  0.64444178898E+01 -0.13782175880E+02  0.15925935112E+02  0.51100000000E-03 0.  1.
        -12    1    3    3    0    0 -0.15615131138E+02 -0.12621026829E+02 -0.11400473391E+02  0.23088816172E+02  0.00000000000E+00 0.  1.
</event>
<event>
 7    1  0.5601662E-013  0.5052892E+02  0.7816164E-02  0.1300439E+00
        -11   -1    0    0    0    0  0.00000000000E+00  0.00000000000E+00  0.45593999997E+02  0.45594000000E+02  0.51100000000E-03 0.  1.
         11   -1    0    0    0    0 -0.00000000000E+00 -0.00000000000E+00 -0.45593999997E+02  0.45594000000E+02  0.51100000000E-03 0. -1.
    9900012    2    1    2    0    0  0.11974966211E+02  0.11008846211E+02 -0.37263465630E+02  0.50528924981E+02  0.30000197971E+02 0.  0.
        -12    1    1    2    0    0 -0.11974966211E+02 -0.11008846211E+02  0.37263465630E+02  0.40659075019E+02  0.00000000000E+00 0.  1.
         11    1    3    3    0    0  0.57719706336E+01  0.11028937045E+02 -0.15840498590E+02  0.20146327040E+02  0.51100000000E-03 0. -1.
        -11    1    3    3    0    0 -0.15375179241E+01 -0.59221696069E+01 -0.19530370208E+02  0.20466348354E+02  0.51100000000E-03 0.  1.
         12    1    3    3    0    0  0.77405135017E+01  0.59020787728E+01 -0.18925968322E+01  0.99162495874E+01  0.00000000000E+00 0. -1.
</event>
<event>
 7    1  0.5601662E-013  0.5052888E+02  0.7816164E-02  0.1300439E+00
        -11   -1    0    0    0    0  0.00000000000E+00  0.00000000000E+00  0.45593999997E+02  0.45594000000E+02  0.51100000000E-03 0.  1.
         11   -1    0    0    0    0 -0.00000000000E+00 -0.00000000000E+00 -0.45593999997E+02  0.45594000000E+02  0.51100000000E-03 0. -1.
    9900012    2    1    2    0    0 -0.36523348080E+02  0.12359281254E+02 -0.12901828121E+02  0.50528881011E+02  0.30000064321E+02 0.  0.
        -12    1    1    2    0    0  0.36523348080E+02 -0.12359281254E+02  0.12901828121E+02  0.40659118989E+02  0.00000000000E+00 0.  1.
         11    1    3    3    0    0 -0.13929513661E+02  0.11272984361E+02 -0.38453922033E+01  0.18327535805E+02  0.51100000000E-03 0. -1.
        -11    1    3    3    0    0  0.10956315107E+01 -0.55918019486E+01 -0.42870691456E+01  0.71307516827E+01  0.51100000000E-03 0.  1.
         12    1    3    3    0    0 -0.23689465930E+02  0.66780988418E+01 -0.47693667722E+01  0.25070593523E+02  0.00000000000E+00 0. -1.
</event>
<event>
 7    1  0.5601662E-013  0.5052886E+02  0.7816164E-02  0.1300439E+00
        -11   -1    0    0    0    0  0.00000000000E+00  0.00000000000E+00  0.45593999997E+02  0.45594000000E+02  0.51100000000E-03 0.  1.
         11   -1    0    0    0    0 -0.00000000000E+00 -0.00000000000E+00 -0.45593999997E+02  0.45594000000E+02  0.51100000000E-03 0. -1.
    9900012    2    1    2    0    0  0.44457012627E+01  0.26717373558E+02 -0.30324632800E+02  0.50528860019E+02  0.30000000513E+02 0.  0.
        -12    1    1    2    0    0 -0.44457012627E+01 -0.26717373558E+02  0.30324632800E+02  0.40659139981E+02  0.00000000000E+00 0.  1.
         11    1    3    3    0    0 -0.20119405642E+01  0.17029782239E+01 -0.14220159858E+02  0.14462399051E+02  0.51100000000E-03 0. -1.
        -11    1    3    3    0    0 -0.67306084320E+01  0.73801507491E+01 -0.72045182455E+01  0.12315551078E+02  0.51100000000E-03 0.  1.
        -12    1    3    3    0    0  0.13188250259E+02  0.17634244585E+02 -0.88999546967E+01  0.23750909890E+02  0.00000000000E+00 0.  1.
</event>
<event>
 7    1  0.5601662E-013  0.5052887E+02  0.7816164E-02  0.1300439E+00
        -11   -1    0    0    0    0  0.00000000000E+00  0.00000000000E+00  0.45593999997E+02  0.45594000000E+02  0.51100000000E-03 0.  1.
         11   -1    0    0    0    0 -0.00000000000E+00 -0.00000000000E+00 -0.45593999997E+02  0.45594000000E+02  0.51100000000E-03 0. -1.
    9900012    2    1    2    0    0  0.19177761069E+02 -0.13473130136E+02 -0.33224285761E+02  0.50528869173E+02  0.30000028338E+02 0.  0.
        -12    1    1    2    0    0 -0.19177761069E+02  0.13473130136E+02  0.33224285761E+02  0.40659130827E+02  0.00000000000E+00 0.  1.
         11    1    3    3    0    0  0.17787742833E+02 -0.19935372468E+02 -0.16667881692E+02  0.31490334245E+02  0.51100000000E-03 0.  1.
        -11    1    3    3    0    0 -0.17433112020E+00  0.11129430480E+01 -0.11368898082E+02  0.11424573403E+02  0.51100000000E-03 0. -1.
        -12    1    3    3    0    0  0.15643493563E+01  0.53492992841E+01 -0.51875059865E+01  0.76139615247E+01  0.00000000000E+00 0.  1.
</event>
<event>
 7    1  0.5601662E-013  0.5052886E+02  0.7816164E-02  0.1300439E+00
        -11   -1    0    0    0    0  0.00000000000E+00  0.00000000000E+00  0.45593999997E+02  0.45594000000E+02  0.51100000000E-03 0.  1.
         11   -1    0    0    0    0 -0.00000000000E+00 -0.00000000000E+00 -0.45593999997E+02  0.45594000000E+02  0.51100000000E-03 0. -1.
    9900012    2    1    2    0    0  0.32469133349E+02  0.19189268674E+00 -0.24472103703E+02  0.50528864460E+02  0.30000014012E+02 0.  0.
        -12    1    1    2    0    0 -0.32469133349E+02 -0.19189268674E+00  0.24472103703E+02  0.40659135540E+02  0.00000000000E+00 0.  1.
         11    1    3    3    0    0  0.29038201669E+01  0.43901873796E+01 -0.25673344578E+01  0.58563745840E+01  0.51100000000E-03 0.  1.
        -11    1    3    3    0    0  0.25815224266E+02 -0.12962626807E+02 -0.13187511449E+02  0.31754778477E+02  0.51100000000E-03 0. -1.
         12    1    3    3    0    0  0.37500889154E+01  0.87643321145E+01 -0.87172577961E+01  0.12917711398E+02  0.00000000000E+00 0. -1.
</event>
<event>
 7    1  0.5601662E-013  0.5052886E+02  0.7816164E-02  0.1300439E+00
        -11   -1    0    0    0    0  0.00000000000E+00  0.00000000000E+00  0.45593999997E+02  0.45594000000E+02  0.51100000000E-03 0.  1.
         11   -1    0    0    0    0 -0.00000000000E+00 -0.00000000000E+00 -0.45593999997E+02  0.45594000000E+02  0.51100000000E-03 0. -1.
    9900012    2    1    2    0    0  0.10419073544E+02  0.39095984908E+02 -0.40140293585E+01  0.50528861284E+02  0.30000004358E+02 0.  0.
        -12    1    1    2    0    0 -0.10419073544E+02 -0.39095984908E+02  0.40140293585E+01  0.40659138716E+02  0.00000000000E+00 0.  1.
         11    1    3    3    0    0 -0.11468705794E+01  0.15857124771E+02 -0.20728914247E+01  0.16033109406E+02  0.51100000000E-03 0. -1.
        -11    1    3    3    0    0  0.63687006740E-01  0.17947073930E+02  0.67107900103E+01  0.19160799083E+02  0.51100000000E-03 0.  1.
        -12    1    3    3    0    0  0.11502257117E+02  0.52917862076E+01 -0.86519279442E+01  0.15334952794E+02  0.00000000000E+00 0.  1.
</event>
<event>
 7    1  0.5601662E-013  0.5052887E+02  0.7816164E-02  0.1300439E+00
        -11   -1    0    0    0    0  0.00000000000E+00  0.00000000000E+00  0.45593999997E+02  0.45594000000E+02  0.51100000000E-03 0. -1.
         11   -1    0    0    0    0 -0.00000000000E+00 -0.00000000000E+00 -0.45593999997E+02  0.45594000000E+02  0.51100000000E-03 0.  1.
    9900012    2    1    2    0    0  0.12472594692E+01 -0.34999017297E+02  0.20656190893E+02  0.50528867076E+02  0.30000021965E+02 0.  0.
        -12    1    1    2    0    0 -0.12472594692E+01  0.34999017297E+02 -0.20656190893E+02  0.40659132924E+02  0.00000000000E+00 0.  1.
         11    1    3    3    0    0 -0.61218489207E+00 -0.23358558038E+02  0.99602488510E+00  0.23387797455E+02  0.51100000000E-03 0. -1.
        -11    1    3    3    0    0 -0.42841429648E+01 -0.91165037189E+01  0.54441903643E+01  0.11450053711E+02  0.51100000000E-03 0.  1.
        -12    1    3    3    0    0  0.61435873260E+01 -0.25239555395E+01  0.14215975643E+02  0.15691015910E+02  0.00000000000E+00 0.  1.
</event>
<event>
 7    1  0.5601662E-013  0.5052886E+02  0.7816164E-02  0.1300439E+00
        -11   -1    0    0    0    0  0.00000000000E+00  0.00000000000E+00  0.45593999997E+02  0.45594000000E+02  0.51100000000E-03 0.  1.
         11   -1    0    0    0    0 -0.00000000000E+00 -0.00000000000E+00 -0.45593999997E+02  0.45594000000E+02  0.51100000000E-03 0. -1.
    9900012    2    1    2    0    0  0.22712711277E+02  0.12431794769E+02 -0.31348822169E+02  0.50528862944E+02  0.30000009405E+02 0.  0.
        -12    1    1    2    0    0 -0.22712711277E+02 -0.12431794769E+02  0.31348822169E+02  0.40659137056E+02  0.00000000000E+00 0.  1.
         11    1    3    3    0    0  0.15847776287E+02  0.32249174821E+01 -0.25359935721E+02  0.30077873031E+02  0.51100000000E-03 0. -1.
        -11    1    3    3    0    0 -0.17403375476E+01  0.50319963783E+01 -0.89712116943E+01  0.10432276926E+02  0.51100000000E-03 0.  1.
         12    1    3    3    0    0  0.86052725378E+01  0.41748809090E+01  0.29823252462E+01  0.10018712988E+02  0.00000000000E+00 0. -1.
</event>
<event>
 7    1  0.5601662E-013  0.5052886E+02  0.7816164E-02  0.1300439E+00
        -11   -1    0    0    0    0  0.00000000000E+00  0.00000000000E+00  0.45593999997E+02  0.45594000000E+02  0.51100000000E-03 0.  1.
         11   -1    0    0    0    0 -0.00000000000E+00 -0.00000000000E+00 -0.45593999997E+02  0.45594000000E+02  0.51100000000E-03 0. -1.
    9900012    2    1    2    0    0  0.36415482376E+02  0.13273166302E+01 -0.18036533889E+02  0.50528859812E+02  0.29999999884E+02 0.  0.
        -12    1    1    2    0    0 -0.36415482376E+02 -0.13273166302E+01  0.18036533889E+02  0.40659140188E+02  0.00000000000E+00 0.  1.
         11    1    3    3    0    0  0.14446929123E+02 -0.59006554614E+01 -0.78319449532E+01  0.17460551480E+02  0.51100000000E-03 0. -1.
        -11    1    3    3    0    0  0.96879258573E+01 -0.67599192684E+01  0.56872831646E-01  0.11813367459E+02  0.51100000000E-03 0.  1.
        -12    1    3    3    0    0  0.12280627395E+02  0.13987891360E+02 -0.10261461768E+02  0.21254940873E+02  0.00000000000E+00 0.  1.
</event>
<event>
 7    1  0.5601662E-013  0.5052887E+02  0.7816164E-02  0.1300439E+00
        -11   -1    0    0    0    0  0.00000000000E+00  0.00000000000E+00  0.45593999997E+02  0.45594000000E+02  0.51100000000E-03 0.  1.
         11   -1    0    0    0    0 -0.00000000000E+00 -0.00000000000E+00 -0.45593999997E+02  0.45594000000E+02  0.51100000000E-03 0. -1.
    9900012    2    1    2    0    0 -0.98013503023E+00  0.33899307867E+02  0.22428571623E+02  0.50528873551E+02  0.30000041646E+02 0.  0.
        -12    1    1    2    0    0  0.98013503023E+00 -0.33899307867E+02 -0.22428571623E+02  0.40659126449E+02  0.00000000000E+00 0.  1.
         11    1    3    3    0    0 -0.30029055103E+00  0.14744035904E+02  0.17541270756E+02  0.22916652223E+02  0.51100000000E-03 0. -1.
        -11    1    3    3    0    0 -0.32498753658E+01 -0.16766448631E+01  0.55100564029E+01  0.66131346361E+01  0.51100000000E-03 0.  1.
         12    1    3    3    0    0  0.25700308866E+01  0.20831916826E+02 -0.62275553535E+00  0.20999086692E+02  0.00000000000E+00 0. -1.
</event>
<event>
 7    1  0.5601662E-013  0.5052886E+02  0.7816164E-02  0.1300439E+00
        -11   -1    0    0    0    0  0.00000000000E+00  0.00000000000E+00  0.45593999997E+02  0.45594000000E+02  0.51100000000E-03 0. -1.
         11   -1    0    0    0    0 -0.00000000000E+00 -0.00000000000E+00 -0.45593999997E+02  0.45594000000E+02  0.51100000000E-03 0.  1.
    9900012    2    1    2    0    0 -0.33047647647E+02  0.22740234736E+02  0.66257419527E+01  0.50528858995E+02  0.29999997400E+02 0.  0.
        -12    1    1    2    0    0  0.33047647647E+02 -0.22740234736E+02 -0.66257419527E+01  0.40659141005E+02  0.00000000000E+00 0.  1.
         11    1    3    3    0    0 -0.62050028286E-01  0.14884471171E+01 -0.23956615286E+01  0.28210847997E+01  0.51100000000E-03 0. -1.
        -11    1    3    3    0    0 -0.32543707854E+02  0.11431417152E+02  0.19076601624E+00  0.34493573473E+02  0.51100000000E-03 0.  1.
         12    1    3    3    0    0 -0.44188976450E+00  0.98203704670E+01  0.88306374651E+01  0.13214200722E+02  0.00000000000E+00 0. -1.
</event>
<event>
 7    1  0.5601662E-013  0.5052887E+02  0.7816164E-02  0.1300439E+00
        -11   -1    0    0    0    0  0.00000000000E+00  0.00000000000E+00  0.45593999997E+02  0.45594000000E+02  0.51100000000E-03 0. -1.
         11   -1    0    0    0    0 -0.00000000000E+00 -0.00000000000E+00 -0.45593999997E+02  0.45594000000E+02  0.51100000000E-03 0.  1.
    9900012    2    1    2    0    0  0.29849737414E+02 -0.16848554327E+01  0.27555752424E+02  0.50528867530E+02  0.30000023346E+02 0.  0.
        -12    1    1    2    0    0 -0.29849737414E+02  0.16848554327E+01 -0.27555752424E+02  0.40659132470E+02  0.00000000000E+00 0.  1.
         11    1    3    3    0    0  0.44850423628E+01 -0.53937594356E+01  0.37055001244E+01  0.79334089317E+01  0.51100000000E-03 0. -1.
        -11    1    3    3    0    0  0.46495126094E+01 -0.39891557677E+01 -0.37922005817E+01  0.72050063676E+01  0.51100000000E-03 0.  1.
         12    1    3    3    0    0  0.20715182442E+02  0.76980597705E+01  0.27642452881E+02  0.35390452231E+02  0.00000000000E+00 0. -1.
</event>
<event>
 7    1  0.5601662E-013  0.5052889E+02  0.7816164E-02  0.1300439E+00
        -11   -1    0    0    0    0  0.00000000000E+00  0.00000000000E+00  0.45593999997E+02  0.45594000000E+02  0.51100000000E-03 0.  1.
         11   -1    0    0    0    0 -0.00000000000E+00 -0.00000000000E+00 -0.45593999997E+02  0.45594000000E+02  0.51100000000E-03 0. -1.
    9900012    2    1    2    0    0  0.23373846768E+02 -0.32348112360E+02  0.77734399029E+01  0.50528887197E+02  0.30000083124E+02 0.  0.
        -12    1    1    2    0    0 -0.23373846768E+02  0.32348112360E+02 -0.77734399029E+01  0.40659112803E+02  0.00000000000E+00 0.  1.
         11    1    3    3    0    0  0.51294855008E+01 -0.13177511442E+02  0.10972712406E+01  0.14183174319E+02  0.51100000000E-03 0. -1.
        -11    1    3    3    0    0  0.14156560529E+02 -0.21448376415E+02  0.12742092002E+02  0.28684524847E+02  0.51100000000E-03 0.  1.
        -12    1    3    3    0    0  0.40878007381E+01  0.22777754969E+01 -0.60659233398E+01  0.76611880314E+01  0.00000000000E+00 0.  1.
</event>
<event>
 7    1  0.5601662E-013  0.5052886E+02  0.7816164E-02  0.1300439E+00
        -11   -1    0    0    0    0  0.00000000000E+00  0.00000000000E+00  0.45593999997E+02  0.45594000000E+02  0.51100000000E-03 0.  1.
         11   -1    0    0    0    0 -0.00000000000E+00 -0.00000000000E+00 -0.45593999997E+02  0.45594000000E+02  0.51100000000E-03 0. -1.
    9900012    2    1    2    0    0  0.10477692396E+02 -0.34878560690E+02 -0.18079538947E+02  0.50528858810E+02  0.29999996838E+02 0.  0.
        -12    1    1    2    0    0 -0.10477692396E+02  0.34878560690E+02  0.18079538947E+02  0.40659141190E+02  0.00000000000E+00 0.  1.
         11    1    3    3    0    0  0.64483618533E+00 -0.27888484918E+02 -0.51076223548E+01  0.28359675793E+02  0.51100000000E-03 0. -1.
        -11    1    3    3    0    0  0.61333647848E+01 -0.93741681320E+01 -0.35192675426E+01  0.11742164879E+02  0.51100000000E-03 0.  1.
        -12    1    3    3    0    0  0.36994914258E+01  0.23840923591E+01 -0.94526490498E+01  0.10427018138E+02  0.00000000000E+00 0.  1.
</event>
<event>
 7    1  0.5601662E-013  0.5052886E+02  0.7816164E-02  0.1300439E+00
        -11   -1    0    0    0    0  0.00000000000E+00  0.00000000000E+00  0.45593999997E+02  0.45594000000E+02  0.51100000000E-03 0.  1.
         11   -1    0    0    0    0 -0.00000000000E+00 -0.00000000000E+00 -0.45593999997E+02  0.45594000000E+02  0.51100000000E-03 0. -1.
    9900012    2    1    2    0    0  0.34395399184E+02 -0.44530803937E+01 -0.21220097187E+02  0.50528856691E+02  0.29999990397E+02 0.  0.
        -12    1    1    2    0    0 -0.34395399184E+02  0.44530803937E+01  0.21220097187E+02  0.40659143309E+02  0.00000000000E+00 0.  1.
         11    1    3    3    0    0  0.97353805848E+01 -0.10711854450E+02 -0.13216225379E+02  0.19600767189E+02  0.51100000000E-03 0. -1.
        -11    1    3    3    0    0  0.16220474027E+02 -0.14431488535E+01  0.10961271166E+01  0.16321395504E+02  0.51100000000E-03 0.  1.
        -12    1    3    3    0    0  0.84395445722E+01  0.77019229101E+01 -0.90999989253E+01  0.14606693998E+02  0.00000000000E+00 0.  1.
</event>
<event>
 7    1  0.5601662E-013  0.5052890E+02  0.7816164E-02  0.1300439E+00
        -11   -1    0    0    0    0  0.00000000000E+00  0.00000000000E+00  0.45593999997E+02  0.45594000000E+02  0.51100000000E-03 0.  1.
         11   -1    0    0    0    0 -0.00000000000E+00 -0.00000000000E+00 -0.45593999997E+02  0.45594000000E+02  0.51100000000E-03 0. -1.
    9900012    2    1    2    0    0 -0.39460539933E+02 -0.85603429762E+01 -0.47695531664E+01  0.50528901128E+02  0.30000125470E+02 0.  0.
        -12    1    1    2    0    0  0.39460539933E+02  0.85603429762E+01  0.47695531664E+01  0.40659098872E+02  0.00000000000E+00 0.  1.
         11    1    3    3    0    0 -0.13187712197E+02  0.10532509563E+01 -0.33304491726E+01  0.13642469810E+02  0.51100000000E-03 0. -1.
        -11    1    3    3    0    0 -0.15256030747E+01 -0.32862199123E+01 -0.94464765841E+01  0.10117441681E+02  0.51100000000E-03 0.  1.
         12    1    3    3    0    0 -0.24747224661E+02 -0.63273740202E+01  0.80073725903E+01  0.26768989637E+02  0.00000000000E+00 0. -1.
</event>
<event>
 7    1  0.5601662E-013  0.5052888E+02  0.7816164E-02  0.1300439E+00
        -11   -1    0    0    0    0  0.00000000000E+00  0.00000000000E+00  0.45593999997E+02  0.45594000000E+02  0.51100000000E-03 0.  1.
         11   -1    0    0    0    0 -0.00000000000E+00 -0.00000000000E+00 -0.45593999997E+02  0.45594000000E+02  0.51100000000E-03 0. -1.
    9900012    2    1    2    0    0 -0.24552974354E+01 -0.18284942597E+02 -0.36232528841E+02  0.50528883464E+02  0.30000071777E+02 0.  0.
        -12    1    1    2    0    0  0.24552974354E+01  0.18284942597E+02  0.36232528841E+02  0.40659116536E+02  0.00000000000E+00 0.  1.
         11    1    3    3    0    0  0.74016993981E+00 -0.11920982826E+02 -0.16296038865E+02  0.20204419468E+02  0.51100000000E-03 0. -1.
        -11    1    3    3    0    0  0.70741536514E+01 -0.86747680100E+01 -0.14951579273E+02  0.18677392027E+02  0.51100000000E-03 0.  1.
         12    1    3    3    0    0 -0.10269621027E+02  0.23108082388E+01 -0.49849107029E+01  0.11647071969E+02  0.00000000000E+00 0. -1.
</event>
<event>
 7    1  0.5601662E-013  0.5052886E+02  0.7816164E-02  0.1300439E+00
        -11   -1    0    0    0    0  0.00000000000E+00  0.00000000000E+00  0.45593999997E+02  0.45594000000E+02  0.51100000000E-03 0.  1.
         11   -1    0    0    0    0 -0.00000000000E+00 -0.00000000000E+00 -0.45593999997E+02  0.45594000000E+02  0.51100000000E-03 0. -1.
    9900012    2    1    2    0    0 -0.18076618563E+02  0.24415116582E+02 -0.27024131576E+02  0.50528859037E+02  0.29999997530E+02 0.  0.
        -12    1    1    2    0    0  0.18076618563E+02 -0.24415116582E+02  0.27024131576E+02  0.40659140963E+02  0.00000000000E+00 0.  1.
         11    1    3    3    0    0 -0.12827310954E+01  0.78363184033E+01  0.13247941290E+01  0.80503642729E+01  0.51100000000E-03 0. -1.
        -11    1    3    3    0    0  0.26655135892E+01  0.66916657517E+00  0.17549717943E+01  0.32607779531E+01  0.51100000000E-03 0.  1.
         12    1    3    3    0    0 -0.19459401057E+02  0.15909631603E+02 -0.30103897500E+02  0.39217716811E+02  0.00000000000E+00 0. -1.
</event>
<event>
 7    1  0.5601662E-013  0.5052886E+02  0.7816164E-02  0.1300439E+00
        -11   -1    0    0    0    0  0.00000000000E+00  0.00000000000E+00  0.45593999997E+02  0.45594000000E+02  0.51100000000E-03 0.  1.
         11   -1    0    0    0    0 -0.00000000000E+00 -0.00000000000E+00 -0.45593999997E+02  0.45594000000E+02  0.51100000000E-03 0. -1.
    9900012    2    1    2    0    0  0.11376189329E+01  0.19301969740E+02 -0.35767382963E+02  0.50528857158E+02  0.29999991817E+02 0.  0.
        -12    1    1    2    0    0 -0.11376189329E+01 -0.19301969740E+02  0.35767382963E+02  0.40659142842E+02  0.00000000000E+00 0.  1.
         11    1    3    3    0    0  0.99267566426E+01  0.75060397679E+00 -0.10153095573E+02  0.14219326768E+02  0.51100000000E-03 0. -1.
        -11    1    3    3    0    0 -0.11878169885E+01  0.55204317991E+01 -0.19028600951E+02  0.19848771521E+02  0.51100000000E-03 0.  1.
        -12    1    3    3    0    0 -0.76013207212E+01  0.13030933964E+02 -0.65856864385E+01  0.16460758869E+02  0.00000000000E+00 0.  1.
</event>
<event>
 7    1  0.5601662E-013  0.5052886E+02  0.7816164E-02  0.1300439E+00
        -11   -1    0    0    0    0  0.00000000000E+00  0.00000000000E+00  0.45593999997E+02  0.45594000000E+02  0.51100000000E-03 0.  1.
         11   -1    0    0    0    0 -0.00000000000E+00 -0.00000000000E+00 -0.45593999997E+02  0.45594000000E+02  0.51100000000E-03 0. -1.
    9900012    2    1    2    0    0  0.10421733250E+02 -0.37239963197E+02  0.12559391865E+02  0.50528859491E+02  0.29999998910E+02 0.  0.
        -12    1    1    2    0    0 -0.10421733250E+02  0.37239963197E+02 -0.12559391865E+02  0.40659140509E+02  0.00000000000E+00 0.  1.
         11    1    3    3    0    0 -0.48857678008E+01 -0.64697972004E+01 -0.31110302860E+00  0.81133093231E+01  0.51100000000E-03 0. -1.
        -11    1    3    3    0    0 -0.24278323507E+01 -0.82290489895E+01  0.10609890071E+02  0.13644829965E+02  0.51100000000E-03 0.  1.
        -12    1    3    3    0    0  0.17735333402E+02 -0.22541117008E+02  0.22606048220E+01  0.28770720203E+02  0.00000000000E+00 0.  1.
</event>
<event>
 7    1  0.5601662E-013  0.5052886E+02  0.7816164E-02  0.1300439E+00
        -11   -1    0    0    0    0  0.00000000000E+00  0.00000000000E+00  0.45593999997E+02  0.45594000000E+02  0.51100000000E-03 0.  1.
         11   -1    0    0    0    0 -0.00000000000E+00 -0.00000000000E+00 -0.45593999997E+02  0.45594000000E+02  0.51100000000E-03 0. -1.
    9900012    2    1    2    0    0  0.68503559669E+01 -0.32620350773E+02 -0.23284137043E+02  0.50528859586E+02  0.29999999197E+02 0.  0.
        -12    1    1    2    0    0 -0.68503559669E+01  0.32620350773E+02  0.23284137043E+02  0.40659140414E+02  0.00000000000E+00 0.  1.
         11    1    3    3    0    0  0.13653733156E+02 -0.74336193062E+01 -0.77220225514E+01  0.17358362758E+02  0.51100000000E-03 0. -1.
        -11    1    3    3    0    0  0.40402922359E+01 -0.72913761757E+01 -0.51524368821E+01  0.97997823431E+01  0.51100000000E-03 0.  1.
        -12    1    3    3    0    0 -0.10843669425E+02 -0.17895355291E+02 -0.10409677609E+02  0.23370714484E+02  0.00000000000E+00 0.  1.
</event>
<event>
 7    1  0.5601662E-013  0.5052882E+02  0.7816164E-02  0.1300439E+00
        -11   -1    0    0    0    0  0.00000000000E+00  0.00000000000E+00  0.45593999997E+02  0.45594000000E+02  0.51100000000E-03 0. -1.
         11   -1    0    0    0    0 -0.00000000000E+00 -0.00000000000E+00 -0.45593999997E+02  0.45594000000E+02  0.51100000000E-03 0.  1.
    9900012    2    1    2    0    0  0.58770334421E+01 -0.40020298844E+02  0.41237210284E+01  0.50528820019E+02  0.29999878929E+02 0.  0.
        -12    1    1    2    0    0 -0.58770334421E+01  0.40020298844E+02 -0.41237210284E+01  0.40659179981E+02  0.00000000000E+00 0.  1.
         11    1    3    3    0    0 -0.83902667796E+01 -0.14186155356E+02  0.63843082371E+01  0.17674924960E+02  0.51100000000E-03 0. -1.
        -11    1    3    3    0    0 -0.87948645276E+00  0.84886210740E+00 -0.17904811801E+01  0.21679221424E+01  0.51100000000E-03 0.  1.
        -12    1    3    3    0    0  0.15146786674E+02 -0.26683005595E+02 -0.47010602863E+00  0.30685972916E+02  0.00000000000E+00 0.  1.
</event>
<event>
 7    1  0.5601662E-013  0.5052886E+02  0.7816164E-02  0.1300439E+00
        -11   -1    0    0    0    0  0.00000000000E+00  0.00000000000E+00  0.45593999997E+02  0.45594000000E+02  0.51100000000E-03 0.  1.
         11   -1    0    0    0    0 -0.00000000000E+00 -0.00000000000E+00 -0.45593999997E+02  0.45594000000E+02  0.51100000000E-03 0. -1.
    9900012    2    1    2    0    0 -0.31805717476E+02  0.80592236565E+01 -0.24012719458E+02  0.50528862701E+02  0.30000008666E+02 0.  0.
        -12    1    1    2    0    0  0.31805717476E+02 -0.80592236565E+01  0.24012719458E+02  0.40659137299E+02  0.00000000000E+00 0.  1.
         11    1    3    3    0    0 -0.18009906130E+01  0.56118964349E+00  0.26047863931E+01  0.32161177558E+01  0.51100000000E-03 0. -1.
        -11    1    3    3    0    0 -0.19328895395E+01  0.42435316249E+01  0.36363641860E+01  0.59132704469E+01  0.51100000000E-03 0.  1.
         12    1    3    3    0    0 -0.28071837324E+02  0.32545023881E+01 -0.30253870037E+02  0.41399474498E+02  0.00000000000E+00 0. -1.
</event>
<event>
 7    1  0.5601662E-013  0.5052886E+02  0.7816164E-02  0.1300439E+00
        -11   -1    0    0    0    0  0.00000000000E+00  0.00000000000E+00  0.45593999997E+02  0.45594000000E+02  0.51100000000E-03 0.  1.
         11   -1    0    0    0    0 -0.00000000000E+00 -0.00000000000E+00 -0.45593999997E+02  0.45594000000E+02  0.51100000000E-03 0. -1.
    9900012    2    1    2    0    0 -0.14647604252E+02  0.65572316320E+01 -0.37357940546E+02  0.50528864263E+02  0.30000013414E+02 0.  0.
        -12    1    1    2    0    0  0.14647604252E+02 -0.65572316320E+01  0.37357940546E+02  0.40659135737E+02  0.00000000000E+00 0.  1.
         11    1    3    3    0    0 -0.16766466922E+01  0.69426001834E+01 -0.14179864213E+02  0.15877008245E+02  0.51100000000E-03 0. -1.
        -11    1    3    3    0    0 -0.60458248662E+01  0.10922745416E+02 -0.10657487759E+02  0.16414640152E+02  0.51100000000E-03 0.  1.
        -12    1    3    3    0    0 -0.69251326933E+01 -0.11308113967E+02 -0.12520588574E+02  0.18237215866E+02  0.00000000000E+00 0.  1.
</event>
<event>
 7    1  0.5601662E-013  0.5052881E+02  0.7816164E-02  0.1300439E+00
        -11   -1    0    0    0    0  0.00000000000E+00  0.00000000000E+00  0.45593999997E+02  0.45594000000E+02  0.51100000000E-03 0.  1.
         11   -1    0    0    0    0 -0.00000000000E+00 -0.00000000000E+00 -0.45593999997E+02  0.45594000000E+02  0.51100000000E-03 0. -1.
    9900012    2    1    2    0    0 -0.71095337059E+01  0.21803187707E+02 -0.33574475045E+02  0.50528808686E+02  0.29999844483E+02 0.  0.
        -12    1    1    2    0    0  0.71095337059E+01 -0.21803187707E+02  0.33574475045E+02  0.40659191314E+02  0.00000000000E+00 0.  1.
         11    1    3    3    0    0 -0.48266104450E+01 -0.17427084944E+01 -0.12774728974E+01  0.52882074987E+01  0.51100000000E-03 0. -1.
        -11    1    3    3    0    0 -0.32949671356E+01  0.59205269576E+01  0.16532768293E+01  0.69744370680E+01  0.51100000000E-03 0.  1.
         12    1    3    3    0    0  0.10120438747E+01  0.17625369244E+02 -0.33950278977E+02  0.38266164120E+02  0.00000000000E+00 0. -1.
</event>
<event>
 7    1  0.5601662E-013  0.5052886E+02  0.7816164E-02  0.1300439E+00
        -11   -1    0    0    0    0  0.00000000000E+00  0.00000000000E+00  0.45593999997E+02  0.45594000000E+02  0.51100000000E-03 0.  1.
         11   -1    0    0    0    0 -0.00000000000E+00 -0.00000000000E+00 -0.45593999997E+02  0.45594000000E+02  0.51100000000E-03 0. -1.
    9900012    2    1    2    0    0  0.10539505838E+02 -0.26789471298E+02 -0.28712518605E+02  0.50528859818E+02  0.29999999902E+02 0.  0.
        -12    1    1    2    0    0 -0.10539505838E+02  0.26789471298E+02  0.28712518605E+02  0.40659140182E+02  0.00000000000E+00 0.  1.
         11    1    3    3    0    0 -0.22187073406E+01  0.38782445283E+01 -0.27169762838E+01  0.52292832465E+01  0.51100000000E-03 0. -1.
        -11    1    3    3    0    0  0.74164301202E+01 -0.16567360166E+01 -0.54099044360E+01  0.93281979087E+01  0.51100000000E-03 0.  1.
        -12    1    3    3    0    0  0.53417830585E+01 -0.29010979810E+02 -0.20585637885E+02  0.35971378663E+02  0.00000000000E+00 0.  1.
</event>
<event>
 7    1  0.5601662E-013  0.5052886E+02  0.7816164E-02  0.1300439E+00
        -11   -1    0    0    0    0  0.00000000000E+00  0.00000000000E+00  0.45593999997E+02  0.45594000000E+02  0.51100000000E-03 0.  1.
         11   -1    0    0    0    0 -0.00000000000E+00 -0.00000000000E+00 -0.45593999997E+02  0.45594000000E+02  0.51100000000E-03 0. -1.
    9900012    2    1    2    0    0 -0.78428194106E+01  0.32416011953E+02 -0.23256353587E+02  0.50528860444E+02  0.30000001806E+02 0.  0.
        -12    1    1    2    0    0  0.78428194106E+01 -0.32416011953E+02  0.23256353587E+02  0.40659139556E+02  0.00000000000E+00 0.  1.
         11    1    3    3    0    0 -0.13039997229E+02  0.40047964192E+01 -0.13116069275E+02  0.18923826135E+02  0.51100000000E-03 0. -1.
        -11    1    3    3    0    0  0.34826326009E+01  0.39358995561E+01 -0.63853997241E+00  0.52941258680E+01  0.51100000000E-03 0.  1.
        -12    1    3    3    0    0  0.17145452178E+01  0.24475315978E+02 -0.95017443395E+01  0.26310908442E+02  0.00000000000E+00 0.  1.
</event>
<event>
 7    1  0.5601662E-013  0.5052884E+02  0.7816164E-02  0.1300439E+00
        -11   -1    0    0    0    0  0.00000000000E+00  0.00000000000E+00  0.45593999997E+02  0.45594000000E+02  0.51100000000E-03 0.  1.
         11   -1    0    0    0    0 -0.00000000000E+00 -0.00000000000E+00 -0.45593999997E+02  0.45594000000E+02  0.51100000000E-03 0. -1.
    9900012    2    1    2    0    0  0.59740498822E+01  0.43535495816E+01 -0.39981548739E+02  0.50528844752E+02  0.29999954108E+02 0.  0.
        -12    1    1    2    0    0 -0.59740498822E+01 -0.43535495816E+01  0.39981548739E+02  0.40659155248E+02  0.00000000000E+00 0.  1.
         11    1    3    3    0    0  0.37906963156E+01  0.63513024760E+01  0.20767413400E+00  0.73994290662E+01  0.51100000000E-03 0.  1.
        -11    1    3    3    0    0  0.60980897609E+01  0.36914178743E+01 -0.10804768795E+02  0.12944353735E+02  0.51100000000E-03 0. -1.
        -12    1    3    3    0    0 -0.39147361943E+01 -0.56891707687E+01 -0.29384454078E+02  0.30185061950E+02  0.00000000000E+00 0.  1.
</event>
<event>
 7    1  0.5601662E-013  0.5052884E+02  0.7816164E-02  0.1300439E+00
        -11   -1    0    0    0    0  0.00000000000E+00  0.00000000000E+00  0.45593999997E+02  0.45594000000E+02  0.51100000000E-03 0.  1.
         11   -1    0    0    0    0 -0.00000000000E+00 -0.00000000000E+00 -0.45593999997E+02  0.45594000000E+02  0.51100000000E-03 0. -1.
    9900012    2    1    2    0    0  0.35087207556E+02  0.19127306465E+02  0.74967466898E+01  0.50528841160E+02  0.29999943189E+02 0.  0.
        -12    1    1    2    0    0 -0.35087207556E+02 -0.19127306465E+02 -0.74967466898E+01  0.40659158840E+02  0.00000000000E+00 0.  1.
         11    1    3    3    0    0  0.29330317112E+01  0.49879019590E+01  0.36668170591E-01  0.57864657423E+01  0.51100000000E-03 0. -1.
        -11    1    3    3    0    0  0.19236014461E+02  0.19680438333E+02  0.11927013899E+02  0.29993292019E+02  0.51100000000E-03 0.  1.
         12    1    3    3    0    0  0.12918161384E+02 -0.55410338272E+01 -0.44669353800E+01  0.14749083399E+02  0.00000000000E+00 0. -1.
</event>
<event>
 7    1  0.5601662E-013  0.5052886E+02  0.7816164E-02  0.1300439E+00
        -11   -1    0    0    0    0  0.00000000000E+00  0.00000000000E+00  0.45593999997E+02  0.45594000000E+02  0.51100000000E-03 0.  1.
         11   -1    0    0    0    0 -0.00000000000E+00 -0.00000000000E+00 -0.45593999997E+02  0.45594000000E+02  0.51100000000E-03 0. -1.
    9900012    2    1    2    0    0 -0.53347027352E+01 -0.24457064572E+02 -0.32039953043E+02  0.50528860169E+02  0.30000000970E+02 0.  0.
        -12    1    1    2    0    0  0.53347027352E+01  0.24457064572E+02  0.32039953043E+02  0.40659139831E+02  0.00000000000E+00 0.  1.
         11    1    3    3    0    0 -0.10487755339E+01 -0.25573420690E+02 -0.19328896983E+02  0.32073447504E+02  0.51100000000E-03 0. -1.
        -11    1    3    3    0    0 -0.34193695390E+01 -0.44916117829E+01 -0.14235149357E+01  0.58217745994E+01  0.51100000000E-03 0.  1.
         12    1    3    3    0    0 -0.86655766231E+00  0.56079679006E+01 -0.11287541124E+02  0.12633638066E+02  0.00000000000E+00 0. -1.
</event>
<event>
 7    1  0.5601662E-013  0.5052887E+02  0.7816164E-02  0.1300439E+00
        -11   -1    0    0    0    0  0.00000000000E+00  0.00000000000E+00  0.45593999997E+02  0.45594000000E+02  0.51100000000E-03 0. -1.
         11   -1    0    0    0    0 -0.00000000000E+00 -0.00000000000E+00 -0.45593999997E+02  0.45594000000E+02  0.51100000000E-03 0.  1.
    9900012    2    1    2    0    0  0.27877333752E+01 -0.32531646917E+02  0.24229837447E+02  0.50528873950E+02  0.30000042858E+02 0.  0.
        -12    1    1    2    0    0 -0.27877333752E+01  0.32531646917E+02 -0.24229837447E+02  0.40659126050E+02  0.00000000000E+00 0.  1.
         11    1    3    3    0    0 -0.67829958996E+01 -0.13677554462E+02  0.96763129200E+01  0.18075274864E+02  0.51100000000E-03 0. -1.
        -11    1    3    3    0    0  0.64604357331E+01 -0.17875326487E+01  0.13501678019E+02  0.15074077498E+02  0.51100000000E-03 0.  1.
         12    1    3    3    0    0  0.31102935417E+01 -0.17066559806E+02  0.10518465077E+01  0.17379521587E+02  0.00000000000E+00 0. -1.
</event>
<event>
 7    1  0.5601662E-013  0.5052886E+02  0.7816164E-02  0.1300439E+00
        -11   -1    0    0    0    0  0.00000000000E+00  0.00000000000E+00  0.45593999997E+02  0.45594000000E+02  0.51100000000E-03 0.  1.
         11   -1    0    0    0    0 -0.00000000000E+00 -0.00000000000E+00 -0.45593999997E+02  0.45594000000E+02  0.51100000000E-03 0. -1.
    9900012    2    1    2    0    0 -0.30623957499E+02 -0.70077153224E+01 -0.25811442686E+02  0.50528863014E+02  0.30000009616E+02 0.  0.
        -12    1    1    2    0    0  0.30623957499E+02  0.70077153224E+01  0.25811442686E+02  0.40659136986E+02  0.00000000000E+00 0.  1.
         11    1    3    3    0    0 -0.64749712624E+01 -0.25297654040E+01 -0.23135898711E+02  0.24157706333E+02  0.51100000000E-03 0. -1.
        -11    1    3    3    0    0 -0.12123193262E+01  0.22120791950E+00 -0.26891420629E+01  0.29580629452E+01  0.51100000000E-03 0.  1.
        -12    1    3    3    0    0 -0.22936666910E+02 -0.46991578379E+01  0.13598087881E-01  0.23413093735E+02  0.00000000000E+00 0.  1.
</event>
<event>
 7    1  0.5601662E-013  0.5052879E+02  0.7816164E-02  0.1300439E+00
        -11   -1    0    0    0    0  0.00000000000E+00  0.00000000000E+00  0.45593999997E+02  0.45594000000E+02  0.51100000000E-03 0. -1.
         11   -1    0    0    0    0 -0.00000000000E+00 -0.00000000000E+00 -0.45593999997E+02  0.45594000000E+02  0.51100000000E-03 0.  1.
    9900012    2    1    2    0    0  0.31331809100E+02 -0.15720432080E+02  0.20599921593E+02  0.50528794205E+02  0.29999800464E+02 0.  0.
        -12    1    1    2    0    0 -0.31331809100E+02  0.15720432080E+02 -0.20599921593E+02  0.40659205795E+02  0.00000000000E+00 0.  1.
         11    1    3    3    0    0 -0.31324011960E+01 -0.51269971338E+00  0.45390750673E+01  0.55387725154E+01  0.51100000000E-03 0.  1.
        -11    1    3    3    0    0  0.34880927734E+01  0.35733212649E+01 -0.75854230248E+00  0.50508219870E+01  0.51100000000E-03 0. -1.
         12    1    3    3    0    0  0.30976117522E+02 -0.18781053632E+02  0.16819388829E+02  0.39939199702E+02  0.00000000000E+00 0. -1.
</event>
<event>
 7    1  0.5601662E-013  0.5052886E+02  0.7816164E-02  0.1300439E+00
        -11   -1    0    0    0    0  0.00000000000E+00  0.00000000000E+00  0.45593999997E+02  0.45594000000E+02  0.51100000000E-03 0.  1.
         11   -1    0    0    0    0 -0.00000000000E+00 -0.00000000000E+00 -0.45593999997E+02  0.45594000000E+02  0.51100000000E-03 0. -1.
    9900012    2    1    2    0    0 -0.24459671388E+02  0.20689821811E+02 -0.25036401084E+02  0.50528860435E+02  0.30000001778E+02 0.  0.
        -12    1    1    2    0    0  0.24459671388E+02 -0.20689821811E+02  0.25036401084E+02  0.40659139565E+02  0.00000000000E+00 0.  1.
         11    1    3    3    0    0 -0.88144615548E+01  0.69258699759E+01 -0.14458345682E+02  0.18294976566E+02  0.51100000000E-03 0. -1.
        -11    1    3    3    0    0 -0.12362563347E+02 -0.34619722416E+01 -0.33602044842E+01  0.13270614106E+02  0.51100000000E-03 0.  1.
        -12    1    3    3    0    0 -0.32826464855E+01  0.17225924076E+02 -0.72178509179E+01  0.18963269763E+02  0.00000000000E+00 0.  1.
</event>
<event>
 7    1  0.5601662E-013  0.5052888E+02  0.7816164E-02  0.1300439E+00
        -11   -1    0    0    0    0  0.00000000000E+00  0.00000000000E+00  0.45593999997E+02  0.45594000000E+02  0.51100000000E-03 0.  1.
         11   -1    0    0    0    0 -0.00000000000E+00 -0.00000000000E+00 -0.45593999997E+02  0.45594000000E+02  0.51100000000E-03 0. -1.
    9900012    2    1    2    0    0  0.29500105740E+02 -0.86821741077E+01 -0.26599389740E+02  0.50528881460E+02  0.30000065684E+02 0.  0.
        -12    1    1    2    0    0 -0.29500105740E+02  0.86821741077E+01  0.26599389740E+02  0.40659118540E+02  0.00000000000E+00 0.  1.
         11    1    3    3    0    0  0.87868072679E+01 -0.13182520088E+02 -0.14348152112E+02  0.21374196760E+02  0.51100000000E-03 0. -1.
        -11    1    3    3    0    0  0.63479793322E+01 -0.18079661072E+01 -0.11726562039E+02  0.13456516658E+02  0.51100000000E-03 0.  1.
        -12    1    3    3    0    0  0.14365319140E+02  0.63083120880E+01 -0.52467558977E+00  0.15698168042E+02  0.00000000000E+00 0.  1.
</event>
<event>
 7    1  0.5601662E-013  0.5052884E+02  0.7816164E-02  0.1300439E+00
        -11   -1    0    0    0    0  0.00000000000E+00  0.00000000000E+00  0.45593999997E+02  0.45594000000E+02  0.51100000000E-03 0. -1.
         11   -1    0    0    0    0 -0.00000000000E+00 -0.00000000000E+00 -0.45593999997E+02  0.45594000000E+02  0.51100000000E-03 0.  1.
    9900012    2    1    2    0    0  0.14721819793E+02 -0.23870590197E+02  0.29438581318E+02  0.50528842061E+02  0.29999945927E+02 0.  0.
        -12    1    1    2    0    0 -0.14721819793E+02  0.23870590197E+02 -0.29438581318E+02  0.40659157939E+02  0.00000000000E+00 0.  1.
         11    1    3    3    0    0 -0.77524395913E+01 -0.19704470715E+01  0.86768977576E+01  0.11801336206E+02  0.51100000000E-03 0.  1.
        -11    1    3    3    0    0  0.10427563526E+02 -0.11579957481E+02  0.15590725098E+02  0.22043144188E+02  0.51100000000E-03 0. -1.
        -12    1    3    3    0    0  0.12046695858E+02 -0.10320185644E+02  0.51709584618E+01  0.16684361667E+02  0.00000000000E+00 0.  1.
</event>
<event>
 7    1  0.5601662E-013  0.5052886E+02  0.7816164E-02  0.1300439E+00
        -11   -1    0    0    0    0  0.00000000000E+00  0.00000000000E+00  0.45593999997E+02  0.45594000000E+02  0.51100000000E-03 0.  1.
         11   -1    0    0    0    0 -0.00000000000E+00 -0.00000000000E+00 -0.45593999997E+02  0.45594000000E+02  0.51100000000E-03 0. -1.
    9900012    2    1    2    0    0  0.13296474043E+02  0.28025231738E+02 -0.26286042537E+02  0.50528857508E+02  0.29999992881E+02 0.  0.
        -12    1    1    2    0    0 -0.13296474043E+02 -0.28025231738E+02  0.26286042537E+02  0.40659142492E+02  0.00000000000E+00 0.  1.
         11    1    3    3    0    0  0.33679909350E+01 -0.13530383978E+01 -0.93536349805E+00  0.37481970304E+01  0.51100000000E-03 0.  1.
        -11    1    3    3    0    0  0.14064380066E+02  0.81720567191E+01 -0.17240623096E+02  0.23702919285E+02  0.51100000000E-03 0. -1.
         12    1    3    3    0    0 -0.41358969585E+01  0.21206213417E+02 -0.81100559431E+01  0.23077741192E+02  0.00000000000E+00 0. -1.
</event>
<event>
 7    1  0.5601662E-013  0.5052894E+02  0.7816164E-02  0.1300439E+00
        -11   -1    0    0    0    0  0.00000000000E+00  0.00000000000E+00  0.45593999997E+02  0.45594000000E+02  0.51100000000E-03 0. -1.
         11   -1    0    0    0    0 -0.00000000000E+00 -0.00000000000E+00 -0.45593999997E+02  0.45594000000E+02  0.51100000000E-03 0.  1.
    9900012    2    1    2    0    0 -0.36166939402E+02  0.11209107359E+02  0.14814443550E+02  0.50528937895E+02  0.30000237226E+02 0.  0.
        -12    1    1    2    0    0  0.36166939402E+02 -0.11209107359E+02 -0.14814443550E+02  0.40659062105E+02  0.00000000000E+00 0.  1.
         11    1    3    3    0    0 -0.12087412710E+02  0.92475714853E+00 -0.13011254595E+01  0.12192360293E+02  0.51100000000E-03 0.  1.
        -11    1    3    3    0    0 -0.85220042053E+00  0.34937728976E+01  0.13529387391E+02  0.13999179192E+02  0.51100000000E-03 0. -1.
         12    1    3    3    0    0 -0.23227326272E+02  0.67905773132E+01  0.25861816185E+01  0.24337398410E+02  0.00000000000E+00 0. -1.
</event>
<event>
 7    1  0.5601662E-013  0.5052886E+02  0.7816164E-02  0.1300439E+00
        -11   -1    0    0    0    0  0.00000000000E+00  0.00000000000E+00  0.45593999997E+02  0.45594000000E+02  0.51100000000E-03 0. -1.
         11   -1    0    0    0    0 -0.00000000000E+00 -0.00000000000E+00 -0.45593999997E+02  0.45594000000E+02  0.51100000000E-03 0.  1.
    9900012    2    1    2    0    0  0.11147368714E+02 -0.38784550057E+02  0.49659375991E+01  0.50528859717E+02  0.29999999595E+02 0.  0.
        -12    1    1    2    0    0 -0.11147368714E+02  0.38784550057E+02 -0.49659375991E+01  0.40659140283E+02  0.00000000000E+00 0.  1.
         11    1    3    3    0    0  0.45159026259E+01 -0.29226222402E+01  0.15227314447E+01  0.55905105848E+01  0.51100000000E-03 0. -1.
        -11    1    3    3    0    0  0.72394159276E+01 -0.33399987203E+02  0.11838887437E+02  0.36168045899E+02  0.51100000000E-03 0.  1.
        -12    1    3    3    0    0 -0.60794983983E+00 -0.24619406130E+01 -0.83956812828E+01  0.87703032326E+01  0.00000000000E+00 0.  1.
</event>
<event>
 7    1  0.5601662E-013  0.5052886E+02  0.7816164E-02  0.1300439E+00
        -11   -1    0    0    0    0  0.00000000000E+00  0.00000000000E+00  0.45593999997E+02  0.45594000000E+02  0.51100000000E-03 0.  1.
         11   -1    0    0    0    0 -0.00000000000E+00 -0.00000000000E+00 -0.45593999997E+02  0.45594000000E+02  0.51100000000E-03 0. -1.
    9900012    2    1    2    0    0 -0.34634305311E+02 -0.19987678397E+02 -0.73568715270E+01  0.50528856492E+02  0.29999989794E+02 0.  0.
        -12    1    1    2    0    0  0.34634305311E+02  0.19987678397E+02  0.73568715270E+01  0.40659143508E+02  0.00000000000E+00 0.  1.
         11    1    3    3    0    0 -0.12922121221E+02 -0.14746742878E+02 -0.68067669729E+01  0.20755233539E+02  0.51100000000E-03 0. -1.
        -11    1    3    3    0    0  0.23038803304E+01  0.23908482775E+01 -0.29744867050E+01  0.44577563282E+01  0.51100000000E-03 0.  1.
        -12    1    3    3    0    0 -0.24016064421E+02 -0.76317837968E+01  0.24243821509E+01  0.25315866626E+02  0.00000000000E+00 0.  1.
</event>
<event>
 7    1  0.5601662E-013  0.5052887E+02  0.7816164E-02  0.1300439E+00
        -11   -1    0    0    0    0  0.00000000000E+00  0.00000000000E+00  0.45593999997E+02  0.45594000000E+02  0.51100000000E-03 0. -1.
         11   -1    0    0    0    0 -0.00000000000E+00 -0.00000000000E+00 -0.45593999997E+02  0.45594000000E+02  0.51100000000E-03 0.  1.
    9900012    2    1    2    0    0  0.28493639539E+02  0.19891600951E+02  0.21109279868E+02  0.50528868441E+02  0.30000026114E+02 0.  0.
        -12    1    1    2    0    0 -0.28493639539E+02 -0.19891600951E+02 -0.21109279868E+02  0.40659131559E+02  0.00000000000E+00 0.  1.
         11    1    3    3    0    0  0.17689115028E+02  0.11553546129E+02  0.69830251027E+00  0.21139461802E+02  0.51100000000E-03 0. -1.
        -11    1    3    3    0    0 -0.67122453793E+00  0.81921398569E+01  0.34587325704E+01  0.89176526659E+01  0.51100000000E-03 0.  1.
         12    1    3    3    0    0  0.11475749048E+02  0.14591496486E+00  0.16952244787E+02  0.20471753973E+02  0.00000000000E+00 0. -1.
</event>
<event>
 7    1  0.5601662E-013  0.5052887E+02  0.7816164E-02  0.1300439E+00
        -11   -1    0    0    0    0  0.00000000000E+00  0.00000000000E+00  0.45593999997E+02  0.45594000000E+02  0.51100000000E-03 0. -1.
         11   -1    0    0    0    0 -0.00000000000E+00 -0.00000000000E+00 -0.45593999997E+02  0.45594000000E+02  0.51100000000E-03 0.  1.
    9900012    2    1    2    0    0 -0.14562976280E+02  0.11346039849E+02  0.36226397500E+02  0.50528870961E+02  0.30000033774E+02 0.  0.
        -12    1    1    2    0    0  0.14562976280E+02 -0.11346039849E+02 -0.36226397500E+02  0.40659129039E+02  0.00000000000E+00 0.  1.
         11    1    3    3    0    0 -0.10202748105E+02  0.37179340525E+01  0.64287553744E+01  0.12619350159E+02  0.51100000000E-03 0. -1.
        -11    1    3    3    0    0 -0.76856384553E+01  0.12718692774E+02  0.11996175790E+02  0.19098230761E+02  0.51100000000E-03 0.  1.
        -12    1    3    3    0    0  0.33254102809E+01 -0.50905869782E+01  0.17801466335E+02  0.18811290041E+02  0.00000000000E+00 0.  1.
</event>
<event>
 7    1  0.5601662E-013  0.5052888E+02  0.7816164E-02  0.1300439E+00
        -11   -1    0    0    0    0  0.00000000000E+00  0.00000000000E+00  0.45593999997E+02  0.45594000000E+02  0.51100000000E-03 0.  1.
         11   -1    0    0    0    0 -0.00000000000E+00 -0.00000000000E+00 -0.45593999997E+02  0.45594000000E+02  0.51100000000E-03 0. -1.
    9900012    2    1    2    0    0  0.37621353397E+02  0.65801471327E+01 -0.13946317525E+02  0.50528876298E+02  0.30000049997E+02 0.  0.
        -12    1    1    2    0    0 -0.37621353397E+02 -0.65801471327E+01  0.13946317525E+02  0.40659123702E+02  0.00000000000E+00 0.  1.
         11    1    3    3    0    0  0.20500459995E+02 -0.38464160864E+01 -0.38286969489E+01  0.21206666342E+02  0.51100000000E-03 0. -1.
        -11    1    3    3    0    0  0.38883852727E+01 -0.49610276548E+01  0.66953443407E+00  0.63387389945E+01  0.51100000000E-03 0.  1.
        -12    1    3    3    0    0  0.13232508128E+02  0.15387590874E+02 -0.10787155010E+02  0.22983470962E+02  0.00000000000E+00 0.  1.
</event>
<event>
 7    1  0.5601662E-013  0.5052886E+02  0.7816164E-02  0.1300439E+00
        -11   -1    0    0    0    0  0.00000000000E+00  0.00000000000E+00  0.45593999997E+02  0.45594000000E+02  0.51100000000E-03 0.  1.
         11   -1    0    0    0    0 -0.00000000000E+00 -0.00000000000E+00 -0.45593999997E+02  0.45594000000E+02  0.51100000000E-03 0. -1.
    9900012    2    1    2    0    0 -0.22458019005E+02  0.33848900653E+02  0.17478801919E+01  0.50528858614E+02  0.29999996244E+02 0.  0.
        -12    1    1    2    0    0  0.22458019005E+02 -0.33848900653E+02 -0.17478801919E+01  0.40659141386E+02  0.00000000000E+00 0.  1.
         11    1    3    3    0    0 -0.29692121402E+01  0.30884607856E+01  0.10526930467E+01  0.44116860347E+01  0.51100000000E-03 0. -1.
        -11    1    3    3    0    0 -0.18242230541E+02  0.14108688601E+02  0.11956119000E+02  0.25976582742E+02  0.51100000000E-03 0.  1.
         12    1    3    3    0    0 -0.12465763235E+01  0.16651751266E+02 -0.11260931854E+02  0.20140589837E+02  0.00000000000E+00 0. -1.
</event>
<event>
 7    1  0.5601662E-013  0.5052886E+02  0.7816164E-02  0.1300439E+00
        -11   -1    0    0    0    0  0.00000000000E+00  0.00000000000E+00  0.45593999997E+02  0.45594000000E+02  0.51100000000E-03 0.  1.
         11   -1    0    0    0    0 -0.00000000000E+00 -0.00000000000E+00 -0.45593999997E+02  0.45594000000E+02  0.51100000000E-03 0. -1.
    9900012    2    1    2    0    0  0.28471157742E+02  0.19459802218E+02 -0.21537746818E+02  0.50528864943E+02  0.30000015481E+02 0.  0.
        -12    1    1    2    0    0 -0.28471157742E+02 -0.19459802218E+02  0.21537746818E+02  0.40659135057E+02  0.00000000000E+00 0.  1.
         11    1    3    3    0    0  0.10370456060E+02  0.67480585110E+01 -0.43251909543E+01  0.13106865743E+02  0.51100000000E-03 0. -1.
        -11    1    3    3    0    0  0.23414053685E+02  0.61865714823E+01 -0.95221525673E+01  0.26022355129E+02  0.51100000000E-03 0.  1.
        -12    1    3    3    0    0 -0.53133520029E+01  0.65251722251E+01 -0.76904032967E+01  0.11399644071E+02  0.00000000000E+00 0.  1.
</event>
<event>
 7    1  0.5601662E-013  0.5052887E+02  0.7816164E-02  0.1300439E+00
        -11   -1    0    0    0    0  0.00000000000E+00  0.00000000000E+00  0.45593999997E+02  0.45594000000E+02  0.51100000000E-03 0. -1.
         11   -1    0    0    0    0 -0.00000000000E+00 -0.00000000000E+00 -0.45593999997E+02  0.45594000000E+02  0.51100000000E-03 0.  1.
    9900012    2    1    2    0    0 -0.22618965319E+02  0.31936214575E+02  0.11028408974E+02  0.50528865750E+02  0.30000017933E+02 0.  0.
        -12    1    1    2    0    0  0.22618965319E+02 -0.31936214575E+02 -0.11028408974E+02  0.40659134250E+02  0.00000000000E+00 0.  1.
         11    1    3    3    0    0 -0.70711781626E+00  0.13630698596E+02 -0.20325400336E+01  0.13799535466E+02  0.51100000000E-03 0. -1.
        -11    1    3    3    0    0 -0.25501678152E+01 -0.26609748758E+01 -0.22746226163E+01  0.43310566243E+01  0.51100000000E-03 0.  1.
         12    1    3    3    0    0 -0.19361679687E+02  0.20966490855E+02  0.15335571624E+02  0.32398273659E+02  0.00000000000E+00 0. -1.
</event>
<event>
 7    1  0.5601662E-013  0.5052887E+02  0.7816164E-02  0.1300439E+00
        -11   -1    0    0    0    0  0.00000000000E+00  0.00000000000E+00  0.45593999997E+02  0.45594000000E+02  0.51100000000E-03 0.  1.
         11   -1    0    0    0    0 -0.00000000000E+00 -0.00000000000E+00 -0.45593999997E+02  0.45594000000E+02  0.51100000000E-03 0. -1.
    9900012    2    1    2    0    0  0.31260545023E+01 -0.37316048162E+02 -0.15839992123E+02  0.50528867968E+02  0.30000024676E+02 0.  0.
        -12    1    1    2    0    0 -0.31260545023E+01  0.37316048162E+02  0.15839992123E+02  0.40659132032E+02  0.00000000000E+00 0.  1.
         11    1    3    3    0    0  0.98085134076E+01 -0.26266332168E+02 -0.45192745574E+01  0.28399841260E+02  0.51100000000E-03 0. -1.
        -11    1    3    3    0    0  0.42816766492E+01 -0.17265868982E+01 -0.25276869446E+01  0.52633695288E+01  0.51100000000E-03 0.  1.
         12    1    3    3    0    0 -0.10964135555E+02 -0.93231290959E+01 -0.87930306207E+01  0.16865657179E+02  0.00000000000E+00 0. -1.
</event>
<event>
 7    1  0.5601662E-013  0.5052886E+02  0.7816164E-02  0.1300439E+00
        -11   -1    0    0    0    0  0.00000000000E+00  0.00000000000E+00  0.45593999997E+02  0.45594000000E+02  0.51100000000E-03 0.  1.
         11   -1    0    0    0    0 -0.00000000000E+00 -0.00000000000E+00 -0.45593999997E+02  0.45594000000E+02  0.51100000000E-03 0. -1.
    9900012    2    1    2    0    0  0.40577704632E+02 -0.25417817190E+01 -0.39382269630E+00  0.50528857561E+02  0.29999993043E+02 0.  0.
        -12    1    1    2    0    0 -0.40577704632E+02  0.25417817190E+01  0.39382269630E+00  0.40659142439E+02  0.00000000000E+00 0.  1.
         11    1    3    3    0    0  0.23825838077E+02  0.38516226229E+01  0.67234064907E+01  0.25054136425E+02  0.51100000000E-03 0. -1.
        -11    1    3    3    0    0  0.19602354474E+02 -0.51085873295E+01 -0.32734852938E+01  0.20519884787E+02  0.51100000000E-03 0.  1.
        -12    1    3    3    0    0 -0.28504879189E+01 -0.12848170124E+01 -0.38437438933E+01  0.49548363493E+01  0.00000000000E+00 0.  1.
</event>
<event>
 7    1  0.5601662E-013  0.5052886E+02  0.7816164E-02  0.1300439E+00
        -11   -1    0    0    0    0  0.00000000000E+00  0.00000000000E+00  0.45593999997E+02  0.45594000000E+02  0.51100000000E-03 0. -1.
         11   -1    0    0    0    0 -0.00000000000E+00 -0.00000000000E+00 -0.45593999997E+02  0.45594000000E+02  0.51100000000E-03 0.  1.
    9900012    2    1    2    0    0 -0.12621957086E+02 -0.38542570976E+02 -0.28847412247E+01  0.50528864371E+02  0.30000013743E+02 0.  0.
        -12    1    1    2    0    0  0.12621957086E+02  0.38542570976E+02  0.28847412247E+01  0.40659135629E+02  0.00000000000E+00 0.  1.
         11    1    3    3    0    0 -0.10670368516E+02 -0.86314765900E+01  0.47818122545E+01  0.14533577711E+02  0.51100000000E-03 0. -1.
        -11    1    3    3    0    0 -0.52279789779E+01 -0.23693777554E+00 -0.20305488732E+01  0.56134688643E+01  0.51100000000E-03 0.  1.
        -12    1    3    3    0    0  0.32763904078E+01 -0.29674156611E+02 -0.56360046060E+01  0.30381817796E+02  0.00000000000E+00 0.  1.
</event>
<event>
 7    1  0.5601662E-013  0.5052885E+02  0.7816164E-02  0.1300439E+00
        -11   -1    0    0    0    0  0.00000000000E+00  0.00000000000E+00  0.45593999997E+02  0.45594000000E+02  0.51100000000E-03 0.  1.
         11   -1    0    0    0    0 -0.00000000000E+00 -0.00000000000E+00 -0.45593999997E+02  0.45594000000E+02  0.51100000000E-03 0. -1.
    9900012    2    1    2    0    0  0.90114337449E+01 -0.37500582197E+02 -0.12871153192E+02  0.50528853579E+02  0.29999980938E+02 0.  0.
        -12    1    1    2    0    0 -0.90114337449E+01  0.37500582197E+02  0.12871153192E+02  0.40659146421E+02  0.00000000000E+00 0.  1.
         11    1    3    3    0    0  0.87964184792E+01 -0.95816297757E+01 -0.49394633404E+01  0.13913407403E+02  0.51100000000E-03 0. -1.
        -11    1    3    3    0    0  0.10776130233E+02 -0.93391300602E+01 -0.46143363552E+01  0.14987876212E+02  0.51100000000E-03 0.  1.
        -12    1    3    3    0    0 -0.10561114967E+02 -0.18579822361E+02 -0.33173534964E+01  0.21627569963E+02  0.00000000000E+00 0.  1.
</event>
<event>
 7    1  0.5601662E-013  0.5052886E+02  0.7816164E-02  0.1300439E+00
        -11   -1    0    0    0    0  0.00000000000E+00  0.00000000000E+00  0.45593999997E+02  0.45594000000E+02  0.51100000000E-03 0.  1.
         11   -1    0    0    0    0 -0.00000000000E+00 -0.00000000000E+00 -0.45593999997E+02  0.45594000000E+02  0.51100000000E-03 0. -1.
    9900012    2    1    2    0    0 -0.31040021163E+02  0.12641854760E+02 -0.23018827774E+02  0.50528857883E+02  0.29999994020E+02 0.  0.
        -12    1    1    2    0    0  0.31040021163E+02 -0.12641854760E+02  0.23018827774E+02  0.40659142117E+02  0.00000000000E+00 0.  1.
         11    1    3    3    0    0 -0.13008545939E+02  0.35766846515E+01 -0.84072980151E+01  0.15896465038E+02  0.51100000000E-03 0. -1.
        -11    1    3    3    0    0 -0.20277224895E+02  0.80231557079E+01 -0.21332644894E+01  0.21910903555E+02  0.51100000000E-03 0.  1.
        -12    1    3    3    0    0  0.22457496705E+01  0.10420144010E+01 -0.12478265270E+02  0.12721489289E+02  0.00000000000E+00 0.  1.
</event>
<event>
 7    1  0.5601662E-013  0.5052885E+02  0.7816164E-02  0.1300439E+00
        -11   -1    0    0    0    0  0.00000000000E+00  0.00000000000E+00  0.45593999997E+02  0.45594000000E+02  0.51100000000E-03 0.  1.
         11   -1    0    0    0    0 -0.00000000000E+00 -0.00000000000E+00 -0.45593999997E+02  0.45594000000E+02  0.51100000000E-03 0. -1.
    9900012    2    1    2    0    0  0.54626770198E+01 -0.11353423364E+02 -0.38657793986E+02  0.50528854679E+02  0.29999984283E+02 0.  0.
        -12    1    1    2    0    0 -0.54626770198E+01  0.11353423364E+02  0.38657793986E+02  0.40659145321E+02  0.00000000000E+00 0.  1.
         11    1    3    3    0    0  0.43462753266E+01 -0.32536241396E+01 -0.41406842139E+01  0.68279898416E+01  0.51100000000E-03 0. -1.
        -11    1    3    3    0    0  0.11176279519E+02 -0.30240283912E+01 -0.60045333552E+01  0.13042560818E+02  0.51100000000E-03 0.  1.
         12    1    3    3    0    0 -0.10059877826E+02 -0.50757708332E+01 -0.28512576417E+02  0.30658304020E+02  0.00000000000E+00 0. -1.
</event>
<event>
 7    1  0.5601662E-013  0.5052888E+02  0.7816164E-02  0.1300439E+00
        -11   -1    0    0    0    0  0.00000000000E+00  0.00000000000E+00  0.45593999997E+02  0.45594000000E+02  0.51100000000E-03 0.  1.
         11   -1    0    0    0    0 -0.00000000000E+00 -0.00000000000E+00 -0.45593999997E+02  0.45594000000E+02  0.51100000000E-03 0. -1.
    9900012    2    1    2    0    0  0.36789324837E+02 -0.16421198886E+01 -0.17234070823E+02  0.50528878307E+02  0.30000056102E+02 0.  0.
        -12    1    1    2    0    0 -0.36789324837E+02  0.16421198886E+01  0.17234070823E+02  0.40659121693E+02  0.00000000000E+00 0.  1.
         11    1    3    3    0    0  0.95456012629E+01  0.97552869216E+01 -0.10264329857E+02  0.17077487932E+02  0.51100000000E-03 0. -1.
        -11    1    3    3    0    0  0.50883993559E+01  0.23010208208E+01  0.19549256072E+01  0.59167760828E+01  0.51100000000E-03 0.  1.
         12    1    3    3    0    0  0.22155324219E+02 -0.13698427631E+02 -0.89246665730E+01  0.27534614292E+02  0.00000000000E+00 0. -1.
</event>
<event>
 7    1  0.5601662E-013  0.5052886E+02  0.7816164E-02  0.1300439E+00
        -11   -1    0    0    0    0  0.00000000000E+00  0.00000000000E+00  0.45593999997E+02  0.45594000000E+02  0.51100000000E-03 0.  1.
         11   -1    0    0    0    0 -0.00000000000E+00 -0.00000000000E+00 -0.45593999997E+02  0.45594000000E+02  0.51100000000E-03 0. -1.
    9900012    2    1    2    0    0  0.36225352337E+02 -0.16410174272E+02 -0.84614211052E+01  0.50528860576E+02  0.30000002207E+02 0.  0.
        -12    1    1    2    0    0 -0.36225352337E+02  0.16410174272E+02  0.84614211052E+01  0.40659139424E+02  0.00000000000E+00 0.  1.
         11    1    3    3    0    0  0.28001875506E+01  0.88037170047E+00 -0.33218380007E+01  0.44329124302E+01  0.51100000000E-03 0. -1.
        -11    1    3    3    0    0  0.64229024405E+01  0.28937594892E+01  0.73158050669E+01  0.10156206171E+02  0.51100000000E-03 0.  1.
         12    1    3    3    0    0  0.27002262346E+02 -0.20184305462E+02 -0.12455388171E+02  0.35939741975E+02  0.00000000000E+00 0. -1.
</event>
<event>
 7    1  0.5601662E-013  0.5052886E+02  0.7816164E-02  0.1300439E+00
        -11   -1    0    0    0    0  0.00000000000E+00  0.00000000000E+00  0.45593999997E+02  0.45594000000E+02  0.51100000000E-03 0. -1.
         11   -1    0    0    0    0 -0.00000000000E+00 -0.00000000000E+00 -0.45593999997E+02  0.45594000000E+02  0.51100000000E-03 0.  1.
    9900012    2    1    2    0    0 -0.16233359237E+02 -0.27926129750E+02  0.24693622119E+02  0.50528860213E+02  0.30000001103E+02 0.  0.
        -12    1    1    2    0    0  0.16233359237E+02  0.27926129750E+02 -0.24693622119E+02  0.40659139787E+02  0.00000000000E+00 0.  1.
         11    1    3    3    0    0 -0.88451812605E+00 -0.64241058703E+00 -0.15177489360E+01  0.18704613793E+01  0.51100000000E-03 0. -1.
        -11    1    3    3    0    0 -0.90453163648E+01  0.16306075895E+01  0.13770914677E+02  0.16556410256E+02  0.51100000000E-03 0.  1.
         12    1    3    3    0    0 -0.63035247457E+01 -0.28914326752E+02  0.12440456378E+02  0.32101988578E+02  0.00000000000E+00 0. -1.
</event>
<event>
 7    1  0.5601662E-013  0.5052886E+02  0.7816164E-02  0.1300439E+00
        -11   -1    0    0    0    0  0.00000000000E+00  0.00000000000E+00  0.45593999997E+02  0.45594000000E+02  0.51100000000E-03 0.  1.
         11   -1    0    0    0    0 -0.00000000000E+00 -0.00000000000E+00 -0.45593999997E+02  0.45594000000E+02  0.51100000000E-03 0. -1.
    9900012    2    1    2    0    0  0.32979543832E+02 -0.20233913648E+02  0.12494162199E+02  0.50528860044E+02  0.30000000590E+02 0.  0.
        -12    1    1    2    0    0 -0.32979543832E+02  0.20233913648E+02 -0.12494162199E+02  0.40659139956E+02  0.00000000000E+00 0.  1.
         11    1    3    3    0    0  0.74651689715E+01 -0.80438538708E+01  0.57357472178E+00  0.10989145603E+02  0.51100000000E-03 0. -1.
        -11    1    3    3    0    0 -0.24890283343E+01 -0.85312076548E+01  0.34578117590E-02  0.88868879995E+01  0.51100000000E-03 0.  1.
        -12    1    3    3    0    0  0.28003403195E+02 -0.36588521223E+01  0.11917129666E+02  0.30652826441E+02  0.00000000000E+00 0.  1.
</event>
<event>
 7    1  0.5601662E-013  0.5052886E+02  0.7816164E-02  0.1300439E+00
        -11   -1    0    0    0    0  0.00000000000E+00  0.00000000000E+00  0.45593999997E+02  0.45594000000E+02  0.51100000000E-03 0.  1.
         11   -1    0    0    0    0 -0.00000000000E+00 -0.00000000000E+00 -0.45593999997E+02  0.45594000000E+02  0.51100000000E-03 0. -1.
    9900012    2    1    2    0    0  0.20815215227E+02  0.22733182664E+02 -0.26515943230E+02  0.50528855587E+02  0.29999987043E+02 0.  0.
        -12    1    1    2    0    0 -0.20815215227E+02 -0.22733182664E+02  0.26515943230E+02  0.40659144413E+02  0.00000000000E+00 0.  1.
         11    1    3    3    0    0 -0.10935963200E+01  0.55835077122E+01 -0.52926879492E+00  0.57141610934E+01  0.51100000000E-03 0. -1.
        -11    1    3    3    0    0 -0.30116717813E+01  0.95889984779E+01 -0.10406820841E+02  0.14467929327E+02  0.51100000000E-03 0.  1.
        -12    1    3    3    0    0  0.24920483329E+02  0.75606764743E+01 -0.15579853594E+02  0.30346765167E+02  0.00000000000E+00 0.  1.
</event>
<event>
 7    1  0.5601662E-013  0.5052888E+02  0.7816164E-02  0.1300439E+00
        -11   -1    0    0    0    0  0.00000000000E+00  0.00000000000E+00  0.45593999997E+02  0.45594000000E+02  0.51100000000E-03 0.  1.
         11   -1    0    0    0    0 -0.00000000000E+00 -0.00000000000E+00 -0.45593999997E+02  0.45594000000E+02  0.51100000000E-03 0. -1.
    9900012    2    1    2    0    0  0.26486270928E+01  0.28343797355E+02 -0.29030642392E+02  0.50528877141E+02  0.30000052558E+02 0.  0.
        -12    1    1    2    0    0 -0.26486270928E+01 -0.28343797355E+02  0.29030642392E+02  0.40659122859E+02  0.00000000000E+00 0.  1.
         11    1    3    3    0    0  0.21159308666E+01  0.32930900198E+01 -0.12734554149E+02  0.13322555121E+02  0.51100000000E-03 0. -1.
        -11    1    3    3    0    0  0.32255989509E+01 -0.24920244987E+01  0.14554902138E+01  0.43281782216E+01  0.51100000000E-03 0.  1.
         12    1    3    3    0    0 -0.26929027247E+01  0.27542731834E+02 -0.17751578457E+02  0.32878143799E+02  0.00000000000E+00 0. -1.
</event>
<event>
 7    1  0.5601662E-013  0.5052887E+02  0.7816164E-02  0.1300439E+00
        -11   -1    0    0    0    0  0.00000000000E+00  0.00000000000E+00  0.45593999997E+02  0.45594000000E+02  0.51100000000E-03 0.  1.
         11   -1    0    0    0    0 -0.00000000000E+00 -0.00000000000E+00 -0.45593999997E+02  0.45594000000E+02  0.51100000000E-03 0. -1.
    9900012    2    1    2    0    0 -0.39790925027E+02 -0.75119947859E+01 -0.36629808938E+01  0.50528865612E+02  0.30000017513E+02 0.  0.
        -12    1    1    2    0    0  0.39790925027E+02  0.75119947859E+01  0.36629808938E+01  0.40659134388E+02  0.00000000000E+00 0.  1.
         11    1    3    3    0    0 -0.22558630696E+02 -0.72149936493E+01  0.39255612116E+01  0.24007456827E+02  0.51100000000E-03 0. -1.
        -11    1    3    3    0    0 -0.12498350089E+01 -0.32800705837E+01 -0.95220114509E+01  0.10148381788E+02  0.51100000000E-03 0.  1.
         12    1    3    3    0    0 -0.15982459322E+02  0.29830694471E+01  0.19334693454E+01  0.16373026997E+02  0.00000000000E+00 0. -1.
</event>
<event>
 7    1  0.5601662E-013  0.5052888E+02  0.7816164E-02  0.1300439E+00
        -11   -1    0    0    0    0  0.00000000000E+00  0.00000000000E+00  0.45593999997E+02  0.45594000000E+02  0.51100000000E-03 0.  1.
         11   -1    0    0    0    0 -0.00000000000E+00 -0.00000000000E+00 -0.45593999997E+02  0.45594000000E+02  0.51100000000E-03 0. -1.
    9900012    2    1    2    0    0 -0.31555131832E+02  0.83366382935E+01 -0.24247428697E+02  0.50528884400E+02  0.30000074621E+02 0.  0.
        -12    1    1    2    0    0  0.31555131832E+02 -0.83366382935E+01  0.24247428697E+02  0.40659115600E+02  0.00000000000E+00 0.  1.
         11    1    3    3    0    0 -0.22798978722E+02 -0.41358888763E+01 -0.47872587552E+01  0.23660449155E+02  0.51100000000E-03 0. -1.
        -11    1    3    3    0    0 -0.59698109296E+01  0.24747825755E+01 -0.23890475725E+01  0.68899012980E+01  0.51100000000E-03 0.  1.
        -12    1    3    3    0    0 -0.27863421807E+01  0.99977445943E+01 -0.17071122370E+02  0.19978533947E+02  0.00000000000E+00 0.  1.
</event>
<event>
 7    1  0.5601662E-013  0.5052884E+02  0.7816164E-02  0.1300439E+00
        -11   -1    0    0    0    0  0.00000000000E+00  0.00000000000E+00  0.45593999997E+02  0.45594000000E+02  0.51100000000E-03 0.  1.
         11   -1    0    0    0    0 -0.00000000000E+00 -0.00000000000E+00 -0.45593999997E+02  0.45594000000E+02  0.51100000000E-03 0. -1.
    9900012    2    1    2    0    0  0.11657646708E+02  0.10696804913E+02 -0.37454571459E+02  0.50528840082E+02  0.29999939912E+02 0.  0.
        -12    1    1    2    0    0 -0.11657646708E+02 -0.10696804913E+02  0.37454571459E+02  0.40659159918E+02  0.00000000000E+00 0.  1.
         11    1    3    3    0    0  0.78537781994E+01  0.25011910802E+01 -0.14667194063E+02  0.16824516955E+02  0.51100000000E-03 0. -1.
        -11    1    3    3    0    0  0.11031874905E+02 -0.30605577846E+01 -0.10077871419E+02  0.15252303776E+02  0.51100000000E-03 0.  1.
         12    1    3    3    0    0 -0.72280063967E+01  0.11256171618E+02 -0.12709505977E+02  0.18452019351E+02  0.00000000000E+00 0. -1.
</event>
<event>
 7    1  0.5601662E-013  0.5052886E+02  0.7816164E-02  0.1300439E+00
        -11   -1    0    0    0    0  0.00000000000E+00  0.00000000000E+00  0.45593999997E+02  0.45594000000E+02  0.51100000000E-03 0.  1.
         11   -1    0    0    0    0 -0.00000000000E+00 -0.00000000000E+00 -0.45593999997E+02  0.45594000000E+02  0.51100000000E-03 0. -1.
    9900012    2    1    2    0    0  0.39374433129E+02  0.65506001510E+01 -0.77400945619E+01  0.50528863137E+02  0.30000009992E+02 0.  0.
        -12    1    1    2    0    0 -0.39374433129E+02 -0.65506001510E+01  0.77400945619E+01  0.40659136863E+02  0.00000000000E+00 0.  1.
         11    1    3    3    0    0  0.21295129338E+02  0.16346601072E+01 -0.71062592522E+01  0.22508966391E+02  0.51100000000E-03 0. -1.
        -11    1    3    3    0    0  0.21820833409E+02  0.93487121489E+00  0.20426978017E+01  0.21936165786E+02  0.51100000000E-03 0.  1.
         12    1    3    3    0    0 -0.37415296168E+01  0.39810688289E+01 -0.26765331114E+01  0.60837309597E+01  0.00000000000E+00 0. -1.
</event>
<event>
 7    1  0.5601662E-013  0.5052885E+02  0.7816164E-02  0.1300439E+00
        -11   -1    0    0    0    0  0.00000000000E+00  0.00000000000E+00  0.45593999997E+02  0.45594000000E+02  0.51100000000E-03 0. -1.
         11   -1    0    0    0    0 -0.00000000000E+00 -0.00000000000E+00 -0.45593999997E+02  0.45594000000E+02  0.51100000000E-03 0.  1.
    9900012    2    1    2    0    0 -0.24191497923E+01 -0.23938637912E+02  0.32775839864E+02  0.50528851588E+02  0.29999974886E+02 0.  0.
        -12    1    1    2    0    0  0.24191497923E+01  0.23938637912E+02 -0.32775839864E+02  0.40659148412E+02  0.00000000000E+00 0.  1.
         11    1    3    3    0    0 -0.18833799281E+01  0.65486426583E+00 -0.34405791991E+01  0.39766257866E+01  0.51100000000E-03 0. -1.
        -11    1    3    3    0    0 -0.33756835288E+01  0.96685133484E+00  0.49230177506E+01  0.60469946936E+01  0.51100000000E-03 0.  1.
         12    1    3    3    0    0  0.28399136646E+01 -0.25560353513E+02  0.31293401313E+02  0.40505231107E+02  0.00000000000E+00 0. -1.
</event>
<event>
 7    1  0.5601662E-013  0.5052886E+02  0.7816164E-02  0.1300439E+00
        -11   -1    0    0    0    0  0.00000000000E+00  0.00000000000E+00  0.45593999997E+02  0.45594000000E+02  0.51100000000E-03 0. -1.
         11   -1    0    0    0    0 -0.00000000000E+00 -0.00000000000E+00 -0.45593999997E+02  0.45594000000E+02  0.51100000000E-03 0.  1.
    9900012    2    1    2    0    0  0.71820959699E+01 -0.35512823186E+02  0.18450542044E+02  0.50528860623E+02  0.30000002350E+02 0.  0.
        -12    1    1    2    0    0 -0.71820959699E+01  0.35512823186E+02 -0.18450542044E+02  0.40659139377E+02  0.00000000000E+00 0.  1.
         11    1    3    3    0    0  0.60477546727E+01 -0.14785214262E+02  0.56886572517E+01  0.16956966679E+02  0.51100000000E-03 0. -1.
        -11    1    3    3    0    0  0.17879399067E+01  0.26407809231E+01  0.94342858435E+01  0.99587249501E+01  0.51100000000E-03 0.  1.
         12    1    3    3    0    0 -0.65359860945E+00 -0.23368389847E+02  0.33275989491E+01  0.23613168994E+02  0.00000000000E+00 0. -1.
</event>
<event>
 7    1  0.5601662E-013  0.5052878E+02  0.7816164E-02  0.1300439E+00
        -11   -1    0    0    0    0  0.00000000000E+00  0.00000000000E+00  0.45593999997E+02  0.45594000000E+02  0.51100000000E-03 0.  1.
         11   -1    0    0    0    0 -0.00000000000E+00 -0.00000000000E+00 -0.45593999997E+02  0.45594000000E+02  0.51100000000E-03 0. -1.
    9900012    2    1    2    0    0 -0.34119196223E+02 -0.71724405715E+01 -0.20919106521E+02  0.50528776295E+02  0.29999746026E+02 0.  0.
        -12    1    1    2    0    0  0.34119196223E+02  0.71724405715E+01  0.20919106521E+02  0.40659223705E+02  0.00000000000E+00 0.  1.
         11    1    3    3    0    0 -0.14656961777E+02 -0.92978234875E+01 -0.34595607900E+01  0.17698717786E+02  0.51100000000E-03 0. -1.
        -11    1    3    3    0    0 -0.68966675444E+00 -0.65089345924E+01 -0.72993317932E+01  0.98041886278E+01  0.51100000000E-03 0.  1.
         12    1    3    3    0    0 -0.18772567691E+02  0.86343175083E+01 -0.10160213938E+02  0.23025869882E+02  0.00000000000E+00 0. -1.
</event>
<event>
 7    1  0.5601662E-013  0.5052889E+02  0.7816164E-02  0.1300439E+00
        -11   -1    0    0    0    0  0.00000000000E+00  0.00000000000E+00  0.45593999997E+02  0.45594000000E+02  0.51100000000E-03 0.  1.
         11   -1    0    0    0    0 -0.00000000000E+00 -0.00000000000E+00 -0.45593999997E+02  0.45594000000E+02  0.51100000000E-03 0. -1.
    9900012    2    1    2    0    0 -0.33636937731E+02  0.23135765188E+01 -0.22723707047E+02  0.50528891818E+02  0.30000097169E+02 0.  0.
        -12    1    1    2    0    0  0.33636937731E+02 -0.23135765188E+01  0.22723707047E+02  0.40659108182E+02  0.00000000000E+00 0.  1.
         11    1    3    3    0    0  0.16522193241E+01 -0.16045378436E+01 -0.41828124682E+01  0.47749650042E+01  0.51100000000E-03 0. -1.
        -11    1    3    3    0    0  0.17313826055E+01 -0.53021238694E+00 -0.62292447141E+01  0.64870872409E+01  0.51100000000E-03 0.  1.
         12    1    3    3    0    0 -0.37020539660E+02  0.44483267493E+01 -0.12311649865E+02  0.39266839573E+02  0.00000000000E+00 0. -1.
</event>
<event>
 7    1  0.5601662E-013  0.5052886E+02  0.7816164E-02  0.1300439E+00
        -11   -1    0    0    0    0  0.00000000000E+00  0.00000000000E+00  0.45593999997E+02  0.45594000000E+02  0.51100000000E-03 0.  1.
         11   -1    0    0    0    0 -0.00000000000E+00 -0.00000000000E+00 -0.45593999997E+02  0.45594000000E+02  0.51100000000E-03 0. -1.
    9900012    2    1    2    0    0  0.31387404022E+02  0.12323173019E+02 -0.22718626613E+02  0.50528859334E+02  0.29999998433E+02 0.  0.
        -12    1    1    2    0    0 -0.31387404022E+02 -0.12323173019E+02  0.22718626613E+02  0.40659140666E+02  0.00000000000E+00 0.  1.
         11    1    3    3    0    0  0.10535487050E+02  0.21725571109E+01 -0.12067986942E+02  0.16166409647E+02  0.51100000000E-03 0. -1.
        -11    1    3    3    0    0  0.19257218428E+02 -0.18424176514E+01 -0.11009432396E+02  0.22258539178E+02  0.51100000000E-03 0.  1.
        -12    1    3    3    0    0  0.15946985435E+01  0.11993033560E+02  0.35879272483E+00  0.12103910510E+02  0.00000000000E+00 0.  1.
</event>
<event>
 7    1  0.5601662E-013  0.5052887E+02  0.7816164E-02  0.1300439E+00
        -11   -1    0    0    0    0  0.00000000000E+00  0.00000000000E+00  0.45593999997E+02  0.45594000000E+02  0.51100000000E-03 0.  1.
         11   -1    0    0    0    0 -0.00000000000E+00 -0.00000000000E+00 -0.45593999997E+02  0.45594000000E+02  0.51100000000E-03 0. -1.
    9900012    2    1    2    0    0  0.20999966551E+02  0.13494103889E+02 -0.32094786980E+02  0.50528870814E+02  0.30000033325E+02 0.  0.
        -12    1    1    2    0    0 -0.20999966551E+02 -0.13494103889E+02  0.32094786980E+02  0.40659129186E+02  0.00000000000E+00 0.  1.
         11    1    3    3    0    0  0.29589838560E+01 -0.44831607290E+01  0.10276421700E+01  0.54690368688E+01  0.51100000000E-03 0. -1.
        -11    1    3    3    0    0  0.98119621978E+01 -0.41944513649E+00 -0.69691000941E+01  0.12042379033E+02  0.51100000000E-03 0.  1.
         12    1    3    3    0    0  0.82290204967E+01  0.18396709755E+02 -0.26153329056E+02  0.33017454912E+02  0.00000000000E+00 0. -1.
</event>
<event>
 7    1  0.5601662E-013  0.5052890E+02  0.7816164E-02  0.1300439E+00
        -11   -1    0    0    0    0  0.00000000000E+00  0.00000000000E+00  0.45593999997E+02  0.45594000000E+02  0.51100000000E-03 0.  1.
         11   -1    0    0    0    0 -0.00000000000E+00 -0.00000000000E+00 -0.45593999997E+02  0.45594000000E+02  0.51100000000E-03 0. -1.
    9900012    2    1    2    0    0 -0.37290222968E+02  0.16102435532E+02  0.18203310727E+01  0.50528895678E+02  0.30000108903E+02 0.  0.
        -12    1    1    2    0    0  0.37290222968E+02 -0.16102435532E+02 -0.18203310727E+01  0.40659104322E+02  0.00000000000E+00 0.  1.
         11    1    3    3    0    0 -0.12273533275E+02  0.87219342679E+00 -0.33120513571E+01  0.12742449721E+02  0.51100000000E-03 0. -1.
        -11    1    3    3    0    0 -0.15668400990E+02 -0.36705461878E+01  0.34228330145E-01  0.16092634052E+02  0.51100000000E-03 0.  1.
        -12    1    3    3    0    0 -0.93482887028E+01  0.18900788293E+02  0.50981540997E+01  0.21693811906E+02  0.00000000000E+00 0.  1.
</event>
<event>
 7    1  0.5601662E-013  0.5052888E+02  0.7816164E-02  0.1300439E+00
        -11   -1    0    0    0    0  0.00000000000E+00  0.00000000000E+00  0.45593999997E+02  0.45594000000E+02  0.51100000000E-03 0.  1.
         11   -1    0    0    0    0 -0.00000000000E+00 -0.00000000000E+00 -0.45593999997E+02  0.45594000000E+02  0.51100000000E-03 0. -1.
    9900012    2    1    2    0    0 -0.15517409891E+02  0.18515272663E+02 -0.32704108381E+02  0.50528880033E+02  0.30000061348E+02 0.  0.
        -12    1    1    2    0    0  0.15517409891E+02 -0.18515272663E+02  0.32704108381E+02  0.40659119967E+02  0.00000000000E+00 0.  1.
         11    1    3    3    0    0 -0.13977296155E+02  0.20215324020E+02 -0.13290774706E+02  0.27940451421E+02  0.51100000000E-03 0. -1.
        -11    1    3    3    0    0 -0.64666177169E+01 -0.57886792969E+00 -0.10653216159E+02  0.12475706295E+02  0.51100000000E-03 0.  1.
        -12    1    3    3    0    0  0.49265039815E+01 -0.11211834274E+01 -0.87601175164E+01  0.10112722317E+02  0.00000000000E+00 0.  1.
</event>
<event>
 7    1  0.5601662E-013  0.5052888E+02  0.7816164E-02  0.1300439E+00
        -11   -1    0    0    0    0  0.00000000000E+00  0.00000000000E+00  0.45593999997E+02  0.45594000000E+02  0.51100000000E-03 0.  1.
         11   -1    0    0    0    0 -0.00000000000E+00 -0.00000000000E+00 -0.45593999997E+02  0.45594000000E+02  0.51100000000E-03 0. -1.
    9900012    2    1    2    0    0 -0.24805545211E+02  0.64581607664E+01 -0.31561707836E+02  0.50528876605E+02  0.30000050930E+02 0.  0.
        -12    1    1    2    0    0  0.24805545211E+02 -0.64581607664E+01  0.31561707836E+02  0.40659123395E+02  0.00000000000E+00 0.  1.
         11    1    3    3    0    0 -0.33870976001E+01 -0.38888775281E+00  0.76943367283E+00  0.34950954601E+01  0.51100000000E-03 0. -1.
        -11    1    3    3    0    0 -0.17041700395E+02 -0.78230248913E+01 -0.16010176528E+02  0.24656541191E+02  0.51100000000E-03 0.  1.
         12    1    3    3    0    0 -0.43767472163E+01  0.14670073411E+02 -0.16320964980E+02  0.22377239954E+02  0.00000000000E+00 0. -1.
</event>
<event>
 7    1  0.5601662E-013  0.5052879E+02  0.7816164E-02  0.1300439E+00
        -11   -1    0    0    0    0  0.00000000000E+00  0.00000000000E+00  0.45593999997E+02  0.45594000000E+02  0.51100000000E-03 0.  1.
         11   -1    0    0    0    0 -0.00000000000E+00 -0.00000000000E+00 -0.45593999997E+02  0.45594000000E+02  0.51100000000E-03 0. -1.
    9900012    2    1    2    0    0  0.19970145794E+02 -0.21557613369E+02 -0.28100430694E+02  0.50528786746E+02  0.29999777794E+02 0.  0.
        -12    1    1    2    0    0 -0.19970145794E+02  0.21557613369E+02  0.28100430694E+02  0.40659213254E+02  0.00000000000E+00 0.  1.
         11    1    3    3    0    0  0.13973132033E+01 -0.15705632840E+02 -0.43085336942E+01  0.16345728798E+02  0.51100000000E-03 0. -1.
        -11    1    3    3    0    0 -0.11574871087E+01 -0.43970597476E+01 -0.63393632008E+01  0.78013740382E+01  0.51100000000E-03 0.  1.
        -12    1    3    3    0    0  0.19730319700E+02 -0.14549207819E+01 -0.17452533799E+02  0.26381683910E+02  0.00000000000E+00 0.  1.
</event>
<event>
 7    1  0.5601662E-013  0.5052886E+02  0.7816164E-02  0.1300439E+00
        -11   -1    0    0    0    0  0.00000000000E+00  0.00000000000E+00  0.45593999997E+02  0.45594000000E+02  0.51100000000E-03 0.  1.
         11   -1    0    0    0    0 -0.00000000000E+00 -0.00000000000E+00 -0.45593999997E+02  0.45594000000E+02  0.51100000000E-03 0. -1.
    9900012    2    1    2    0    0 -0.12706749051E+02  0.23035951180E+02 -0.31000789925E+02  0.50528862107E+02  0.30000006862E+02 0.  0.
        -12    1    1    2    0    0  0.12706749051E+02 -0.23035951180E+02  0.31000789925E+02  0.40659137893E+02  0.00000000000E+00 0.  1.
         11    1    3    3    0    0 -0.30816422455E+01  0.12949233403E+02 -0.25645198395E+01  0.13555660328E+02  0.51100000000E-03 0.  1.
        -11    1    3    3    0    0  0.23885356746E+01  0.10930737610E+02 -0.17091108238E+02  0.20427728910E+02  0.51100000000E-03 0. -1.
        -12    1    3    3    0    0 -0.12013642480E+02 -0.84401983350E+00 -0.11345161847E+02  0.16545472869E+02  0.00000000000E+00 0.  1.
</event>
<event>
 7    1  0.5601662E-013  0.5052886E+02  0.7816164E-02  0.1300439E+00
        -11   -1    0    0    0    0  0.00000000000E+00  0.00000000000E+00  0.45593999997E+02  0.45594000000E+02  0.51100000000E-03 0.  1.
         11   -1    0    0    0    0 -0.00000000000E+00 -0.00000000000E+00 -0.45593999997E+02  0.45594000000E+02  0.51100000000E-03 0. -1.
    9900012    2    1    2    0    0 -0.69836468512E+01  0.38906154779E+02  0.95239275665E+01  0.50528863274E+02  0.30000010406E+02 0.  0.
        -12    1    1    2    0    0  0.69836468512E+01 -0.38906154779E+02 -0.95239275665E+01  0.40659136726E+02  0.00000000000E+00 0.  1.
         11    1    3    3    0    0 -0.87946241662E+01  0.87796502614E+01  0.49289379064E+01  0.13368698593E+02  0.51100000000E-03 0. -1.
        -11    1    3    3    0    0  0.74622834659E+01  0.14310650277E+01  0.15572022171E+01  0.77561911171E+01  0.51100000000E-03 0.  1.
         12    1    3    3    0    0 -0.56513061509E+01  0.28695439490E+02  0.30377874430E+01  0.29403973563E+02  0.00000000000E+00 0. -1.
</event>
<event>
 7    1  0.5601662E-013  0.5052885E+02  0.7816164E-02  0.1300439E+00
        -11   -1    0    0    0    0  0.00000000000E+00  0.00000000000E+00  0.45593999997E+02  0.45594000000E+02  0.51100000000E-03 0. -1.
         11   -1    0    0    0    0 -0.00000000000E+00 -0.00000000000E+00 -0.45593999997E+02  0.45594000000E+02  0.51100000000E-03 0.  1.
    9900012    2    1    2    0    0 -0.10877894158E+02  0.39040267154E+02  0.32703502917E+01  0.50528853037E+02  0.29999979290E+02 0.  0.
        -12    1    1    2    0    0  0.10877894158E+02 -0.39040267154E+02 -0.32703502917E+01  0.40659146963E+02  0.00000000000E+00 0.  1.
         11    1    3    3    0    0 -0.91611489761E+01  0.95668046466E+01 -0.95114342408E+00  0.13279874841E+02  0.51100000000E-03 0. -1.
        -11    1    3    3    0    0 -0.64679624900E+01  0.53461256034E+00 -0.28404644282E+01  0.70843904318E+01  0.51100000000E-03 0.  1.
        -12    1    3    3    0    0  0.47512173081E+01  0.28938849947E+02  0.70619581440E+01  0.30164587764E+02  0.00000000000E+00 0.  1.
</event>
<event>
 7    1  0.5601662E-013  0.5052887E+02  0.7816164E-02  0.1300439E+00
        -11   -1    0    0    0    0  0.00000000000E+00  0.00000000000E+00  0.45593999997E+02  0.45594000000E+02  0.51100000000E-03 0. -1.
         11   -1    0    0    0    0 -0.00000000000E+00 -0.00000000000E+00 -0.45593999997E+02  0.45594000000E+02  0.51100000000E-03 0.  1.
    9900012    2    1    2    0    0 -0.38780766342E+02  0.21878262190E+01 -0.12017931876E+02  0.50528866853E+02  0.30000021287E+02 0.  0.
        -12    1    1    2    0    0  0.38780766342E+02 -0.21878262190E+01  0.12017931876E+02  0.40659133147E+02  0.00000000000E+00 0.  1.
         11    1    3    3    0    0 -0.24282739564E+01  0.35709890409E+01  0.52176560012E+00  0.43497950228E+01  0.51100000000E-03 0. -1.
        -11    1    3    3    0    0 -0.61551230238E+01  0.41006678365E+01 -0.13587413387E+02  0.15469932739E+02  0.51100000000E-03 0.  1.
         12    1    3    3    0    0 -0.30197369362E+02 -0.54838306584E+01  0.10477159110E+01  0.30709139091E+02  0.00000000000E+00 0. -1.
</event>
<event>
 7    1  0.5601662E-013  0.5052887E+02  0.7816164E-02  0.1300439E+00
        -11   -1    0    0    0    0  0.00000000000E+00  0.00000000000E+00  0.45593999997E+02  0.45594000000E+02  0.51100000000E-03 0. -1.
         11   -1    0    0    0    0 -0.00000000000E+00 -0.00000000000E+00 -0.45593999997E+02  0.45594000000E+02  0.51100000000E-03 0.  1.
    9900012    2    1    2    0    0  0.38451810656E+02 -0.11690008319E+02  0.61617289762E+01  0.50528868907E+02  0.30000027531E+02 0.  0.
        -12    1    1    2    0    0 -0.38451810656E+02  0.11690008319E+02 -0.61617289762E+01  0.40659131093E+02  0.00000000000E+00 0.  1.
         11    1    3    3    0    0  0.14462159547E+02 -0.74599305769E+01  0.17782225522E+01  0.16369688411E+02  0.51100000000E-03 0. -1.
        -11    1    3    3    0    0 -0.22969663700E+01 -0.29291733336E+01 -0.49860979137E+01  0.62223213988E+01  0.51100000000E-03 0.  1.
         12    1    3    3    0    0  0.26286617479E+02 -0.13009044085E+01  0.93696043377E+01  0.27936859097E+02  0.00000000000E+00 0. -1.
</event>
<event>
 7    1  0.5601662E-013  0.5052886E+02  0.7816164E-02  0.1300439E+00
        -11   -1    0    0    0    0  0.00000000000E+00  0.00000000000E+00  0.45593999997E+02  0.45594000000E+02  0.51100000000E-03 0. -1.
         11   -1    0    0    0    0 -0.00000000000E+00 -0.00000000000E+00 -0.45593999997E+02  0.45594000000E+02  0.51100000000E-03 0.  1.
    9900012    2    1    2    0    0 -0.13788798694E+02 -0.37785215491E+02 -0.59424091315E+01  0.50528859510E+02  0.29999998966E+02 0.  0.
        -12    1    1    2    0    0  0.13788798694E+02  0.37785215491E+02  0.59424091315E+01  0.40659140490E+02  0.00000000000E+00 0.  1.
         11    1    3    3    0    0  0.10475671457E+01 -0.28058782174E+02 -0.96806946507E+01  0.29700311500E+02  0.51100000000E-03 0. -1.
        -11    1    3    3    0    0 -0.20971187688E+01 -0.26832666283E+01 -0.32267351383E+01  0.46914440041E+01  0.51100000000E-03 0.  1.
        -12    1    3    3    0    0 -0.12739247071E+02 -0.70431666886E+01  0.69650206575E+01  0.16137104006E+02  0.00000000000E+00 0.  1.
</event>
<event>
 7    1  0.5601662E-013  0.5052889E+02  0.7816164E-02  0.1300439E+00
        -11   -1    0    0    0    0  0.00000000000E+00  0.00000000000E+00  0.45593999997E+02  0.45594000000E+02  0.51100000000E-03 0. -1.
         11   -1    0    0    0    0 -0.00000000000E+00 -0.00000000000E+00 -0.45593999997E+02  0.45594000000E+02  0.51100000000E-03 0.  1.
    9900012    2    1    2    0    0 -0.10496164834E+02  0.26145946226E+02  0.29315243241E+02  0.50528887042E+02  0.30000082653E+02 0.  0.
        -12    1    1    2    0    0  0.10496164834E+02 -0.26145946226E+02 -0.29315243241E+02  0.40659112958E+02  0.00000000000E+00 0.  1.
         11    1    3    3    0    0  0.22505674055E+01  0.15476104420E+02  0.58948645239E+01  0.16712997627E+02  0.51100000000E-03 0. -1.
        -11    1    3    3    0    0 -0.63222751719E+01  0.13379692377E+02  0.78405865031E+01  0.16747003566E+02  0.51100000000E-03 0.  1.
         12    1    3    3    0    0 -0.64244570673E+01 -0.27098505710E+01  0.15579792214E+02  0.17068885850E+02  0.00000000000E+00 0. -1.
</event>
<event>
 7    1  0.5601662E-013  0.5052887E+02  0.7816164E-02  0.1300439E+00
        -11   -1    0    0    0    0  0.00000000000E+00  0.00000000000E+00  0.45593999997E+02  0.45594000000E+02  0.51100000000E-03 0.  1.
         11   -1    0    0    0    0 -0.00000000000E+00 -0.00000000000E+00 -0.45593999997E+02  0.45594000000E+02  0.51100000000E-03 0. -1.
    9900012    2    1    2    0    0 -0.30007295706E+02 -0.99571450010E+01 -0.25565257699E+02  0.50528869003E+02  0.30000027822E+02 0.  0.
        -12    1    1    2    0    0  0.30007295706E+02  0.99571450010E+01  0.25565257699E+02  0.40659130997E+02  0.00000000000E+00 0.  1.
         11    1    3    3    0    0 -0.11127165319E+02  0.55036519546E+01 -0.16047939525E+02  0.20288922005E+02  0.51100000000E-03 0. -1.
        -11    1    3    3    0    0 -0.16331674424E+02 -0.43783463015E+01 -0.31249604996E+01  0.17194734200E+02  0.51100000000E-03 0.  1.
        -12    1    3    3    0    0 -0.25484559629E+01 -0.11082450654E+02 -0.63923576750E+01  0.13045212798E+02  0.00000000000E+00 0.  1.
</event>
<event>
 7    1  0.5601662E-013  0.5052886E+02  0.7816164E-02  0.1300439E+00
        -11   -1    0    0    0    0  0.00000000000E+00  0.00000000000E+00  0.45593999997E+02  0.45594000000E+02  0.51100000000E-03 0.  1.
         11   -1    0    0    0    0 -0.00000000000E+00 -0.00000000000E+00 -0.45593999997E+02  0.45594000000E+02  0.51100000000E-03 0. -1.
    9900012    2    1    2    0    0 -0.12952519603E+01  0.40140152201E+02 -0.63447571202E+01  0.50528862783E+02  0.30000008915E+02 0.  0.
        -12    1    1    2    0    0  0.12952519603E+01 -0.40140152201E+02  0.63447571202E+01  0.40659137217E+02  0.00000000000E+00 0.  1.
         11    1    3    3    0    0 -0.50467812039E+01 -0.53820371560E+00  0.19373886515E+00  0.50790942862E+01  0.51100000000E-03 0. -1.
        -11    1    3    3    0    0 -0.62736803678E+01  0.12913253673E+02  0.25103928456E+01  0.14574404217E+02  0.51100000000E-03 0.  1.
         12    1    3    3    0    0  0.10025209611E+02  0.27765102243E+02 -0.90488888309E+01  0.30875364279E+02  0.00000000000E+00 0. -1.
</event>
<event>
 7    1  0.5601662E-013  0.5052886E+02  0.7816164E-02  0.1300439E+00
        -11   -1    0    0    0    0  0.00000000000E+00  0.00000000000E+00  0.45593999997E+02  0.45594000000E+02  0.51100000000E-03 0.  1.
         11   -1    0    0    0    0 -0.00000000000E+00 -0.00000000000E+00 -0.45593999997E+02  0.45594000000E+02  0.51100000000E-03 0. -1.
    9900012    2    1    2    0    0  0.15802639654E+02 -0.14101003862E+02 -0.34707406099E+02  0.50528858739E+02  0.29999996624E+02 0.  0.
        -12    1    1    2    0    0 -0.15802639654E+02  0.14101003862E+02  0.34707406099E+02  0.40659141261E+02  0.00000000000E+00 0.  1.
         11    1    3    3    0    0  0.66494234455E-01 -0.19458140424E+01  0.26606720959E+00  0.19650460025E+01  0.51100000000E-03 0. -1.
        -11    1    3    3    0    0 -0.51665828376E+01 -0.70388619020E+01 -0.21420842068E+02  0.23132047688E+02  0.51100000000E-03 0.  1.
         12    1    3    3    0    0  0.20902728257E+02 -0.51163279175E+01 -0.13552631241E+02  0.25431765049E+02  0.00000000000E+00 0. -1.
</event>
<event>
 7    1  0.5601662E-013  0.5052887E+02  0.7816164E-02  0.1300439E+00
        -11   -1    0    0    0    0  0.00000000000E+00  0.00000000000E+00  0.45593999997E+02  0.45594000000E+02  0.51100000000E-03 0.  1.
         11   -1    0    0    0    0 -0.00000000000E+00 -0.00000000000E+00 -0.45593999997E+02  0.45594000000E+02  0.51100000000E-03 0. -1.
    9900012    2    1    2    0    0 -0.44866398914E+00 -0.14301034553E+02 -0.38058426486E+02  0.50528871686E+02  0.30000035977E+02 0.  0.
        -12    1    1    2    0    0  0.44866398914E+00  0.14301034553E+02  0.38058426486E+02  0.40659128314E+02  0.00000000000E+00 0.  1.
         11    1    3    3    0    0 -0.59332992487E+01 -0.17200051765E+02 -0.22725179457E+02  0.29111502920E+02  0.51100000000E-03 0. -1.
        -11    1    3    3    0    0 -0.13638577370E+01 -0.41866399215E+01 -0.19958416386E+01  0.48344023278E+01  0.51100000000E-03 0.  1.
         12    1    3    3    0    0  0.68484929966E+01  0.70856571329E+01 -0.13337405391E+02  0.16582966438E+02  0.00000000000E+00 0. -1.
</event>
<event>
 7    1  0.5601662E-013  0.5052886E+02  0.7816164E-02  0.1300439E+00
        -11   -1    0    0    0    0  0.00000000000E+00  0.00000000000E+00  0.45593999997E+02  0.45594000000E+02  0.51100000000E-03 0.  1.
         11   -1    0    0    0    0 -0.00000000000E+00 -0.00000000000E+00 -0.45593999997E+02  0.45594000000E+02  0.51100000000E-03 0. -1.
    9900012    2    1    2    0    0  0.18867370846E+02  0.14952448231E+02 -0.32766021016E+02  0.50528861741E+02  0.30000005747E+02 0.  0.
        -12    1    1    2    0    0 -0.18867370846E+02 -0.14952448231E+02  0.32766021016E+02  0.40659138259E+02  0.00000000000E+00 0.  1.
         11    1    3    3    0    0  0.95881193821E+01  0.10662184553E+02 -0.78686108339E+01  0.16356321391E+02  0.51100000000E-03 0. -1.
        -11    1    3    3    0    0 -0.14919050771E+01  0.17141706497E+00  0.33449465328E+01  0.36665831694E+01  0.51100000000E-03 0.  1.
         12    1    3    3    0    0  0.10771156541E+02  0.41188466135E+01 -0.28242356715E+02  0.30505957180E+02  0.00000000000E+00 0. -1.
</event>
<event>
 7    1  0.5601662E-013  0.5052886E+02  0.7816164E-02  0.1300439E+00
        -11   -1    0    0    0    0  0.00000000000E+00  0.00000000000E+00  0.45593999997E+02  0.45594000000E+02  0.51100000000E-03 0. -1.
         11   -1    0    0    0    0 -0.00000000000E+00 -0.00000000000E+00 -0.45593999997E+02  0.45594000000E+02  0.51100000000E-03 0.  1.
    9900012    2    1    2    0    0 -0.15837730766E+01  0.35263183404E+02 -0.20178334162E+02  0.50528860677E+02  0.30000002513E+02 0.  0.
        -12    1    1    2    0    0  0.15837730766E+01 -0.35263183404E+02  0.20178334162E+02  0.40659139323E+02  0.00000000000E+00 0.  1.
         11    1    3    3    0    0 -0.23460168127E+01  0.26647467835E+02 -0.10129386976E+02  0.28604122389E+02  0.51100000000E-03 0. -1.
        -11    1    3    3    0    0 -0.17920890043E+01  0.13332680236E+02 -0.44466365079E+01  0.14168433991E+02  0.51100000000E-03 0.  1.
        -12    1    3    3    0    0  0.25543327405E+01 -0.47169646661E+01 -0.56023106775E+01  0.77563042964E+01  0.00000000000E+00 0.  1.
</event>
<event>
 7    1  0.5601662E-013  0.5052882E+02  0.7816164E-02  0.1300439E+00
        -11   -1    0    0    0    0  0.00000000000E+00  0.00000000000E+00  0.45593999997E+02  0.45594000000E+02  0.51100000000E-03 0.  1.
         11   -1    0    0    0    0 -0.00000000000E+00 -0.00000000000E+00 -0.45593999997E+02  0.45594000000E+02  0.51100000000E-03 0. -1.
    9900012    2    1    2    0    0  0.18478398174E+02 -0.11890621127E+02 -0.34210094100E+02  0.50528823813E+02  0.29999890462E+02 0.  0.
        -12    1    1    2    0    0 -0.18478398174E+02  0.11890621127E+02  0.34210094100E+02  0.40659176187E+02  0.00000000000E+00 0.  1.
         11    1    3    3    0    0  0.57276493594E+01 -0.44082649262E+01  0.32025126501E+00  0.72347306776E+01  0.51100000000E-03 0. -1.
        -11    1    3    3    0    0 -0.35209126264E+01 -0.60553514257E+01 -0.26803681754E+01  0.74998986945E+01  0.51100000000E-03 0.  1.
         12    1    3    3    0    0  0.16271661441E+02 -0.14270047754E+01 -0.31849977190E+02  0.35794194441E+02  0.00000000000E+00 0. -1.
</event>
<event>
 7    1  0.5601662E-013  0.5052886E+02  0.7816164E-02  0.1300439E+00
        -11   -1    0    0    0    0  0.00000000000E+00  0.00000000000E+00  0.45593999997E+02  0.45594000000E+02  0.51100000000E-03 0. -1.
         11   -1    0    0    0    0 -0.00000000000E+00 -0.00000000000E+00 -0.45593999997E+02  0.45594000000E+02  0.51100000000E-03 0.  1.
    9900012    2    1    2    0    0 -0.11567577242E+02 -0.23210115181E+01  0.38909762951E+02  0.50528860922E+02  0.30000003257E+02 0.  0.
        -12    1    1    2    0    0  0.11567577242E+02  0.23210115181E+01 -0.38909762951E+02  0.40659139078E+02  0.00000000000E+00 0.  1.
         11    1    3    3    0    0  0.12964443053E+01 -0.25357618225E+01 -0.14476244869E+01  0.31947570758E+01  0.51100000000E-03 0.  1.
        -11    1    3    3    0    0 -0.49667904576E+01  0.62987018017E+01  0.28312532659E+01  0.85063886082E+01  0.51100000000E-03 0. -1.
         12    1    3    3    0    0 -0.78972310896E+01 -0.60839514973E+01  0.37526134172E+02  0.38827715238E+02  0.00000000000E+00 0. -1.
</event>
<event>
 7    1  0.5601662E-013  0.5052886E+02  0.7816164E-02  0.1300439E+00
        -11   -1    0    0    0    0  0.00000000000E+00  0.00000000000E+00  0.45593999997E+02  0.45594000000E+02  0.51100000000E-03 0. -1.
         11   -1    0    0    0    0 -0.00000000000E+00 -0.00000000000E+00 -0.45593999997E+02  0.45594000000E+02  0.51100000000E-03 0.  1.
    9900012    2    1    2    0    0  0.21115505495E+01  0.36660789833E+01  0.40438434769E+02  0.50528858501E+02  0.29999995901E+02 0.  0.
        -12    1    1    2    0    0 -0.21115505495E+01 -0.36660789833E+01 -0.40438434769E+02  0.40659141499E+02  0.00000000000E+00 0.  1.
         11    1    3    3    0    0  0.21636973419E+00 -0.75648639802E+01  0.57120068274E+01  0.94816140587E+01  0.51100000000E-03 0. -1.
        -11    1    3    3    0    0 -0.63420566830E+01  0.35487141328E+01  0.39436311475E+01  0.82684509949E+01  0.51100000000E-03 0.  1.
        -12    1    3    3    0    0  0.82372374983E+01  0.76822288308E+01  0.30782796794E+02  0.32778793448E+02  0.00000000000E+00 0.  1.
</event>
<event>
 7    1  0.5601662E-013  0.5052878E+02  0.7816164E-02  0.1300439E+00
        -11   -1    0    0    0    0  0.00000000000E+00  0.00000000000E+00  0.45593999997E+02  0.45594000000E+02  0.51100000000E-03 0.  1.
         11   -1    0    0    0    0 -0.00000000000E+00 -0.00000000000E+00 -0.45593999997E+02  0.45594000000E+02  0.51100000000E-03 0. -1.
    9900012    2    1    2    0    0 -0.39005875391E+02  0.11446425382E+02 -0.83248035435E+00  0.50528782194E+02  0.29999763955E+02 0.  0.
        -12    1    1    2    0    0  0.39005875391E+02 -0.11446425382E+02  0.83248035435E+00  0.40659217806E+02  0.00000000000E+00 0.  1.
         11    1    3    3    0    0 -0.98606290933E+01 -0.25105652324E+01 -0.52323719592E+01  0.11441707062E+02  0.51100000000E-03 0. -1.
        -11    1    3    3    0    0 -0.23169159022E+02  0.78769893215E+01  0.12366620903E+02  0.27418792887E+02  0.51100000000E-03 0.  1.
         12    1    3    3    0    0 -0.59760872760E+01  0.60800012933E+01 -0.79667292978E+01  0.11668282245E+02  0.00000000000E+00 0. -1.
</event>
<event>
 7    1  0.5601662E-013  0.5052887E+02  0.7816164E-02  0.1300439E+00
        -11   -1    0    0    0    0  0.00000000000E+00  0.00000000000E+00  0.45593999997E+02  0.45594000000E+02  0.51100000000E-03 0.  1.
         11   -1    0    0    0    0 -0.00000000000E+00 -0.00000000000E+00 -0.45593999997E+02  0.45594000000E+02  0.51100000000E-03 0. -1.
    9900012    2    1    2    0    0  0.11966352048E+02 -0.35607216471E+02 -0.15559490263E+02  0.50528865929E+02  0.30000018478E+02 0.  0.
        -12    1    1    2    0    0 -0.11966352048E+02  0.35607216471E+02  0.15559490263E+02  0.40659134071E+02  0.00000000000E+00 0.  1.
         11    1    3    3    0    0  0.53296450604E+01 -0.15733850635E+02 -0.46632537613E+01  0.17254133076E+02  0.51100000000E-03 0. -1.
        -11    1    3    3    0    0 -0.40167361585E+01 -0.18281946266E+02 -0.11582249282E+01  0.18753805318E+02  0.51100000000E-03 0.  1.
        -12    1    3    3    0    0  0.10653443146E+02 -0.15914195697E+01 -0.97380115733E+01  0.14520927536E+02  0.00000000000E+00 0.  1.
</event>
<event>
 7    1  0.5601662E-013  0.5052886E+02  0.7816164E-02  0.1300439E+00
        -11   -1    0    0    0    0  0.00000000000E+00  0.00000000000E+00  0.45593999997E+02  0.45594000000E+02  0.51100000000E-03 0. -1.
         11   -1    0    0    0    0 -0.00000000000E+00 -0.00000000000E+00 -0.45593999997E+02  0.45594000000E+02  0.51100000000E-03 0.  1.
    9900012    2    1    2    0    0  0.37280827360E+02  0.16140948456E+02 -0.16659354878E+01  0.50528860231E+02  0.30000001157E+02 0.  0.
        -12    1    1    2    0    0 -0.37280827360E+02 -0.16140948456E+02  0.16659354878E+01  0.40659139769E+02  0.00000000000E+00 0.  1.
         11    1    3    3    0    0  0.97024209345E+00  0.54053143188E+01 -0.31508852448E+01  0.63314193268E+01  0.51100000000E-03 0. -1.
        -11    1    3    3    0    0  0.58828095951E+00  0.15860916034E+01 -0.62880909070E+01  0.65116701834E+01  0.51100000000E-03 0.  1.
         12    1    3    3    0    0  0.35722304307E+02  0.91495425342E+01  0.77730406640E+01  0.37685770720E+02  0.00000000000E+00 0. -1.
</event>
<event>
 7    1  0.5601662E-013  0.5052887E+02  0.7816164E-02  0.1300439E+00
        -11   -1    0    0    0    0  0.00000000000E+00  0.00000000000E+00  0.45593999997E+02  0.45594000000E+02  0.51100000000E-03 0.  1.
         11   -1    0    0    0    0 -0.00000000000E+00 -0.00000000000E+00 -0.45593999997E+02  0.45594000000E+02  0.51100000000E-03 0. -1.
    9900012    2    1    2    0    0 -0.65144448811E+01  0.35073663871E+02 -0.19508075127E+02  0.50528869603E+02  0.30000029645E+02 0.  0.
        -12    1    1    2    0    0  0.65144448811E+01 -0.35073663871E+02  0.19508075127E+02  0.40659130397E+02  0.00000000000E+00 0.  1.
         11    1    3    3    0    0 -0.24020523794E+01  0.54831439849E+00 -0.82214074119E+01  0.85826595183E+01  0.51100000000E-03 0. -1.
        -11    1    3    3    0    0  0.27931170351E+01  0.95031347682E+01 -0.12513914363E+02  0.15959609210E+02  0.51100000000E-03 0.  1.
         12    1    3    3    0    0 -0.69055095368E+01  0.25022214705E+02  0.12272466475E+01  0.25986600875E+02  0.00000000000E+00 0. -1.
</event>
<event>
 7    1  0.5601662E-013  0.5052886E+02  0.7816164E-02  0.1300439E+00
        -11   -1    0    0    0    0  0.00000000000E+00  0.00000000000E+00  0.45593999997E+02  0.45594000000E+02  0.51100000000E-03 0.  1.
         11   -1    0    0    0    0 -0.00000000000E+00 -0.00000000000E+00 -0.45593999997E+02  0.45594000000E+02  0.51100000000E-03 0. -1.
    9900012    2    1    2    0    0 -0.14737061662E+02  0.43714747747E+01 -0.37641401120E+02  0.50528857653E+02  0.29999993321E+02 0.  0.
        -12    1    1    2    0    0  0.14737061662E+02 -0.43714747747E+01  0.37641401120E+02  0.40659142347E+02  0.00000000000E+00 0.  1.
         11    1    3    3    0    0 -0.11682468492E+02 -0.26724160871E+01 -0.29030105436E+02  0.31406510467E+02  0.51100000000E-03 0. -1.
        -11    1    3    3    0    0  0.26118789039E+01 -0.20209374784E+01 -0.77180585339E+01  0.83949108092E+01  0.51100000000E-03 0.  1.
        -12    1    3    3    0    0 -0.56664720739E+01  0.90648283403E+01 -0.89323715010E+00  0.10727436376E+02  0.00000000000E+00 0.  1.
</event>
<event>
 7    1  0.5601662E-013  0.5052887E+02  0.7816164E-02  0.1300439E+00
        -11   -1    0    0    0    0  0.00000000000E+00  0.00000000000E+00  0.45593999997E+02  0.45594000000E+02  0.51100000000E-03 0.  1.
         11   -1    0    0    0    0 -0.00000000000E+00 -0.00000000000E+00 -0.45593999997E+02  0.45594000000E+02  0.51100000000E-03 0. -1.
    9900012    2    1    2    0    0 -0.97573705178E+01 -0.11969140543E+02 -0.37612469619E+02  0.50528874633E+02  0.30000044934E+02 0.  0.
        -12    1    1    2    0    0  0.97573705178E+01  0.11969140543E+02  0.37612469619E+02  0.40659125367E+02  0.00000000000E+00 0.  1.
         11    1    3    3    0    0 -0.86008466594E+01 -0.16172333635E+02 -0.25991301253E+02  0.31797274719E+02  0.51100000000E-03 0. -1.
        -11    1    3    3    0    0 -0.71702900758E+01  0.32620874279E+01 -0.93707808053E+01  0.12241969095E+02  0.51100000000E-03 0.  1.
        -12    1    3    3    0    0  0.60137662174E+01  0.94110566437E+00 -0.22503875604E+01  0.64896308185E+01  0.00000000000E+00 0.  1.
</event>
<event>
 7    1  0.5601662E-013  0.5052885E+02  0.7816164E-02  0.1300439E+00
        -11   -1    0    0    0    0  0.00000000000E+00  0.00000000000E+00  0.45593999997E+02  0.45594000000E+02  0.51100000000E-03 0.  1.
         11   -1    0    0    0    0 -0.00000000000E+00 -0.00000000000E+00 -0.45593999997E+02  0.45594000000E+02  0.51100000000E-03 0. -1.
    9900012    2    1    2    0    0 -0.10856488725E+02  0.38708245794E+02 -0.60806745205E+01  0.50528852905E+02  0.29999978890E+02 0.  0.
        -12    1    1    2    0    0  0.10856488725E+02 -0.38708245794E+02  0.60806745205E+01  0.40659147095E+02  0.00000000000E+00 0.  1.
         11    1    3    3    0    0  0.86721000193E+00  0.12638015026E+02 -0.49717803225E+01  0.13608456078E+02  0.51100000000E-03 0. -1.
        -11    1    3    3    0    0  0.62511183883E+01  0.13759518892E+02 -0.17403768168E+00  0.15113938290E+02  0.51100000000E-03 0.  1.
         12    1    3    3    0    0 -0.17974817116E+02  0.12310711875E+02 -0.93485651636E+00  0.21806458537E+02  0.00000000000E+00 0. -1.
</event>
<event>
 7    1  0.5601662E-013  0.5052887E+02  0.7816164E-02  0.1300439E+00
        -11   -1    0    0    0    0  0.00000000000E+00  0.00000000000E+00  0.45593999997E+02  0.45594000000E+02  0.51100000000E-03 0. -1.
         11   -1    0    0    0    0 -0.00000000000E+00 -0.00000000000E+00 -0.45593999997E+02  0.45594000000E+02  0.51100000000E-03 0.  1.
    9900012    2    1    2    0    0  0.33076505031E+02 -0.16406044623E+02  0.17027966554E+02  0.50528866583E+02  0.30000020467E+02 0.  0.
        -12    1    1    2    0    0 -0.33076505031E+02  0.16406044623E+02 -0.17027966554E+02  0.40659133417E+02  0.00000000000E+00 0.  1.
         11    1    3    3    0    0  0.45900515365E+01 -0.17616970762E+01 -0.44750867201E+01  0.66481990878E+01  0.51100000000E-03 0. -1.
        -11    1    3    3    0    0 -0.85218668188E+00  0.35297793830E+01  0.11237005001E+01  0.38010877007E+01  0.51100000000E-03 0.  1.
         12    1    3    3    0    0  0.29338640176E+02 -0.18174126930E+02  0.20379352774E+02  0.40079579795E+02  0.00000000000E+00 0. -1.
</event>
<event>
 7    1  0.5601662E-013  0.5052883E+02  0.7816164E-02  0.1300439E+00
        -11   -1    0    0    0    0  0.00000000000E+00  0.00000000000E+00  0.45593999997E+02  0.45594000000E+02  0.51100000000E-03 0.  1.
         11   -1    0    0    0    0 -0.00000000000E+00 -0.00000000000E+00 -0.45593999997E+02  0.45594000000E+02  0.51100000000E-03 0. -1.
    9900012    2    1    2    0    0 -0.26335362315E+02  0.25822604162E+02 -0.17111690487E+02  0.50528829506E+02  0.29999907766E+02 0.  0.
        -12    1    1    2    0    0  0.26335362315E+02 -0.25822604162E+02  0.17111690487E+02  0.40659170494E+02  0.00000000000E+00 0.  1.
         11    1    3    3    0    0 -0.16154786962E+02  0.81347219928E+01 -0.19558136418E+01  0.18192747207E+02  0.51100000000E-03 0. -1.
        -11    1    3    3    0    0 -0.11525073380E+02  0.10519242725E+01 -0.39309675714E+01  0.12222371595E+02  0.51100000000E-03 0.  1.
        -12    1    3    3    0    0  0.13444980274E+01  0.16635957897E+02 -0.11224909273E+02  0.20113710704E+02  0.00000000000E+00 0.  1.
</event>
<event>
 7    1  0.5601662E-013  0.5052886E+02  0.7816164E-02  0.1300439E+00
        -11   -1    0    0    0    0  0.00000000000E+00  0.00000000000E+00  0.45593999997E+02  0.45594000000E+02  0.51100000000E-03 0.  1.
         11   -1    0    0    0    0 -0.00000000000E+00 -0.00000000000E+00 -0.45593999997E+02  0.45594000000E+02  0.51100000000E-03 0. -1.
    9900012    2    1    2    0    0  0.26249749466E+02  0.46306018164E+01 -0.30702989559E+02  0.50528863412E+02  0.30000010826E+02 0.  0.
        -12    1    1    2    0    0 -0.26249749466E+02 -0.46306018164E+01  0.30702989559E+02  0.40659136588E+02  0.00000000000E+00 0.  1.
         11    1    3    3    0    0  0.10920047808E+02  0.14766273016E+02 -0.19474338419E+02  0.26768267035E+02  0.51100000000E-03 0. -1.
        -11    1    3    3    0    0  0.12236748745E+02 -0.29120084284E+01 -0.93725841378E+01  0.15686400052E+02  0.51100000000E-03 0.  1.
        -12    1    3    3    0    0  0.30929529141E+01 -0.72236627715E+01 -0.18560670022E+01  0.80741963242E+01  0.00000000000E+00 0.  1.
</event>
<event>
 7    1  0.5601662E-013  0.5052886E+02  0.7816164E-02  0.1300439E+00
        -11   -1    0    0    0    0  0.00000000000E+00  0.00000000000E+00  0.45593999997E+02  0.45594000000E+02  0.51100000000E-03 0.  1.
         11   -1    0    0    0    0 -0.00000000000E+00 -0.00000000000E+00 -0.45593999997E+02  0.45594000000E+02  0.51100000000E-03 0. -1.
    9900012    2    1    2    0    0  0.14473391219E+01 -0.20264840597E+02 -0.35219412851E+02  0.50528860848E+02  0.30000003035E+02 0.  0.
        -12    1    1    2    0    0 -0.14473391219E+01  0.20264840597E+02  0.35219412851E+02  0.40659139152E+02  0.00000000000E+00 0.  1.
         11    1    3    3    0    0  0.71179182359E+01  0.49872868563E+01 -0.11383102255E+02  0.14321759927E+02  0.51100000000E-03 0.  1.
        -11    1    3    3    0    0  0.53366732594E+00 -0.15801089473E+02 -0.15675402279E+02  0.22263815177E+02  0.51100000000E-03 0. -1.
        -12    1    3    3    0    0 -0.62042464399E+01 -0.94510379805E+01 -0.81609083173E+01  0.13943285745E+02  0.00000000000E+00 0.  1.
</event>
<event>
 7    1  0.5601662E-013  0.5052887E+02  0.7816164E-02  0.1300439E+00
        -11   -1    0    0    0    0  0.00000000000E+00  0.00000000000E+00  0.45593999997E+02  0.45594000000E+02  0.51100000000E-03 0.  1.
         11   -1    0    0    0    0 -0.00000000000E+00 -0.00000000000E+00 -0.45593999997E+02  0.45594000000E+02  0.51100000000E-03 0. -1.
    9900012    2    1    2    0    0 -0.25513661164E+02  0.10208485356E+02 -0.29966723561E+02  0.50528873100E+02  0.30000040275E+02 0.  0.
        -12    1    1    2    0    0  0.25513661164E+02 -0.10208485356E+02  0.29966723561E+02  0.40659126900E+02  0.00000000000E+00 0.  1.
         11    1    3    3    0    0 -0.35061104936E+01  0.52099615102E+01 -0.16805449526E+02  0.17940447145E+02  0.51100000000E-03 0. -1.
        -11    1    3    3    0    0 -0.23410690403E+01  0.67286437239E+01 -0.10469171017E+02  0.12663285224E+02  0.51100000000E-03 0.  1.
        -12    1    3    3    0    0 -0.19666481631E+02 -0.17301198778E+01 -0.26921030183E+01  0.19925140732E+02  0.00000000000E+00 0.  1.
</event>
<event>
 7    1  0.5601662E-013  0.5052887E+02  0.7816164E-02  0.1300439E+00
        -11   -1    0    0    0    0  0.00000000000E+00  0.00000000000E+00  0.45593999997E+02  0.45594000000E+02  0.51100000000E-03 0.  1.
         11   -1    0    0    0    0 -0.00000000000E+00 -0.00000000000E+00 -0.45593999997E+02  0.45594000000E+02  0.51100000000E-03 0. -1.
    9900012    2    1    2    0    0  0.22013839349E+02 -0.17104196197E+01 -0.34141327719E+02  0.50528869210E+02  0.30000028452E+02 0.  0.
        -12    1    1    2    0    0 -0.22013839349E+02  0.17104196197E+01  0.34141327719E+02  0.40659130790E+02  0.00000000000E+00 0.  1.
         11    1    3    3    0    0  0.89616370710E+01  0.27543546508E+01 -0.72615802217E+01  0.11858665866E+02  0.51100000000E-03 0. -1.
        -11    1    3    3    0    0  0.26375360838E+01  0.97925979525E+01 -0.95455835647E+01  0.13927301860E+02  0.51100000000E-03 0.  1.
        -12    1    3    3    0    0  0.10414666195E+02 -0.14257372223E+02 -0.17334163932E+02  0.24742901485E+02  0.00000000000E+00 0.  1.
</event>
<event>
 7    1  0.5601662E-013  0.5052884E+02  0.7816164E-02  0.1300439E+00
        -11   -1    0    0    0    0  0.00000000000E+00  0.00000000000E+00  0.45593999997E+02  0.45594000000E+02  0.51100000000E-03 0.  1.
         11   -1    0    0    0    0 -0.00000000000E+00 -0.00000000000E+00 -0.45593999997E+02  0.45594000000E+02  0.51100000000E-03 0. -1.
    9900012    2    1    2    0    0 -0.50447643716E+01 -0.20186089073E+02 -0.34931920620E+02  0.50528844601E+02  0.29999953648E+02 0.  0.
        -12    1    1    2    0    0  0.50447643716E+01  0.20186089073E+02  0.34931920620E+02  0.40659155399E+02  0.00000000000E+00 0.  1.
         11    1    3    3    0    0 -0.53342806366E+01  0.44744246517E+00 -0.40788735407E+01  0.67299304819E+01  0.51100000000E-03 0.  1.
        -11    1    3    3    0    0 -0.82955583366E+00 -0.66633708077E+00  0.37141527257E+01  0.38635603680E+01  0.51100000000E-03 0. -1.
         12    1    3    3    0    0  0.11190720986E+01 -0.19967194457E+02 -0.34567199805E+02  0.39935353751E+02  0.00000000000E+00 0. -1.
</event>
<event>
 7    1  0.5601662E-013  0.5052886E+02  0.7816164E-02  0.1300439E+00
        -11   -1    0    0    0    0  0.00000000000E+00  0.00000000000E+00  0.45593999997E+02  0.45594000000E+02  0.51100000000E-03 0.  1.
         11   -1    0    0    0    0 -0.00000000000E+00 -0.00000000000E+00 -0.45593999997E+02  0.45594000000E+02  0.51100000000E-03 0. -1.
    9900012    2    1    2    0    0 -0.38289996714E+02  0.13453723004E+02  0.24574433350E+01  0.50528861559E+02  0.30000005195E+02 0.  0.
        -12    1    1    2    0    0  0.38289996714E+02 -0.13453723004E+02 -0.24574433350E+01  0.40659138441E+02  0.00000000000E+00 0.  1.
         11    1    3    3    0    0 -0.30131887158E+01 -0.22422924195E+01  0.44241570533E+01  0.58034771840E+01  0.51100000000E-03 0.  1.
        -11    1    3    3    0    0 -0.38098365182E+02  0.12765703869E+02  0.60687656359E-01  0.40180247735E+02  0.51100000000E-03 0. -1.
         12    1    3    3    0    0  0.28215571833E+01  0.29303115541E+01 -0.20274013747E+01  0.45451366401E+01  0.00000000000E+00 0. -1.
</event>
<event>
 7    1  0.5601662E-013  0.5052887E+02  0.7816164E-02  0.1300439E+00
        -11   -1    0    0    0    0  0.00000000000E+00  0.00000000000E+00  0.45593999997E+02  0.45594000000E+02  0.51100000000E-03 0.  1.
         11   -1    0    0    0    0 -0.00000000000E+00 -0.00000000000E+00 -0.45593999997E+02  0.45594000000E+02  0.51100000000E-03 0. -1.
    9900012    2    1    2    0    0  0.77371295478E+00  0.40593927636E+02 -0.21678667259E+01  0.50528865248E+02  0.30000016407E+02 0.  0.
        -12    1    1    2    0    0 -0.77371295478E+00 -0.40593927636E+02  0.21678667259E+01  0.40659134752E+02  0.00000000000E+00 0.  1.
         11    1    3    3    0    0 -0.21697797160E+00  0.57407874096E+01 -0.43125835257E+01  0.71834599219E+01  0.51100000000E-03 0. -1.
        -11    1    3    3    0    0 -0.20670131736E+01 -0.16319890909E+01 -0.53591686879E+01  0.59713165332E+01  0.51100000000E-03 0.  1.
        -12    1    3    3    0    0  0.30577041000E+01  0.36485129317E+02  0.75038854877E+01  0.37374088793E+02  0.00000000000E+00 0.  1.
</event>
<event>
 7    1  0.5601662E-013  0.5052884E+02  0.7816164E-02  0.1300439E+00
        -11   -1    0    0    0    0  0.00000000000E+00  0.00000000000E+00  0.45593999997E+02  0.45594000000E+02  0.51100000000E-03 0.  1.
         11   -1    0    0    0    0 -0.00000000000E+00 -0.00000000000E+00 -0.45593999997E+02  0.45594000000E+02  0.51100000000E-03 0. -1.
    9900012    2    1    2    0    0  0.31238926218E+02  0.22218790663E+02 -0.13550721295E+02  0.50528840916E+02  0.29999942449E+02 0.  0.
        -12    1    1    2    0    0 -0.31238926218E+02 -0.22218790663E+02  0.13550721295E+02  0.40659159084E+02  0.00000000000E+00 0.  1.
         11    1    3    3    0    0  0.13540505780E+02  0.17093331479E+01 -0.53348490967E+00  0.13658393866E+02  0.51100000000E-03 0. -1.
        -11    1    3    3    0    0 -0.10872175776E+01  0.12995983160E+02 -0.44291298653E+00  0.13048900051E+02  0.51100000000E-03 0.  1.
         12    1    3    3    0    0  0.18785638016E+02  0.75134743554E+01 -0.12574323399E+02  0.23821547000E+02  0.00000000000E+00 0. -1.
</event>
<event>
 7    1  0.5601662E-013  0.5052886E+02  0.7816164E-02  0.1300439E+00
        -11   -1    0    0    0    0  0.00000000000E+00  0.00000000000E+00  0.45593999997E+02  0.45594000000E+02  0.51100000000E-03 0. -1.
         11   -1    0    0    0    0 -0.00000000000E+00 -0.00000000000E+00 -0.45593999997E+02  0.45594000000E+02  0.51100000000E-03 0.  1.
    9900012    2    1    2    0    0  0.82395215682E+01 -0.17111349253E+02  0.35951049622E+02  0.50528856405E+02  0.29999989530E+02 0.  0.
        -12    1    1    2    0    0 -0.82395215682E+01  0.17111349253E+02 -0.35951049622E+02  0.40659143595E+02  0.00000000000E+00 0.  1.
         11    1    3    3    0    0 -0.12831289737E+01  0.33042236180E+01  0.47741599917E+01  0.59461683098E+01  0.51100000000E-03 0. -1.
        -11    1    3    3    0    0  0.12872074696E+01 -0.16931480409E+01  0.22105631152E+02  0.22207714476E+02  0.51100000000E-03 0.  1.
         12    1    3    3    0    0  0.82354430723E+01 -0.18722424830E+02  0.90712584787E+01  0.22374973620E+02  0.00000000000E+00 0. -1.
</event>
<event>
 7    1  0.5601662E-013  0.5052886E+02  0.7816164E-02  0.1300439E+00
        -11   -1    0    0    0    0  0.00000000000E+00  0.00000000000E+00  0.45593999997E+02  0.45594000000E+02  0.51100000000E-03 0.  1.
         11   -1    0    0    0    0 -0.00000000000E+00 -0.00000000000E+00 -0.45593999997E+02  0.45594000000E+02  0.51100000000E-03 0. -1.
    9900012    2    1    2    0    0 -0.52582502974E+01  0.61248238560E+01 -0.39849756877E+02  0.50528858511E+02  0.29999995931E+02 0.  0.
        -12    1    1    2    0    0  0.52582502974E+01 -0.61248238560E+01  0.39849756877E+02  0.40659141489E+02  0.00000000000E+00 0.  1.
         11    1    3    3    0    0 -0.14142685311E+02  0.40233821251E+01 -0.11383675652E+02  0.18595462435E+02  0.51100000000E-03 0. -1.
        -11    1    3    3    0    0 -0.10200638051E+01 -0.12135664475E+01  0.27810774365E-01  0.15855747820E+01  0.51100000000E-03 0.  1.
        -12    1    3    3    0    0  0.99044988190E+01  0.33150081785E+01 -0.28493891999E+02  0.30347821295E+02  0.00000000000E+00 0.  1.
</event>
<event>
 7    1  0.5601662E-013  0.5052886E+02  0.7816164E-02  0.1300439E+00
        -11   -1    0    0    0    0  0.00000000000E+00  0.00000000000E+00  0.45593999997E+02  0.45594000000E+02  0.51100000000E-03 0.  1.
         11   -1    0    0    0    0 -0.00000000000E+00 -0.00000000000E+00 -0.45593999997E+02  0.45594000000E+02  0.51100000000E-03 0. -1.
    9900012    2    1    2    0    0  0.31729486053E+01  0.11422055030E+02 -0.38892602898E+02  0.50528861985E+02  0.30000006489E+02 0.  0.
        -12    1    1    2    0    0 -0.31729486053E+01 -0.11422055030E+02  0.38892602898E+02  0.40659138015E+02  0.00000000000E+00 0.  1.
         11    1    3    3    0    0 -0.78452966544E+01  0.34921860286E+01 -0.34238787636E+01  0.92448357964E+01  0.51100000000E-03 0. -1.
        -11    1    3    3    0    0  0.74479345354E+01  0.74132872741E+01 -0.70892804955E+01  0.12676216125E+02  0.51100000000E-03 0.  1.
         12    1    3    3    0    0  0.35703107243E+01  0.51658172733E+00 -0.28379443639E+02  0.28607810063E+02  0.00000000000E+00 0. -1.
</event>
<event>
 7    1  0.5601662E-013  0.5052886E+02  0.7816164E-02  0.1300439E+00
        -11   -1    0    0    0    0  0.00000000000E+00  0.00000000000E+00  0.45593999997E+02  0.45594000000E+02  0.51100000000E-03 0. -1.
         11   -1    0    0    0    0 -0.00000000000E+00 -0.00000000000E+00 -0.45593999997E+02  0.45594000000E+02  0.51100000000E-03 0.  1.
    9900012    2    1    2    0    0  0.29297626043E+02 -0.26499602967E+02  0.96221405968E+01  0.50528862788E+02  0.30000008931E+02 0.  0.
        -12    1    1    2    0    0 -0.29297626043E+02  0.26499602967E+02 -0.96221405968E+01  0.40659137212E+02  0.00000000000E+00 0.  1.
         11    1    3    3    0    0  0.97779743127E+01 -0.52058298246E+01  0.14245534450E+02  0.18045628219E+02  0.51100000000E-03 0. -1.
        -11    1    3    3    0    0  0.29354572621E+01 -0.76636860370E+01 -0.71292928872E+01  0.10870869806E+02  0.51100000000E-03 0.  1.
        -12    1    3    3    0    0  0.16584194468E+02 -0.13630087106E+02  0.25058990345E+01  0.21612364762E+02  0.00000000000E+00 0.  1.
</event>
<event>
 7    1  0.5601662E-013  0.5052885E+02  0.7816164E-02  0.1300439E+00
        -11   -1    0    0    0    0  0.00000000000E+00  0.00000000000E+00  0.45593999997E+02  0.45594000000E+02  0.51100000000E-03 0.  1.
         11   -1    0    0    0    0 -0.00000000000E+00 -0.00000000000E+00 -0.45593999997E+02  0.45594000000E+02  0.51100000000E-03 0. -1.
    9900012    2    1    2    0    0  0.31406234012E+02  0.18934831135E+02  0.17558098984E+02  0.50528853367E+02  0.29999980296E+02 0.  0.
        -12    1    1    2    0    0 -0.31406234012E+02 -0.18934831135E+02 -0.17558098984E+02  0.40659146633E+02  0.00000000000E+00 0.  1.
         11    1    3    3    0    0 -0.68390061701E+00  0.19132183344E+01  0.25839381702E+01  0.32870748664E+01  0.51100000000E-03 0.  1.
        -11    1    3    3    0    0  0.36974907373E+01 -0.46789454826E+01  0.93151441373E+01  0.11060555101E+02  0.51100000000E-03 0. -1.
         12    1    3    3    0    0  0.28392643892E+02  0.21700558284E+02  0.56590166770E+01  0.36181223400E+02  0.00000000000E+00 0. -1.
</event>
<event>
 7    1  0.5601662E-013  0.5052886E+02  0.7816164E-02  0.1300439E+00
        -11   -1    0    0    0    0  0.00000000000E+00  0.00000000000E+00  0.45593999997E+02  0.45594000000E+02  0.51100000000E-03 0.  1.
         11   -1    0    0    0    0 -0.00000000000E+00 -0.00000000000E+00 -0.45593999997E+02  0.45594000000E+02  0.51100000000E-03 0. -1.
    9900012    2    1    2    0    0  0.35763088132E+02  0.42902538435E+01 -0.18861619492E+02  0.50528862765E+02  0.30000008862E+02 0.  0.
        -12    1    1    2    0    0 -0.35763088132E+02 -0.42902538435E+01  0.18861619492E+02  0.40659137235E+02  0.00000000000E+00 0.  1.
         11    1    3    3    0    0  0.12824317503E+02  0.13727897144E+02 -0.96885977034E+01  0.21137341487E+02  0.51100000000E-03 0. -1.
        -11    1    3    3    0    0  0.76135302972E+00  0.21951510541E+01 -0.26268105626E+01  0.35069189581E+01  0.51100000000E-03 0.  1.
        -12    1    3    3    0    0  0.22177417599E+02 -0.11632794355E+02 -0.65462112259E+01  0.25884602320E+02  0.00000000000E+00 0.  1.
</event>
<event>
 7    1  0.5601662E-013  0.5052887E+02  0.7816164E-02  0.1300439E+00
        -11   -1    0    0    0    0  0.00000000000E+00  0.00000000000E+00  0.45593999997E+02  0.45594000000E+02  0.51100000000E-03 0. -1.
         11   -1    0    0    0    0 -0.00000000000E+00 -0.00000000000E+00 -0.45593999997E+02  0.45594000000E+02  0.51100000000E-03 0.  1.
    9900012    2    1    2    0    0  0.61389073521E+01 -0.39234277001E+02 -0.87264270661E+01  0.50528865669E+02  0.30000017687E+02 0.  0.
        -12    1    1    2    0    0 -0.61389073521E+01  0.39234277001E+02  0.87264270661E+01  0.40659134331E+02  0.00000000000E+00 0.  1.
         11    1    3    3    0    0  0.93462147615E+01 -0.33593193400E+02 -0.90858823384E+01  0.36033423808E+02  0.51100000000E-03 0. -1.
        -11    1    3    3    0    0 -0.21367372045E+01 -0.87058651933E+01  0.38255926841E+01  0.97464298228E+01  0.51100000000E-03 0.  1.
         12    1    3    3    0    0 -0.10705702049E+01  0.30647815932E+01 -0.34661374117E+01  0.47490120378E+01  0.00000000000E+00 0. -1.
</event>
<event>
 7    1  0.5601662E-013  0.5052886E+02  0.7816164E-02  0.1300439E+00
        -11   -1    0    0    0    0  0.00000000000E+00  0.00000000000E+00  0.45593999997E+02  0.45594000000E+02  0.51100000000E-03 0.  1.
         11   -1    0    0    0    0 -0.00000000000E+00 -0.00000000000E+00 -0.45593999997E+02  0.45594000000E+02  0.51100000000E-03 0. -1.
    9900012    2    1    2    0    0 -0.20535065825E+01 -0.17816505389E+02 -0.36490016605E+02  0.50528855083E+02  0.29999985509E+02 0.  0.
        -12    1    1    2    0    0  0.20535065825E+01  0.17816505389E+02  0.36490016605E+02  0.40659144917E+02  0.00000000000E+00 0.  1.
         11    1    3    3    0    0 -0.64027710439E+01 -0.42437259114E+01 -0.44848310174E+01  0.88948522285E+01  0.51100000000E-03 0.  1.
        -11    1    3    3    0    0 -0.73681379698E-01 -0.10166196952E+02 -0.10967776277E+01  0.10225454065E+02  0.51100000000E-03 0. -1.
        -12    1    3    3    0    0  0.44229458410E+01 -0.34065825257E+01 -0.30908407960E+02  0.31408548789E+02  0.00000000000E+00 0.  1.
</event>
<event>
 7    1  0.5601662E-013  0.5052886E+02  0.7816164E-02  0.1300439E+00
        -11   -1    0    0    0    0  0.00000000000E+00  0.00000000000E+00  0.45593999997E+02  0.45594000000E+02  0.51100000000E-03 0. -1.
         11   -1    0    0    0    0 -0.00000000000E+00 -0.00000000000E+00 -0.45593999997E+02  0.45594000000E+02  0.51100000000E-03 0.  1.
    9900012    2    1    2    0    0 -0.66179767036E+01 -0.35992141376E+02  0.17718185589E+02  0.50528856416E+02  0.29999989561E+02 0.  0.
        -12    1    1    2    0    0  0.66179767036E+01  0.35992141376E+02 -0.17718185589E+02  0.40659143584E+02  0.00000000000E+00 0.  1.
         11    1    3    3    0    0 -0.11445115575E-01 -0.15520639448E+01 -0.26351993063E+01  0.30583180221E+01  0.51100000000E-03 0. -1.
        -11    1    3    3    0    0 -0.32806321942E+01 -0.15330146804E+01 -0.47322665800E+01  0.59587774626E+01  0.51100000000E-03 0.  1.
         12    1    3    3    0    0 -0.33258993939E+01 -0.32907062751E+02  0.25085651475E+02  0.41511760931E+02  0.00000000000E+00 0. -1.
</event>
<event>
 7    1  0.5601662E-013  0.5052886E+02  0.7816164E-02  0.1300439E+00
        -11   -1    0    0    0    0  0.00000000000E+00  0.00000000000E+00  0.45593999997E+02  0.45594000000E+02  0.51100000000E-03 0.  1.
         11   -1    0    0    0    0 -0.00000000000E+00 -0.00000000000E+00 -0.45593999997E+02  0.45594000000E+02  0.51100000000E-03 0. -1.
    9900012    2    1    2    0    0 -0.14332344136E+02  0.19567163838E+02 -0.32632434488E+02  0.50528858719E+02  0.29999996562E+02 0.  0.
        -12    1    1    2    0    0  0.14332344136E+02 -0.19567163838E+02  0.32632434488E+02  0.40659141281E+02  0.00000000000E+00 0.  1.
         11    1    3    3    0    0 -0.62803797108E+01 -0.18810827916E+01 -0.36159422758E+01  0.74871009465E+01  0.51100000000E-03 0. -1.
        -11    1    3    3    0    0 -0.46716977370E+01 -0.16364838333E+01  0.97395757889E+00  0.50449412989E+01  0.51100000000E-03 0.  1.
         12    1    3    3    0    0 -0.33802666877E+01  0.23084730463E+02 -0.29990449791E+02  0.37996816473E+02  0.00000000000E+00 0. -1.
</event>
<event>
 7    1  0.5601662E-013  0.5052886E+02  0.7816164E-02  0.1300439E+00
        -11   -1    0    0    0    0  0.00000000000E+00  0.00000000000E+00  0.45593999997E+02  0.45594000000E+02  0.51100000000E-03 0.  1.
         11   -1    0    0    0    0 -0.00000000000E+00 -0.00000000000E+00 -0.45593999997E+02  0.45594000000E+02  0.51100000000E-03 0. -1.
    9900012    2    1    2    0    0 -0.19981704613E+02 -0.34865983910E+02 -0.61855045458E+01  0.50528858104E+02  0.29999994692E+02 0.  0.
        -12    1    1    2    0    0  0.19981704613E+02  0.34865983910E+02  0.61855045458E+01  0.40659141896E+02  0.00000000000E+00 0.  1.
         11    1    3    3    0    0 -0.36960903553E+00 -0.40354671577E+01 -0.69882926213E+01  0.80782324825E+01  0.51100000000E-03 0. -1.
        -11    1    3    3    0    0  0.41922660580E+01 -0.12243985334E+01  0.91093785304E+00  0.44613960262E+01  0.51100000000E-03 0.  1.
        -12    1    3    3    0    0 -0.23804361635E+02 -0.29606118219E+02 -0.10814977756E+00  0.37989229595E+02  0.00000000000E+00 0.  1.
</event>
<event>
 7    1  0.5601662E-013  0.5052886E+02  0.7816164E-02  0.1300439E+00
        -11   -1    0    0    0    0  0.00000000000E+00  0.00000000000E+00  0.45593999997E+02  0.45594000000E+02  0.51100000000E-03 0.  1.
         11   -1    0    0    0    0 -0.00000000000E+00 -0.00000000000E+00 -0.45593999997E+02  0.45594000000E+02  0.51100000000E-03 0. -1.
    9900012    2    1    2    0    0  0.26431177001E+02 -0.14018629758E+02 -0.27532464311E+02  0.50528859711E+02  0.29999999578E+02 0.  0.
        -12    1    1    2    0    0 -0.26431177001E+02  0.14018629758E+02  0.27532464311E+02  0.40659140289E+02  0.00000000000E+00 0.  1.
         11    1    3    3    0    0  0.22518004238E+01 -0.82211789584E+01 -0.10650802202E+01  0.85902726819E+01  0.51100000000E-03 0. -1.
        -11    1    3    3    0    0  0.15148386873E+02 -0.84628932970E+01 -0.43334197829E+01  0.17884985745E+02  0.51100000000E-03 0.  1.
        -12    1    3    3    0    0  0.90309897044E+01  0.26654424973E+01 -0.22133964308E+02  0.24053601284E+02  0.00000000000E+00 0.  1.
</event>
<event>
 7    1  0.5601662E-013  0.5052894E+02  0.7816164E-02  0.1300439E+00
        -11   -1    0    0    0    0  0.00000000000E+00  0.00000000000E+00  0.45593999997E+02  0.45594000000E+02  0.51100000000E-03 0.  1.
         11   -1    0    0    0    0 -0.00000000000E+00 -0.00000000000E+00 -0.45593999997E+02  0.45594000000E+02  0.51100000000E-03 0. -1.
    9900012    2    1    2    0    0 -0.31424402245E+02  0.15313858907E+02 -0.20764199913E+02  0.50528937922E+02  0.30000237306E+02 0.  0.
        -12    1    1    2    0    0  0.31424402245E+02 -0.15313858907E+02  0.20764199913E+02  0.40659062078E+02  0.00000000000E+00 0.  1.
         11    1    3    3    0    0 -0.44153280244E+01  0.21957470884E+01 -0.14460875834E+01  0.51388322019E+01  0.51100000000E-03 0.  1.
        -11    1    3    3    0    0 -0.85126100882E+01 -0.87291879789E+01 -0.35016798556E+01  0.12685622387E+02  0.51100000000E-03 0. -1.
         12    1    3    3    0    0 -0.18496464132E+02  0.21847299798E+02 -0.15816432474E+02  0.32704483332E+02  0.00000000000E+00 0. -1.
</event>
<event>
 7    1  0.5601662E-013  0.5052886E+02  0.7816164E-02  0.1300439E+00
        -11   -1    0    0    0    0  0.00000000000E+00  0.00000000000E+00  0.45593999997E+02  0.45594000000E+02  0.51100000000E-03 0.  1.
         11   -1    0    0    0    0 -0.00000000000E+00 -0.00000000000E+00 -0.45593999997E+02  0.45594000000E+02  0.51100000000E-03 0. -1.
    9900012    2    1    2    0    0  0.23302747763E+02 -0.27436855917E+02 -0.18904138323E+02  0.50528861277E+02  0.30000004338E+02 0.  0.
        -12    1    1    2    0    0 -0.23302747763E+02  0.27436855917E+02  0.18904138323E+02  0.40659138723E+02  0.00000000000E+00 0.  1.
         11    1    3    3    0    0  0.10713896226E+02 -0.10321448543E+02 -0.56928487503E+01  0.15928854307E+02  0.51100000000E-03 0. -1.
        -11    1    3    3    0    0  0.14958274699E+02 -0.66654055748E+01  0.14502626292E+01  0.16440221269E+02  0.51100000000E-03 0.  1.
        -12    1    3    3    0    0 -0.23694231618E+01 -0.10450001799E+02 -0.14661552202E+02  0.18159785701E+02  0.00000000000E+00 0.  1.
</event>
<event>
 7    1  0.5601662E-013  0.5052887E+02  0.7816164E-02  0.1300439E+00
        -11   -1    0    0    0    0  0.00000000000E+00  0.00000000000E+00  0.45593999997E+02  0.45594000000E+02  0.51100000000E-03 0. -1.
         11   -1    0    0    0    0 -0.00000000000E+00 -0.00000000000E+00 -0.45593999997E+02  0.45594000000E+02  0.51100000000E-03 0.  1.
    9900012    2    1    2    0    0 -0.23397500561E+02  0.33167224949E+02 -0.23785159987E+01  0.50528865950E+02  0.30000018542E+02 0.  0.
        -12    1    1    2    0    0  0.23397500561E+02 -0.33167224949E+02  0.23785159987E+01  0.40659134050E+02  0.00000000000E+00 0.  1.
         11    1    3    3    0    0  0.59246752177E+00  0.36208345580E+01  0.61827586492E+01  0.71894342918E+01  0.51100000000E-03 0. -1.
        -11    1    3    3    0    0 -0.45023140569E+01  0.32148002779E+01 -0.90157093257E+01  0.10577749647E+02  0.51100000000E-03 0.  1.
        -12    1    3    3    0    0 -0.19487654026E+02  0.26331590113E+02  0.45443467778E+00  0.32761682011E+02  0.00000000000E+00 0.  1.
</event>
<event>
 7    1  0.5601662E-013  0.5052887E+02  0.7816164E-02  0.1300439E+00
        -11   -1    0    0    0    0  0.00000000000E+00  0.00000000000E+00  0.45593999997E+02  0.45594000000E+02  0.51100000000E-03 0. -1.
         11   -1    0    0    0    0 -0.00000000000E+00 -0.00000000000E+00 -0.45593999997E+02  0.45594000000E+02  0.51100000000E-03 0.  1.
    9900012    2    1    2    0    0 -0.13462828145E+02  0.37265274192E+02 -0.91222897344E+01  0.50528873445E+02  0.30000041322E+02 0.  0.
        -12    1    1    2    0    0  0.13462828145E+02 -0.37265274192E+02  0.91222897344E+01  0.40659126555E+02  0.00000000000E+00 0.  1.
         11    1    3    3    0    0 -0.48675030159E+01 -0.26575402478E+01 -0.14723847862E+01  0.57378587468E+01  0.51100000000E-03 0. -1.
        -11    1    3    3    0    0 -0.76491779595E+00  0.58287010031E+01 -0.78518215647E+01  0.98086674305E+01  0.51100000000E-03 0.  1.
         12    1    3    3    0    0 -0.78304073336E+01  0.34094113436E+02  0.20191661651E+00  0.34982347267E+02  0.00000000000E+00 0. -1.
</event>
<event>
 7    1  0.5601662E-013  0.5052886E+02  0.7816164E-02  0.1300439E+00
        -11   -1    0    0    0    0  0.00000000000E+00  0.00000000000E+00  0.45593999997E+02  0.45594000000E+02  0.51100000000E-03 0.  1.
         11   -1    0    0    0    0 -0.00000000000E+00 -0.00000000000E+00 -0.45593999997E+02  0.45594000000E+02  0.51100000000E-03 0. -1.
    9900012    2    1    2    0    0  0.28272915228E+01  0.27703369099E+02 -0.29625922162E+02  0.50528862026E+02  0.30000006615E+02 0.  0.
        -12    1    1    2    0    0 -0.28272915228E+01 -0.27703369099E+02  0.29625922162E+02  0.40659137974E+02  0.00000000000E+00 0.  1.
         11    1    3    3    0    0 -0.43368640859E+01 -0.25605630750E+01 -0.29740410072E+01  0.58489138765E+01  0.51100000000E-03 0. -1.
        -11    1    3    3    0    0  0.12458377221E+01 -0.22970258481E+01 -0.31328791157E+01  0.40796288056E+01  0.51100000000E-03 0.  1.
         12    1    3    3    0    0  0.59183178866E+01  0.32560958022E+02 -0.23519002040E+02  0.40600319344E+02  0.00000000000E+00 0. -1.
</event>
<event>
 7    1  0.5601662E-013  0.5052886E+02  0.7816164E-02  0.1300439E+00
        -11   -1    0    0    0    0  0.00000000000E+00  0.00000000000E+00  0.45593999997E+02  0.45594000000E+02  0.51100000000E-03 0.  1.
         11   -1    0    0    0    0 -0.00000000000E+00 -0.00000000000E+00 -0.45593999997E+02  0.45594000000E+02  0.51100000000E-03 0. -1.
    9900012    2    1    2    0    0 -0.28578754327E+02 -0.18099622618E+02 -0.22557137939E+02  0.50528855766E+02  0.29999987587E+02 0.  0.
        -12    1    1    2    0    0  0.28578754327E+02  0.18099622618E+02  0.22557137939E+02  0.40659144234E+02  0.00000000000E+00 0.  1.
         11    1    3    3    0    0 -0.21062698428E+00 -0.21444147014E+01 -0.29662777520E+01  0.36662899642E+01  0.51100000000E-03 0. -1.
        -11    1    3    3    0    0 -0.63430119622E+01  0.98240957175E+00  0.62208215533E+01  0.89385429673E+01  0.51100000000E-03 0.  1.
         12    1    3    3    0    0 -0.22025115381E+02 -0.16937617488E+02 -0.25811681741E+02  0.37924022835E+02  0.00000000000E+00 0. -1.
</event>
<event>
 7    1  0.5601662E-013  0.5052885E+02  0.7816164E-02  0.1300439E+00
        -11   -1    0    0    0    0  0.00000000000E+00  0.00000000000E+00  0.45593999997E+02  0.45594000000E+02  0.51100000000E-03 0. -1.
         11   -1    0    0    0    0 -0.00000000000E+00 -0.00000000000E+00 -0.45593999997E+02  0.45594000000E+02  0.51100000000E-03 0.  1.
    9900012    2    1    2    0    0  0.79020570698E+01 -0.20580513756E+02  0.34163815728E+02  0.50528851491E+02  0.29999974593E+02 0.  0.
        -12    1    1    2    0    0 -0.79020570698E+01  0.20580513756E+02 -0.34163815728E+02  0.40659148509E+02  0.00000000000E+00 0.  1.
         11    1    3    3    0    0  0.15350461228E+01  0.34927205795E+01  0.89580183344E+01  0.97366090805E+01  0.51100000000E-03 0. -1.
        -11    1    3    3    0    0 -0.79445923012E-03  0.89263379623E+00 -0.26805436650E+01  0.28252628774E+01  0.51100000000E-03 0.  1.
        -12    1    3    3    0    0  0.63678054062E+01 -0.24965868132E+02  0.27886341058E+02  0.37966979533E+02  0.00000000000E+00 0.  1.
</event>
<event>
 7    1  0.5601662E-013  0.5052885E+02  0.7816164E-02  0.1300439E+00
        -11   -1    0    0    0    0  0.00000000000E+00  0.00000000000E+00  0.45593999997E+02  0.45594000000E+02  0.51100000000E-03 0. -1.
         11   -1    0    0    0    0 -0.00000000000E+00 -0.00000000000E+00 -0.45593999997E+02  0.45594000000E+02  0.51100000000E-03 0.  1.
    9900012    2    1    2    0    0  0.21853599989E+02 -0.35929468108E+01  0.34098053327E+02  0.50528851707E+02  0.29999975248E+02 0.  0.
        -12    1    1    2    0    0 -0.21853599989E+02  0.35929468108E+01 -0.34098053327E+02  0.40659148293E+02  0.00000000000E+00 0.  1.
         11    1    3    3    0    0 -0.25783430200E+01  0.16689401016E+01  0.56761625936E+01  0.64538388453E+01  0.51100000000E-03 0. -1.
        -11    1    3    3    0    0  0.13895470568E+01  0.10550494912E+01 -0.36712293750E+01  0.40647135000E+01  0.51100000000E-03 0.  1.
        -12    1    3    3    0    0  0.23042395952E+02 -0.63169364036E+01  0.32093120108E+02  0.40010299362E+02  0.00000000000E+00 0.  1.
</event>
<event>
 7    1  0.5601662E-013  0.5052886E+02  0.7816164E-02  0.1300439E+00
        -11   -1    0    0    0    0  0.00000000000E+00  0.00000000000E+00  0.45593999997E+02  0.45594000000E+02  0.51100000000E-03 0.  1.
         11   -1    0    0    0    0 -0.00000000000E+00 -0.00000000000E+00 -0.45593999997E+02  0.45594000000E+02  0.51100000000E-03 0. -1.
    9900012    2    1    2    0    0 -0.17862432110E+02 -0.13733874382E+02 -0.33844933885E+02  0.50528864051E+02  0.30000012770E+02 0.  0.
        -12    1    1    2    0    0  0.17862432110E+02  0.13733874382E+02  0.33844933885E+02  0.40659135949E+02  0.00000000000E+00 0.  1.
         11    1    3    3    0    0 -0.68604481427E+01 -0.12228354645E+02 -0.65320859068E+01  0.15468243359E+02  0.51100000000E-03 0. -1.
        -11    1    3    3    0    0 -0.26922064885E+01 -0.92283254093E+01 -0.73551520155E+01  0.12104058289E+02  0.51100000000E-03 0.  1.
        -12    1    3    3    0    0 -0.83097774792E+01  0.77228056730E+01 -0.19957695963E+02  0.22956562403E+02  0.00000000000E+00 0.  1.
</event>
<event>
 7    1  0.5601662E-013  0.5052884E+02  0.7816164E-02  0.1300439E+00
        -11   -1    0    0    0    0  0.00000000000E+00  0.00000000000E+00  0.45593999997E+02  0.45594000000E+02  0.51100000000E-03 0.  1.
         11   -1    0    0    0    0 -0.00000000000E+00 -0.00000000000E+00 -0.45593999997E+02  0.45594000000E+02  0.51100000000E-03 0. -1.
    9900012    2    1    2    0    0  0.89811812867E+01 -0.18556166392E+02 -0.35045323531E+02  0.50528835844E+02  0.29999927030E+02 0.  0.
        -12    1    1    2    0    0 -0.89811812867E+01  0.18556166392E+02  0.35045323531E+02  0.40659164156E+02  0.00000000000E+00 0.  1.
         11    1    3    3    0    0  0.78583511283E+01 -0.10620371436E+02 -0.22877091808E+02  0.26417935228E+02  0.51100000000E-03 0. -1.
        -11    1    3    3    0    0  0.11361402706E+01  0.39297508389E+01  0.28391702968E+01  0.49794221156E+01  0.51100000000E-03 0.  1.
         12    1    3    3    0    0 -0.13310112116E-01 -0.11865545795E+02 -0.15007402020E+02  0.19131478500E+02  0.00000000000E+00 0. -1.
</event>
<event>
 7    1  0.5601662E-013  0.5052888E+02  0.7816164E-02  0.1300439E+00
        -11   -1    0    0    0    0  0.00000000000E+00  0.00000000000E+00  0.45593999997E+02  0.45594000000E+02  0.51100000000E-03 0. -1.
         11   -1    0    0    0    0 -0.00000000000E+00 -0.00000000000E+00 -0.45593999997E+02  0.45594000000E+02  0.51100000000E-03 0.  1.
    9900012    2    1    2    0    0 -0.32500515407E+02 -0.13057634404E+02  0.20648937523E+02  0.50528881235E+02  0.30000065001E+02 0.  0.
        -12    1    1    2    0    0  0.32500515407E+02  0.13057634404E+02 -0.20648937523E+02  0.40659118765E+02  0.00000000000E+00 0.  1.
         11    1    3    3    0    0 -0.73251811422E+01  0.26388020281E+00  0.37528805417E+01  0.82348056533E+01  0.51100000000E-03 0. -1.
        -11    1    3    3    0    0 -0.22753229856E+02  0.22958295326E+01  0.11473966901E+02  0.25585781576E+02  0.51100000000E-03 0.  1.
         12    1    3    3    0    0 -0.24221044080E+01 -0.15617344139E+02  0.54220900801E+01  0.16708294005E+02  0.00000000000E+00 0. -1.
</event>
<event>
 7    1  0.5601662E-013  0.5052886E+02  0.7816164E-02  0.1300439E+00
        -11   -1    0    0    0    0  0.00000000000E+00  0.00000000000E+00  0.45593999997E+02  0.45594000000E+02  0.51100000000E-03 0.  1.
         11   -1    0    0    0    0 -0.00000000000E+00 -0.00000000000E+00 -0.45593999997E+02  0.45594000000E+02  0.51100000000E-03 0. -1.
    9900012    2    1    2    0    0  0.16473757012E+02  0.16885648194E+02 -0.33115796219E+02  0.50528859032E+02  0.29999997512E+02 0.  0.
        -12    1    1    2    0    0 -0.16473757012E+02 -0.16885648194E+02  0.33115796219E+02  0.40659140968E+02  0.00000000000E+00 0.  1.
         11    1    3    3    0    0  0.97215197173E+01  0.10651696806E+02 -0.15815883959E+02  0.21403475795E+02  0.51100000000E-03 0. -1.
        -11    1    3    3    0    0  0.69806297353E+01 -0.59224985534E+01 -0.13641162652E+02  0.16428222648E+02  0.51100000000E-03 0.  1.
         12    1    3    3    0    0 -0.22839244054E+00  0.12156449942E+02 -0.36587496084E+01  0.12697160588E+02  0.00000000000E+00 0. -1.
</event>
<event>
 7    1  0.5601662E-013  0.5052886E+02  0.7816164E-02  0.1300439E+00
        -11   -1    0    0    0    0  0.00000000000E+00  0.00000000000E+00  0.45593999997E+02  0.45594000000E+02  0.51100000000E-03 0.  1.
         11   -1    0    0    0    0 -0.00000000000E+00 -0.00000000000E+00 -0.45593999997E+02  0.45594000000E+02  0.51100000000E-03 0. -1.
    9900012    2    1    2    0    0  0.14941959244E+02  0.32585593498E+00 -0.37812656249E+02  0.50528864486E+02  0.30000014092E+02 0.  0.
        -12    1    1    2    0    0 -0.14941959244E+02 -0.32585593498E+00  0.37812656249E+02  0.40659135514E+02  0.00000000000E+00 0.  1.
         11    1    3    3    0    0 -0.37680904580E+01  0.34300645105E+00 -0.30512634301E+00  0.37959533020E+01  0.51100000000E-03 0. -1.
        -11    1    3    3    0    0 -0.22965953384E+01  0.55055523404E+00  0.12298257599E+01  0.26626927864E+01  0.51100000000E-03 0.  1.
         12    1    3    3    0    0  0.21006645040E+02 -0.56770575011E+00 -0.38737355666E+02  0.44070218398E+02  0.00000000000E+00 0. -1.
</event>
<event>
 7    1  0.5601662E-013  0.5052885E+02  0.7816164E-02  0.1300439E+00
        -11   -1    0    0    0    0  0.00000000000E+00  0.00000000000E+00  0.45593999997E+02  0.45594000000E+02  0.51100000000E-03 0.  1.
         11   -1    0    0    0    0 -0.00000000000E+00 -0.00000000000E+00 -0.45593999997E+02  0.45594000000E+02  0.51100000000E-03 0. -1.
    9900012    2    1    2    0    0 -0.15402651982E+02  0.34508286466E+01 -0.37470204703E+02  0.50528854080E+02  0.29999982463E+02 0.  0.
        -12    1    1    2    0    0  0.15402651982E+02 -0.34508286466E+01  0.37470204703E+02  0.40659145920E+02  0.00000000000E+00 0.  1.
         11    1    3    3    0    0 -0.11609344038E+01 -0.45515273951E+01 -0.14137596300E+02  0.14897509850E+02  0.51100000000E-03 0. -1.
        -11    1    3    3    0    0 -0.15540466533E+02 -0.29576442416E+01 -0.12441604731E+02  0.20125786645E+02  0.51100000000E-03 0.  1.
         12    1    3    3    0    0  0.12987489552E+01  0.10960000283E+02 -0.10891003672E+02  0.15505557586E+02  0.00000000000E+00 0. -1.
</event>
<event>
 7    1  0.5601662E-013  0.5052886E+02  0.7816164E-02  0.1300439E+00
        -11   -1    0    0    0    0  0.00000000000E+00  0.00000000000E+00  0.45593999997E+02  0.45594000000E+02  0.51100000000E-03 0. -1.
         11   -1    0    0    0    0 -0.00000000000E+00 -0.00000000000E+00 -0.45593999997E+02  0.45594000000E+02  0.51100000000E-03 0.  1.
    9900012    2    1    2    0    0  0.40012713471E+02 -0.63989965342E+01 -0.33468707303E+01  0.50528856629E+02  0.29999990211E+02 0.  0.
        -12    1    1    2    0    0 -0.40012713471E+02  0.63989965342E+01  0.33468707303E+01  0.40659143371E+02  0.00000000000E+00 0.  1.
         11    1    3    3    0    0  0.13712862472E+01 -0.21589133541E+01 -0.36590149161E+01  0.44642718622E+01  0.51100000000E-03 0. -1.
        -11    1    3    3    0    0  0.20508727756E+02  0.14736135983E+01 -0.11620821563E+02  0.23618275663E+02  0.51100000000E-03 0.  1.
         12    1    3    3    0    0  0.18132699467E+02 -0.57136967784E+01  0.11932965749E+02  0.22446309105E+02  0.00000000000E+00 0. -1.
</event>
<event>
 7    1  0.5601662E-013  0.5052886E+02  0.7816164E-02  0.1300439E+00
        -11   -1    0    0    0    0  0.00000000000E+00  0.00000000000E+00  0.45593999997E+02  0.45594000000E+02  0.51100000000E-03 0. -1.
         11   -1    0    0    0    0 -0.00000000000E+00 -0.00000000000E+00 -0.45593999997E+02  0.45594000000E+02  0.51100000000E-03 0.  1.
    9900012    2    1    2    0    0  0.36702433233E+02 -0.17492609053E+02  0.32497072564E+00  0.50528861019E+02  0.30000003554E+02 0.  0.
        -12    1    1    2    0    0 -0.36702433233E+02  0.17492609053E+02 -0.32497072564E+00  0.40659138981E+02  0.00000000000E+00 0.  1.
         11    1    3    3    0    0  0.26469155911E+02 -0.87150157053E+01 -0.37528480717E+01  0.28118527385E+02  0.51100000000E-03 0. -1.
        -11    1    3    3    0    0  0.13321830312E+02 -0.20249550379E+01 -0.84491810497E+00  0.13501314478E+02  0.51100000000E-03 0.  1.
        -12    1    3    3    0    0 -0.30885529904E+01 -0.67526383098E+01  0.49227369023E+01  0.89090191562E+01  0.00000000000E+00 0.  1.
</event>
<event>
 7    1  0.5601662E-013  0.5052886E+02  0.7816164E-02  0.1300439E+00
        -11   -1    0    0    0    0  0.00000000000E+00  0.00000000000E+00  0.45593999997E+02  0.45594000000E+02  0.51100000000E-03 0.  1.
         11   -1    0    0    0    0 -0.00000000000E+00 -0.00000000000E+00 -0.45593999997E+02  0.45594000000E+02  0.51100000000E-03 0. -1.
    9900012    2    1    2    0    0 -0.45197857210E+01 -0.39309897063E+02 -0.93524950822E+01  0.50528860384E+02  0.30000001623E+02 0.  0.
        -12    1    1    2    0    0  0.45197857210E+01  0.39309897063E+02  0.93524950822E+01  0.40659139616E+02  0.00000000000E+00 0.  1.
         11    1    3    3    0    0  0.51655959919E+01  0.69123750089E+00 -0.57516969376E+01  0.77616498991E+01  0.51100000000E-03 0. -1.
        -11    1    3    3    0    0 -0.26421880748E+01 -0.76392106287E+00 -0.17617057641E+00  0.27560423702E+01  0.51100000000E-03 0.  1.
         12    1    3    3    0    0 -0.70431936380E+01 -0.39237213501E+02 -0.34246275683E+01  0.40011168115E+02  0.00000000000E+00 0. -1.
</event>
<event>
 7    1  0.5601662E-013  0.5052886E+02  0.7816164E-02  0.1300439E+00
        -11   -1    0    0    0    0  0.00000000000E+00  0.00000000000E+00  0.45593999997E+02  0.45594000000E+02  0.51100000000E-03 0.  1.
         11   -1    0    0    0    0 -0.00000000000E+00 -0.00000000000E+00 -0.45593999997E+02  0.45594000000E+02  0.51100000000E-03 0. -1.
    9900012    2    1    2    0    0 -0.30620100423E+02 -0.19106966349E+02 -0.18721606964E+02  0.50528864738E+02  0.30000014858E+02 0.  0.
        -12    1    1    2    0    0  0.30620100423E+02  0.19106966349E+02  0.18721606964E+02  0.40659135262E+02  0.00000000000E+00 0.  1.
         11    1    3    3    0    0 -0.30661104978E+00 -0.76855710297E+01 -0.11373230319E+02  0.13729981083E+02  0.51100000000E-03 0. -1.
        -11    1    3    3    0    0 -0.13519904390E+02  0.24729963041E+01  0.16130737241E+00  0.13745164450E+02  0.51100000000E-03 0.  1.
         12    1    3    3    0    0 -0.16793584983E+02 -0.13894391623E+02 -0.75096840170E+01  0.23053719205E+02  0.00000000000E+00 0. -1.
</event>
<event>
 7    1  0.5601662E-013  0.5052887E+02  0.7816164E-02  0.1300439E+00
        -11   -1    0    0    0    0  0.00000000000E+00  0.00000000000E+00  0.45593999997E+02  0.45594000000E+02  0.51100000000E-03 0. -1.
         11   -1    0    0    0    0 -0.00000000000E+00 -0.00000000000E+00 -0.45593999997E+02  0.45594000000E+02  0.51100000000E-03 0.  1.
    9900012    2    1    2    0    0 -0.40476597053E+01  0.16088304515E+02  0.37120721167E+02  0.50528867800E+02  0.30000024166E+02 0.  0.
        -12    1    1    2    0    0  0.40476597053E+01 -0.16088304515E+02 -0.37120721167E+02  0.40659132200E+02  0.00000000000E+00 0.  1.
         11    1    3    3    0    0  0.59370844855E+01  0.29118730466E+00  0.31580553528E+01  0.67310531202E+01  0.51100000000E-03 0. -1.
        -11    1    3    3    0    0  0.21845071070E+01 -0.14364229662E+01  0.15633639664E+02  0.15850743567E+02  0.51100000000E-03 0.  1.
         12    1    3    3    0    0 -0.12169251298E+02  0.17233540177E+02  0.18329026151E+02  0.27947071113E+02  0.00000000000E+00 0. -1.
</event>
<event>
 7    1  0.5601662E-013  0.5052884E+02  0.7816164E-02  0.1300439E+00
        -11   -1    0    0    0    0  0.00000000000E+00  0.00000000000E+00  0.45593999997E+02  0.45594000000E+02  0.51100000000E-03 0. -1.
         11   -1    0    0    0    0 -0.00000000000E+00 -0.00000000000E+00 -0.45593999997E+02  0.45594000000E+02  0.51100000000E-03 0.  1.
    9900012    2    1    2    0    0 -0.18178330623E+02  0.22700410136E+02  0.28414908005E+02  0.50528839636E+02  0.29999938557E+02 0.  0.
        -12    1    1    2    0    0  0.18178330623E+02 -0.22700410136E+02 -0.28414908005E+02  0.40659160364E+02  0.00000000000E+00 0.  1.
         11    1    3    3    0    0  0.48734069790E-01 -0.97472846340E+00 -0.57259390564E+00  0.11315187267E+01  0.51100000000E-03 0. -1.
        -11    1    3    3    0    0 -0.36943495958E+01  0.43797449779E-01 -0.45574044141E+01  0.58668622284E+01  0.51100000000E-03 0.  1.
         12    1    3    3    0    0 -0.14532715097E+02  0.23631341150E+02  0.33544906325E+02  0.43530458681E+02  0.00000000000E+00 0. -1.
</event>
<event>
 7    1  0.5601662E-013  0.5052885E+02  0.7816164E-02  0.1300439E+00
        -11   -1    0    0    0    0  0.00000000000E+00  0.00000000000E+00  0.45593999997E+02  0.45594000000E+02  0.51100000000E-03 0. -1.
         11   -1    0    0    0    0 -0.00000000000E+00 -0.00000000000E+00 -0.45593999997E+02  0.45594000000E+02  0.51100000000E-03 0.  1.
    9900012    2    1    2    0    0 -0.33229365489E+02  0.71052104617E+01 -0.22326922704E+02  0.50528853133E+02  0.29999979584E+02 0.  0.
        -12    1    1    2    0    0  0.33229365489E+02 -0.71052104617E+01  0.22326922704E+02  0.40659146867E+02  0.00000000000E+00 0.  1.
         11    1    3    3    0    0 -0.22285262047E+02 -0.14554114221E+01 -0.11195302919E+02  0.24981712004E+02  0.51100000000E-03 0. -1.
        -11    1    3    3    0    0 -0.12150087240E+02 -0.41028277441E+00 -0.11149404943E+02  0.16495520081E+02  0.51100000000E-03 0.  1.
        -12    1    3    3    0    0  0.12059837980E+01  0.89709046582E+01  0.17785158514E-01  0.90516210492E+01  0.00000000000E+00 0.  1.
</event>
<event>
 7    1  0.5601662E-013  0.5052886E+02  0.7816164E-02  0.1300439E+00
        -11   -1    0    0    0    0  0.00000000000E+00  0.00000000000E+00  0.45593999997E+02  0.45594000000E+02  0.51100000000E-03 0.  1.
         11   -1    0    0    0    0 -0.00000000000E+00 -0.00000000000E+00 -0.45593999997E+02  0.45594000000E+02  0.51100000000E-03 0. -1.
    9900012    2    1    2    0    0 -0.35020403526E+02 -0.14770988286E+02 -0.14441422548E+02  0.50528862733E+02  0.30000008763E+02 0.  0.
        -12    1    1    2    0    0  0.35020403526E+02  0.14770988286E+02  0.14441422548E+02  0.40659137267E+02  0.00000000000E+00 0.  1.
         11    1    3    3    0    0 -0.23298129326E+01 -0.59548153655E+00 -0.38507662726E+01  0.45399369719E+01  0.51100000000E-03 0. -1.
        -11    1    3    3    0    0  0.34864838609E+01 -0.64698343524E+01  0.51946729141E+00  0.73677793661E+01  0.51100000000E-03 0.  1.
         12    1    3    3    0    0 -0.36177074455E+02 -0.77056723968E+01 -0.11110123567E+02  0.38621146395E+02  0.00000000000E+00 0. -1.
</event>
<event>
 7    1  0.5601662E-013  0.5052886E+02  0.7816164E-02  0.1300439E+00
        -11   -1    0    0    0    0  0.00000000000E+00  0.00000000000E+00  0.45593999997E+02  0.45594000000E+02  0.51100000000E-03 0.  1.
         11   -1    0    0    0    0 -0.00000000000E+00 -0.00000000000E+00 -0.45593999997E+02  0.45594000000E+02  0.51100000000E-03 0. -1.
    9900012    2    1    2    0    0  0.38365236308E+02  0.10205980166E+02 -0.87813572188E+01  0.50528860527E+02  0.30000002057E+02 0.  0.
        -12    1    1    2    0    0 -0.38365236308E+02 -0.10205980166E+02  0.87813572188E+01  0.40659139473E+02  0.00000000000E+00 0.  1.
         11    1    3    3    0    0  0.23973646280E+02  0.12217725964E+01 -0.11774710154E+02  0.26737094900E+02  0.51100000000E-03 0. -1.
        -11    1    3    3    0    0  0.17792499936E+02  0.52944456243E+01  0.27673744346E+01  0.18768659248E+02  0.51100000000E-03 0.  1.
        -12    1    3    3    0    0 -0.34009099077E+01  0.36897619448E+01  0.22597850065E+00  0.50231063788E+01  0.00000000000E+00 0.  1.
</event>
<event>
 7    1  0.5601662E-013  0.5052885E+02  0.7816164E-02  0.1300439E+00
        -11   -1    0    0    0    0  0.00000000000E+00  0.00000000000E+00  0.45593999997E+02  0.45594000000E+02  0.51100000000E-03 0.  1.
         11   -1    0    0    0    0 -0.00000000000E+00 -0.00000000000E+00 -0.45593999997E+02  0.45594000000E+02  0.51100000000E-03 0. -1.
    9900012    2    1    2    0    0  0.39490956182E+02 -0.96623860093E+01 -0.51916426103E+00  0.50528845372E+02  0.29999955993E+02 0.  0.
        -12    1    1    2    0    0 -0.39490956182E+02  0.96623860093E+01  0.51916426103E+00  0.40659154628E+02  0.00000000000E+00 0.  1.
         11    1    3    3    0    0  0.22856049551E+02 -0.78759710559E+01  0.80038442792E+01  0.25465495178E+02  0.51100000000E-03 0. -1.
        -11    1    3    3    0    0  0.31091186958E+01  0.43212667037E+01  0.31466429043E+01  0.61839572134E+01  0.51100000000E-03 0.  1.
         12    1    3    3    0    0  0.13525787935E+02 -0.61076816570E+01 -0.11669651444E+02  0.18879392981E+02  0.00000000000E+00 0. -1.
</event>
<event>
 7    1  0.5601662E-013  0.5052885E+02  0.7816164E-02  0.1300439E+00
        -11   -1    0    0    0    0  0.00000000000E+00  0.00000000000E+00  0.45593999997E+02  0.45594000000E+02  0.51100000000E-03 0.  1.
         11   -1    0    0    0    0 -0.00000000000E+00 -0.00000000000E+00 -0.45593999997E+02  0.45594000000E+02  0.51100000000E-03 0. -1.
    9900012    2    1    2    0    0 -0.38474266406E+01  0.15862721248E+02 -0.37238928190E+02  0.50528851093E+02  0.29999973381E+02 0.  0.
        -12    1    1    2    0    0  0.38474266406E+01 -0.15862721248E+02  0.37238928190E+02  0.40659148907E+02  0.00000000000E+00 0.  1.
         11    1    3    3    0    0  0.74703362663E+00  0.48664027458E+01 -0.79654790832E+01  0.93642293975E+01  0.51100000000E-03 0. -1.
        -11    1    3    3    0    0  0.84172880191E+01  0.13287298186E+02 -0.15829268596E+02  0.22315213986E+02  0.51100000000E-03 0.  1.
         12    1    3    3    0    0 -0.13011748286E+02 -0.22909796842E+01 -0.13444180510E+02  0.18849407709E+02  0.00000000000E+00 0. -1.
</event>
<event>
 7    1  0.5601662E-013  0.5052885E+02  0.7816164E-02  0.1300439E+00
        -11   -1    0    0    0    0  0.00000000000E+00  0.00000000000E+00  0.45593999997E+02  0.45594000000E+02  0.51100000000E-03 0.  1.
         11   -1    0    0    0    0 -0.00000000000E+00 -0.00000000000E+00 -0.45593999997E+02  0.45594000000E+02  0.51100000000E-03 0. -1.
    9900012    2    1    2    0    0  0.95873596030E+01  0.39501065244E+02  0.95666185881E+00  0.50528845785E+02  0.29999957248E+02 0.  0.
        -12    1    1    2    0    0 -0.95873596030E+01 -0.39501065244E+02 -0.95666185881E+00  0.40659154215E+02  0.00000000000E+00 0.  1.
         11    1    3    3    0    0  0.52803513181E+01  0.34859208919E+02  0.24998104124E+01  0.35345376061E+02  0.51100000000E-03 0. -1.
        -11    1    3    3    0    0  0.77487402550E+01  0.70485711766E+01 -0.27192079834E+01  0.10822172771E+02  0.51100000000E-03 0.  1.
        -12    1    3    3    0    0 -0.34417319702E+01 -0.24067148516E+01  0.11760594298E+01  0.43612969531E+01  0.00000000000E+00 0.  1.
</event>
<event>
 7    1  0.5601662E-013  0.5052888E+02  0.7816164E-02  0.1300439E+00
        -11   -1    0    0    0    0  0.00000000000E+00  0.00000000000E+00  0.45593999997E+02  0.45594000000E+02  0.51100000000E-03 0.  1.
         11   -1    0    0    0    0 -0.00000000000E+00 -0.00000000000E+00 -0.45593999997E+02  0.45594000000E+02  0.51100000000E-03 0. -1.
    9900012    2    1    2    0    0 -0.20483626927E+02  0.33859395739E+02 -0.93341682611E+01  0.50528876190E+02  0.30000049666E+02 0.  0.
        -12    1    1    2    0    0  0.20483626927E+02 -0.33859395739E+02  0.93341682611E+01  0.40659123810E+02  0.00000000000E+00 0.  1.
         11    1    3    3    0    0 -0.76243074258E+01  0.14969751710E+02 -0.52574660214E+01  0.17602967909E+02  0.51100000000E-03 0. -1.
        -11    1    3    3    0    0  0.59823599222E+01  0.10409481525E+02 -0.17584831581E+01  0.12134174844E+02  0.51100000000E-03 0.  1.
        -12    1    3    3    0    0 -0.18841679423E+02  0.84801625032E+01 -0.23182190816E+01  0.20791733436E+02  0.00000000000E+00 0.  1.
</event>
<event>
 7    1  0.5601662E-013  0.5052887E+02  0.7816164E-02  0.1300439E+00
        -11   -1    0    0    0    0  0.00000000000E+00  0.00000000000E+00  0.45593999997E+02  0.45594000000E+02  0.51100000000E-03 0. -1.
         11   -1    0    0    0    0 -0.00000000000E+00 -0.00000000000E+00 -0.45593999997E+02  0.45594000000E+02  0.51100000000E-03 0.  1.
    9900012    2    1    2    0    0  0.35154485073E+01 -0.28969012118E+02  0.28312597257E+02  0.50528865667E+02  0.30000017681E+02 0.  0.
        -12    1    1    2    0    0 -0.35154485073E+01  0.28969012118E+02 -0.28312597257E+02  0.40659134333E+02  0.00000000000E+00 0.  1.
         11    1    3    3    0    0  0.31297052446E+01  0.84836917721E+00 -0.75818723950E+00  0.33301101078E+01  0.51100000000E-03 0. -1.
        -11    1    3    3    0    0  0.89260259973E+01 -0.95435764535E+01  0.36230951513E+01  0.13560258492E+02  0.51100000000E-03 0.  1.
         12    1    3    3    0    0 -0.85402827345E+01 -0.20273804842E+02  0.25447689345E+02  0.33638497067E+02  0.00000000000E+00 0. -1.
</event>
<event>
 7    1  0.5601662E-013  0.5052886E+02  0.7816164E-02  0.1300439E+00
        -11   -1    0    0    0    0  0.00000000000E+00  0.00000000000E+00  0.45593999997E+02  0.45594000000E+02  0.51100000000E-03 0.  1.
         11   -1    0    0    0    0 -0.00000000000E+00 -0.00000000000E+00 -0.45593999997E+02  0.45594000000E+02  0.51100000000E-03 0. -1.
    9900012    2    1    2    0    0 -0.27638923636E+02 -0.34841831048E+00 -0.29818348866E+02  0.50528862968E+02  0.30000009478E+02 0.  0.
        -12    1    1    2    0    0  0.27638923636E+02  0.34841831048E+00  0.29818348866E+02  0.40659137032E+02  0.00000000000E+00 0.  1.
         11    1    3    3    0    0  0.24076548885E+01 -0.10026599832E+00  0.14485929608E+01  0.28116324724E+01  0.51100000000E-03 0. -1.
        -11    1    3    3    0    0 -0.10684111876E+02 -0.52155894784E+01 -0.23377606535E+02  0.26227182612E+02  0.51100000000E-03 0.  1.
         12    1    3    3    0    0 -0.19362466648E+02  0.49674371662E+01 -0.78893352923E+01  0.21490047884E+02  0.00000000000E+00 0. -1.
</event>
<event>
 7    1  0.5601662E-013  0.5052886E+02  0.7816164E-02  0.1300439E+00
        -11   -1    0    0    0    0  0.00000000000E+00  0.00000000000E+00  0.45593999997E+02  0.45594000000E+02  0.51100000000E-03 0. -1.
         11   -1    0    0    0    0 -0.00000000000E+00 -0.00000000000E+00 -0.45593999997E+02  0.45594000000E+02  0.51100000000E-03 0.  1.
    9900012    2    1    2    0    0  0.52232024543E+01  0.54373992920E+01  0.39953950528E+02  0.50528864277E+02  0.30000013457E+02 0.  0.
        -12    1    1    2    0    0 -0.52232024543E+01 -0.54373992920E+01 -0.39953950528E+02  0.40659135723E+02  0.00000000000E+00 0.  1.
         11    1    3    3    0    0 -0.15971265083E+01  0.21538724847E+01  0.31258860988E+02  0.31373657267E+02  0.51100000000E-03 0. -1.
        -11    1    3    3    0    0 -0.28158158106E+01  0.60035326606E+01  0.14274860410E+01  0.67829889978E+01  0.51100000000E-03 0.  1.
        -12    1    3    3    0    0  0.96361447732E+01 -0.27200058533E+01  0.72676034988E+01  0.12372218012E+02  0.00000000000E+00 0.  1.
</event>
<event>
 7    1  0.5601662E-013  0.5052886E+02  0.7816164E-02  0.1300439E+00
        -11   -1    0    0    0    0  0.00000000000E+00  0.00000000000E+00  0.45593999997E+02  0.45594000000E+02  0.51100000000E-03 0. -1.
         11   -1    0    0    0    0 -0.00000000000E+00 -0.00000000000E+00 -0.45593999997E+02  0.45594000000E+02  0.51100000000E-03 0.  1.
    9900012    2    1    2    0    0 -0.52473737752E+00  0.25006078832E+02  0.32055986544E+02  0.50528860792E+02  0.30000002863E+02 0.  0.
        -12    1    1    2    0    0  0.52473737752E+00 -0.25006078832E+02 -0.32055986544E+02  0.40659139208E+02  0.00000000000E+00 0.  1.
         11    1    3    3    0    0  0.42026012168E+00  0.76247347675E+01  0.11437064004E+02  0.13752077375E+02  0.51100000000E-03 0. -1.
        -11    1    3    3    0    0  0.73583364023E+01  0.18130862955E+02  0.69477203133E+01  0.20764010304E+02  0.51100000000E-03 0.  1.
         12    1    3    3    0    0 -0.83033339015E+01 -0.74951889023E+00  0.13671202226E+02  0.16012773113E+02  0.00000000000E+00 0. -1.
</event>
<event>
 7    1  0.5601662E-013  0.5052892E+02  0.7816164E-02  0.1300439E+00
        -11   -1    0    0    0    0  0.00000000000E+00  0.00000000000E+00  0.45593999997E+02  0.45594000000E+02  0.51100000000E-03 0. -1.
         11   -1    0    0    0    0 -0.00000000000E+00 -0.00000000000E+00 -0.45593999997E+02  0.45594000000E+02  0.51100000000E-03 0.  1.
    9900012    2    1    2    0    0 -0.30149736813E+02  0.23346109569E+02  0.14110749776E+02  0.50528920803E+02  0.30000185274E+02 0.  0.
        -12    1    1    2    0    0  0.30149736813E+02 -0.23346109569E+02 -0.14110749776E+02  0.40659079197E+02  0.00000000000E+00 0.  1.
         11    1    3    3    0    0 -0.80829164190E+00  0.13077708062E+01  0.29327812297E+01  0.33113148238E+01  0.51100000000E-03 0.  1.
        -11    1    3    3    0    0 -0.19018470539E+02 -0.25662206960E+01  0.49071565581E+01  0.19808278473E+02  0.51100000000E-03 0. -1.
        -12    1    3    3    0    0 -0.10322974632E+02  0.24604559458E+02  0.62708119880E+01  0.27409327507E+02  0.00000000000E+00 0.  1.
</event>
<event>
 7    1  0.5601662E-013  0.5052886E+02  0.7816164E-02  0.1300439E+00
        -11   -1    0    0    0    0  0.00000000000E+00  0.00000000000E+00  0.45593999997E+02  0.45594000000E+02  0.51100000000E-03 0. -1.
         11   -1    0    0    0    0 -0.00000000000E+00 -0.00000000000E+00 -0.45593999997E+02  0.45594000000E+02  0.51100000000E-03 0.  1.
    9900012    2    1    2    0    0  0.16714126395E+02 -0.32234109683E+02  0.18296598838E+02  0.50528863546E+02  0.30000011234E+02 0.  0.
        -12    1    1    2    0    0 -0.16714126395E+02  0.32234109683E+02 -0.18296598838E+02  0.40659136454E+02  0.00000000000E+00 0.  1.
         11    1    3    3    0    0  0.13400092544E+02 -0.24798193085E+02  0.21998495249E+01  0.28272817310E+02  0.51100000000E-03 0. -1.
        -11    1    3    3    0    0  0.39884222903E+01 -0.61955738112E+01  0.14105639758E+01  0.75021555707E+01  0.51100000000E-03 0.  1.
        -12    1    3    3    0    0 -0.67438843934E+00 -0.12403427865E+01  0.14686185337E+02  0.14753890665E+02  0.00000000000E+00 0.  1.
</event>
<event>
 7    1  0.5601662E-013  0.5052886E+02  0.7816164E-02  0.1300439E+00
        -11   -1    0    0    0    0  0.00000000000E+00  0.00000000000E+00  0.45593999997E+02  0.45594000000E+02  0.51100000000E-03 0. -1.
         11   -1    0    0    0    0 -0.00000000000E+00 -0.00000000000E+00 -0.45593999997E+02  0.45594000000E+02  0.51100000000E-03 0.  1.
    9900012    2    1    2    0    0 -0.36125872886E+02  0.18386268305E+02 -0.31673108173E+01  0.50528863121E+02  0.30000009942E+02 0.  0.
        -12    1    1    2    0    0  0.36125872886E+02 -0.18386268305E+02  0.31673108173E+01  0.40659136879E+02  0.00000000000E+00 0.  1.
         11    1    3    3    0    0 -0.92000106651E+01  0.36268611623E+00  0.53423114745E+01  0.10644812333E+02  0.51100000000E-03 0. -1.
        -11    1    3    3    0    0 -0.10876178499E+02  0.55586318087E+01  0.72176530102E+01  0.14187464945E+02  0.51100000000E-03 0.  1.
        -12    1    3    3    0    0 -0.16049683721E+02  0.12464950380E+02 -0.15727275302E+02  0.25696585842E+02  0.00000000000E+00 0.  1.
</event>
<event>
 7    1  0.5601662E-013  0.5052885E+02  0.7816164E-02  0.1300439E+00
        -11   -1    0    0    0    0  0.00000000000E+00  0.00000000000E+00  0.45593999997E+02  0.45594000000E+02  0.51100000000E-03 0. -1.
         11   -1    0    0    0    0 -0.00000000000E+00 -0.00000000000E+00 -0.45593999997E+02  0.45594000000E+02  0.51100000000E-03 0.  1.
    9900012    2    1    2    0    0 -0.33198122162E+02  0.23366574707E+02 -0.22482275624E+01  0.50528847823E+02  0.29999963442E+02 0.  0.
        -12    1    1    2    0    0  0.33198122162E+02 -0.23366574707E+02  0.22482275624E+01  0.40659152177E+02  0.00000000000E+00 0.  1.
         11    1    3    3    0    0 -0.70455418314E+01  0.89607447962E+01  0.85967599254E+01  0.14277215712E+02  0.51100000000E-03 0. -1.
        -11    1    3    3    0    0 -0.23584226013E+02  0.18344368613E+02 -0.96791430448E+01  0.31407282385E+02  0.51100000000E-03 0.  1.
         12    1    3    3    0    0 -0.25683543172E+01 -0.39385387021E+01 -0.11658444430E+01  0.48443497264E+01  0.00000000000E+00 0. -1.
</event>
<event>
 7    1  0.5601662E-013  0.5052885E+02  0.7816164E-02  0.1300439E+00
        -11   -1    0    0    0    0  0.00000000000E+00  0.00000000000E+00  0.45593999997E+02  0.45594000000E+02  0.51100000000E-03 0. -1.
         11   -1    0    0    0    0 -0.00000000000E+00 -0.00000000000E+00 -0.45593999997E+02  0.45594000000E+02  0.51100000000E-03 0.  1.
    9900012    2    1    2    0    0  0.39784882319E+02  0.83329145426E+01  0.94438713701E+00  0.50528853514E+02  0.29999980741E+02 0.  0.
        -12    1    1    2    0    0 -0.39784882319E+02 -0.83329145426E+01 -0.94438713701E+00  0.40659146486E+02  0.00000000000E+00 0.  1.
         11    1    3    3    0    0  0.10248920564E+01 -0.16372895379E+01 -0.43211694996E+01  0.47332469684E+01  0.51100000000E-03 0. -1.
        -11    1    3    3    0    0  0.15754950901E+01 -0.49751417122E+01 -0.74594884390E+00  0.52716847188E+01  0.51100000000E-03 0.  1.
         12    1    3    3    0    0  0.37184495172E+02  0.14945345793E+02  0.60115054805E+01  0.40523921827E+02  0.00000000000E+00 0. -1.
</event>
<event>
 7    1  0.5601662E-013  0.5052886E+02  0.7816164E-02  0.1300439E+00
        -11   -1    0    0    0    0  0.00000000000E+00  0.00000000000E+00  0.45593999997E+02  0.45594000000E+02  0.51100000000E-03 0. -1.
         11   -1    0    0    0    0 -0.00000000000E+00 -0.00000000000E+00 -0.45593999997E+02  0.45594000000E+02  0.51100000000E-03 0.  1.
    9900012    2    1    2    0    0 -0.25566491631E+01 -0.38669690924E+02  0.12299764413E+02  0.50528860121E+02  0.30000000822E+02 0.  0.
        -12    1    1    2    0    0  0.25566491631E+01  0.38669690924E+02 -0.12299764413E+02  0.40659139879E+02  0.00000000000E+00 0.  1.
         11    1    3    3    0    0  0.12679333501E+01 -0.19743577477E+02  0.81308026690E+01  0.21389868136E+02  0.51100000000E-03 0. -1.
        -11    1    3    3    0    0  0.79171310916E+01 -0.35909274518E+01  0.45684730649E+01  0.98207266071E+01  0.51100000000E-03 0.  1.
        -12    1    3    3    0    0 -0.11741713605E+02 -0.15335185995E+02 -0.39951132133E+00  0.19318265377E+02  0.00000000000E+00 0.  1.
</event>
<event>
 7    1  0.5601662E-013  0.5052886E+02  0.7816164E-02  0.1300439E+00
        -11   -1    0    0    0    0  0.00000000000E+00  0.00000000000E+00  0.45593999997E+02  0.45594000000E+02  0.51100000000E-03 0.  1.
         11   -1    0    0    0    0 -0.00000000000E+00 -0.00000000000E+00 -0.45593999997E+02  0.45594000000E+02  0.51100000000E-03 0. -1.
    9900012    2    1    2    0    0 -0.34383771661E+02 -0.28908814272E+01 -0.21507313052E+02  0.50528862482E+02  0.30000007999E+02 0.  0.
        -12    1    1    2    0    0  0.34383771661E+02  0.28908814272E+01  0.21507313052E+02  0.40659137518E+02  0.00000000000E+00 0.  1.
         11    1    3    3    0    0 -0.79808568911E+01 -0.15186218575E+00 -0.26889242103E+01  0.84230310762E+01  0.51100000000E-03 0. -1.
        -11    1    3    3    0    0 -0.76939014292E+01  0.84296404108E+01  0.24328163789E+01  0.11669342417E+02  0.51100000000E-03 0.  1.
         12    1    3    3    0    0 -0.18709013340E+02 -0.11168659652E+02 -0.21251205221E+02  0.30436488988E+02  0.00000000000E+00 0. -1.
</event>
<event>
 7    1  0.5601662E-013  0.5052886E+02  0.7816164E-02  0.1300439E+00
        -11   -1    0    0    0    0  0.00000000000E+00  0.00000000000E+00  0.45593999997E+02  0.45594000000E+02  0.51100000000E-03 0. -1.
         11   -1    0    0    0    0 -0.00000000000E+00 -0.00000000000E+00 -0.45593999997E+02  0.45594000000E+02  0.51100000000E-03 0.  1.
    9900012    2    1    2    0    0 -0.23068248643E+02  0.55397866484E+01  0.33020182871E+02  0.50528858243E+02  0.29999995115E+02 0.  0.
        -12    1    1    2    0    0  0.23068248643E+02 -0.55397866484E+01 -0.33020182871E+02  0.40659141757E+02  0.00000000000E+00 0.  1.
         11    1    3    3    0    0 -0.15092375350E+02 -0.32260737621E+00  0.42742278098E+01  0.15689260431E+02  0.51100000000E-03 0. -1.
        -11    1    3    3    0    0 -0.36057557301E+01  0.53385257342E+01  0.73385045599E+00  0.64838158636E+01  0.51100000000E-03 0.  1.
         12    1    3    3    0    0 -0.43701175628E+01  0.52386829042E+00  0.28012104605E+02  0.28355781949E+02  0.00000000000E+00 0. -1.
</event>
<event>
 7    1  0.5601662E-013  0.5052886E+02  0.7816164E-02  0.1300439E+00
        -11   -1    0    0    0    0  0.00000000000E+00  0.00000000000E+00  0.45593999997E+02  0.45594000000E+02  0.51100000000E-03 0.  1.
         11   -1    0    0    0    0 -0.00000000000E+00 -0.00000000000E+00 -0.45593999997E+02  0.45594000000E+02  0.51100000000E-03 0. -1.
    9900012    2    1    2    0    0 -0.17324515498E+02  0.26063788549E+02 -0.25955842868E+02  0.50528859702E+02  0.29999999550E+02 0.  0.
        -12    1    1    2    0    0  0.17324515498E+02 -0.26063788549E+02  0.25955842868E+02  0.40659140298E+02  0.00000000000E+00 0.  1.
         11    1    3    3    0    0 -0.10344324717E+01  0.27290545629E+01 -0.20984706392E+01  0.35946305277E+01  0.51100000000E-03 0. -1.
        -11    1    3    3    0    0 -0.16891828482E+02  0.77370675842E+00 -0.15278821001E+02  0.22789797345E+02  0.51100000000E-03 0.  1.
        -12    1    3    3    0    0  0.60174545515E+00  0.22561027228E+02 -0.85785512282E+01  0.24144431829E+02  0.00000000000E+00 0.  1.
</event>
<event>
 7    1  0.5601662E-013  0.5052887E+02  0.7816164E-02  0.1300439E+00
        -11   -1    0    0    0    0  0.00000000000E+00  0.00000000000E+00  0.45593999997E+02  0.45594000000E+02  0.51100000000E-03 0.  1.
         11   -1    0    0    0    0 -0.00000000000E+00 -0.00000000000E+00 -0.45593999997E+02  0.45594000000E+02  0.51100000000E-03 0. -1.
    9900012    2    1    2    0    0  0.61943071007E+01 -0.13726243457E+01 -0.40161071040E+02  0.50528866153E+02  0.30000019159E+02 0.  0.
        -12    1    1    2    0    0 -0.61943071007E+01  0.13726243457E+01  0.40161071040E+02  0.40659133847E+02  0.00000000000E+00 0.  1.
         11    1    3    3    0    0  0.34701764096E+01  0.17804274353E+01 -0.23207704103E+02  0.23533159077E+02  0.51100000000E-03 0. -1.
        -11    1    3    3    0    0 -0.17998523258E+01  0.69963686889E+01 -0.13581605644E+02  0.15383388943E+02  0.51100000000E-03 0.  1.
        -12    1    3    3    0    0  0.45239830169E+01 -0.10149420470E+02 -0.33717612935E+01  0.11612318133E+02  0.00000000000E+00 0.  1.
</event>
<event>
 7    1  0.6441323E-013  0.5052886E+02  0.7816164E-02  0.1300439E+00
        -11   -1    0    0    0    0  0.00000000000E+00  0.00000000000E+00  0.45593999997E+02  0.45594000000E+02  0.51100000000E-03 0.  1.
         11   -1    0    0    0    0 -0.00000000000E+00 -0.00000000000E+00 -0.45593999997E+02  0.45594000000E+02  0.51100000000E-03 0. -1.
    9900012    2    1    2    0    0  0.63883147592E+00 -0.40320191680E+02 -0.51999444090E+01  0.50528863455E+02  0.30000010957E+02 0.  0.
        -12    1    1    2    0    0 -0.63883147592E+00  0.40320191680E+02  0.51999444090E+01  0.40659136545E+02  0.00000000000E+00 0.  1.
         11    1    3    3    0    0  0.61485987074E+00 -0.29503177472E+02 -0.50208914077E+00  0.29513854838E+02  0.51100000000E-03 0. -1.
        -11    1    3    3    0    0 -0.54390225945E+01 -0.11253204404E+02 -0.77849966687E+01  0.14724936317E+02  0.51100000000E-03 0.  1.
        -12    1    3    3    0    0  0.54629941997E+01  0.43619019650E+00  0.30871414005E+01  0.62900723000E+01  0.00000000000E+00 0.  1.
</event>
<event>
 7    1  0.5601662E-013  0.5052887E+02  0.7816164E-02  0.1300439E+00
        -11   -1    0    0    0    0  0.00000000000E+00  0.00000000000E+00  0.45593999997E+02  0.45594000000E+02  0.51100000000E-03 0.  1.
         11   -1    0    0    0    0 -0.00000000000E+00 -0.00000000000E+00 -0.45593999997E+02  0.45594000000E+02  0.51100000000E-03 0. -1.
    9900012    2    1    2    0    0  0.28791387750E+02  0.28363310814E+02  0.44433888147E+01  0.50528866794E+02  0.30000021107E+02 0.  0.
        -12    1    1    2    0    0 -0.28791387750E+02 -0.28363310814E+02 -0.44433888147E+01  0.40659133206E+02  0.00000000000E+00 0.  1.
         11    1    3    3    0    0  0.82933081923E+01  0.74973407216E+01 -0.21246690320E+01  0.11379951556E+02  0.51100000000E-03 0. -1.
        -11    1    3    3    0    0  0.18035467641E+02  0.87800711436E+01  0.14261343767E+02  0.24612063477E+02  0.51100000000E-03 0.  1.
         12    1    3    3    0    0  0.24626119173E+01  0.12085898949E+02 -0.76932859206E+01  0.14536851760E+02  0.00000000000E+00 0. -1.
</event>
<event>
 7    1  0.5601662E-013  0.5052886E+02  0.7816164E-02  0.1300439E+00
        -11   -1    0    0    0    0  0.00000000000E+00  0.00000000000E+00  0.45593999997E+02  0.45594000000E+02  0.51100000000E-03 0.  1.
         11   -1    0    0    0    0 -0.00000000000E+00 -0.00000000000E+00 -0.45593999997E+02  0.45594000000E+02  0.51100000000E-03 0. -1.
    9900012    2    1    2    0    0  0.36530415708E+02 -0.93836141968E+01 -0.15186906809E+02  0.50528860491E+02  0.30000001947E+02 0.  0.
        -12    1    1    2    0    0 -0.36530415708E+02  0.93836141968E+01  0.15186906809E+02  0.40659139509E+02  0.00000000000E+00 0.  1.
         11    1    3    3    0    0  0.67721205247E+01  0.33299612203E+01 -0.63358095075E+01  0.98535648628E+01  0.51100000000E-03 0. -1.
        -11    1    3    3    0    0 -0.20663738204E+01  0.27443819389E+01  0.15916609250E+01  0.37861481421E+01  0.51100000000E-03 0.  1.
        -12    1    3    3    0    0  0.31824669004E+02 -0.15457957356E+02 -0.10442758226E+02  0.36889147486E+02  0.00000000000E+00 0.  1.
</event>
<event>
 7    1  0.5601662E-013  0.5052886E+02  0.7816164E-02  0.1300439E+00
        -11   -1    0    0    0    0  0.00000000000E+00  0.00000000000E+00  0.45593999997E+02  0.45594000000E+02  0.51100000000E-03 0. -1.
         11   -1    0    0    0    0 -0.00000000000E+00 -0.00000000000E+00 -0.45593999997E+02  0.45594000000E+02  0.51100000000E-03 0.  1.
    9900012    2    1    2    0    0  0.12049532081E+02  0.38789550305E+02  0.18288895360E+01  0.50528864825E+02  0.30000015123E+02 0.  0.
        -12    1    1    2    0    0 -0.12049532081E+02 -0.38789550305E+02 -0.18288895360E+01  0.40659135175E+02  0.00000000000E+00 0.  1.
         11    1    3    3    0    0  0.11867620132E+02  0.28166492742E+02  0.52571179471E+01  0.31013368252E+02  0.51100000000E-03 0. -1.
        -11    1    3    3    0    0  0.71746902939E+01  0.65133963183E+01  0.18130948877E+01  0.98583885978E+01  0.51100000000E-03 0.  1.
        -12    1    3    3    0    0 -0.69927783450E+01  0.41096612449E+01 -0.52413232988E+01  0.96571079756E+01  0.00000000000E+00 0.  1.
</event>
<event>
 7    1  0.5601662E-013  0.5052899E+02  0.7816164E-02  0.1300438E+00
        -11   -1    0    0    0    0  0.00000000000E+00  0.00000000000E+00  0.45593999997E+02  0.45594000000E+02  0.51100000000E-03 0.  1.
         11   -1    0    0    0    0 -0.00000000000E+00 -0.00000000000E+00 -0.45593999997E+02  0.45594000000E+02  0.51100000000E-03 0. -1.
    9900012    2    1    2    0    0  0.37933696750E+01  0.40435595783E+02 -0.19308300665E+01  0.50528989134E+02  0.30000392971E+02 0.  0.
        -12    1    1    2    0    0 -0.37933696750E+01 -0.40435595783E+02  0.19308300665E+01  0.40659010866E+02  0.00000000000E+00 0.  1.
         11    1    3    3    0    0 -0.46673449696E+01  0.15593379410E+02 -0.51719268523E+01  0.17078829530E+02  0.51100000000E-03 0. -1.
        -11    1    3    3    0    0 -0.33208768316E+01  0.72737508308E+01 -0.63630310050E+01  0.10218798262E+02  0.51100000000E-03 0.  1.
         12    1    3    3    0    0  0.11781591476E+02  0.17568465542E+02  0.96041277908E+01  0.23231361343E+02  0.00000000000E+00 0. -1.
</event>
<event>
 7    1  0.5601662E-013  0.5052886E+02  0.7816164E-02  0.1300439E+00
        -11   -1    0    0    0    0  0.00000000000E+00  0.00000000000E+00  0.45593999997E+02  0.45594000000E+02  0.51100000000E-03 0.  1.
         11   -1    0    0    0    0 -0.00000000000E+00 -0.00000000000E+00 -0.45593999997E+02  0.45594000000E+02  0.51100000000E-03 0. -1.
    9900012    2    1    2    0    0 -0.11862780808E+02  0.35617290035E+02 -0.15615647539E+02  0.50528863683E+02  0.30000011652E+02 0.  0.
        -12    1    1    2    0    0  0.11862780808E+02 -0.35617290035E+02  0.15615647539E+02  0.40659136317E+02  0.00000000000E+00 0.  1.
         11    1    3    3    0    0 -0.88326083954E+01  0.23260428962E+02  0.36616898809E+01  0.25148966173E+02  0.51100000000E-03 0. -1.
        -11    1    3    3    0    0 -0.27037116965E+01  0.62014785539E+01 -0.20285751656E+01  0.70628259681E+01  0.51100000000E-03 0.  1.
        -12    1    3    3    0    0 -0.32646071641E+00  0.61553825195E+01 -0.17248762255E+02  0.18317071542E+02  0.00000000000E+00 0.  1.
</event>
<event>
 7    1  0.5601662E-013  0.5052887E+02  0.7816164E-02  0.1300439E+00
        -11   -1    0    0    0    0  0.00000000000E+00  0.00000000000E+00  0.45593999997E+02  0.45594000000E+02  0.51100000000E-03 0.  1.
         11   -1    0    0    0    0 -0.00000000000E+00 -0.00000000000E+00 -0.45593999997E+02  0.45594000000E+02  0.51100000000E-03 0. -1.
    9900012    2    1    2    0    0 -0.30513808877E+02  0.22835289671E+02  0.14164109125E+02  0.50528868506E+02  0.30000026312E+02 0.  0.
        -12    1    1    2    0    0  0.30513808877E+02 -0.22835289671E+02 -0.14164109125E+02  0.40659131494E+02  0.00000000000E+00 0.  1.
         11    1    3    3    0    0 -0.13760244811E+02  0.59973558391E+01  0.14361175355E+01  0.15078960447E+02  0.51100000000E-03 0. -1.
        -11    1    3    3    0    0 -0.20598509098E+02  0.64036623118E+01  0.10941324022E+02  0.24187146167E+02  0.51100000000E-03 0.  1.
        -12    1    3    3    0    0  0.38449450328E+01  0.10434271520E+02  0.17866675669E+01  0.11262761892E+02  0.00000000000E+00 0.  1.
</event>
<event>
 7    1  0.5601662E-013  0.5052886E+02  0.7816164E-02  0.1300439E+00
        -11   -1    0    0    0    0  0.00000000000E+00  0.00000000000E+00  0.45593999997E+02  0.45594000000E+02  0.51100000000E-03 0.  1.
         11   -1    0    0    0    0 -0.00000000000E+00 -0.00000000000E+00 -0.45593999997E+02  0.45594000000E+02  0.51100000000E-03 0. -1.
    9900012    2    1    2    0    0  0.81155355272E+01  0.36935541285E+02 -0.14935508197E+02  0.50528861642E+02  0.30000005448E+02 0.  0.
        -12    1    1    2    0    0 -0.81155355272E+01 -0.36935541285E+02  0.14935508197E+02  0.40659138358E+02  0.00000000000E+00 0.  1.
         11    1    3    3    0    0  0.85213546357E+01  0.30614025402E+02 -0.24865633754E+01  0.31874990727E+02  0.51100000000E-03 0. -1.
        -11    1    3    3    0    0  0.21528452549E+01  0.92836144036E+01 -0.65106257371E+01  0.11541598106E+02  0.51100000000E-03 0.  1.
        -12    1    3    3    0    0 -0.25586643635E+01 -0.29620985212E+01 -0.59383190842E+01  0.71122728098E+01  0.00000000000E+00 0.  1.
</event>
<event>
 7    1  0.5601662E-013  0.5052886E+02  0.7816164E-02  0.1300439E+00
        -11   -1    0    0    0    0  0.00000000000E+00  0.00000000000E+00  0.45593999997E+02  0.45594000000E+02  0.51100000000E-03 0.  1.
         11   -1    0    0    0    0 -0.00000000000E+00 -0.00000000000E+00 -0.45593999997E+02  0.45594000000E+02  0.51100000000E-03 0. -1.
    9900012    2    1    2    0    0  0.21648370400E+02  0.32237563543E+02  0.12052099191E+02  0.50528861555E+02  0.30000005182E+02 0.  0.
        -12    1    1    2    0    0 -0.21648370400E+02 -0.32237563543E+02 -0.12052099191E+02  0.40659138445E+02  0.00000000000E+00 0.  1.
         11    1    3    3    0    0  0.46837351908E+00 -0.24500199558E+01 -0.11396924872E+01  0.27424206030E+01  0.51100000000E-03 0. -1.
        -11    1    3    3    0    0 -0.56755286237E+00  0.15666579455E+02  0.10282617718E+02  0.18748228062E+02  0.51100000000E-03 0.  1.
         12    1    3    3    0    0  0.21747549744E+02  0.19021004044E+02  0.29091739598E+01  0.29038212890E+02  0.00000000000E+00 0. -1.
</event>
<event>
 7    1  0.5601662E-013  0.5052887E+02  0.7816164E-02  0.1300439E+00
        -11   -1    0    0    0    0  0.00000000000E+00  0.00000000000E+00  0.45593999997E+02  0.45594000000E+02  0.51100000000E-03 0.  1.
         11   -1    0    0    0    0 -0.00000000000E+00 -0.00000000000E+00 -0.45593999997E+02  0.45594000000E+02  0.51100000000E-03 0. -1.
    9900012    2    1    2    0    0  0.27479591725E+02 -0.29955226271E+02 -0.84948475102E+00  0.50528866135E+02  0.30000019104E+02 0.  0.
        -12    1    1    2    0    0 -0.27479591725E+02  0.29955226271E+02  0.84948475102E+00  0.40659133865E+02  0.00000000000E+00 0.  1.
         11    1    3    3    0    0  0.57005403834E+01 -0.42675402812E+01  0.29373519516E+01  0.77029927602E+01  0.51100000000E-03 0. -1.
        -11    1    3    3    0    0  0.22523832522E+02 -0.85992277635E+01 -0.76428176727E+01  0.25291943616E+02  0.51100000000E-03 0.  1.
        -12    1    3    3    0    0 -0.74478118069E+00 -0.17088458226E+02  0.38559809701E+01  0.17533929759E+02  0.00000000000E+00 0.  1.
</event>
<event>
 7    1  0.5601662E-013  0.5052887E+02  0.7816164E-02  0.1300439E+00
        -11   -1    0    0    0    0  0.00000000000E+00  0.00000000000E+00  0.45593999997E+02  0.45594000000E+02  0.51100000000E-03 0. -1.
         11   -1    0    0    0    0 -0.00000000000E+00 -0.00000000000E+00 -0.45593999997E+02  0.45594000000E+02  0.51100000000E-03 0.  1.
    9900012    2    1    2    0    0  0.27677541086E+02  0.15618519970E+02  0.25360994579E+02  0.50528874424E+02  0.30000044299E+02 0.  0.
        -12    1    1    2    0    0 -0.27677541086E+02 -0.15618519970E+02 -0.25360994579E+02  0.40659125576E+02  0.00000000000E+00 0.  1.
         11    1    3    3    0    0  0.16539575349E+02  0.18401700457E+01  0.11547250221E+02  0.20255437948E+02  0.51100000000E-03 0. -1.
        -11    1    3    3    0    0  0.39937747662E+01 -0.45759200354E+01  0.73706440092E+01  0.95506897355E+01  0.51100000000E-03 0.  1.
        -12    1    3    3    0    0  0.71441909699E+01  0.18354269959E+02  0.64431003486E+01  0.20722746740E+02  0.00000000000E+00 0.  1.
</event>
<event>
 7    1  0.5601662E-013  0.5052884E+02  0.7816164E-02  0.1300439E+00
        -11   -1    0    0    0    0  0.00000000000E+00  0.00000000000E+00  0.45593999997E+02  0.45594000000E+02  0.51100000000E-03 0.  1.
         11   -1    0    0    0    0 -0.00000000000E+00 -0.00000000000E+00 -0.45593999997E+02  0.45594000000E+02  0.51100000000E-03 0. -1.
    9900012    2    1    2    0    0 -0.35398746053E+02  0.98052275318E+01 -0.17434256105E+02  0.50528843651E+02  0.29999950762E+02 0.  0.
        -12    1    1    2    0    0  0.35398746053E+02 -0.98052275318E+01  0.17434256105E+02  0.40659156349E+02  0.00000000000E+00 0.  1.
         11    1    3    3    0    0  0.24893114622E+01 -0.13288248646E+01 -0.91631461842E+01  0.95877888656E+01  0.51100000000E-03 0. -1.
        -11    1    3    3    0    0 -0.29775700364E+01 -0.91810722286E+00 -0.11036975214E+00  0.31178559841E+01  0.51100000000E-03 0.  1.
         12    1    3    3    0    0 -0.34910487478E+02  0.12052159619E+02 -0.81607401691E+01  0.37823198801E+02  0.00000000000E+00 0. -1.
</event>
<event>
 7    1  0.5601662E-013  0.5052887E+02  0.7816164E-02  0.1300439E+00
        -11   -1    0    0    0    0  0.00000000000E+00  0.00000000000E+00  0.45593999997E+02  0.45594000000E+02  0.51100000000E-03 0.  1.
         11   -1    0    0    0    0 -0.00000000000E+00 -0.00000000000E+00 -0.45593999997E+02  0.45594000000E+02  0.51100000000E-03 0. -1.
    9900012    2    1    2    0    0 -0.22731559550E+02  0.12974728816E+02 -0.31114262012E+02  0.50528872022E+02  0.30000036998E+02 0.  0.
        -12    1    1    2    0    0  0.22731559550E+02 -0.12974728816E+02  0.31114262012E+02  0.40659127978E+02  0.00000000000E+00 0.  1.
         11    1    3    3    0    0 -0.98435531316E+01  0.38214182614E+01 -0.11955540807E+02  0.15950979031E+02  0.51100000000E-03 0. -1.
        -11    1    3    3    0    0 -0.12013741534E+02 -0.53272940488E+01 -0.13946831244E+02  0.19163093424E+02  0.51100000000E-03 0.  1.
         12    1    3    3    0    0 -0.87426488369E+00  0.14480604603E+02 -0.52118899601E+01  0.15414799568E+02  0.00000000000E+00 0. -1.
</event>
<event>
 7    1  0.7405302E-013  0.5052886E+02  0.7816164E-02  0.1300439E+00
        -11   -1    0    0    0    0  0.00000000000E+00  0.00000000000E+00  0.45593999997E+02  0.45594000000E+02  0.51100000000E-03 0. -1.
         11   -1    0    0    0    0 -0.00000000000E+00 -0.00000000000E+00 -0.45593999997E+02  0.45594000000E+02  0.51100000000E-03 0.  1.
    9900012    2    1    2    0    0 -0.22724395755E+02 -0.25455207550E+02  0.22108813940E+02  0.50528863171E+02  0.30000010095E+02 0.  0.
        -12    1    1    2    0    0  0.22724395755E+02  0.25455207550E+02 -0.22108813940E+02  0.40659136829E+02  0.00000000000E+00 0.  1.
         11    1    3    3    0    0 -0.17077251707E+02 -0.12361868917E+02  0.19047930620E+02  0.28412532273E+02  0.51100000000E-03 0. -1.
        -11    1    3    3    0    0 -0.29480953855E+01 -0.16350281113E+02  0.51564493962E+01  0.17395744581E+02  0.51100000000E-03 0.  1.
        -12    1    3    3    0    0 -0.26990486623E+01  0.32569424801E+01 -0.20955660768E+01  0.47205863176E+01  0.00000000000E+00 0.  1.
</event>
<event>
 7    1  0.5601662E-013  0.5052887E+02  0.7816164E-02  0.1300439E+00
        -11   -1    0    0    0    0  0.00000000000E+00  0.00000000000E+00  0.45593999997E+02  0.45594000000E+02  0.51100000000E-03 0.  1.
         11   -1    0    0    0    0 -0.00000000000E+00 -0.00000000000E+00 -0.45593999997E+02  0.45594000000E+02  0.51100000000E-03 0. -1.
    9900012    2    1    2    0    0  0.23607080474E+02  0.31436500996E+02 -0.10373864763E+02  0.50528869248E+02  0.30000028566E+02 0.  0.
        -12    1    1    2    0    0 -0.23607080474E+02 -0.31436500996E+02  0.10373864763E+02  0.40659130752E+02  0.00000000000E+00 0.  1.
         11    1    3    3    0    0  0.48025716063E+00  0.11522189326E+02 -0.29320377828E+01  0.11899089865E+02  0.51100000000E-03 0. -1.
        -11    1    3    3    0    0  0.29421649887E-01  0.13909753727E+02 -0.11974133599E+01  0.13961228936E+02  0.51100000000E-03 0.  1.
        -12    1    3    3    0    0  0.23097401664E+02  0.60045579435E+01 -0.62444136198E+01  0.24668550447E+02  0.00000000000E+00 0.  1.
</event>
<event>
 7    1  0.5601662E-013  0.5052887E+02  0.7816164E-02  0.1300439E+00
        -11   -1    0    0    0    0  0.00000000000E+00  0.00000000000E+00  0.45593999997E+02  0.45594000000E+02  0.51100000000E-03 0. -1.
         11   -1    0    0    0    0 -0.00000000000E+00 -0.00000000000E+00 -0.45593999997E+02  0.45594000000E+02  0.51100000000E-03 0.  1.
    9900012    2    1    2    0    0 -0.23562351067E+02 -0.31445608104E+02 -0.10447697492E+02  0.50528867696E+02  0.30000023848E+02 0.  0.
        -12    1    1    2    0    0  0.23562351067E+02  0.31445608104E+02  0.10447697492E+02  0.40659132304E+02  0.00000000000E+00 0.  1.
         11    1    3    3    0    0 -0.22735524185E+02 -0.24228717267E+02 -0.42971762545E+01  0.33502246558E+02  0.51100000000E-03 0. -1.
        -11    1    3    3    0    0 -0.38064014717E+01 -0.99899039823E+01 -0.14174387025E+01  0.10784062615E+02  0.51100000000E-03 0.  1.
        -12    1    3    3    0    0  0.29795745894E+01  0.27730131453E+01 -0.47330825349E+01  0.62425585235E+01  0.00000000000E+00 0.  1.
</event>
<event>
 7    1  0.5601662E-013  0.5052884E+02  0.7816164E-02  0.1300439E+00
        -11   -1    0    0    0    0  0.00000000000E+00  0.00000000000E+00  0.45593999997E+02  0.45594000000E+02  0.51100000000E-03 0.  1.
         11   -1    0    0    0    0 -0.00000000000E+00 -0.00000000000E+00 -0.45593999997E+02  0.45594000000E+02  0.51100000000E-03 0. -1.
    9900012    2    1    2    0    0  0.35554467786E+02 -0.48008926412E+01 -0.19131089926E+02  0.50528839268E+02  0.29999937440E+02 0.  0.
        -12    1    1    2    0    0 -0.35554467786E+02  0.48008926412E+01  0.19131089926E+02  0.40659160732E+02  0.00000000000E+00 0.  1.
         11    1    3    3    0    0  0.23377892201E+01  0.64394349288E+01 -0.91882867892E+01  0.11461073031E+02  0.51100000000E-03 0. -1.
        -11    1    3    3    0    0  0.13638258551E+02 -0.23068802329E+01 -0.10771803155E+02  0.17531558293E+02  0.51100000000E-03 0.  1.
        -12    1    3    3    0    0  0.19578420014E+02 -0.89334473371E+01  0.82900001881E+00  0.21536207944E+02  0.00000000000E+00 0.  1.
</event>
<event>
 7    1  0.5601662E-013  0.5052885E+02  0.7816164E-02  0.1300439E+00
        -11   -1    0    0    0    0  0.00000000000E+00  0.00000000000E+00  0.45593999997E+02  0.45594000000E+02  0.51100000000E-03 0. -1.
         11   -1    0    0    0    0 -0.00000000000E+00 -0.00000000000E+00 -0.45593999997E+02  0.45594000000E+02  0.51100000000E-03 0.  1.
    9900012    2    1    2    0    0 -0.28249772842E+00  0.40401919201E+02  0.45575750103E+01  0.50528851336E+02  0.29999974121E+02 0.  0.
        -12    1    1    2    0    0  0.28249772842E+00 -0.40401919201E+02 -0.45575750103E+01  0.40659148664E+02  0.00000000000E+00 0.  1.
         11    1    3    3    0    0  0.22430312794E+01  0.25118041767E+02  0.93229582098E+01  0.26886144416E+02  0.51100000000E-03 0. -1.
        -11    1    3    3    0    0 -0.96544326116E+01  0.11002305579E+02 -0.45338028196E+01  0.15323647261E+02  0.51100000000E-03 0.  1.
         12    1    3    3    0    0  0.71289036038E+01  0.42815718554E+01 -0.23158038001E+00  0.83190596595E+01  0.00000000000E+00 0. -1.
</event>
<event>
 7    1  0.5601662E-013  0.5052886E+02  0.7816164E-02  0.1300439E+00
        -11   -1    0    0    0    0  0.00000000000E+00  0.00000000000E+00  0.45593999997E+02  0.45594000000E+02  0.51100000000E-03 0. -1.
         11   -1    0    0    0    0 -0.00000000000E+00 -0.00000000000E+00 -0.45593999997E+02  0.45594000000E+02  0.51100000000E-03 0.  1.
    9900012    2    1    2    0    0 -0.27287134553E+02 -0.25063264780E+02  0.16745461900E+02  0.50528862678E+02  0.30000008596E+02 0.  0.
        -12    1    1    2    0    0  0.27287134553E+02  0.25063264780E+02 -0.16745461900E+02  0.40659137322E+02  0.00000000000E+00 0.  1.
         11    1    3    3    0    0  0.14657155208E+01 -0.68843821217E+01  0.99918223297E+01  0.12222092821E+02  0.51100000000E-03 0. -1.
        -11    1    3    3    0    0  0.31058288104E+00  0.21109608544E+01 -0.33468283239E+00  0.21597755240E+01  0.51100000000E-03 0.  1.
        -12    1    3    3    0    0 -0.29063432955E+02 -0.20289843512E+02  0.70883224028E+01  0.36146994334E+02  0.00000000000E+00 0.  1.
</event>
<event>
 7    1  0.5601662E-013  0.5052886E+02  0.7816164E-02  0.1300439E+00
        -11   -1    0    0    0    0  0.00000000000E+00  0.00000000000E+00  0.45593999997E+02  0.45594000000E+02  0.51100000000E-03 0. -1.
         11   -1    0    0    0    0 -0.00000000000E+00 -0.00000000000E+00 -0.45593999997E+02  0.45594000000E+02  0.51100000000E-03 0.  1.
    9900012    2    1    2    0    0  0.80415505027E+01  0.14625855596E+02  0.37075370975E+02  0.50528864257E+02  0.30000013396E+02 0.  0.
        -12    1    1    2    0    0 -0.80415505027E+01 -0.14625855596E+02 -0.37075370975E+02  0.40659135743E+02  0.00000000000E+00 0.  1.
         11    1    3    3    0    0  0.16221753784E+01  0.29604576835E+01  0.35976965317E+01  0.49334757777E+01  0.51100000000E-03 0. -1.
        -11    1    3    3    0    0  0.14087553552E+02  0.15928502929E+02  0.28331790888E+02  0.35424098377E+02  0.51100000000E-03 0.  1.
        -12    1    3    3    0    0 -0.76681784280E+01 -0.42631050164E+01  0.51458835559E+01  0.10171290103E+02  0.00000000000E+00 0.  1.
</event>
<event>
 7    1  0.5601662E-013  0.5052886E+02  0.7816164E-02  0.1300439E+00
        -11   -1    0    0    0    0  0.00000000000E+00  0.00000000000E+00  0.45593999997E+02  0.45594000000E+02  0.51100000000E-03 0.  1.
         11   -1    0    0    0    0 -0.00000000000E+00 -0.00000000000E+00 -0.45593999997E+02  0.45594000000E+02  0.51100000000E-03 0. -1.
    9900012    2    1    2    0    0 -0.17654792370E+01  0.14677955675E+00 -0.40620525958E+02  0.50528860926E+02  0.30000003269E+02 0.  0.
        -12    1    1    2    0    0  0.17654792370E+01 -0.14677955675E+00  0.40620525958E+02  0.40659139074E+02  0.00000000000E+00 0.  1.
         11    1    3    3    0    0  0.34706066124E+01  0.46573381917E+00 -0.35509531416E+01  0.49871120624E+01  0.51100000000E-03 0. -1.
        -11    1    3    3    0    0  0.39842846396E+01  0.10958772951E+02 -0.13552061006E+02  0.17878131515E+02  0.51100000000E-03 0.  1.
         12    1    3    3    0    0 -0.92203704889E+01 -0.11277727213E+02 -0.23517511810E+02  0.27663617348E+02  0.00000000000E+00 0. -1.
</event>
<event>
 7    1  0.5601662E-013  0.5052884E+02  0.7816164E-02  0.1300439E+00
        -11   -1    0    0    0    0  0.00000000000E+00  0.00000000000E+00  0.45593999997E+02  0.45594000000E+02  0.51100000000E-03 0.  1.
         11   -1    0    0    0    0 -0.00000000000E+00 -0.00000000000E+00 -0.45593999997E+02  0.45594000000E+02  0.51100000000E-03 0. -1.
    9900012    2    1    2    0    0 -0.27722554695E+02 -0.28673381854E+02 -0.79034421612E+01  0.50528840347E+02  0.29999940717E+02 0.  0.
        -12    1    1    2    0    0  0.27722554695E+02  0.28673381854E+02  0.79034421612E+01  0.40659159653E+02  0.00000000000E+00 0.  1.
         11    1    3    3    0    0 -0.21755379813E+01 -0.40771063288E+01  0.28922825752E+01  0.54517025121E+01  0.51100000000E-03 0. -1.
        -11    1    3    3    0    0 -0.16172786710E+02 -0.12848227964E+01  0.28698298157E+01  0.16475609944E+02  0.51100000000E-03 0.  1.
         12    1    3    3    0    0 -0.93742300033E+01 -0.23311452728E+02 -0.13665554552E+02  0.28601527891E+02  0.00000000000E+00 0. -1.
</event>
<event>
 7    1  0.5601662E-013  0.5052886E+02  0.7816164E-02  0.1300439E+00
        -11   -1    0    0    0    0  0.00000000000E+00  0.00000000000E+00  0.45593999997E+02  0.45594000000E+02  0.51100000000E-03 0. -1.
         11   -1    0    0    0    0 -0.00000000000E+00 -0.00000000000E+00 -0.45593999997E+02  0.45594000000E+02  0.51100000000E-03 0.  1.
    9900012    2    1    2    0    0 -0.25257505708E+02  0.24126691100E+02  0.20811700433E+02  0.50528859663E+02  0.29999999433E+02 0.  0.
        -12    1    1    2    0    0  0.25257505708E+02 -0.24126691100E+02 -0.20811700433E+02  0.40659140337E+02  0.00000000000E+00 0.  1.
         11    1    3    3    0    0 -0.12572390189E+02  0.18869860071E+02  0.20433515508E+02  0.30523190699E+02  0.51100000000E-03 0. -1.
        -11    1    3    3    0    0 -0.90204672111E+01  0.73359619736E+01  0.59174131875E+01  0.13046108457E+02  0.51100000000E-03 0.  1.
         12    1    3    3    0    0 -0.36646483080E+01 -0.20791309448E+01 -0.55392282629E+01  0.69595605073E+01  0.00000000000E+00 0. -1.
</event>
<event>
 7    1  0.5601662E-013  0.5052885E+02  0.7816164E-02  0.1300439E+00
        -11   -1    0    0    0    0  0.00000000000E+00  0.00000000000E+00  0.45593999997E+02  0.45594000000E+02  0.51100000000E-03 0. -1.
         11   -1    0    0    0    0 -0.00000000000E+00 -0.00000000000E+00 -0.45593999997E+02  0.45594000000E+02  0.51100000000E-03 0.  1.
    9900012    2    1    2    0    0 -0.44831750419E+01  0.38499657264E+02  0.12281846926E+02  0.50528853036E+02  0.29999979288E+02 0.  0.
        -12    1    1    2    0    0  0.44831750419E+01 -0.38499657264E+02 -0.12281846926E+02  0.40659146964E+02  0.00000000000E+00 0.  1.
         11    1    3    3    0    0  0.65773708050E+00  0.18542289906E+01 -0.42261975148E+01  0.46617087975E+01  0.51100000000E-03 0. -1.
        -11    1    3    3    0    0 -0.16394955547E-01 -0.23104981132E+01  0.40237109700E+01  0.46399267836E+01  0.51100000000E-03 0.  1.
         12    1    3    3    0    0 -0.51245171669E+01  0.38955926387E+02  0.12484333471E+02  0.41227217455E+02  0.00000000000E+00 0. -1.
</event>
<event>
 7    1  0.5601662E-013  0.5052886E+02  0.7816164E-02  0.1300439E+00
        -11   -1    0    0    0    0  0.00000000000E+00  0.00000000000E+00  0.45593999997E+02  0.45594000000E+02  0.51100000000E-03 0.  1.
         11   -1    0    0    0    0 -0.00000000000E+00 -0.00000000000E+00 -0.45593999997E+02  0.45594000000E+02  0.51100000000E-03 0. -1.
    9900012    2    1    2    0    0 -0.19778215887E+02  0.33496387814E+02 -0.11831304198E+02  0.50528861060E+02  0.30000003679E+02 0.  0.
        -12    1    1    2    0    0  0.19778215887E+02 -0.33496387814E+02  0.11831304198E+02  0.40659138940E+02  0.00000000000E+00 0.  1.
         11    1    3    3    0    0 -0.24565860517E+01  0.85196091741E+01 -0.15141075904E+02  0.17546245618E+02  0.51100000000E-03 0. -1.
        -11    1    3    3    0    0 -0.11643808574E+01 -0.14071152577E+01 -0.23761834621E+00  0.18417977275E+01  0.51100000000E-03 0.  1.
         12    1    3    3    0    0 -0.16157248978E+02  0.26383893898E+02  0.35473900515E+01  0.31140817715E+02  0.00000000000E+00 0. -1.
</event>
<event>
 7    1  0.5601662E-013  0.5052886E+02  0.7816164E-02  0.1300439E+00
        -11   -1    0    0    0    0  0.00000000000E+00  0.00000000000E+00  0.45593999997E+02  0.45594000000E+02  0.51100000000E-03 0.  1.
         11   -1    0    0    0    0 -0.00000000000E+00 -0.00000000000E+00 -0.45593999997E+02  0.45594000000E+02  0.51100000000E-03 0. -1.
    9900012    2    1    2    0    0 -0.10650823102E+02 -0.13149961540E+02 -0.36970311879E+02  0.50528862261E+02  0.30000007329E+02 0.  0.
        -12    1    1    2    0    0  0.10650823102E+02  0.13149961540E+02  0.36970311879E+02  0.40659137739E+02  0.00000000000E+00 0.  1.
         11    1    3    3    0    0 -0.25734727175E+01 -0.13432859805E+02 -0.12528215410E+02  0.18547794101E+02  0.51100000000E-03 0. -1.
        -11    1    3    3    0    0 -0.16667754927E+01  0.22880946484E+01  0.27649966256E+01  0.39571105953E+01  0.51100000000E-03 0.  1.
        -12    1    3    3    0    0 -0.64105748922E+01 -0.20051963833E+01 -0.27207093094E+02  0.28023957565E+02  0.00000000000E+00 0.  1.
</event>
<event>
 7    1  0.5601662E-013  0.5052887E+02  0.7816164E-02  0.1300439E+00
        -11   -1    0    0    0    0  0.00000000000E+00  0.00000000000E+00  0.45593999997E+02  0.45594000000E+02  0.51100000000E-03 0.  1.
         11   -1    0    0    0    0 -0.00000000000E+00 -0.00000000000E+00 -0.45593999997E+02  0.45594000000E+02  0.51100000000E-03 0. -1.
    9900012    2    1    2    0    0  0.79993114275E+01  0.13784506204E+02 -0.37405389312E+02  0.50528871330E+02  0.30000034895E+02 0.  0.
        -12    1    1    2    0    0 -0.79993114275E+01 -0.13784506204E+02  0.37405389312E+02  0.40659128670E+02  0.00000000000E+00 0.  1.
         11    1    3    3    0    0  0.17179409215E+02  0.14432371358E+02 -0.19061923265E+02  0.29441167824E+02  0.51100000000E-03 0. -1.
        -11    1    3    3    0    0  0.24742574370E+00 -0.89368625676E+00 -0.22660774086E+01  0.24484692579E+01  0.51100000000E-03 0.  1.
         12    1    3    3    0    0 -0.94275235314E+01  0.24582110284E+00 -0.16077388638E+02  0.18639234249E+02  0.00000000000E+00 0. -1.
</event>
<event>
 7    1  0.5601662E-013  0.5052886E+02  0.7816164E-02  0.1300439E+00
        -11   -1    0    0    0    0  0.00000000000E+00  0.00000000000E+00  0.45593999997E+02  0.45594000000E+02  0.51100000000E-03 0. -1.
         11   -1    0    0    0    0 -0.00000000000E+00 -0.00000000000E+00 -0.45593999997E+02  0.45594000000E+02  0.51100000000E-03 0.  1.
    9900012    2    1    2    0    0 -0.19035542774E+02  0.25585106918E+02  0.25223327202E+02  0.50528858102E+02  0.29999994688E+02 0.  0.
        -12    1    1    2    0    0  0.19035542774E+02 -0.25585106918E+02 -0.25223327202E+02  0.40659141898E+02  0.00000000000E+00 0.  1.
         11    1    3    3    0    0 -0.73639800783E+01  0.46059953865E+01  0.56364489002E+01  0.10354368767E+02  0.51100000000E-03 0. -1.
        -11    1    3    3    0    0  0.22893453507E+00  0.13824352224E+02 -0.25340311366E+01  0.14056544366E+02  0.51100000000E-03 0.  1.
         12    1    3    3    0    0 -0.11900497230E+02  0.71547593076E+01  0.22120909438E+02  0.26117944970E+02  0.00000000000E+00 0. -1.
</event>
<event>
 7    1  0.5601662E-013  0.5052889E+02  0.7816164E-02  0.1300439E+00
        -11   -1    0    0    0    0  0.00000000000E+00  0.00000000000E+00  0.45593999997E+02  0.45594000000E+02  0.51100000000E-03 0.  1.
         11   -1    0    0    0    0 -0.00000000000E+00 -0.00000000000E+00 -0.45593999997E+02  0.45594000000E+02  0.51100000000E-03 0. -1.
    9900012    2    1    2    0    0  0.35542271664E+02  0.18495002930E+02 -0.69170181315E+01  0.50528888497E+02  0.30000087075E+02 0.  0.
        -12    1    1    2    0    0 -0.35542271664E+02 -0.18495002930E+02  0.69170181315E+01  0.40659111503E+02  0.00000000000E+00 0.  1.
         11    1    3    3    0    0  0.56779125451E+00  0.30087438362E+01 -0.23824315599E+01  0.38795498165E+01  0.51100000000E-03 0. -1.
        -11    1    3    3    0    0  0.25664833395E+02  0.85583077958E+01  0.92854658002E+01  0.28603289687E+02  0.51100000000E-03 0.  1.
         12    1    3    3    0    0  0.93096470143E+01  0.69279512978E+01 -0.13820052372E+02  0.18046048993E+02  0.00000000000E+00 0. -1.
</event>
<event>
 7    1  0.5601662E-013  0.5052886E+02  0.7816164E-02  0.1300439E+00
        -11   -1    0    0    0    0  0.00000000000E+00  0.00000000000E+00  0.45593999997E+02  0.45594000000E+02  0.51100000000E-03 0.  1.
         11   -1    0    0    0    0 -0.00000000000E+00 -0.00000000000E+00 -0.45593999997E+02  0.45594000000E+02  0.51100000000E-03 0. -1.
    9900012    2    1    2    0    0  0.93509851161E+01 -0.17873696847E+02 -0.35302346745E+02  0.50528860224E+02  0.30000001135E+02 0.  0.
        -12    1    1    2    0    0 -0.93509851161E+01  0.17873696847E+02  0.35302346745E+02  0.40659139776E+02  0.00000000000E+00 0.  1.
         11    1    3    3    0    0  0.76628074915E+01 -0.36792086768E+00 -0.12561084037E+02  0.14718519520E+02  0.51100000000E-03 0.  1.
        -11    1    3    3    0    0 -0.49154620025E+01 -0.13922830814E+02 -0.35284542392E+01  0.15180809403E+02  0.51100000000E-03 0. -1.
         12    1    3    3    0    0  0.66036396271E+01 -0.35829451659E+01 -0.19212808469E+02  0.20629531300E+02  0.00000000000E+00 0. -1.
</event>
<event>
 7    1  0.5601662E-013  0.5052885E+02  0.7816164E-02  0.1300439E+00
        -11   -1    0    0    0    0  0.00000000000E+00  0.00000000000E+00  0.45593999997E+02  0.45594000000E+02  0.51100000000E-03 0.  1.
         11   -1    0    0    0    0 -0.00000000000E+00 -0.00000000000E+00 -0.45593999997E+02  0.45594000000E+02  0.51100000000E-03 0. -1.
    9900012    2    1    2    0    0  0.29123325903E+02  0.12920085886E+02 -0.25260042179E+02  0.50528850208E+02  0.29999970691E+02 0.  0.
        -12    1    1    2    0    0 -0.29123325903E+02 -0.12920085886E+02  0.25260042179E+02  0.40659149792E+02  0.00000000000E+00 0.  1.
         11    1    3    3    0    0 -0.36504968204E+01  0.51000494381E+01 -0.48697160134E+01  0.79404512227E+01  0.51100000000E-03 0. -1.
        -11    1    3    3    0    0  0.67720961691E+01 -0.46452589454E+01 -0.70218912091E+01  0.10804937464E+02  0.51100000000E-03 0.  1.
         12    1    3    3    0    0  0.26001726555E+02  0.12465295393E+02 -0.13368434956E+02  0.31783461521E+02  0.00000000000E+00 0. -1.
</event>
<event>
 7    1  0.5601662E-013  0.5052886E+02  0.7816164E-02  0.1300439E+00
        -11   -1    0    0    0    0  0.00000000000E+00  0.00000000000E+00  0.45593999997E+02  0.45594000000E+02  0.51100000000E-03 0.  1.
         11   -1    0    0    0    0 -0.00000000000E+00 -0.00000000000E+00 -0.45593999997E+02  0.45594000000E+02  0.51100000000E-03 0. -1.
    9900012    2    1    2    0    0 -0.21297802889E+02 -0.26300332258E+02 -0.22535792169E+02  0.50528858181E+02  0.29999994927E+02 0.  0.
        -12    1    1    2    0    0  0.21297802889E+02  0.26300332258E+02  0.22535792169E+02  0.40659141819E+02  0.00000000000E+00 0.  1.
         11    1    3    3    0    0 -0.15148965182E+00  0.21502096501E+01 -0.18443970337E+01  0.28369263884E+01  0.51100000000E-03 0. -1.
        -11    1    3    3    0    0 -0.38001210781E+01  0.34423297218E+01 -0.74576931856E+01  0.90502896104E+01  0.51100000000E-03 0.  1.
         12    1    3    3    0    0 -0.17346192159E+02 -0.31892871630E+02 -0.13233701950E+02  0.38641642182E+02  0.00000000000E+00 0. -1.
</event>
<event>
 7    1  0.5601662E-013  0.5052887E+02  0.7816164E-02  0.1300439E+00
        -11   -1    0    0    0    0  0.00000000000E+00  0.00000000000E+00  0.45593999997E+02  0.45594000000E+02  0.51100000000E-03 0.  1.
         11   -1    0    0    0    0 -0.00000000000E+00 -0.00000000000E+00 -0.45593999997E+02  0.45594000000E+02  0.51100000000E-03 0. -1.
    9900012    2    1    2    0    0  0.18027023612E+02 -0.35428653785E+02  0.85441296684E+01  0.50528865220E+02  0.30000016322E+02 0.  0.
        -12    1    1    2    0    0 -0.18027023612E+02  0.35428653785E+02 -0.85441296684E+01  0.40659134780E+02  0.00000000000E+00 0.  1.
         11    1    3    3    0    0  0.11190001856E+02 -0.21370714611E+02  0.14921480445E+02  0.28365016543E+02  0.51100000000E-03 0.  1.
        -11    1    3    3    0    0  0.44016307961E+01 -0.25604093243E+01  0.40078578147E+01  0.64801986156E+01  0.51100000000E-03 0. -1.
         12    1    3    3    0    0  0.24353909593E+01 -0.11497529849E+02 -0.10385208591E+02  0.15683650061E+02  0.00000000000E+00 0. -1.
</event>
<event>
 7    1  0.5601662E-013  0.5052886E+02  0.7816164E-02  0.1300439E+00
        -11   -1    0    0    0    0  0.00000000000E+00  0.00000000000E+00  0.45593999997E+02  0.45594000000E+02  0.51100000000E-03 0.  1.
         11   -1    0    0    0    0 -0.00000000000E+00 -0.00000000000E+00 -0.45593999997E+02  0.45594000000E+02  0.51100000000E-03 0. -1.
    9900012    2    1    2    0    0 -0.32923699027E+02 -0.23795768900E+02  0.17195053229E+01  0.50528864819E+02  0.30000015103E+02 0.  0.
        -12    1    1    2    0    0  0.32923699027E+02  0.23795768900E+02 -0.17195053229E+01  0.40659135181E+02  0.00000000000E+00 0.  1.
         11    1    3    3    0    0  0.30727657962E+01 -0.74000081573E+01 -0.35375184429E+01  0.87587697402E+01  0.51100000000E-03 0. -1.
        -11    1    3    3    0    0 -0.87680653578E+01 -0.34944461957E+01  0.67482970627E+01  0.11603001243E+02  0.51100000000E-03 0.  1.
         12    1    3    3    0    0 -0.27228399465E+02 -0.12901314547E+02 -0.14912732970E+01  0.30167093836E+02  0.00000000000E+00 0. -1.
</event>
<event>
 7    1  0.5601662E-013  0.5052886E+02  0.7816164E-02  0.1300439E+00
        -11   -1    0    0    0    0  0.00000000000E+00  0.00000000000E+00  0.45593999997E+02  0.45594000000E+02  0.51100000000E-03 0.  1.
         11   -1    0    0    0    0 -0.00000000000E+00 -0.00000000000E+00 -0.45593999997E+02  0.45594000000E+02  0.51100000000E-03 0. -1.
    9900012    2    1    2    0    0  0.32624812055E+02  0.16441647188E+02 -0.17845439307E+02  0.50528858002E+02  0.29999994384E+02 0.  0.
        -12    1    1    2    0    0 -0.32624812055E+02 -0.16441647188E+02  0.17845439307E+02  0.40659141998E+02  0.00000000000E+00 0.  1.
         11    1    3    3    0    0  0.13763391663E+02  0.16706154357E+02 -0.61142270274E+01  0.22492450197E+02  0.51100000000E-03 0.  1.
        -11    1    3    3    0    0  0.34497182800E+01  0.20397905342E+01 -0.11790795503E+02  0.12453279106E+02  0.51100000000E-03 0. -1.
        -12    1    3    3    0    0  0.15411702113E+02 -0.23042977028E+01  0.59583223070E-01  0.15583128700E+02  0.00000000000E+00 0.  1.
</event>
<event>
 7    1  0.5601662E-013  0.5052886E+02  0.7816164E-02  0.1300439E+00
        -11   -1    0    0    0    0  0.00000000000E+00  0.00000000000E+00  0.45593999997E+02  0.45594000000E+02  0.51100000000E-03 0.  1.
         11   -1    0    0    0    0 -0.00000000000E+00 -0.00000000000E+00 -0.45593999997E+02  0.45594000000E+02  0.51100000000E-03 0. -1.
    9900012    2    1    2    0    0 -0.19054679654E+01  0.18242853362E+02 -0.36286819274E+02  0.50528858839E+02  0.29999996926E+02 0.  0.
        -12    1    1    2    0    0  0.19054679654E+01 -0.18242853362E+02  0.36286819274E+02  0.40659141161E+02  0.00000000000E+00 0.  1.
         11    1    3    3    0    0 -0.93427855579E+00  0.54938962025E+01 -0.49700888951E+00  0.55948896326E+01  0.51100000000E-03 0. -1.
        -11    1    3    3    0    0 -0.80765411793E+01  0.42653057264E+01 -0.19618141321E+01  0.93419519004E+01  0.51100000000E-03 0.  1.
         12    1    3    3    0    0  0.71053517697E+01  0.84836514333E+01 -0.33827996253E+02  0.35592017305E+02  0.00000000000E+00 0. -1.
</event>
<event>
 7    1  0.5601662E-013  0.5052885E+02  0.7816164E-02  0.1300439E+00
        -11   -1    0    0    0    0  0.00000000000E+00  0.00000000000E+00  0.45593999997E+02  0.45594000000E+02  0.51100000000E-03 0. -1.
         11   -1    0    0    0    0 -0.00000000000E+00 -0.00000000000E+00 -0.45593999997E+02  0.45594000000E+02  0.51100000000E-03 0.  1.
    9900012    2    1    2    0    0  0.26163040929E+02 -0.21080683983E+02  0.22896862319E+02  0.50528852789E+02  0.29999978538E+02 0.  0.
        -12    1    1    2    0    0 -0.26163040929E+02  0.21080683983E+02 -0.22896862319E+02  0.40659147211E+02  0.00000000000E+00 0.  1.
         11    1    3    3    0    0  0.16657370709E+02 -0.14665946077E+02  0.17658398894E+02  0.28361541302E+02  0.51100000000E-03 0. -1.
        -11    1    3    3    0    0  0.11291710407E+02 -0.48374157360E+01 -0.37694273570E+01  0.12849587456E+02  0.51100000000E-03 0.  1.
         12    1    3    3    0    0 -0.17860401872E+01 -0.15773221701E+01  0.90078907822E+01  0.93177240313E+01  0.00000000000E+00 0. -1.
</event>
<event>
 7    1  0.5601662E-013  0.5052882E+02  0.7816164E-02  0.1300439E+00
        -11   -1    0    0    0    0  0.00000000000E+00  0.00000000000E+00  0.45593999997E+02  0.45594000000E+02  0.51100000000E-03 0.  1.
         11   -1    0    0    0    0 -0.00000000000E+00 -0.00000000000E+00 -0.45593999997E+02  0.45594000000E+02  0.51100000000E-03 0. -1.
    9900012    2    1    2    0    0 -0.24861983050E+02  0.21937902967E+02 -0.23532518055E+02  0.50528816612E+02  0.29999868575E+02 0.  0.
        -12    1    1    2    0    0  0.24861983050E+02 -0.21937902967E+02  0.23532518055E+02  0.40659183388E+02  0.00000000000E+00 0.  1.
         11    1    3    3    0    0 -0.19239945643E+02  0.73482404293E+01 -0.79980212558E+01  0.22093901648E+02  0.51100000000E-03 0. -1.
        -11    1    3    3    0    0 -0.84603912970E+01  0.91993587885E+01 -0.17957574852E+02  0.21878777796E+02  0.51100000000E-03 0.  1.
        -12    1    3    3    0    0  0.28383538907E+01  0.53903037495E+01  0.24230780532E+01  0.65561371685E+01  0.00000000000E+00 0.  1.
</event>
<event>
 7    1  0.5601662E-013  0.5052886E+02  0.7816164E-02  0.1300439E+00
        -11   -1    0    0    0    0  0.00000000000E+00  0.00000000000E+00  0.45593999997E+02  0.45594000000E+02  0.51100000000E-03 0. -1.
         11   -1    0    0    0    0 -0.00000000000E+00 -0.00000000000E+00 -0.45593999997E+02  0.45594000000E+02  0.51100000000E-03 0.  1.
    9900012    2    1    2    0    0  0.21963497334E+02  0.18171708952E+02  0.28992396921E+02  0.50528864487E+02  0.30000014096E+02 0.  0.
        -12    1    1    2    0    0 -0.21963497334E+02 -0.18171708952E+02 -0.28992396921E+02  0.40659135513E+02  0.00000000000E+00 0.  1.
         11    1    3    3    0    0  0.10502064351E+02  0.98657502088E+01  0.54836677763E+01  0.15417425056E+02  0.51100000000E-03 0. -1.
        -11    1    3    3    0    0  0.15572492807E+02  0.75925882922E+01  0.80577632612E+01  0.19107000765E+02  0.51100000000E-03 0.  1.
         12    1    3    3    0    0 -0.41110598241E+01  0.71337045129E+00  0.15450965884E+02  0.16004438666E+02  0.00000000000E+00 0. -1.
</event>
<event>
 7    1  0.5601662E-013  0.5052884E+02  0.7816164E-02  0.1300439E+00
        -11   -1    0    0    0    0  0.00000000000E+00  0.00000000000E+00  0.45593999997E+02  0.45594000000E+02  0.51100000000E-03 0.  1.
         11   -1    0    0    0    0 -0.00000000000E+00 -0.00000000000E+00 -0.45593999997E+02  0.45594000000E+02  0.51100000000E-03 0. -1.
    9900012    2    1    2    0    0 -0.27586257658E+02  0.13388871956E+02 -0.26700259416E+02  0.50528839203E+02  0.29999937241E+02 0.  0.
        -12    1    1    2    0    0  0.27586257658E+02 -0.13388871956E+02  0.26700259416E+02  0.40659160797E+02  0.00000000000E+00 0.  1.
         11    1    3    3    0    0 -0.19534892069E+02  0.54184557473E+01 -0.75061901900E+01  0.21617459663E+02  0.51100000000E-03 0.  1.
        -11    1    3    3    0    0 -0.11681114725E+02 -0.42009148212E+00 -0.68409790347E+01  0.13543408452E+02  0.51100000000E-03 0. -1.
         12    1    3    3    0    0  0.36297491359E+01  0.83905076906E+01 -0.12353090191E+02  0.15367971088E+02  0.00000000000E+00 0. -1.
</event>
<event>
 7    1  0.5601662E-013  0.5052886E+02  0.7816164E-02  0.1300439E+00
        -11   -1    0    0    0    0  0.00000000000E+00  0.00000000000E+00  0.45593999997E+02  0.45594000000E+02  0.51100000000E-03 0. -1.
         11   -1    0    0    0    0 -0.00000000000E+00 -0.00000000000E+00 -0.45593999997E+02  0.45594000000E+02  0.51100000000E-03 0.  1.
    9900012    2    1    2    0    0  0.34389578361E+02  0.11253998719E+02  0.18543735836E+02  0.50528859259E+02  0.29999998205E+02 0.  0.
        -12    1    1    2    0    0 -0.34389578361E+02 -0.11253998719E+02 -0.18543735836E+02  0.40659140741E+02  0.00000000000E+00 0.  1.
         11    1    3    3    0    0  0.23652230396E+02  0.51620867416E+01  0.78561800199E+01  0.25451811468E+02  0.51100000000E-03 0. -1.
        -11    1    3    3    0    0  0.10730769741E+02  0.81444720270E+01 -0.71571613921E+00  0.13490518659E+02  0.51100000000E-03 0.  1.
         12    1    3    3    0    0  0.65782230192E-02 -0.20525600492E+01  0.11403271956E+02  0.11586529132E+02  0.00000000000E+00 0. -1.
</event>
<event>
 7    1  0.5601662E-013  0.5052886E+02  0.7816164E-02  0.1300439E+00
        -11   -1    0    0    0    0  0.00000000000E+00  0.00000000000E+00  0.45593999997E+02  0.45594000000E+02  0.51100000000E-03 0. -1.
         11   -1    0    0    0    0 -0.00000000000E+00 -0.00000000000E+00 -0.45593999997E+02  0.45594000000E+02  0.51100000000E-03 0.  1.
    9900012    2    1    2    0    0 -0.14102097459E+02 -0.36576803014E+02  0.10790445408E+02  0.50528863468E+02  0.30000010997E+02 0.  0.
        -12    1    1    2    0    0  0.14102097459E+02  0.36576803014E+02 -0.10790445408E+02  0.40659136532E+02  0.00000000000E+00 0.  1.
         11    1    3    3    0    0  0.46295738610E+01 -0.13798116446E+02  0.36442484334E+01  0.15003383568E+02  0.51100000000E-03 0. -1.
        -11    1    3    3    0    0  0.21815166815E+01 -0.14670586810E+01  0.49268080935E+01  0.55843275743E+01  0.51100000000E-03 0.  1.
        -12    1    3    3    0    0 -0.20913188001E+02 -0.21311627887E+02  0.22193888812E+01  0.29941152325E+02  0.00000000000E+00 0.  1.
</event>
<event>
 7    1  0.5601662E-013  0.5052898E+02  0.7816164E-02  0.1300438E+00
        -11   -1    0    0    0    0  0.00000000000E+00  0.00000000000E+00  0.45593999997E+02  0.45594000000E+02  0.51100000000E-03 0. -1.
         11   -1    0    0    0    0 -0.00000000000E+00 -0.00000000000E+00 -0.45593999997E+02  0.45594000000E+02  0.51100000000E-03 0.  1.
    9900012    2    1    2    0    0  0.34515155450E+02 -0.97939138634E+01  0.19129531626E+02  0.50528982738E+02  0.30000373529E+02 0.  0.
        -12    1    1    2    0    0 -0.34515155450E+02  0.97939138634E+01 -0.19129531626E+02  0.40659017262E+02  0.00000000000E+00 0.  1.
         11    1    3    3    0    0  0.11337780097E+02 -0.70111123777E+01  0.97869144572E+01  0.16537371289E+02  0.51100000000E-03 0. -1.
        -11    1    3    3    0    0  0.13915491320E+02 -0.12771241266E+02  0.71438620489E+01  0.20193569952E+02  0.51100000000E-03 0.  1.
        -12    1    3    3    0    0  0.92618840326E+01  0.99884397806E+01  0.21987551198E+01  0.13798041497E+02  0.00000000000E+00 0.  1.
</event>
<event>
 7    1  0.5601662E-013  0.5052885E+02  0.7816164E-02  0.1300439E+00
        -11   -1    0    0    0    0  0.00000000000E+00  0.00000000000E+00  0.45593999997E+02  0.45594000000E+02  0.51100000000E-03 0.  1.
         11   -1    0    0    0    0 -0.00000000000E+00 -0.00000000000E+00 -0.45593999997E+02  0.45594000000E+02  0.51100000000E-03 0. -1.
    9900012    2    1    2    0    0 -0.10685273680E+02  0.36404471244E+02 -0.14618673636E+02  0.50528853193E+02  0.29999979765E+02 0.  0.
        -12    1    1    2    0    0  0.10685273680E+02 -0.36404471244E+02  0.14618673636E+02  0.40659146807E+02  0.00000000000E+00 0.  1.
         11    1    3    3    0    0  0.10543443316E+01  0.12976216462E+02 -0.99182158002E+01  0.16366576934E+02  0.51100000000E-03 0. -1.
        -11    1    3    3    0    0  0.20453718754E+01  0.17502370237E+02 -0.70409938495E+01  0.18976092977E+02  0.51100000000E-03 0.  1.
        -12    1    3    3    0    0 -0.13784989887E+02  0.59258845454E+01  0.23405360135E+01  0.15186183281E+02  0.00000000000E+00 0.  1.
</event>
<event>
 7    1  0.5601662E-013  0.5052888E+02  0.7816164E-02  0.1300439E+00
        -11   -1    0    0    0    0  0.00000000000E+00  0.00000000000E+00  0.45593999997E+02  0.45594000000E+02  0.51100000000E-03 0.  1.
         11   -1    0    0    0    0 -0.00000000000E+00 -0.00000000000E+00 -0.45593999997E+02  0.45594000000E+02  0.51100000000E-03 0. -1.
    9900012    2    1    2    0    0  0.12014690565E+02 -0.21885796501E+02 -0.32090853053E+02  0.50528883833E+02  0.30000072898E+02 0.  0.
        -12    1    1    2    0    0 -0.12014690565E+02  0.21885796501E+02  0.32090853053E+02  0.40659116167E+02  0.00000000000E+00 0.  1.
         11    1    3    3    0    0  0.10089815698E+02 -0.83817199229E+01 -0.68307766930E+01  0.14789087875E+02  0.51100000000E-03 0. -1.
        -11    1    3    3    0    0 -0.32370351601E+01 -0.17916033557E+02 -0.15872088713E+02  0.24153381863E+02  0.51100000000E-03 0.  1.
        -12    1    3    3    0    0  0.51619100267E+01  0.44119569791E+01 -0.93879876471E+01  0.11586414095E+02  0.00000000000E+00 0.  1.
</event>
<event>
 7    1  0.5601662E-013  0.5052887E+02  0.7816164E-02  0.1300439E+00
        -11   -1    0    0    0    0  0.00000000000E+00  0.00000000000E+00  0.45593999997E+02  0.45594000000E+02  0.51100000000E-03 0.  1.
         11   -1    0    0    0    0 -0.00000000000E+00 -0.00000000000E+00 -0.45593999997E+02  0.45594000000E+02  0.51100000000E-03 0. -1.
    9900012    2    1    2    0    0  0.20319330359E+02  0.27232538846E+02 -0.22331110965E+02  0.50528869719E+02  0.30000029999E+02 0.  0.
        -12    1    1    2    0    0 -0.20319330359E+02 -0.27232538846E+02  0.22331110965E+02  0.40659130281E+02  0.00000000000E+00 0.  1.
         11    1    3    3    0    0  0.13693273986E+02  0.19465521863E+02 -0.61835605855E+01  0.24589605846E+02  0.51100000000E-03 0. -1.
        -11    1    3    3    0    0  0.80853563918E+01 -0.23225794218E+01 -0.22582760919E+01  0.87101764805E+01  0.51100000000E-03 0.  1.
         12    1    3    3    0    0 -0.14593000191E+01  0.10089596405E+02 -0.13889274288E+02  0.17229087393E+02  0.00000000000E+00 0. -1.
</event>
<event>
 7    1  0.5601662E-013  0.5052886E+02  0.7816164E-02  0.1300439E+00
        -11   -1    0    0    0    0  0.00000000000E+00  0.00000000000E+00  0.45593999997E+02  0.45594000000E+02  0.51100000000E-03 0.  1.
         11   -1    0    0    0    0 -0.00000000000E+00 -0.00000000000E+00 -0.45593999997E+02  0.45594000000E+02  0.51100000000E-03 0. -1.
    9900012    2    1    2    0    0  0.33044440105E+02  0.19211500547E+02 -0.13861788353E+02  0.50528856484E+02  0.29999989769E+02 0.  0.
        -12    1    1    2    0    0 -0.33044440105E+02 -0.19211500547E+02  0.13861788353E+02  0.40659143516E+02  0.00000000000E+00 0.  1.
         11    1    3    3    0    0  0.19031804558E+02  0.78518787023E+01  0.75326578118E+00  0.20601674531E+02  0.51100000000E-03 0.  1.
        -11    1    3    3    0    0  0.82641125690E+01 -0.42957515548E+01 -0.66570755700E+01  0.11448392611E+02  0.51100000000E-03 0. -1.
         12    1    3    3    0    0  0.57485229776E+01  0.15655373400E+02 -0.79579785638E+01  0.18478789342E+02  0.00000000000E+00 0. -1.
</event>
<event>
 7    1  0.5601662E-013  0.5052873E+02  0.7816164E-02  0.1300439E+00
        -11   -1    0    0    0    0  0.00000000000E+00  0.00000000000E+00  0.45593999997E+02  0.45594000000E+02  0.51100000000E-03 0.  1.
         11   -1    0    0    0    0 -0.00000000000E+00 -0.00000000000E+00 -0.45593999997E+02  0.45594000000E+02  0.51100000000E-03 0. -1.
    9900012    2    1    2    0    0 -0.39684094904E+02 -0.41876523415E+01  0.77982236733E+01  0.50528731525E+02  0.29999609942E+02 0.  0.
        -12    1    1    2    0    0  0.39684094904E+02  0.41876523415E+01 -0.77982236733E+01  0.40659268475E+02  0.00000000000E+00 0.  1.
         11    1    3    3    0    0 -0.20567911974E+02 -0.51918723536E+01  0.67235791354E+00  0.21223727451E+02  0.51100000000E-03 0. -1.
        -11    1    3    3    0    0 -0.12088358904E+02  0.56785123219E+01  0.13299275039E+02  0.18847934635E+02  0.51100000000E-03 0.  1.
         12    1    3    3    0    0 -0.70278240256E+01 -0.46742923098E+01 -0.61734092789E+01  0.10457069439E+02  0.00000000000E+00 0. -1.
</event>
<event>
 7    1  0.5601662E-013  0.5052884E+02  0.7816164E-02  0.1300439E+00
        -11   -1    0    0    0    0  0.00000000000E+00  0.00000000000E+00  0.45593999997E+02  0.45594000000E+02  0.51100000000E-03 0. -1.
         11   -1    0    0    0    0 -0.00000000000E+00 -0.00000000000E+00 -0.45593999997E+02  0.45594000000E+02  0.51100000000E-03 0.  1.
    9900012    2    1    2    0    0 -0.34506517814E+02  0.42502540045E+01  0.21080864738E+02  0.50528840037E+02  0.29999939777E+02 0.  0.
        -12    1    1    2    0    0  0.34506517814E+02 -0.42502540045E+01 -0.21080864738E+02  0.40659159963E+02  0.00000000000E+00 0.  1.
         11    1    3    3    0    0 -0.40759877526E+01 -0.57936316013E+01 -0.67987091023E+00  0.71163240515E+01  0.51100000000E-03 0. -1.
        -11    1    3    3    0    0  0.13486534619E+00 -0.28157604028E+01 -0.12155942461E+01  0.30699128555E+01  0.51100000000E-03 0.  1.
         12    1    3    3    0    0 -0.30565395408E+02  0.12859646009E+02  0.22976329894E+02  0.40342603130E+02  0.00000000000E+00 0. -1.
</event>
<event>
 7    1  0.5601662E-013  0.5052888E+02  0.7816164E-02  0.1300439E+00
        -11   -1    0    0    0    0  0.00000000000E+00  0.00000000000E+00  0.45593999997E+02  0.45594000000E+02  0.51100000000E-03 0.  1.
         11   -1    0    0    0    0 -0.00000000000E+00 -0.00000000000E+00 -0.45593999997E+02  0.45594000000E+02  0.51100000000E-03 0. -1.
    9900012    2    1    2    0    0  0.37841410082E+02 -0.58120986323E+01  0.13689823597E+02  0.50528879527E+02  0.30000059811E+02 0.  0.
        -12    1    1    2    0    0 -0.37841410082E+02  0.58120986323E+01 -0.13689823597E+02  0.40659120473E+02  0.00000000000E+00 0.  1.
         11    1    3    3    0    0  0.78193844444E+01 -0.63493634096E+01  0.14158539357E+02  0.17375886331E+02  0.51100000000E-03 0. -1.
        -11    1    3    3    0    0  0.87412849297E+01  0.64709716196E+01  0.14739131783E+01  0.10975242879E+02  0.51100000000E-03 0.  1.
        -12    1    3    3    0    0  0.21280740708E+02 -0.59337068423E+01 -0.19426289387E+01  0.22177750318E+02  0.00000000000E+00 0.  1.
</event>
<event>
 7    1  0.5601662E-013  0.5052886E+02  0.7816164E-02  0.1300439E+00
        -11   -1    0    0    0    0  0.00000000000E+00  0.00000000000E+00  0.45593999997E+02  0.45594000000E+02  0.51100000000E-03 0.  1.
         11   -1    0    0    0    0 -0.00000000000E+00 -0.00000000000E+00 -0.45593999997E+02  0.45594000000E+02  0.51100000000E-03 0. -1.
    9900012    2    1    2    0    0  0.84646498573E+01  0.39760381118E+02  0.79208723050E+00  0.50528860732E+02  0.30000002680E+02 0.  0.
        -12    1    1    2    0    0 -0.84646498573E+01 -0.39760381118E+02 -0.79208723050E+00  0.40659139268E+02  0.00000000000E+00 0.  1.
         11    1    3    3    0    0 -0.85083415423E+01  0.76045347537E+01 -0.19784880126E+01  0.11581676895E+02  0.51100000000E-03 0. -1.
        -11    1    3    3    0    0  0.72232951117E+00 -0.12537676769E+01  0.98827932065E+00  0.17522527178E+01  0.51100000000E-03 0.  1.
        -12    1    3    3    0    0  0.16250661888E+02  0.33409614041E+02  0.17822959225E+01  0.37194931119E+02  0.00000000000E+00 0.  1.
</event>
<event>
 7    1  0.5601662E-013  0.5052887E+02  0.7816164E-02  0.1300439E+00
        -11   -1    0    0    0    0  0.00000000000E+00  0.00000000000E+00  0.45593999997E+02  0.45594000000E+02  0.51100000000E-03 0.  1.
         11   -1    0    0    0    0 -0.00000000000E+00 -0.00000000000E+00 -0.45593999997E+02  0.45594000000E+02  0.51100000000E-03 0. -1.
    9900012    2    1    2    0    0 -0.13732074919E+02 -0.30225861312E+02 -0.23473232437E+02  0.50528865544E+02  0.30000017309E+02 0.  0.
        -12    1    1    2    0    0  0.13732074919E+02  0.30225861312E+02  0.23473232437E+02  0.40659134456E+02  0.00000000000E+00 0.  1.
         11    1    3    3    0    0 -0.15498507972E+02 -0.12751738988E+02 -0.93484510853E+01  0.22140554070E+02  0.51100000000E-03 0. -1.
        -11    1    3    3    0    0 -0.76881714227E+00 -0.16754825119E+02 -0.17411243582E+02  0.24175745033E+02  0.51100000000E-03 0.  1.
         12    1    3    3    0    0  0.25352501957E+01 -0.71929720551E+00  0.32864622308E+01  0.42125664409E+01  0.00000000000E+00 0. -1.
</event>
<event>
 7    1  0.5601662E-013  0.5052886E+02  0.7816164E-02  0.1300439E+00
        -11   -1    0    0    0    0  0.00000000000E+00  0.00000000000E+00  0.45593999997E+02  0.45594000000E+02  0.51100000000E-03 0.  1.
         11   -1    0    0    0    0 -0.00000000000E+00 -0.00000000000E+00 -0.45593999997E+02  0.45594000000E+02  0.51100000000E-03 0. -1.
    9900012    2    1    2    0    0 -0.14588732824E+02  0.33046634003E+02 -0.18661585124E+02  0.50528857072E+02  0.29999991555E+02 0.  0.
        -12    1    1    2    0    0  0.14588732824E+02 -0.33046634003E+02  0.18661585124E+02  0.40659142928E+02  0.00000000000E+00 0.  1.
         11    1    3    3    0    0 -0.82526618959E+01  0.26733046872E+02 -0.21493992173E+02  0.35281070324E+02  0.51100000000E-03 0. -1.
        -11    1    3    3    0    0 -0.55928727568E+01  0.95969277566E+01  0.43733488041E+00  0.11116317290E+02  0.51100000000E-03 0.  1.
        -12    1    3    3    0    0 -0.74319817170E+00 -0.32833406258E+01  0.23950721680E+01  0.41314694574E+01  0.00000000000E+00 0.  1.
</event>
<event>
 7    1  0.5601662E-013  0.5052888E+02  0.7816164E-02  0.1300439E+00
        -11   -1    0    0    0    0  0.00000000000E+00  0.00000000000E+00  0.45593999997E+02  0.45594000000E+02  0.51100000000E-03 0. -1.
         11   -1    0    0    0    0 -0.00000000000E+00 -0.00000000000E+00 -0.45593999997E+02  0.45594000000E+02  0.51100000000E-03 0.  1.
    9900012    2    1    2    0    0 -0.19185466101E+02  0.34554289204E+02 -0.95437561642E+01  0.50528876871E+02  0.30000051737E+02 0.  0.
        -12    1    1    2    0    0  0.19185466101E+02 -0.34554289204E+02  0.95437561642E+01  0.40659123129E+02  0.00000000000E+00 0.  1.
         11    1    3    3    0    0 -0.48170623304E+01  0.20731727497E+02 -0.43002084251E+01  0.21714060129E+02  0.51100000000E-03 0. -1.
        -11    1    3    3    0    0 -0.15184280064E+01  0.10591282061E+02 -0.10089515955E+02  0.14706434367E+02  0.51100000000E-03 0.  1.
         12    1    3    3    0    0 -0.12849975764E+02  0.32312796453E+01  0.48459682163E+01  0.14108382375E+02  0.00000000000E+00 0. -1.
</event>
<event>
 7    1  0.5601662E-013  0.5052886E+02  0.7816164E-02  0.1300439E+00
        -11   -1    0    0    0    0  0.00000000000E+00  0.00000000000E+00  0.45593999997E+02  0.45594000000E+02  0.51100000000E-03 0.  1.
         11   -1    0    0    0    0 -0.00000000000E+00 -0.00000000000E+00 -0.45593999997E+02  0.45594000000E+02  0.51100000000E-03 0. -1.
    9900012    2    1    2    0    0 -0.17711756564E+02  0.36518792387E+02 -0.24160134978E+01  0.50528860324E+02  0.30000001441E+02 0.  0.
        -12    1    1    2    0    0  0.17711756564E+02 -0.36518792387E+02  0.24160134978E+01  0.40659139676E+02  0.00000000000E+00 0.  1.
         11    1    3    3    0    0  0.33065559571E+01 -0.33822021926E+01 -0.70875979348E+00  0.47827758336E+01  0.51100000000E-03 0.  1.
        -11    1    3    3    0    0 -0.11287061965E+02  0.16527209178E+02  0.21753224895E+01  0.20131528487E+02  0.51100000000E-03 0. -1.
        -12    1    3    3    0    0 -0.97312505557E+01  0.23373785401E+02 -0.38825761938E+01  0.25614556003E+02  0.00000000000E+00 0.  1.
</event>
<event>
 7    1  0.5601662E-013  0.5052890E+02  0.7816164E-02  0.1300439E+00
        -11   -1    0    0    0    0  0.00000000000E+00  0.00000000000E+00  0.45593999997E+02  0.45594000000E+02  0.51100000000E-03 0.  1.
         11   -1    0    0    0    0 -0.00000000000E+00 -0.00000000000E+00 -0.45593999997E+02  0.45594000000E+02  0.51100000000E-03 0. -1.
    9900012    2    1    2    0    0 -0.15400963270E+02 -0.13807193882E+02 -0.35004776649E+02  0.50528896951E+02  0.30000112772E+02 0.  0.
        -12    1    1    2    0    0  0.15400963270E+02  0.13807193882E+02  0.35004776649E+02  0.40659103049E+02  0.00000000000E+00 0.  1.
         11    1    3    3    0    0  0.32475580880E+01  0.11974543077E+01 -0.15810870605E+02  0.16185306914E+02  0.51100000000E-03 0. -1.
        -11    1    3    3    0    0 -0.10549049227E+02 -0.67836488929E+01 -0.19042827699E+02  0.22801965243E+02  0.51100000000E-03 0.  1.
        -12    1    3    3    0    0 -0.80994721303E+01 -0.82209992965E+01 -0.15107834477E+00  0.11541624794E+02  0.00000000000E+00 0.  1.
</event>
<event>
 7    1  0.5601662E-013  0.5052888E+02  0.7816164E-02  0.1300439E+00
        -11   -1    0    0    0    0  0.00000000000E+00  0.00000000000E+00  0.45593999997E+02  0.45594000000E+02  0.51100000000E-03 0.  1.
         11   -1    0    0    0    0 -0.00000000000E+00 -0.00000000000E+00 -0.45593999997E+02  0.45594000000E+02  0.51100000000E-03 0. -1.
    9900012    2    1    2    0    0  0.27637232014E+02 -0.16485194589E+02  0.24851274837E+02  0.50528879313E+02  0.30000059158E+02 0.  0.
        -12    1    1    2    0    0 -0.27637232014E+02  0.16485194589E+02 -0.24851274837E+02  0.40659120687E+02  0.00000000000E+00 0.  1.
         11    1    3    3    0    0  0.18512494940E+02 -0.85943302141E+01  0.20547526104E+02  0.28961626508E+02  0.51100000000E-03 0. -1.
        -11    1    3    3    0    0  0.18374358826E+01 -0.27255965757E-01  0.94839181932E+01  0.96603114891E+01  0.51100000000E-03 0.  1.
         12    1    3    3    0    0  0.72873011914E+01 -0.78636084092E+01 -0.51801694594E+01  0.11906941316E+02  0.00000000000E+00 0. -1.
</event>
<event>
 7    1  0.5601662E-013  0.5052884E+02  0.7816164E-02  0.1300439E+00
        -11   -1    0    0    0    0  0.00000000000E+00  0.00000000000E+00  0.45593999997E+02  0.45594000000E+02  0.51100000000E-03 0. -1.
         11   -1    0    0    0    0 -0.00000000000E+00 -0.00000000000E+00 -0.45593999997E+02  0.45594000000E+02  0.51100000000E-03 0.  1.
    9900012    2    1    2    0    0 -0.39897753414E+02  0.73992968589E+01 -0.25664549238E+01  0.50528843437E+02  0.29999950112E+02 0.  0.
        -12    1    1    2    0    0  0.39897753414E+02 -0.73992968589E+01  0.25664549238E+01  0.40659156563E+02  0.00000000000E+00 0.  1.
         11    1    3    3    0    0 -0.52485083396E+00 -0.41977354647E+00  0.23076177974E+01  0.24034929557E+01  0.51100000000E-03 0. -1.
        -11    1    3    3    0    0 -0.28888786584E+02  0.37078027906E+01  0.87856968709E+01  0.30422002918E+02  0.51100000000E-03 0.  1.
         12    1    3    3    0    0 -0.10484115997E+02  0.41112676148E+01 -0.13659769592E+02  0.17703347563E+02  0.00000000000E+00 0. -1.
</event>
<event>
 7    1  0.5601662E-013  0.5052885E+02  0.7816164E-02  0.1300439E+00
        -11   -1    0    0    0    0  0.00000000000E+00  0.00000000000E+00  0.45593999997E+02  0.45594000000E+02  0.51100000000E-03 0.  1.
         11   -1    0    0    0    0 -0.00000000000E+00 -0.00000000000E+00 -0.45593999997E+02  0.45594000000E+02  0.51100000000E-03 0. -1.
    9900012    2    1    2    0    0  0.50095819565E-01 -0.31549832693E+02 -0.25647059815E+02  0.50528854292E+02  0.29999983107E+02 0.  0.
        -12    1    1    2    0    0 -0.50095819565E-01  0.31549832693E+02  0.25647059815E+02  0.40659145708E+02  0.00000000000E+00 0.  1.
         11    1    3    3    0    0 -0.17031432732E+00  0.22213569557E+01 -0.77334615924E+01  0.80479725494E+01  0.51100000000E-03 0. -1.
        -11    1    3    3    0    0 -0.24293999981E+01  0.15537727061E+00  0.19134004875E+01  0.30963249399E+01  0.51100000000E-03 0.  1.
         12    1    3    3    0    0  0.26498101450E+01 -0.33926566919E+02 -0.19826998710E+02  0.39384556803E+02  0.00000000000E+00 0. -1.
</event>
<event>
 7    1  0.5601662E-013  0.5052886E+02  0.7816164E-02  0.1300439E+00
        -11   -1    0    0    0    0  0.00000000000E+00  0.00000000000E+00  0.45593999997E+02  0.45594000000E+02  0.51100000000E-03 0. -1.
         11   -1    0    0    0    0 -0.00000000000E+00 -0.00000000000E+00 -0.45593999997E+02  0.45594000000E+02  0.51100000000E-03 0.  1.
    9900012    2    1    2    0    0  0.15049977685E+02  0.21650542070E+02 -0.30950251311E+02  0.50528857652E+02  0.29999993319E+02 0.  0.
        -12    1    1    2    0    0 -0.15049977685E+02 -0.21650542070E+02  0.30950251311E+02  0.40659142348E+02  0.00000000000E+00 0.  1.
         11    1    3    3    0    0  0.67679686214E+01 -0.70429924464E+00  0.25480037759E+01  0.72659314743E+01  0.51100000000E-03 0. -1.
        -11    1    3    3    0    0  0.11320641477E+02  0.11776358173E+02 -0.18911290062E+02  0.24989526353E+02  0.51100000000E-03 0.  1.
        -12    1    3    3    0    0 -0.30386324132E+01  0.10578483142E+02 -0.14586965025E+02  0.18273399825E+02  0.00000000000E+00 0.  1.
</event>
<event>
 7    1  0.5601662E-013  0.5052889E+02  0.7816164E-02  0.1300439E+00
        -11   -1    0    0    0    0  0.00000000000E+00  0.00000000000E+00  0.45593999997E+02  0.45594000000E+02  0.51100000000E-03 0. -1.
         11   -1    0    0    0    0 -0.00000000000E+00 -0.00000000000E+00 -0.45593999997E+02  0.45594000000E+02  0.51100000000E-03 0.  1.
    9900012    2    1    2    0    0  0.34777143805E+02  0.21010122877E+02 -0.15127140481E+01  0.50528889111E+02  0.30000088940E+02 0.  0.
        -12    1    1    2    0    0 -0.34777143805E+02 -0.21010122877E+02  0.15127140481E+01  0.40659110889E+02  0.00000000000E+00 0.  1.
         11    1    3    3    0    0  0.30566683833E+02  0.20865241032E+02  0.52419250417E+01  0.37378579725E+02  0.51100000000E-03 0. -1.
        -11    1    3    3    0    0  0.63246245361E+01  0.20484465422E+01 -0.98930828561E+00  0.67212900476E+01  0.51100000000E-03 0.  1.
        -12    1    3    3    0    0 -0.21141645646E+01 -0.19035646969E+01 -0.57653308043E+01  0.64290193376E+01  0.00000000000E+00 0.  1.
</event>
<event>
 7    1  0.5601662E-013  0.5052887E+02  0.7816164E-02  0.1300439E+00
        -11   -1    0    0    0    0  0.00000000000E+00  0.00000000000E+00  0.45593999997E+02  0.45594000000E+02  0.51100000000E-03 0. -1.
         11   -1    0    0    0    0 -0.00000000000E+00 -0.00000000000E+00 -0.45593999997E+02  0.45594000000E+02  0.51100000000E-03 0.  1.
    9900012    2    1    2    0    0  0.14642295984E+02  0.36221340034E+02 -0.11259792820E+02  0.50528865235E+02  0.30000016367E+02 0.  0.
        -12    1    1    2    0    0 -0.14642295984E+02 -0.36221340034E+02  0.11259792820E+02  0.40659134765E+02  0.00000000000E+00 0.  1.
         11    1    3    3    0    0 -0.15354505250E+01  0.87103680670E+00 -0.42932942822E+01  0.46420566011E+01  0.51100000000E-03 0. -1.
        -11    1    3    3    0    0  0.70672261170E+01  0.44990634992E+01 -0.10603267501E+02  0.13513568711E+02  0.51100000000E-03 0.  1.
         12    1    3    3    0    0  0.91105203922E+01  0.30851239728E+02  0.36367689632E+01  0.32373239922E+02  0.00000000000E+00 0. -1.
</event>
<event>
 7    1  0.5601662E-013  0.5052886E+02  0.7816164E-02  0.1300439E+00
        -11   -1    0    0    0    0  0.00000000000E+00  0.00000000000E+00  0.45593999997E+02  0.45594000000E+02  0.51100000000E-03 0.  1.
         11   -1    0    0    0    0 -0.00000000000E+00 -0.00000000000E+00 -0.45593999997E+02  0.45594000000E+02  0.51100000000E-03 0. -1.
    9900012    2    1    2    0    0  0.19822683731E+02  0.26216574114E+02 -0.23935704254E+02  0.50528862199E+02  0.30000007141E+02 0.  0.
        -12    1    1    2    0    0 -0.19822683731E+02 -0.26216574114E+02  0.23935704254E+02  0.40659137801E+02  0.00000000000E+00 0.  1.
         11    1    3    3    0    0  0.14509017124E+02  0.61298688389E+00 -0.14220808071E+02  0.20325321972E+02  0.51100000000E-03 0. -1.
        -11    1    3    3    0    0  0.84314866935E+01  0.12933012442E+02 -0.39354686641E+01  0.15932378748E+02  0.51100000000E-03 0.  1.
        -12    1    3    3    0    0 -0.31178200859E+01  0.12670574788E+02 -0.57794275186E+01  0.14271161480E+02  0.00000000000E+00 0.  1.
</event>
<event>
 7    1  0.5601662E-013  0.5052887E+02  0.7816164E-02  0.1300439E+00
        -11   -1    0    0    0    0  0.00000000000E+00  0.00000000000E+00  0.45593999997E+02  0.45594000000E+02  0.51100000000E-03 0.  1.
         11   -1    0    0    0    0 -0.00000000000E+00 -0.00000000000E+00 -0.45593999997E+02  0.45594000000E+02  0.51100000000E-03 0. -1.
    9900012    2    1    2    0    0  0.28527073484E+02 -0.59388647519E+01 -0.28356667469E+02  0.50528872783E+02  0.30000039311E+02 0.  0.
        -12    1    1    2    0    0 -0.28527073484E+02  0.59388647519E+01  0.28356667469E+02  0.40659127217E+02  0.00000000000E+00 0.  1.
         11    1    3    3    0    0  0.56292849251E+01  0.82172252281E+01 -0.57966674916E+01  0.11524451982E+02  0.51100000000E-03 0. -1.
        -11    1    3    3    0    0 -0.17298750856E+01 -0.28775296690E+01 -0.70059838163E+01  0.77689416463E+01  0.51100000000E-03 0.  1.
         12    1    3    3    0    0  0.24627663644E+02 -0.11278560311E+02 -0.15554016162E+02  0.31235479155E+02  0.00000000000E+00 0. -1.
</event>
<event>
 7    1  0.5601662E-013  0.5052885E+02  0.7816164E-02  0.1300439E+00
        -11   -1    0    0    0    0  0.00000000000E+00  0.00000000000E+00  0.45593999997E+02  0.45594000000E+02  0.51100000000E-03 0. -1.
         11   -1    0    0    0    0 -0.00000000000E+00 -0.00000000000E+00 -0.45593999997E+02  0.45594000000E+02  0.51100000000E-03 0.  1.
    9900012    2    1    2    0    0 -0.22888276328E+02  0.41988943377E+01  0.33341598240E+02  0.50528854901E+02  0.29999984958E+02 0.  0.
        -12    1    1    2    0    0  0.22888276328E+02 -0.41988943377E+01 -0.33341598240E+02  0.40659145099E+02  0.00000000000E+00 0.  1.
         11    1    3    3    0    0 -0.10891449784E+02  0.11807978764E+02  0.63108703189E+01  0.17259175106E+02  0.51100000000E-03 0. -1.
        -11    1    3    3    0    0 -0.58903070814E+01 -0.56177673247E+00  0.15215193599E+01  0.61095279715E+01  0.51100000000E-03 0.  1.
         12    1    3    3    0    0 -0.61065194626E+01 -0.70473076938E+01  0.25509208561E+02  0.27160151824E+02  0.00000000000E+00 0. -1.
</event>
<event>
 7    1  0.5601662E-013  0.5052886E+02  0.7816164E-02  0.1300439E+00
        -11   -1    0    0    0    0  0.00000000000E+00  0.00000000000E+00  0.45593999997E+02  0.45594000000E+02  0.51100000000E-03 0. -1.
         11   -1    0    0    0    0 -0.00000000000E+00 -0.00000000000E+00 -0.45593999997E+02  0.45594000000E+02  0.51100000000E-03 0.  1.
    9900012    2    1    2    0    0  0.67671936572E+00 -0.40621880220E+02  0.16033156201E+01  0.50528859297E+02  0.29999998319E+02 0.  0.
        -12    1    1    2    0    0 -0.67671936572E+00  0.40621880220E+02 -0.16033156201E+01  0.40659140703E+02  0.00000000000E+00 0.  1.
         11    1    3    3    0    0  0.68711286591E+01 -0.21220202276E+02  0.16917669534E+01  0.22368984540E+02  0.51100000000E-03 0. -1.
        -11    1    3    3    0    0 -0.23864480001E+01  0.32634568798E+01  0.29114069545E+01  0.49821256085E+01  0.51100000000E-03 0.  1.
         12    1    3    3    0    0 -0.38079612933E+01 -0.22665134824E+02 -0.29998582878E+01  0.23177749148E+02  0.00000000000E+00 0. -1.
</event>
<event>
 7    1  0.5601662E-013  0.5052886E+02  0.7816164E-02  0.1300439E+00
        -11   -1    0    0    0    0  0.00000000000E+00  0.00000000000E+00  0.45593999997E+02  0.45594000000E+02  0.51100000000E-03 0.  1.
         11   -1    0    0    0    0 -0.00000000000E+00 -0.00000000000E+00 -0.45593999997E+02  0.45594000000E+02  0.51100000000E-03 0. -1.
    9900012    2    1    2    0    0 -0.22110883926E+02  0.28257636418E+02 -0.19125390569E+02  0.50528858736E+02  0.29999996614E+02 0.  0.
        -12    1    1    2    0    0  0.22110883926E+02 -0.28257636418E+02  0.19125390569E+02  0.40659141264E+02  0.00000000000E+00 0.  1.
         11    1    3    3    0    0 -0.10458174309E+01  0.14222899574E+02 -0.43424963928E+01  0.14907779230E+02  0.51100000000E-03 0. -1.
        -11    1    3    3    0    0 -0.83825667570E+00  0.68582276314E+01  0.32061756917E+01  0.76169234817E+01  0.51100000000E-03 0.  1.
         12    1    3    3    0    0 -0.20226809819E+02  0.71765092129E+01 -0.17989069868E+02  0.28004156025E+02  0.00000000000E+00 0. -1.
</event>
<event>
 7    1  0.5601662E-013  0.5052886E+02  0.7816164E-02  0.1300439E+00
        -11   -1    0    0    0    0  0.00000000000E+00  0.00000000000E+00  0.45593999997E+02  0.45594000000E+02  0.51100000000E-03 0.  1.
         11   -1    0    0    0    0 -0.00000000000E+00 -0.00000000000E+00 -0.45593999997E+02  0.45594000000E+02  0.51100000000E-03 0. -1.
    9900012    2    1    2    0    0  0.95608222794E+01 -0.11308406928E+02 -0.37866559800E+02  0.50528859072E+02  0.29999997635E+02 0.  0.
        -12    1    1    2    0    0 -0.95608222794E+01  0.11308406928E+02  0.37866559800E+02  0.40659140928E+02  0.00000000000E+00 0.  1.
         11    1    3    3    0    0  0.59519883113E+01 -0.59491693541E+01 -0.19434445889E+01  0.86368835811E+01  0.51100000000E-03 0.  1.
        -11    1    3    3    0    0  0.95518770827E+01 -0.44127972768E+01 -0.77104594988E+01  0.13044628073E+02  0.51100000000E-03 0. -1.
        -12    1    3    3    0    0 -0.59430431146E+01 -0.94644029689E+00 -0.28212655713E+02  0.28847347418E+02  0.00000000000E+00 0.  1.
</event>
<event>
 7    1  0.5601662E-013  0.5052891E+02  0.7816164E-02  0.1300439E+00
        -11   -1    0    0    0    0  0.00000000000E+00  0.00000000000E+00  0.45593999997E+02  0.45594000000E+02  0.51100000000E-03 0. -1.
         11   -1    0    0    0    0 -0.00000000000E+00 -0.00000000000E+00 -0.45593999997E+02  0.45594000000E+02  0.51100000000E-03 0.  1.
    9900012    2    1    2    0    0 -0.63924940882E+01 -0.35344035924E+02 -0.19055101480E+02  0.50528908170E+02  0.30000146874E+02 0.  0.
        -12    1    1    2    0    0  0.63924940882E+01  0.35344035924E+02  0.19055101480E+02  0.40659091830E+02  0.00000000000E+00 0.  1.
         11    1    3    3    0    0  0.25209989117E+01 -0.85600827157E+01 -0.87310609368E+01  0.12484465425E+02  0.51100000000E-03 0. -1.
        -11    1    3    3    0    0  0.25557367293E+01 -0.30832874241E+01 -0.10999485161E+02  0.11705858603E+02  0.51100000000E-03 0.  1.
         12    1    3    3    0    0 -0.11469229729E+02 -0.23700665784E+02  0.67544461791E+00  0.26338584142E+02  0.00000000000E+00 0. -1.
</event>
<event>
 7    1  0.5601662E-013  0.5052887E+02  0.7816164E-02  0.1300439E+00
        -11   -1    0    0    0    0  0.00000000000E+00  0.00000000000E+00  0.45593999997E+02  0.45594000000E+02  0.51100000000E-03 0.  1.
         11   -1    0    0    0    0 -0.00000000000E+00 -0.00000000000E+00 -0.45593999997E+02  0.45594000000E+02  0.51100000000E-03 0. -1.
    9900012    2    1    2    0    0  0.23474415096E+02  0.19354536460E+02 -0.26972553993E+02  0.50528869235E+02  0.30000028526E+02 0.  0.
        -12    1    1    2    0    0 -0.23474415096E+02 -0.19354536460E+02  0.26972553993E+02  0.40659130765E+02  0.00000000000E+00 0.  1.
         11    1    3    3    0    0  0.42935887361E+01  0.32315219814E+01 -0.59661496300E+00  0.54068094313E+01  0.51100000000E-03 0.  1.
        -11    1    3    3    0    0  0.19137614819E+01  0.16865549173E+02 -0.51255354646E+01  0.17730773982E+02  0.51100000000E-03 0. -1.
         12    1    3    3    0    0  0.17267064878E+02 -0.74253469505E+00 -0.21250403566E+02  0.27391285822E+02  0.00000000000E+00 0. -1.
</event>
<event>
 7    1  0.5601662E-013  0.5052886E+02  0.7816164E-02  0.1300439E+00
        -11   -1    0    0    0    0  0.00000000000E+00  0.00000000000E+00  0.45593999997E+02  0.45594000000E+02  0.51100000000E-03 0.  1.
         11   -1    0    0    0    0 -0.00000000000E+00 -0.00000000000E+00 -0.45593999997E+02  0.45594000000E+02  0.51100000000E-03 0. -1.
    9900012    2    1    2    0    0  0.45848880634E+01  0.25906826413E+02 -0.30999687899E+02  0.50528861996E+02  0.30000006523E+02 0.  0.
        -12    1    1    2    0    0 -0.45848880634E+01 -0.25906826413E+02  0.30999687899E+02  0.40659138004E+02  0.00000000000E+00 0.  1.
         11    1    3    3    0    0 -0.22391037435E+01 -0.23604267392E+01 -0.62841288289E+01  0.70764027136E+01  0.51100000000E-03 0. -1.
        -11    1    3    3    0    0  0.14854368573E+01 -0.32644657799E+01 -0.12949498305E+01  0.38131554925E+01  0.51100000000E-03 0.  1.
        -12    1    3    3    0    0  0.53385549496E+01  0.31531718932E+02 -0.23420609240E+02  0.39639303790E+02  0.00000000000E+00 0.  1.
</event>
<event>
 7    1  0.5601662E-013  0.5052889E+02  0.7816164E-02  0.1300439E+00
        -11   -1    0    0    0    0  0.00000000000E+00  0.00000000000E+00  0.45593999997E+02  0.45594000000E+02  0.51100000000E-03 0.  1.
         11   -1    0    0    0    0 -0.00000000000E+00 -0.00000000000E+00 -0.45593999997E+02  0.45594000000E+02  0.51100000000E-03 0. -1.
    9900012    2    1    2    0    0  0.57709346156E+01  0.26255496411E+02 -0.30504241555E+02  0.50528886250E+02  0.30000080244E+02 0.  0.
        -12    1    1    2    0    0 -0.57709346156E+01 -0.26255496411E+02  0.30504241555E+02  0.40659113750E+02  0.00000000000E+00 0.  1.
         11    1    3    3    0    0 -0.18795878713E+01 -0.16596707349E+01 -0.51134241738E+01  0.56951263863E+01  0.51100000000E-03 0.  1.
        -11    1    3    3    0    0  0.74192897044E+01  0.45652553678E+01 -0.18562243874E+02  0.20504738822E+02  0.51100000000E-03 0. -1.
        -12    1    3    3    0    0  0.23123278246E+00  0.23349911778E+02 -0.68285735074E+01  0.24329021041E+02  0.00000000000E+00 0.  1.
</event>
<event>
 7    1  0.5601662E-013  0.5052885E+02  0.7816164E-02  0.1300439E+00
        -11   -1    0    0    0    0  0.00000000000E+00  0.00000000000E+00  0.45593999997E+02  0.45594000000E+02  0.51100000000E-03 0. -1.
         11   -1    0    0    0    0 -0.00000000000E+00 -0.00000000000E+00 -0.45593999997E+02  0.45594000000E+02  0.51100000000E-03 0.  1.
    9900012    2    1    2    0    0  0.15690223997E+02  0.37375394072E+02 -0.31722700560E+01  0.50528849634E+02  0.29999968948E+02 0.  0.
        -12    1    1    2    0    0 -0.15690223997E+02 -0.37375394072E+02  0.31722700560E+01  0.40659150366E+02  0.00000000000E+00 0.  1.
         11    1    3    3    0    0  0.15914035998E+02  0.25721276954E+02 -0.52928827774E+01  0.30705947930E+02  0.51100000000E-03 0. -1.
        -11    1    3    3    0    0  0.31165491213E+01  0.12421251555E+02 -0.34675739640E+01  0.13267420174E+02  0.51100000000E-03 0.  1.
        -12    1    3    3    0    0 -0.33403611217E+01 -0.76713443690E+00  0.55881866854E+01  0.65554815306E+01  0.00000000000E+00 0.  1.
</event>
<event>
 7    1  0.5601662E-013  0.5052888E+02  0.7816164E-02  0.1300439E+00
        -11   -1    0    0    0    0  0.00000000000E+00  0.00000000000E+00  0.45593999997E+02  0.45594000000E+02  0.51100000000E-03 0. -1.
         11   -1    0    0    0    0 -0.00000000000E+00 -0.00000000000E+00 -0.45593999997E+02  0.45594000000E+02  0.51100000000E-03 0.  1.
    9900012    2    1    2    0    0 -0.30505070631E+02  0.16853168120E+02  0.20942199858E+02  0.50528876242E+02  0.30000049826E+02 0.  0.
        -12    1    1    2    0    0  0.30505070631E+02 -0.16853168120E+02 -0.20942199858E+02  0.40659123758E+02  0.00000000000E+00 0.  1.
         11    1    3    3    0    0 -0.26777303717E+01  0.29198096408E+01  0.40442004277E+00  0.39823465588E+01  0.51100000000E-03 0. -1.
        -11    1    3    3    0    0 -0.21088644015E+02  0.74805263931E+00 -0.15371610007E+00  0.21102467107E+02  0.51100000000E-03 0.  1.
         12    1    3    3    0    0 -0.67386962444E+01  0.13185305840E+02  0.20691495915E+02  0.25444062576E+02  0.00000000000E+00 0. -1.
</event>
<event>
 7    1  0.5601662E-013  0.5052892E+02  0.7816164E-02  0.1300439E+00
        -11   -1    0    0    0    0  0.00000000000E+00  0.00000000000E+00  0.45593999997E+02  0.45594000000E+02  0.51100000000E-03 0.  1.
         11   -1    0    0    0    0 -0.00000000000E+00 -0.00000000000E+00 -0.45593999997E+02  0.45594000000E+02  0.51100000000E-03 0. -1.
    9900012    2    1    2    0    0 -0.38853885892E+01 -0.35667528526E+02 -0.19128300599E+02  0.50528920824E+02  0.30000185335E+02 0.  0.
        -12    1    1    2    0    0  0.38853885892E+01  0.35667528526E+02  0.19128300599E+02  0.40659079176E+02  0.00000000000E+00 0.  1.
         11    1    3    3    0    0  0.19634292967E+01 -0.25785868665E+02 -0.10140597649E+02  0.27777649259E+02  0.51100000000E-03 0. -1.
        -11    1    3    3    0    0  0.23882983269E+01 -0.12074022155E+02 -0.62125112995E+01  0.13786996657E+02  0.51100000000E-03 0.  1.
         12    1    3    3    0    0 -0.82371162128E+01  0.21923622940E+01 -0.27751916507E+01  0.89642749082E+01  0.00000000000E+00 0. -1.
</event>
<event>
 7    1  0.5601662E-013  0.5052886E+02  0.7816164E-02  0.1300439E+00
        -11   -1    0    0    0    0  0.00000000000E+00  0.00000000000E+00  0.45593999997E+02  0.45594000000E+02  0.51100000000E-03 0.  1.
         11   -1    0    0    0    0 -0.00000000000E+00 -0.00000000000E+00 -0.45593999997E+02  0.45594000000E+02  0.51100000000E-03 0. -1.
    9900012    2    1    2    0    0 -0.14098484788E+02 -0.42215297061E+01 -0.37902204933E+02  0.50528859267E+02  0.29999998228E+02 0.  0.
        -12    1    1    2    0    0  0.14098484788E+02  0.42215297061E+01  0.37902204933E+02  0.40659140733E+02  0.00000000000E+00 0.  1.
         11    1    3    3    0    0  0.15342276470E+01  0.43022679467E+01 -0.10894720190E+02  0.11813479261E+02  0.51100000000E-03 0. -1.
        -11    1    3    3    0    0 -0.46418559729E+01  0.57052720776E+01 -0.14974193437E+01  0.75059457302E+01  0.51100000000E-03 0.  1.
         12    1    3    3    0    0 -0.10990856462E+02 -0.14229069730E+02 -0.25510065399E+02  0.31209434276E+02  0.00000000000E+00 0. -1.
</event>
<event>
 7    1  0.5601662E-013  0.5052886E+02  0.7816164E-02  0.1300439E+00
        -11   -1    0    0    0    0  0.00000000000E+00  0.00000000000E+00  0.45593999997E+02  0.45594000000E+02  0.51100000000E-03 0.  1.
         11   -1    0    0    0    0 -0.00000000000E+00 -0.00000000000E+00 -0.45593999997E+02  0.45594000000E+02  0.51100000000E-03 0. -1.
    9900012    2    1    2    0    0  0.38012944643E+02 -0.49152735570E+01 -0.13565460354E+02  0.50528860939E+02  0.30000003309E+02 0.  0.
        -12    1    1    2    0    0 -0.38012944643E+02  0.49152735570E+01  0.13565460354E+02  0.40659139061E+02  0.00000000000E+00 0.  1.
         11    1    3    3    0    0  0.16193763754E+02 -0.95802417276E+00 -0.80504489676E+01  0.18109818433E+02  0.51100000000E-03 0. -1.
        -11    1    3    3    0    0  0.83677739142E+01 -0.21338080783E+01 -0.13972334276E+02  0.16425556386E+02  0.51100000000E-03 0.  1.
        -12    1    3    3    0    0  0.13451406975E+02 -0.18234413059E+01  0.84573228896E+01  0.15993486120E+02  0.00000000000E+00 0.  1.
</event>
<event>
 7    1  0.5601662E-013  0.5052886E+02  0.7816164E-02  0.1300439E+00
        -11   -1    0    0    0    0  0.00000000000E+00  0.00000000000E+00  0.45593999997E+02  0.45594000000E+02  0.51100000000E-03 0. -1.
         11   -1    0    0    0    0 -0.00000000000E+00 -0.00000000000E+00 -0.45593999997E+02  0.45594000000E+02  0.51100000000E-03 0.  1.
    9900012    2    1    2    0    0  0.37730270886E+02  0.13868934059E+02 -0.61028614620E+01  0.50528860916E+02  0.30000003240E+02 0.  0.
        -12    1    1    2    0    0 -0.37730270886E+02 -0.13868934059E+02  0.61028614620E+01  0.40659139084E+02  0.00000000000E+00 0.  1.
         11    1    3    3    0    0 -0.12085578643E+01  0.30554894131E+01  0.28119716852E+00  0.32978325873E+01  0.51100000000E-03 0. -1.
        -11    1    3    3    0    0  0.25712106430E+01  0.21410452933E+01 -0.91489441002E+01  0.97415798271E+01  0.51100000000E-03 0.  1.
         12    1    3    3    0    0  0.36367618107E+02  0.86723993524E+01  0.27648854696E+01  0.37489448502E+02  0.00000000000E+00 0. -1.
</event>
<event>
 7    1  0.5601662E-013  0.5052885E+02  0.7816164E-02  0.1300439E+00
        -11   -1    0    0    0    0  0.00000000000E+00  0.00000000000E+00  0.45593999997E+02  0.45594000000E+02  0.51100000000E-03 0. -1.
         11   -1    0    0    0    0 -0.00000000000E+00 -0.00000000000E+00 -0.45593999997E+02  0.45594000000E+02  0.51100000000E-03 0.  1.
    9900012    2    1    2    0    0  0.28513537322E+02  0.28922172050E+02  0.19111612044E+01  0.50528851167E+02  0.29999973606E+02 0.  0.
        -12    1    1    2    0    0 -0.28513537322E+02 -0.28922172050E+02 -0.19111612044E+01  0.40659148833E+02  0.00000000000E+00 0.  1.
         11    1    3    3    0    0  0.54416995339E+00 -0.89479280513E+00 -0.83669253578E+00  0.13404587882E+01  0.51100000000E-03 0. -1.
        -11    1    3    3    0    0  0.19360090402E+02  0.17917851164E+01  0.39748698996E+01  0.19844978843E+02  0.51100000000E-03 0.  1.
         12    1    3    3    0    0  0.86092769663E+01  0.28025179739E+02 -0.12270161594E+01  0.29343413536E+02  0.00000000000E+00 0. -1.
</event>
<event>
 7    1  0.5601662E-013  0.5052877E+02  0.7816164E-02  0.1300439E+00
        -11   -1    0    0    0    0  0.00000000000E+00  0.00000000000E+00  0.45593999997E+02  0.45594000000E+02  0.51100000000E-03 0.  1.
         11   -1    0    0    0    0 -0.00000000000E+00 -0.00000000000E+00 -0.45593999997E+02  0.45594000000E+02  0.51100000000E-03 0. -1.
    9900012    2    1    2    0    0  0.35845606476E+01 -0.30204518935E+02 -0.26981681885E+02  0.50528767390E+02  0.29999718957E+02 0.  0.
        -12    1    1    2    0    0 -0.35845606476E+01  0.30204518935E+02  0.26981681885E+02  0.40659232610E+02  0.00000000000E+00 0.  1.
         11    1    3    3    0    0  0.91986712417E+01 -0.15393930982E+02 -0.15458105790E+02  0.23675761837E+02  0.51100000000E-03 0. -1.
        -11    1    3    3    0    0  0.57905218703E+01 -0.55026476666E+01  0.26685477729E+00  0.79925269224E+01  0.51100000000E-03 0.  1.
        -12    1    3    3    0    0 -0.11404632464E+02 -0.93079402864E+01 -0.11790430872E+02  0.18860478631E+02  0.00000000000E+00 0.  1.
</event>
<event>
 7    1  0.5601662E-013  0.5052886E+02  0.7816164E-02  0.1300439E+00
        -11   -1    0    0    0    0  0.00000000000E+00  0.00000000000E+00  0.45593999997E+02  0.45594000000E+02  0.51100000000E-03 0. -1.
         11   -1    0    0    0    0 -0.00000000000E+00 -0.00000000000E+00 -0.45593999997E+02  0.45594000000E+02  0.51100000000E-03 0.  1.
    9900012    2    1    2    0    0  0.37793561824E+02 -0.14823279626E+02 -0.22544358052E+01  0.50528863081E+02  0.30000009820E+02 0.  0.
        -12    1    1    2    0    0 -0.37793561824E+02  0.14823279626E+02  0.22544358052E+01  0.40659136919E+02  0.00000000000E+00 0.  1.
         11    1    3    3    0    0  0.27102621153E+02 -0.99530699803E+01  0.20847459103E+01  0.28947570557E+02  0.51100000000E-03 0. -1.
        -11    1    3    3    0    0  0.11330726258E+02 -0.32918548221E+01  0.44635921919E+01  0.12615281258E+02  0.51100000000E-03 0.  1.
        -12    1    3    3    0    0 -0.63978558666E+00 -0.15783548238E+01 -0.88027739074E+01  0.89660112654E+01  0.00000000000E+00 0.  1.
</event>
<event>
 7    1  0.5601662E-013  0.5052885E+02  0.7816164E-02  0.1300439E+00
        -11   -1    0    0    0    0  0.00000000000E+00  0.00000000000E+00  0.45593999997E+02  0.45594000000E+02  0.51100000000E-03 0.  1.
         11   -1    0    0    0    0 -0.00000000000E+00 -0.00000000000E+00 -0.45593999997E+02  0.45594000000E+02  0.51100000000E-03 0. -1.
    9900012    2    1    2    0    0  0.27598964871E+02  0.11606165702E+02 -0.27509276954E+02  0.50528852655E+02  0.29999978131E+02 0.  0.
        -12    1    1    2    0    0 -0.27598964871E+02 -0.11606165702E+02  0.27509276954E+02  0.40659147345E+02  0.00000000000E+00 0.  1.
         11    1    3    3    0    0  0.28081452974E+02  0.86960076107E+01 -0.21667237988E+02  0.36519279179E+02  0.51100000000E-03 0. -1.
        -11    1    3    3    0    0  0.58288515663E+01  0.19245843258E+01 -0.41229256763E+01  0.73944608865E+01  0.51100000000E-03 0.  1.
        -12    1    3    3    0    0 -0.63113396694E+01  0.98557376535E+00 -0.17191132903E+01  0.66151125897E+01  0.00000000000E+00 0.  1.
</event>
<event>
 7    1  0.5601662E-013  0.5052883E+02  0.7816164E-02  0.1300439E+00
        -11   -1    0    0    0    0  0.00000000000E+00  0.00000000000E+00  0.45593999997E+02  0.45594000000E+02  0.51100000000E-03 0. -1.
         11   -1    0    0    0    0 -0.00000000000E+00 -0.00000000000E+00 -0.45593999997E+02  0.45594000000E+02  0.51100000000E-03 0.  1.
    9900012    2    1    2    0    0  0.43963899360E+01  0.40397847064E+02  0.13614877233E+01  0.50528832022E+02  0.29999915414E+02 0.  0.
        -12    1    1    2    0    0 -0.43963899360E+01 -0.40397847064E+02 -0.13614877233E+01  0.40659167978E+02  0.00000000000E+00 0.  1.
         11    1    3    3    0    0  0.74837013989E+01  0.72602066455E+01 -0.31288871836E+00  0.10431408667E+02  0.51100000000E-03 0. -1.
        -11    1    3    3    0    0  0.89091409569E+01  0.17438394598E+02  0.46225983986E+01  0.20120606724E+02  0.51100000000E-03 0.  1.
         12    1    3    3    0    0 -0.11996452420E+02  0.15699245820E+02 -0.29482219570E+01  0.19976816631E+02  0.00000000000E+00 0. -1.
</event>
<event>
 7    1  0.5601662E-013  0.5052886E+02  0.7816164E-02  0.1300439E+00
        -11   -1    0    0    0    0  0.00000000000E+00  0.00000000000E+00  0.45593999997E+02  0.45594000000E+02  0.51100000000E-03 0. -1.
         11   -1    0    0    0    0 -0.00000000000E+00 -0.00000000000E+00 -0.45593999997E+02  0.45594000000E+02  0.51100000000E-03 0.  1.
    9900012    2    1    2    0    0  0.36176484430E+02 -0.15997770373E+02  0.94073958264E+01  0.50528858606E+02  0.29999996218E+02 0.  0.
        -12    1    1    2    0    0 -0.36176484430E+02  0.15997770373E+02 -0.94073958264E+01  0.40659141394E+02  0.00000000000E+00 0.  1.
         11    1    3    3    0    0  0.39005235773E+02 -0.17282028987E+02  0.11717928135E+02  0.44242364129E+02  0.51100000000E-03 0. -1.
        -11    1    3    3    0    0  0.69102948180E+00  0.20050405876E+01 -0.15158871405E+01  0.26068416881E+01  0.51100000000E-03 0.  1.
        -12    1    3    3    0    0 -0.35197808245E+01 -0.72078197379E+00 -0.79464516821E+00  0.36796527893E+01  0.00000000000E+00 0.  1.
</event>
<event>
 7    1  0.5601662E-013  0.5052886E+02  0.7816164E-02  0.1300439E+00
        -11   -1    0    0    0    0  0.00000000000E+00  0.00000000000E+00  0.45593999997E+02  0.45594000000E+02  0.51100000000E-03 0.  1.
         11   -1    0    0    0    0 -0.00000000000E+00 -0.00000000000E+00 -0.45593999997E+02  0.45594000000E+02  0.51100000000E-03 0. -1.
    9900012    2    1    2    0    0  0.23422420235E+02 -0.51826247867E+01 -0.32828281967E+02  0.50528862450E+02  0.30000007904E+02 0.  0.
        -12    1    1    2    0    0 -0.23422420235E+02  0.51826247867E+01  0.32828281967E+02  0.40659137550E+02  0.00000000000E+00 0.  1.
         11    1    3    3    0    0 -0.32855373900E+01  0.34278108349E+01 -0.11777682499E+02  0.12698757749E+02  0.51100000000E-03 0. -1.
        -11    1    3    3    0    0 -0.92099743522E+00  0.90997143749E+00  0.63271735567E+00  0.14410467744E+01  0.51100000000E-03 0.  1.
        -12    1    3    3    0    0  0.27628955060E+02 -0.95204070591E+01 -0.21683316824E+02  0.36389057927E+02  0.00000000000E+00 0.  1.
</event>
<event>
 7    1  0.5601662E-013  0.5052886E+02  0.7816164E-02  0.1300439E+00
        -11   -1    0    0    0    0  0.00000000000E+00  0.00000000000E+00  0.45593999997E+02  0.45594000000E+02  0.51100000000E-03 0.  1.
         11   -1    0    0    0    0 -0.00000000000E+00 -0.00000000000E+00 -0.45593999997E+02  0.45594000000E+02  0.51100000000E-03 0. -1.
    9900012    2    1    2    0    0 -0.11899046084E+02  0.31795176139E+02 -0.22375104972E+02  0.50528857782E+02  0.29999993714E+02 0.  0.
        -12    1    1    2    0    0  0.11899046084E+02 -0.31795176139E+02  0.22375104972E+02  0.40659142218E+02  0.00000000000E+00 0.  1.
         11    1    3    3    0    0 -0.86187875782E+01  0.11506816097E+02 -0.77358066495E+01  0.16325839053E+02  0.51100000000E-03 0. -1.
        -11    1    3    3    0    0 -0.67789807069E+01  0.15746619650E+02 -0.20008258227E+02  0.26348453605E+02  0.51100000000E-03 0.  1.
         12    1    3    3    0    0  0.34987222012E+01  0.45417403918E+01  0.53689599049E+01  0.78545651241E+01  0.00000000000E+00 0. -1.
</event>
<event>
 7    1  0.5601662E-013  0.5052887E+02  0.7816164E-02  0.1300439E+00
        -11   -1    0    0    0    0  0.00000000000E+00  0.00000000000E+00  0.45593999997E+02  0.45594000000E+02  0.51100000000E-03 0.  1.
         11   -1    0    0    0    0 -0.00000000000E+00 -0.00000000000E+00 -0.45593999997E+02  0.45594000000E+02  0.51100000000E-03 0. -1.
    9900012    2    1    2    0    0  0.27847749022E+02 -0.26095727923E+02 -0.14024282831E+02  0.50528872484E+02  0.30000038402E+02 0.  0.
        -12    1    1    2    0    0 -0.27847749022E+02  0.26095727923E+02  0.14024282831E+02  0.40659127516E+02  0.00000000000E+00 0.  1.
         11    1    3    3    0    0  0.15607458226E+02 -0.26663919004E+02 -0.53231953482E+01  0.31351136150E+02  0.51100000000E-03 0. -1.
        -11    1    3    3    0    0  0.95843909182E+01 -0.29974017552E+01 -0.75264838929E+00  0.10070325040E+02  0.51100000000E-03 0.  1.
        -12    1    3    3    0    0  0.26558998780E+01  0.35655928367E+01 -0.79484390938E+01  0.91074112934E+01  0.00000000000E+00 0.  1.
</event>
<event>
 7    1  0.5601662E-013  0.5052886E+02  0.7816164E-02  0.1300439E+00
        -11   -1    0    0    0    0  0.00000000000E+00  0.00000000000E+00  0.45593999997E+02  0.45594000000E+02  0.51100000000E-03 0. -1.
         11   -1    0    0    0    0 -0.00000000000E+00 -0.00000000000E+00 -0.45593999997E+02  0.45594000000E+02  0.51100000000E-03 0.  1.
    9900012    2    1    2    0    0  0.40141400514E+02  0.34017750650E+01  0.55010337272E+01  0.50528862271E+02  0.30000007358E+02 0.  0.
        -12    1    1    2    0    0 -0.40141400514E+02 -0.34017750650E+01 -0.55010337272E+01  0.40659137729E+02  0.00000000000E+00 0.  1.
         11    1    3    3    0    0  0.27756942870E+02  0.40506210337E+01  0.55313489427E+01  0.28591104030E+02  0.51100000000E-03 0. -1.
        -11    1    3    3    0    0  0.14941031173E+02  0.20585360765E+01  0.48101995527E+01  0.15830666546E+02  0.51100000000E-03 0.  1.
        -12    1    3    3    0    0 -0.25565735293E+01 -0.27073820452E+01 -0.48405147682E+01  0.61070916950E+01  0.00000000000E+00 0.  1.
</event>
<event>
 7    1  0.5601662E-013  0.5052895E+02  0.7816164E-02  0.1300438E+00
        -11   -1    0    0    0    0  0.00000000000E+00  0.00000000000E+00  0.45593999997E+02  0.45594000000E+02  0.51100000000E-03 0.  1.
         11   -1    0    0    0    0 -0.00000000000E+00 -0.00000000000E+00 -0.45593999997E+02  0.45594000000E+02  0.51100000000E-03 0. -1.
    9900012    2    1    2    0    0 -0.17885443230E+02 -0.34944478216E+02  0.10590200394E+02  0.50528954491E+02  0.30000287669E+02 0.  0.
        -12    1    1    2    0    0  0.17885443230E+02  0.34944478216E+02 -0.10590200394E+02  0.40659045509E+02  0.00000000000E+00 0.  1.
         11    1    3    3    0    0  0.22216124282E+01 -0.69027472984E-01  0.12515273973E+01  0.25508131371E+01  0.51100000000E-03 0. -1.
        -11    1    3    3    0    0  0.13510126258E+01 -0.56603435717E+01 -0.62320983703E+01  0.85266508561E+01  0.51100000000E-03 0.  1.
         12    1    3    3    0    0 -0.21458068284E+02 -0.29215107172E+02  0.15570771367E+02  0.39451490498E+02  0.00000000000E+00 0. -1.
</event>
<event>
 7    1  0.5601662E-013  0.5052884E+02  0.7816164E-02  0.1300439E+00
        -11   -1    0    0    0    0  0.00000000000E+00  0.00000000000E+00  0.45593999997E+02  0.45594000000E+02  0.51100000000E-03 0.  1.
         11   -1    0    0    0    0 -0.00000000000E+00 -0.00000000000E+00 -0.45593999997E+02  0.45594000000E+02  0.51100000000E-03 0. -1.
    9900012    2    1    2    0    0  0.12258817286E+02  0.19517661668E+01 -0.38717942190E+02  0.50528843100E+02  0.29999949085E+02 0.  0.
        -12    1    1    2    0    0 -0.12258817286E+02 -0.19517661668E+01  0.38717942190E+02  0.40659156900E+02  0.00000000000E+00 0.  1.
         11    1    3    3    0    0 -0.81146955920E+00  0.18555209206E+01 -0.56646440344E+00  0.21029319803E+01  0.51100000000E-03 0. -1.
        -11    1    3    3    0    0 -0.76455194738E+01  0.30976497736E+01 -0.66104658825E+01  0.10571076652E+02  0.51100000000E-03 0.  1.
         12    1    3    3    0    0  0.20715806319E+02 -0.30014045274E+01 -0.31541011904E+02  0.37854834467E+02  0.00000000000E+00 0. -1.
</event>
<event>
 7    1  0.5601662E-013  0.5052885E+02  0.7816164E-02  0.1300439E+00
        -11   -1    0    0    0    0  0.00000000000E+00  0.00000000000E+00  0.45593999997E+02  0.45594000000E+02  0.51100000000E-03 0.  1.
         11   -1    0    0    0    0 -0.00000000000E+00 -0.00000000000E+00 -0.45593999997E+02  0.45594000000E+02  0.51100000000E-03 0. -1.
    9900012    2    1    2    0    0 -0.52130261125E+01 -0.18813821013E+02 -0.35665547918E+02  0.50528845918E+02  0.29999957652E+02 0.  0.
        -12    1    1    2    0    0  0.52130261125E+01  0.18813821013E+02  0.35665547918E+02  0.40659154082E+02  0.00000000000E+00 0.  1.
         11    1    3    3    0    0 -0.40221217114E+01 -0.14295514497E+02 -0.15369178665E+02  0.21371730180E+02  0.51100000000E-03 0. -1.
        -11    1    3    3    0    0 -0.36472285036E+01  0.29816223959E+01  0.22854357349E+01  0.52359874549E+01  0.51100000000E-03 0.  1.
         12    1    3    3    0    0  0.24563241025E+01 -0.74999289117E+01 -0.22581804989E+02  0.23921128283E+02  0.00000000000E+00 0. -1.
</event>
<event>
 7    1  0.5601662E-013  0.5052887E+02  0.7816164E-02  0.1300439E+00
        -11   -1    0    0    0    0  0.00000000000E+00  0.00000000000E+00  0.45593999997E+02  0.45594000000E+02  0.51100000000E-03 0. -1.
         11   -1    0    0    0    0 -0.00000000000E+00 -0.00000000000E+00 -0.45593999997E+02  0.45594000000E+02  0.51100000000E-03 0.  1.
    9900012    2    1    2    0    0  0.11077843925E+02 -0.10247184444E+02  0.37755022431E+02  0.50528866539E+02  0.30000020331E+02 0.  0.
        -12    1    1    2    0    0 -0.11077843925E+02  0.10247184444E+02 -0.37755022431E+02  0.40659133461E+02  0.00000000000E+00 0.  1.
         11    1    3    3    0    0  0.65786555029E+01 -0.86119595308E+01  0.58620006143E+01  0.12321022955E+02  0.51100000000E-03 0. -1.
        -11    1    3    3    0    0 -0.79515191064E+01  0.15233053054E+01  0.10564197474E+02  0.13309747694E+02  0.51100000000E-03 0.  1.
        -12    1    3    3    0    0  0.12450707529E+02 -0.31585302184E+01  0.21328824343E+02  0.24898095890E+02  0.00000000000E+00 0.  1.
</event>
<event>
 7    1  0.5601662E-013  0.5052889E+02  0.7816164E-02  0.1300439E+00
        -11   -1    0    0    0    0  0.00000000000E+00  0.00000000000E+00  0.45593999997E+02  0.45594000000E+02  0.51100000000E-03 0.  1.
         11   -1    0    0    0    0 -0.00000000000E+00 -0.00000000000E+00 -0.45593999997E+02  0.45594000000E+02  0.51100000000E-03 0. -1.
    9900012    2    1    2    0    0  0.20018331323E+02 -0.34178058134E+02 -0.91809705598E+01  0.50528887034E+02  0.30000082628E+02 0.  0.
        -12    1    1    2    0    0 -0.20018331323E+02  0.34178058134E+02  0.91809705598E+01  0.40659112966E+02  0.00000000000E+00 0.  1.
         11    1    3    3    0    0  0.55127745746E+01 -0.45684431715E+01 -0.74465862086E+00  0.71983243359E+01  0.51100000000E-03 0. -1.
        -11    1    3    3    0    0  0.45762460892E+01  0.35488350635E+01 -0.64385609936E+01  0.86597532590E+01  0.51100000000E-03 0.  1.
         12    1    3    3    0    0  0.99293106594E+01 -0.33158450026E+02 -0.19977509453E+01  0.34670809439E+02  0.00000000000E+00 0. -1.
</event>
<event>
 7    1  0.5601662E-013  0.5052886E+02  0.7816164E-02  0.1300439E+00
        -11   -1    0    0    0    0  0.00000000000E+00  0.00000000000E+00  0.45593999997E+02  0.45594000000E+02  0.51100000000E-03 0.  1.
         11   -1    0    0    0    0 -0.00000000000E+00 -0.00000000000E+00 -0.45593999997E+02  0.45594000000E+02  0.51100000000E-03 0. -1.
    9900012    2    1    2    0    0  0.39386082615E+02  0.10044738669E+02 -0.10027298406E+01  0.50528859012E+02  0.29999997454E+02 0.  0.
        -12    1    1    2    0    0 -0.39386082615E+02 -0.10044738669E+02  0.10027298406E+01  0.40659140988E+02  0.00000000000E+00 0.  1.
         11    1    3    3    0    0  0.11783144573E+02 -0.45579867464E+01 -0.84448714947E+01  0.15196499401E+02  0.51100000000E-03 0. -1.
        -11    1    3    3    0    0  0.49129337441E+01  0.14056033037E+01  0.75097635260E+01  0.90834567813E+01  0.51100000000E-03 0.  1.
        -12    1    3    3    0    0  0.22690004298E+02  0.13197122112E+02 -0.67621871923E-01  0.26248902830E+02  0.00000000000E+00 0.  1.
</event>
<event>
 7    1  0.5601662E-013  0.5052886E+02  0.7816164E-02  0.1300439E+00
        -11   -1    0    0    0    0  0.00000000000E+00  0.00000000000E+00  0.45593999997E+02  0.45594000000E+02  0.51100000000E-03 0.  1.
         11   -1    0    0    0    0 -0.00000000000E+00 -0.00000000000E+00 -0.45593999997E+02  0.45594000000E+02  0.51100000000E-03 0. -1.
    9900012    2    1    2    0    0 -0.37198601391E+02 -0.89816100062E+01 -0.13739003658E+02  0.50528862217E+02  0.30000007194E+02 0.  0.
        -12    1    1    2    0    0  0.37198601391E+02  0.89816100062E+01  0.13739003658E+02  0.40659137783E+02  0.00000000000E+00 0.  1.
         11    1    3    3    0    0 -0.21514277223E+02  0.40228607054E+01 -0.35191696553E+01  0.22168267592E+02  0.51100000000E-03 0. -1.
        -11    1    3    3    0    0 -0.91889964030E+01  0.11368771963E+01 -0.87334535260E+01  0.12728053874E+02  0.51100000000E-03 0.  1.
        -12    1    3    3    0    0 -0.64953277651E+01 -0.14141347908E+02 -0.14863804768E+01  0.15632540752E+02  0.00000000000E+00 0.  1.
</event>
<event>
 7    1  0.5601662E-013  0.5052886E+02  0.7816164E-02  0.1300439E+00
        -11   -1    0    0    0    0  0.00000000000E+00  0.00000000000E+00  0.45593999997E+02  0.45594000000E+02  0.51100000000E-03 0.  1.
         11   -1    0    0    0    0 -0.00000000000E+00 -0.00000000000E+00 -0.45593999997E+02  0.45594000000E+02  0.51100000000E-03 0. -1.
    9900012    2    1    2    0    0  0.20721853513E+02  0.72703594379E+01 -0.34218594295E+02  0.50528861606E+02  0.30000005339E+02 0.  0.
        -12    1    1    2    0    0 -0.20721853513E+02 -0.72703594379E+01  0.34218594295E+02  0.40659138394E+02  0.00000000000E+00 0.  1.
         11    1    3    3    0    0  0.61737827242E+01 -0.61128710967E+01 -0.19195458299E+02  0.21070083192E+02  0.51100000000E-03 0. -1.
        -11    1    3    3    0    0  0.37394572396E+01  0.24777597117E+01 -0.13266384434E+02  0.14004277556E+02  0.51100000000E-03 0.  1.
        -12    1    3    3    0    0  0.10808613550E+02  0.10905470823E+02 -0.17567515618E+01  0.15454500858E+02  0.00000000000E+00 0.  1.
</event>
<event>
 7    1  0.5601662E-013  0.5052886E+02  0.7816164E-02  0.1300439E+00
        -11   -1    0    0    0    0  0.00000000000E+00  0.00000000000E+00  0.45593999997E+02  0.45594000000E+02  0.51100000000E-03 0. -1.
         11   -1    0    0    0    0 -0.00000000000E+00 -0.00000000000E+00 -0.45593999997E+02  0.45594000000E+02  0.51100000000E-03 0.  1.
    9900012    2    1    2    0    0 -0.24836855495E+02 -0.26900337677E+02  0.17682435056E+02  0.50528855056E+02  0.29999985429E+02 0.  0.
        -12    1    1    2    0    0  0.24836855495E+02  0.26900337677E+02 -0.17682435056E+02  0.40659144944E+02  0.00000000000E+00 0.  1.
         11    1    3    3    0    0  0.16792785621E+00 -0.16321768008E+01  0.12740668930E+02  0.12845888288E+02  0.51100000000E-03 0. -1.
        -11    1    3    3    0    0 -0.97535968688E+01 -0.46509806674E+01 -0.22733659849E+01  0.11042303483E+02  0.51100000000E-03 0.  1.
        -12    1    3    3    0    0 -0.15251186483E+02 -0.20617180209E+02  0.72151321113E+01  0.26640663285E+02  0.00000000000E+00 0.  1.
</event>
<event>
 7    1  0.5601662E-013  0.5052887E+02  0.7816164E-02  0.1300439E+00
        -11   -1    0    0    0    0  0.00000000000E+00  0.00000000000E+00  0.45593999997E+02  0.45594000000E+02  0.51100000000E-03 0. -1.
         11   -1    0    0    0    0 -0.00000000000E+00 -0.00000000000E+00 -0.45593999997E+02  0.45594000000E+02  0.51100000000E-03 0.  1.
    9900012    2    1    2    0    0 -0.72449716339E+01  0.35734368972E+02  0.17992505763E+02  0.50528868142E+02  0.30000025203E+02 0.  0.
        -12    1    1    2    0    0  0.72449716339E+01 -0.35734368972E+02 -0.17992505763E+02  0.40659131858E+02  0.00000000000E+00 0.  1.
         11    1    3    3    0    0 -0.46223367814E+01  0.12677924189E+02  0.66638367625E+01  0.15049999327E+02  0.51100000000E-03 0. -1.
        -11    1    3    3    0    0  0.35167806118E+01  0.25854134939E+02  0.11959745064E+02  0.28702605136E+02  0.51100000000E-03 0.  1.
        -12    1    3    3    0    0 -0.61394154643E+01 -0.27976901560E+01 -0.63107606358E+00  0.67762636792E+01  0.00000000000E+00 0.  1.
</event>
<event>
 7    1  0.5601662E-013  0.5052886E+02  0.7816164E-02  0.1300439E+00
        -11   -1    0    0    0    0  0.00000000000E+00  0.00000000000E+00  0.45593999997E+02  0.45594000000E+02  0.51100000000E-03 0. -1.
         11   -1    0    0    0    0 -0.00000000000E+00 -0.00000000000E+00 -0.45593999997E+02  0.45594000000E+02  0.51100000000E-03 0.  1.
    9900012    2    1    2    0    0  0.13623785694E+02 -0.36949201377E+02  0.10115071200E+02  0.50528859768E+02  0.29999999751E+02 0.  0.
        -12    1    1    2    0    0 -0.13623785694E+02  0.36949201377E+02 -0.10115071200E+02  0.40659140232E+02  0.00000000000E+00 0.  1.
         11    1    3    3    0    0  0.97672902963E+01 -0.23947479975E+02 -0.30153779816E+01  0.26037938887E+02  0.51100000000E-03 0. -1.
        -11    1    3    3    0    0  0.46308562403E+01  0.12824529343E+01 -0.37233591855E+00  0.48195590404E+01  0.51100000000E-03 0.  1.
        -12    1    3    3    0    0 -0.77436084289E+00 -0.14284174336E+02  0.13502785100E+02  0.19671361840E+02  0.00000000000E+00 0.  1.
</event>
<event>
 7    1  0.5601662E-013  0.5052887E+02  0.7816164E-02  0.1300439E+00
        -11   -1    0    0    0    0  0.00000000000E+00  0.00000000000E+00  0.45593999997E+02  0.45594000000E+02  0.51100000000E-03 0.  1.
         11   -1    0    0    0    0 -0.00000000000E+00 -0.00000000000E+00 -0.45593999997E+02  0.45594000000E+02  0.51100000000E-03 0. -1.
    9900012    2    1    2    0    0  0.24382270354E+02 -0.19745917181E+02 -0.25860565686E+02  0.50528865595E+02  0.30000017464E+02 0.  0.
        -12    1    1    2    0    0 -0.24382270354E+02  0.19745917181E+02  0.25860565686E+02  0.40659134405E+02  0.00000000000E+00 0.  1.
         11    1    3    3    0    0 -0.10666891639E+01  0.22100045430E+01  0.45599260350E+00  0.24959718284E+01  0.51100000000E-03 0. -1.
        -11    1    3    3    0    0  0.49859551207E-01 -0.41905714779E+01  0.31681144904E+01  0.52536011432E+01  0.51100000000E-03 0.  1.
         12    1    3    3    0    0  0.25399099966E+02 -0.17765350246E+02 -0.29484672780E+02  0.42779292624E+02  0.00000000000E+00 0. -1.
</event>
<event>
 7    1  0.5601662E-013  0.5052886E+02  0.7816164E-02  0.1300439E+00
        -11   -1    0    0    0    0  0.00000000000E+00  0.00000000000E+00  0.45593999997E+02  0.45594000000E+02  0.51100000000E-03 0.  1.
         11   -1    0    0    0    0 -0.00000000000E+00 -0.00000000000E+00 -0.45593999997E+02  0.45594000000E+02  0.51100000000E-03 0. -1.
    9900012    2    1    2    0    0  0.36509831517E+02 -0.86476625487E+01 -0.15665758095E+02  0.50528857835E+02  0.29999993875E+02 0.  0.
        -12    1    1    2    0    0 -0.36509831517E+02  0.86476625487E+01  0.15665758095E+02  0.40659142165E+02  0.00000000000E+00 0.  1.
         11    1    3    3    0    0  0.22851822202E+02 -0.68872432297E+01  0.13356052121E+01  0.23904471105E+02  0.51100000000E-03 0. -1.
        -11    1    3    3    0    0  0.11666185072E+02  0.46037279128E+01 -0.63497640737E+01  0.14057513610E+02  0.51100000000E-03 0.  1.
         12    1    3    3    0    0  0.19918242425E+01 -0.63641472318E+01 -0.10651599233E+02  0.12566873120E+02  0.00000000000E+00 0. -1.
</event>
<event>
 7    1  0.5601662E-013  0.5052886E+02  0.7816164E-02  0.1300439E+00
        -11   -1    0    0    0    0  0.00000000000E+00  0.00000000000E+00  0.45593999997E+02  0.45594000000E+02  0.51100000000E-03 0.  1.
         11   -1    0    0    0    0 -0.00000000000E+00 -0.00000000000E+00 -0.45593999997E+02  0.45594000000E+02  0.51100000000E-03 0. -1.
    9900012    2    1    2    0    0  0.43638710860E+01 -0.40161442399E+02  0.46022955565E+01  0.50528856492E+02  0.29999989792E+02 0.  0.
        -12    1    1    2    0    0 -0.43638710860E+01  0.40161442399E+02 -0.46022955565E+01  0.40659143508E+02  0.00000000000E+00 0.  1.
         11    1    3    3    0    0  0.39715804197E+01 -0.20257454953E+02 -0.69683393740E+01  0.21787512159E+02  0.51100000000E-03 0. -1.
        -11    1    3    3    0    0  0.64476528747E+01 -0.18663316169E+02  0.10816988842E+02  0.22514414180E+02  0.51100000000E-03 0.  1.
        -12    1    3    3    0    0 -0.60553622084E+01 -0.12406712773E+01  0.75364608857E+00  0.62269301521E+01  0.00000000000E+00 0.  1.
</event>
<event>
 7    1  0.5601662E-013  0.5052887E+02  0.7816164E-02  0.1300439E+00
        -11   -1    0    0    0    0  0.00000000000E+00  0.00000000000E+00  0.45593999997E+02  0.45594000000E+02  0.51100000000E-03 0.  1.
         11   -1    0    0    0    0 -0.00000000000E+00 -0.00000000000E+00 -0.45593999997E+02  0.45594000000E+02  0.51100000000E-03 0. -1.
    9900012    2    1    2    0    0  0.30719771810E+02 -0.14874916086E+02 -0.22095183717E+02  0.50528872462E+02  0.30000038336E+02 0.  0.
        -12    1    1    2    0    0 -0.30719771810E+02  0.14874916086E+02  0.22095183717E+02  0.40659127538E+02  0.00000000000E+00 0.  1.
         11    1    3    3    0    0  0.87606865355E+01 -0.11389529060E+01  0.21504935375E+01  0.90923850013E+01  0.51100000000E-03 0. -1.
        -11    1    3    3    0    0 -0.15385466366E+01 -0.48642167119E+01  0.16492083728E+01  0.53616805660E+01  0.51100000000E-03 0.  1.
         12    1    3    3    0    0  0.23497631911E+02 -0.88717464685E+01 -0.25894885627E+02  0.36074806895E+02  0.00000000000E+00 0. -1.
</event>
<event>
 7    1  0.5601662E-013  0.5052874E+02  0.7816164E-02  0.1300439E+00
        -11   -1    0    0    0    0  0.00000000000E+00  0.00000000000E+00  0.45593999997E+02  0.45594000000E+02  0.51100000000E-03 0.  1.
         11   -1    0    0    0    0 -0.00000000000E+00 -0.00000000000E+00 -0.45593999997E+02  0.45594000000E+02  0.51100000000E-03 0. -1.
    9900012    2    1    2    0    0  0.10057691694E+02  0.34231065680E+02 -0.19500064971E+02  0.50528738402E+02  0.29999630844E+02 0.  0.
        -12    1    1    2    0    0 -0.10057691694E+02 -0.34231065680E+02  0.19500064971E+02  0.40659261598E+02  0.00000000000E+00 0.  1.
         11    1    3    3    0    0  0.67262117019E+00  0.49892575506E+01 -0.15368404675E+02  0.16171981098E+02  0.51100000000E-03 0. -1.
        -11    1    3    3    0    0  0.41034310021E+01  0.94350400012E+01  0.55459581727E+01  0.11688275242E+02  0.51100000000E-03 0.  1.
         12    1    3    3    0    0  0.52816395222E+01  0.19806768129E+02 -0.96776184694E+01  0.22668482062E+02  0.00000000000E+00 0. -1.
</event>
<event>
 7    1  0.5601662E-013  0.5052885E+02  0.7816164E-02  0.1300439E+00
        -11   -1    0    0    0    0  0.00000000000E+00  0.00000000000E+00  0.45593999997E+02  0.45594000000E+02  0.51100000000E-03 0.  1.
         11   -1    0    0    0    0 -0.00000000000E+00 -0.00000000000E+00 -0.45593999997E+02  0.45594000000E+02  0.51100000000E-03 0. -1.
    9900012    2    1    2    0    0 -0.21506698270E+01  0.40595390208E+02  0.74506084288E+00  0.50528853397E+02  0.29999980386E+02 0.  0.
        -12    1    1    2    0    0  0.21506698270E+01 -0.40595390208E+02 -0.74506084288E+00  0.40659146603E+02  0.00000000000E+00 0.  1.
         11    1    3    3    0    0  0.21293926587E+01  0.66052904823E+01  0.38343609836E+01  0.79288397553E+01  0.51100000000E-03 0. -1.
        -11    1    3    3    0    0 -0.89627615369E+01  0.24758812743E+02  0.79124375978E+01  0.27494300715E+02  0.51100000000E-03 0.  1.
        -12    1    3    3    0    0  0.46826990512E+01  0.92312869824E+01 -0.11001737739E+02  0.15105712927E+02  0.00000000000E+00 0.  1.
</event>
<event>
 7    1  0.5601662E-013  0.5052886E+02  0.7816164E-02  0.1300439E+00
        -11   -1    0    0    0    0  0.00000000000E+00  0.00000000000E+00  0.45593999997E+02  0.45594000000E+02  0.51100000000E-03 0. -1.
         11   -1    0    0    0    0 -0.00000000000E+00 -0.00000000000E+00 -0.45593999997E+02  0.45594000000E+02  0.51100000000E-03 0.  1.
    9900012    2    1    2    0    0  0.41312830033E+01 -0.13187836758E+02  0.38238450432E+02  0.50528860448E+02  0.30000001818E+02 0.  0.
        -12    1    1    2    0    0 -0.41312830033E+01  0.13187836758E+02 -0.38238450432E+02  0.40659139552E+02  0.00000000000E+00 0.  1.
         11    1    3    3    0    0 -0.14234295561E+01 -0.16243252171E+01  0.10550338567E+02  0.10769133124E+02  0.51100000000E-03 0. -1.
        -11    1    3    3    0    0 -0.37154956275E+01  0.67636150965E+01  0.10162032774E+02  0.12760027715E+02  0.51100000000E-03 0.  1.
         12    1    3    3    0    0  0.92702081869E+01 -0.18327126638E+02  0.17526079092E+02  0.26999699609E+02  0.00000000000E+00 0. -1.
</event>
<event>
 7    1  0.5601662E-013  0.5052887E+02  0.7816164E-02  0.1300439E+00
        -11   -1    0    0    0    0  0.00000000000E+00  0.00000000000E+00  0.45593999997E+02  0.45594000000E+02  0.51100000000E-03 0. -1.
         11   -1    0    0    0    0 -0.00000000000E+00 -0.00000000000E+00 -0.45593999997E+02  0.45594000000E+02  0.51100000000E-03 0.  1.
    9900012    2    1    2    0    0  0.32746995900E+02  0.52408952553E+01  0.23523021034E+02  0.50528865207E+02  0.30000016282E+02 0.  0.
        -12    1    1    2    0    0 -0.32746995900E+02 -0.52408952553E+01 -0.23523021034E+02  0.40659134793E+02  0.00000000000E+00 0.  1.
         11    1    3    3    0    0  0.15113348892E+02  0.77760951338E+01  0.19019030958E+02  0.25506950212E+02  0.51100000000E-03 0. -1.
        -11    1    3    3    0    0  0.19347441755E+02  0.14627637515E+01  0.98627443359E+00  0.19427710050E+02  0.51100000000E-03 0.  1.
        -12    1    3    3    0    0 -0.17137947468E+01 -0.39979636301E+01  0.35177156424E+01  0.55942049446E+01  0.00000000000E+00 0.  1.
</event>
<event>
 7    1  0.5601662E-013  0.5052886E+02  0.7816164E-02  0.1300439E+00
        -11   -1    0    0    0    0  0.00000000000E+00  0.00000000000E+00  0.45593999997E+02  0.45594000000E+02  0.51100000000E-03 0.  1.
         11   -1    0    0    0    0 -0.00000000000E+00 -0.00000000000E+00 -0.45593999997E+02  0.45594000000E+02  0.51100000000E-03 0. -1.
    9900012    2    1    2    0    0 -0.75959748222E+01  0.27983943447E+02 -0.28502029587E+02  0.50528860623E+02  0.30000002348E+02 0.  0.
        -12    1    1    2    0    0  0.75959748222E+01 -0.27983943447E+02  0.28502029587E+02  0.40659139377E+02  0.00000000000E+00 0.  1.
         11    1    3    3    0    0 -0.63746040706E+01  0.63451607212E+01 -0.32934594488E+01  0.95782836164E+01  0.51100000000E-03 0. -1.
        -11    1    3    3    0    0  0.67759043191E+01  0.26280925592E+01  0.12800769734E+01  0.73795899046E+01  0.51100000000E-03 0.  1.
         12    1    3    3    0    0 -0.79972750706E+01  0.19010690166E+02 -0.26488647112E+02  0.33570987101E+02  0.00000000000E+00 0. -1.
</event>
<event>
 7    1  0.5601662E-013  0.5052885E+02  0.7816164E-02  0.1300439E+00
        -11   -1    0    0    0    0  0.00000000000E+00  0.00000000000E+00  0.45593999997E+02  0.45594000000E+02  0.51100000000E-03 0.  1.
         11   -1    0    0    0    0 -0.00000000000E+00 -0.00000000000E+00 -0.45593999997E+02  0.45594000000E+02  0.51100000000E-03 0. -1.
    9900012    2    1    2    0    0  0.13277342858E+02  0.22156829241E+02 -0.31399902185E+02  0.50528846386E+02  0.29999959075E+02 0.  0.
        -12    1    1    2    0    0 -0.13277342858E+02 -0.22156829241E+02  0.31399902185E+02  0.40659153614E+02  0.00000000000E+00 0.  1.
         11    1    3    3    0    0  0.16852815975E+01  0.89200848980E+01 -0.32505144376E+00  0.90837077977E+01  0.51100000000E-03 0. -1.
        -11    1    3    3    0    0 -0.38413998487E+01  0.55913159128E+01 -0.10970985999E+01  0.68718841691E+01  0.51100000000E-03 0.  1.
         12    1    3    3    0    0  0.15433461110E+02  0.76454284301E+01 -0.29977752141E+02  0.34573254419E+02  0.00000000000E+00 0. -1.
</event>
<event>
 7    1  0.5601662E-013  0.5052886E+02  0.7816164E-02  0.1300439E+00
        -11   -1    0    0    0    0  0.00000000000E+00  0.00000000000E+00  0.45593999997E+02  0.45594000000E+02  0.51100000000E-03 0. -1.
         11   -1    0    0    0    0 -0.00000000000E+00 -0.00000000000E+00 -0.45593999997E+02  0.45594000000E+02  0.51100000000E-03 0.  1.
    9900012    2    1    2    0    0 -0.25608046997E+02 -0.25847318180E+02  0.18146894721E+02  0.50528859378E+02  0.29999998567E+02 0.  0.
        -12    1    1    2    0    0  0.25608046997E+02  0.25847318180E+02 -0.18146894721E+02  0.40659140622E+02  0.00000000000E+00 0.  1.
         11    1    3    3    0    0 -0.61855529588E+01  0.30147955752E+01  0.37327908198E+01  0.78283960893E+01  0.51100000000E-03 0. -1.
        -11    1    3    3    0    0  0.37584876903E+01 -0.70893799378E+01  0.53042275207E+01  0.96187508271E+01  0.51100000000E-03 0.  1.
        -12    1    3    3    0    0 -0.23180981728E+02 -0.21772733817E+02  0.91098763806E+01  0.33081712462E+02  0.00000000000E+00 0.  1.
</event>
<event>
 7    1  0.5601662E-013  0.5052887E+02  0.7816164E-02  0.1300439E+00
        -11   -1    0    0    0    0  0.00000000000E+00  0.00000000000E+00  0.45593999997E+02  0.45594000000E+02  0.51100000000E-03 0.  1.
         11   -1    0    0    0    0 -0.00000000000E+00 -0.00000000000E+00 -0.45593999997E+02  0.45594000000E+02  0.51100000000E-03 0. -1.
    9900012    2    1    2    0    0 -0.20908013854E+02  0.11200994603E+02 -0.33023595786E+02  0.50528865700E+02  0.30000017781E+02 0.  0.
        -12    1    1    2    0    0  0.20908013854E+02 -0.11200994603E+02  0.33023595786E+02  0.40659134300E+02  0.00000000000E+00 0.  1.
         11    1    3    3    0    0 -0.13045373341E+01  0.14120009866E+01 -0.66508210325E+01  0.69230762750E+01  0.51100000000E-03 0. -1.
        -11    1    3    3    0    0  0.65761416015E+01  0.36077640237E+01 -0.83633905743E+01  0.11234229024E+02  0.51100000000E-03 0.  1.
         12    1    3    3    0    0 -0.26179618121E+02  0.61812295922E+01 -0.18009384179E+02  0.32371560400E+02  0.00000000000E+00 0. -1.
</event>
<event>
 7    1  0.5601662E-013  0.5052890E+02  0.7816164E-02  0.1300439E+00
        -11   -1    0    0    0    0  0.00000000000E+00  0.00000000000E+00  0.45593999997E+02  0.45594000000E+02  0.51100000000E-03 0.  1.
         11   -1    0    0    0    0 -0.00000000000E+00 -0.00000000000E+00 -0.45593999997E+02  0.45594000000E+02  0.51100000000E-03 0. -1.
    9900012    2    1    2    0    0 -0.25120781533E+02 -0.12983151973E+02 -0.29215518320E+02  0.50528900026E+02  0.30000122120E+02 0.  0.
        -12    1    1    2    0    0  0.25120781533E+02  0.12983151973E+02  0.29215518320E+02  0.40659099974E+02  0.00000000000E+00 0.  1.
         11    1    3    3    0    0 -0.10596638743E+02  0.13737751258E+01  0.17265785961E+01  0.10823912631E+02  0.51100000000E-03 0.  1.
        -11    1    3    3    0    0 -0.44533441706E+01  0.26005590713E+01 -0.62317074051E+01  0.80888416494E+01  0.51100000000E-03 0. -1.
        -12    1    3    3    0    0 -0.10070798620E+02 -0.16957486170E+02 -0.24710389511E+02  0.31616145746E+02  0.00000000000E+00 0.  1.
</event>
<event>
 7    1  0.5601662E-013  0.5052887E+02  0.7816164E-02  0.1300439E+00
        -11   -1    0    0    0    0  0.00000000000E+00  0.00000000000E+00  0.45593999997E+02  0.45594000000E+02  0.51100000000E-03 0.  1.
         11   -1    0    0    0    0 -0.00000000000E+00 -0.00000000000E+00 -0.45593999997E+02  0.45594000000E+02  0.51100000000E-03 0. -1.
    9900012    2    1    2    0    0 -0.32142129188E+02  0.22429865625E+02  0.10814331335E+02  0.50528866919E+02  0.30000021488E+02 0.  0.
        -12    1    1    2    0    0  0.32142129188E+02 -0.22429865625E+02 -0.10814331335E+02  0.40659133081E+02  0.00000000000E+00 0.  1.
         11    1    3    3    0    0 -0.17534316957E+02  0.10415300016E+02  0.33984412965E+01  0.20675593077E+02  0.51100000000E-03 0. -1.
        -11    1    3    3    0    0 -0.44644940233E+01  0.11224756774E+02  0.13406894384E+02  0.18046376057E+02  0.51100000000E-03 0.  1.
         12    1    3    3    0    0 -0.10143318207E+02  0.78980883485E+00 -0.59910043453E+01  0.11806897785E+02  0.00000000000E+00 0. -1.
</event>
<event>
 7    1  0.5601662E-013  0.5052886E+02  0.7816164E-02  0.1300439E+00
        -11   -1    0    0    0    0  0.00000000000E+00  0.00000000000E+00  0.45593999997E+02  0.45594000000E+02  0.51100000000E-03 0.  1.
         11   -1    0    0    0    0 -0.00000000000E+00 -0.00000000000E+00 -0.45593999997E+02  0.45594000000E+02  0.51100000000E-03 0. -1.
    9900012    2    1    2    0    0  0.15153537268E+01 -0.14660848195E+02 -0.37893650843E+02  0.50528861533E+02  0.30000005115E+02 0.  0.
        -12    1    1    2    0    0 -0.15153537268E+01  0.14660848195E+02  0.37893650843E+02  0.40659138467E+02  0.00000000000E+00 0.  1.
         11    1    3    3    0    0 -0.17764323951E+01 -0.51712240942E+00 -0.16987535732E+02  0.17087992806E+02  0.51100000000E-03 0. -1.
        -11    1    3    3    0    0 -0.40965703980E+01  0.29688370267E+01  0.46822874301E+00  0.50808582675E+01  0.51100000000E-03 0.  1.
        -12    1    3    3    0    0  0.73883565199E+01 -0.17112562812E+02 -0.21374343854E+02  0.28360010459E+02  0.00000000000E+00 0.  1.
</event>
<event>
 7    1  0.5601662E-013  0.5052886E+02  0.7816164E-02  0.1300439E+00
        -11   -1    0    0    0    0  0.00000000000E+00  0.00000000000E+00  0.45593999997E+02  0.45594000000E+02  0.51100000000E-03 0.  1.
         11   -1    0    0    0    0 -0.00000000000E+00 -0.00000000000E+00 -0.45593999997E+02  0.45594000000E+02  0.51100000000E-03 0. -1.
    9900012    2    1    2    0    0  0.14485735542E+02 -0.25673673889E+02 -0.28003426057E+02  0.50528856673E+02  0.29999990343E+02 0.  0.
        -12    1    1    2    0    0 -0.14485735542E+02  0.25673673889E+02  0.28003426057E+02  0.40659143327E+02  0.00000000000E+00 0.  1.
         11    1    3    3    0    0  0.10841962890E+02 -0.72338031952E+01 -0.80755168987E+01  0.15332646263E+02  0.51100000000E-03 0. -1.
        -11    1    3    3    0    0 -0.34674151936E+01 -0.19215842805E+02 -0.76197080521E+01  0.20960236971E+02  0.51100000000E-03 0.  1.
         12    1    3    3    0    0  0.71111878446E+01  0.77597211043E+00 -0.12308201106E+02  0.14235973439E+02  0.00000000000E+00 0. -1.
</event>
<event>
 7    1  0.5601662E-013  0.5052886E+02  0.7816164E-02  0.1300439E+00
        -11   -1    0    0    0    0  0.00000000000E+00  0.00000000000E+00  0.45593999997E+02  0.45594000000E+02  0.51100000000E-03 0. -1.
         11   -1    0    0    0    0 -0.00000000000E+00 -0.00000000000E+00 -0.45593999997E+02  0.45594000000E+02  0.51100000000E-03 0.  1.
    9900012    2    1    2    0    0  0.89691243360E+00  0.23054736432E+02  0.33478948247E+02  0.50528864500E+02  0.30000014135E+02 0.  0.
        -12    1    1    2    0    0 -0.89691243360E+00 -0.23054736432E+02 -0.33478948247E+02  0.40659135500E+02  0.00000000000E+00 0.  1.
         11    1    3    3    0    0  0.70067096576E+00  0.19619129714E+02  0.30263327323E+02  0.36073122563E+02  0.51100000000E-03 0. -1.
        -11    1    3    3    0    0 -0.13803767982E+01  0.27547111003E+01  0.84249070875E+01  0.89706707132E+01  0.51100000000E-03 0.  1.
        -12    1    3    3    0    0  0.15766182660E+01  0.68089561761E+00 -0.52092861634E+01  0.54850712239E+01  0.00000000000E+00 0.  1.
</event>
<event>
 7    1  0.5601662E-013  0.5052886E+02  0.7816164E-02  0.1300439E+00
        -11   -1    0    0    0    0  0.00000000000E+00  0.00000000000E+00  0.45593999997E+02  0.45594000000E+02  0.51100000000E-03 0. -1.
         11   -1    0    0    0    0 -0.00000000000E+00 -0.00000000000E+00 -0.45593999997E+02  0.45594000000E+02  0.51100000000E-03 0.  1.
    9900012    2    1    2    0    0  0.22011855922E+02 -0.32369251786E+02  0.10994332530E+02  0.50528860681E+02  0.30000002527E+02 0.  0.
        -12    1    1    2    0    0 -0.22011855922E+02  0.32369251786E+02 -0.10994332530E+02  0.40659139319E+02  0.00000000000E+00 0.  1.
         11    1    3    3    0    0  0.14606990609E+02 -0.15931199231E+02  0.39279457088E+01  0.21968068676E+02  0.51100000000E-03 0. -1.
        -11    1    3    3    0    0  0.12030035128E+02 -0.18897541079E+02  0.51782382991E+01  0.22992454331E+02  0.51100000000E-03 0.  1.
        -12    1    3    3    0    0 -0.46251698146E+01  0.24594885241E+01  0.18881485224E+01  0.55683376744E+01  0.00000000000E+00 0.  1.
</event>
<event>
 7    1  0.5601662E-013  0.5052885E+02  0.7816164E-02  0.1300439E+00
        -11   -1    0    0    0    0  0.00000000000E+00  0.00000000000E+00  0.45593999997E+02  0.45594000000E+02  0.51100000000E-03 0.  1.
         11   -1    0    0    0    0 -0.00000000000E+00 -0.00000000000E+00 -0.45593999997E+02  0.45594000000E+02  0.51100000000E-03 0. -1.
    9900012    2    1    2    0    0 -0.29610837250E+02 -0.16064636062E+02 -0.22766035897E+02  0.50528848448E+02  0.29999965343E+02 0.  0.
        -12    1    1    2    0    0  0.29610837250E+02  0.16064636062E+02  0.22766035897E+02  0.40659151552E+02  0.00000000000E+00 0.  1.
         11    1    3    3    0    0 -0.29515152674E+02 -0.84196199772E+01 -0.17657333330E+02  0.35409259502E+02  0.51100000000E-03 0. -1.
        -11    1    3    3    0    0 -0.38696842879E+01 -0.28513769751E+01  0.24587315154E+01  0.53990895592E+01  0.51100000000E-03 0.  1.
        -12    1    3    3    0    0  0.37739997116E+01 -0.47936391099E+01 -0.75674340820E+01  0.97204993866E+01  0.00000000000E+00 0.  1.
</event>
<event>
 7    1  0.5601662E-013  0.5052886E+02  0.7816164E-02  0.1300439E+00
        -11   -1    0    0    0    0  0.00000000000E+00  0.00000000000E+00  0.45593999997E+02  0.45594000000E+02  0.51100000000E-03 0.  1.
         11   -1    0    0    0    0 -0.00000000000E+00 -0.00000000000E+00 -0.45593999997E+02  0.45594000000E+02  0.51100000000E-03 0. -1.
    9900012    2    1    2    0    0  0.11367999252E+02 -0.16049507904E+02 -0.35585783058E+02  0.50528855065E+02  0.29999985457E+02 0.  0.
        -12    1    1    2    0    0 -0.11367999252E+02  0.16049507904E+02  0.35585783058E+02  0.40659144935E+02  0.00000000000E+00 0.  1.
         11    1    3    3    0    0  0.88837443076E+00 -0.16709428381E+01 -0.69797499057E+01  0.72317472373E+01  0.51100000000E-03 0. -1.
        -11    1    3    3    0    0  0.16649610928E+02 -0.77228347917E+01 -0.28878644623E+02  0.34217361628E+02  0.51100000000E-03 0.  1.
         12    1    3    3    0    0 -0.61699861064E+01 -0.66557302741E+01  0.27261147094E+00  0.90797461996E+01  0.00000000000E+00 0. -1.
</event>
<event>
 7    1  0.5601662E-013  0.5052875E+02  0.7816164E-02  0.1300439E+00
        -11   -1    0    0    0    0  0.00000000000E+00  0.00000000000E+00  0.45593999997E+02  0.45594000000E+02  0.51100000000E-03 0. -1.
         11   -1    0    0    0    0 -0.00000000000E+00 -0.00000000000E+00 -0.45593999997E+02  0.45594000000E+02  0.51100000000E-03 0.  1.
    9900012    2    1    2    0    0  0.34556338435E+02 -0.11955859288E+02  0.17778952251E+02  0.50528754551E+02  0.29999679931E+02 0.  0.
        -12    1    1    2    0    0 -0.34556338435E+02  0.11955859288E+02 -0.17778952251E+02  0.40659245449E+02  0.00000000000E+00 0.  1.
         11    1    3    3    0    0  0.62979573297E+01  0.58509526178E+01  0.62071815052E+01  0.10603160640E+02  0.51100000000E-03 0. -1.
        -11    1    3    3    0    0 -0.14771839238E+01 -0.65225947854E+00  0.46276201696E+01  0.49012634562E+01  0.51100000000E-03 0.  1.
         12    1    3    3    0    0  0.29735565029E+02 -0.17154552427E+02  0.69441505761E+01  0.35024330455E+02  0.00000000000E+00 0. -1.
</event>
<event>
 7    1  0.5601662E-013  0.5052878E+02  0.7816164E-02  0.1300439E+00
        -11   -1    0    0    0    0  0.00000000000E+00  0.00000000000E+00  0.45593999997E+02  0.45594000000E+02  0.51100000000E-03 0.  1.
         11   -1    0    0    0    0 -0.00000000000E+00 -0.00000000000E+00 -0.45593999997E+02  0.45594000000E+02  0.51100000000E-03 0. -1.
    9900012    2    1    2    0    0  0.19245212093E+02 -0.24689876624E+01 -0.35730909250E+02  0.50528782540E+02  0.29999765009E+02 0.  0.
        -12    1    1    2    0    0 -0.19245212093E+02  0.24689876624E+01  0.35730909250E+02  0.40659217460E+02  0.00000000000E+00 0.  1.
         11    1    3    3    0    0  0.80831655477E-01 -0.80818166225E-01 -0.13751264628E+02  0.13751739689E+02  0.51100000000E-03 0. -1.
        -11    1    3    3    0    0  0.56198425794E+01 -0.99726323132E+01 -0.16961047829E+02  0.20462482000E+02  0.51100000000E-03 0.  1.
        -12    1    3    3    0    0  0.13544537858E+02  0.75844628170E+01 -0.50185967927E+01  0.16314560851E+02  0.00000000000E+00 0.  1.
</event>
<event>
 7    1  0.5601662E-013  0.5052885E+02  0.7816164E-02  0.1300439E+00
        -11   -1    0    0    0    0  0.00000000000E+00  0.00000000000E+00  0.45593999997E+02  0.45594000000E+02  0.51100000000E-03 0.  1.
         11   -1    0    0    0    0 -0.00000000000E+00 -0.00000000000E+00 -0.45593999997E+02  0.45594000000E+02  0.51100000000E-03 0. -1.
    9900012    2    1    2    0    0  0.28095509896E+02 -0.22667591385E+02 -0.18707993584E+02  0.50528850974E+02  0.29999973022E+02 0.  0.
        -12    1    1    2    0    0 -0.28095509896E+02  0.22667591385E+02  0.18707993584E+02  0.40659149026E+02  0.00000000000E+00 0.  1.
         11    1    3    3    0    0  0.33807836684E+01 -0.89851563525E+01  0.22454039804E+01  0.98592379111E+01  0.51100000000E-03 0. -1.
        -11    1    3    3    0    0  0.65304247387E+01 -0.51484859252E+01  0.35011100742E+01  0.90228114578E+01  0.51100000000E-03 0.  1.
         12    1    3    3    0    0  0.18184301489E+02 -0.85339491077E+01 -0.24454507638E+02  0.31646801606E+02  0.00000000000E+00 0. -1.
</event>
<event>
 7    1  0.5601662E-013  0.5052886E+02  0.7816164E-02  0.1300439E+00
        -11   -1    0    0    0    0  0.00000000000E+00  0.00000000000E+00  0.45593999997E+02  0.45594000000E+02  0.51100000000E-03 0.  1.
         11   -1    0    0    0    0 -0.00000000000E+00 -0.00000000000E+00 -0.45593999997E+02  0.45594000000E+02  0.51100000000E-03 0. -1.
    9900012    2    1    2    0    0 -0.33188724278E+00 -0.22617801615E+02 -0.33785951628E+02  0.50528860481E+02  0.30000001918E+02 0.  0.
        -12    1    1    2    0    0  0.33188724278E+00  0.22617801615E+02  0.33785951628E+02  0.40659139519E+02  0.00000000000E+00 0.  1.
         11    1    3    3    0    0  0.19303522740E+01 -0.17981055291E+02 -0.23605383787E+01  0.18237783609E+02  0.51100000000E-03 0.  1.
        -11    1    3    3    0    0  0.75970953618E+00 -0.42653959574E+01 -0.16584997752E+02  0.17141555121E+02  0.51100000000E-03 0. -1.
        -12    1    3    3    0    0 -0.30219490529E+01 -0.37135036681E+00 -0.14840415497E+02  0.15149521752E+02  0.00000000000E+00 0.  1.
</event>
<event>
 7    1  0.5601662E-013  0.5052886E+02  0.7816164E-02  0.1300439E+00
        -11   -1    0    0    0    0  0.00000000000E+00  0.00000000000E+00  0.45593999997E+02  0.45594000000E+02  0.51100000000E-03 0. -1.
         11   -1    0    0    0    0 -0.00000000000E+00 -0.00000000000E+00 -0.45593999997E+02  0.45594000000E+02  0.51100000000E-03 0.  1.
    9900012    2    1    2    0    0  0.38904322933E+02  0.85362528862E+01  0.81701902048E+01  0.50528856327E+02  0.29999989292E+02 0.  0.
        -12    1    1    2    0    0 -0.38904322933E+02 -0.85362528862E+01 -0.81701902048E+01  0.40659143673E+02  0.00000000000E+00 0.  1.
         11    1    3    3    0    0  0.17356298884E+02 -0.47465503158E+01  0.63432519741E+01  0.19078985736E+02  0.51100000000E-03 0. -1.
        -11    1    3    3    0    0  0.12385689309E+02  0.34266078864E+01  0.94796114527E+01  0.15969031743E+02  0.51100000000E-03 0.  1.
        -12    1    3    3    0    0  0.91623347407E+01  0.98561953156E+01 -0.76526732220E+01  0.15480838848E+02  0.00000000000E+00 0.  1.
</event>
<event>
 7    1  0.5601662E-013  0.5052886E+02  0.7816164E-02  0.1300439E+00
        -11   -1    0    0    0    0  0.00000000000E+00  0.00000000000E+00  0.45593999997E+02  0.45594000000E+02  0.51100000000E-03 0.  1.
         11   -1    0    0    0    0 -0.00000000000E+00 -0.00000000000E+00 -0.45593999997E+02  0.45594000000E+02  0.51100000000E-03 0. -1.
    9900012    2    1    2    0    0  0.46668315142E+01 -0.15818374928E+02 -0.37164031131E+02  0.50528861892E+02  0.30000006208E+02 0.  0.
        -12    1    1    2    0    0 -0.46668315142E+01  0.15818374928E+02  0.37164031131E+02  0.40659138108E+02  0.00000000000E+00 0.  1.
         11    1    3    3    0    0 -0.60847569026E+01  0.25957189683E+01 -0.14956952959E+02  0.16354585461E+02  0.51100000000E-03 0. -1.
        -11    1    3    3    0    0  0.11694733347E+01  0.19550658895E+01 -0.60525267808E+01  0.64670728468E+01  0.51100000000E-03 0.  1.
         12    1    3    3    0    0  0.95821150821E+01 -0.20369159786E+02 -0.16154551392E+02  0.27707203585E+02  0.00000000000E+00 0. -1.
</event>
<event>
 7    1  0.5601662E-013  0.5052886E+02  0.7816164E-02  0.1300439E+00
        -11   -1    0    0    0    0  0.00000000000E+00  0.00000000000E+00  0.45593999997E+02  0.45594000000E+02  0.51100000000E-03 0. -1.
         11   -1    0    0    0    0 -0.00000000000E+00 -0.00000000000E+00 -0.45593999997E+02  0.45594000000E+02  0.51100000000E-03 0.  1.
    9900012    2    1    2    0    0  0.22734722178E+02 -0.32816813739E+02  0.77042119988E+01  0.50528859096E+02  0.29999997709E+02 0.  0.
        -12    1    1    2    0    0 -0.22734722178E+02  0.32816813739E+02 -0.77042119988E+01  0.40659140904E+02  0.00000000000E+00 0.  1.
         11    1    3    3    0    0  0.15322403428E+01 -0.17163344320E+01  0.84575781437E+01  0.87649411104E+01  0.51100000000E-03 0. -1.
        -11    1    3    3    0    0  0.19937830886E+02 -0.20489123838E+02  0.58784053271E+01  0.29186931074E+02  0.51100000000E-03 0.  1.
        -12    1    3    3    0    0  0.12646509497E+01 -0.10611355469E+02 -0.66317714720E+01  0.12576986911E+02  0.00000000000E+00 0.  1.
</event>
<event>
 7    1  0.5601662E-013  0.5052886E+02  0.7816164E-02  0.1300439E+00
        -11   -1    0    0    0    0  0.00000000000E+00  0.00000000000E+00  0.45593999997E+02  0.45594000000E+02  0.51100000000E-03 0.  1.
         11   -1    0    0    0    0 -0.00000000000E+00 -0.00000000000E+00 -0.45593999997E+02  0.45594000000E+02  0.51100000000E-03 0. -1.
    9900012    2    1    2    0    0 -0.75343575989E+01  0.17984841279E+02 -0.35678349143E+02  0.50528860095E+02  0.30000000743E+02 0.  0.
        -12    1    1    2    0    0  0.75343575989E+01 -0.17984841279E+02  0.35678349143E+02  0.40659139905E+02  0.00000000000E+00 0.  1.
         11    1    3    3    0    0 -0.60934929675E-01 -0.26964802921E+01 -0.15040871784E+02  0.15280790009E+02  0.51100000000E-03 0. -1.
        -11    1    3    3    0    0  0.40702540570E+01  0.30613346715E+01 -0.10921508034E+02  0.12050646293E+02  0.51100000000E-03 0.  1.
        -12    1    3    3    0    0 -0.11543676726E+02  0.17619986899E+02 -0.97159693251E+01  0.23197423793E+02  0.00000000000E+00 0.  1.
</event>
<event>
 7    1  0.5601662E-013  0.5052886E+02  0.7816164E-02  0.1300439E+00
        -11   -1    0    0    0    0  0.00000000000E+00  0.00000000000E+00  0.45593999997E+02  0.45594000000E+02  0.51100000000E-03 0.  1.
         11   -1    0    0    0    0 -0.00000000000E+00 -0.00000000000E+00 -0.45593999997E+02  0.45594000000E+02  0.51100000000E-03 0. -1.
    9900012    2    1    2    0    0 -0.24259889346E+02 -0.32614443522E+02  0.96004000047E+00  0.50528857927E+02  0.29999994154E+02 0.  0.
        -12    1    1    2    0    0  0.24259889346E+02  0.32614443522E+02 -0.96004000047E+00  0.40659142073E+02  0.00000000000E+00 0.  1.
         11    1    3    3    0    0 -0.98962285498E+01 -0.49107621166E+01  0.32410271050E+01  0.11513261095E+02  0.51100000000E-03 0. -1.
        -11    1    3    3    0    0 -0.20731342143E+02 -0.21186143574E+02 -0.33960077994E+01  0.29835785490E+02  0.51100000000E-03 0.  1.
        -12    1    3    3    0    0  0.63676813470E+01 -0.65175378320E+01  0.11150206950E+01  0.91798113422E+01  0.00000000000E+00 0.  1.
</event>
<event>
 7    1  0.5601662E-013  0.5052886E+02  0.7816164E-02  0.1300439E+00
        -11   -1    0    0    0    0  0.00000000000E+00  0.00000000000E+00  0.45593999997E+02  0.45594000000E+02  0.51100000000E-03 0. -1.
         11   -1    0    0    0    0 -0.00000000000E+00 -0.00000000000E+00 -0.45593999997E+02  0.45594000000E+02  0.51100000000E-03 0.  1.
    9900012    2    1    2    0    0 -0.14518061560E+02 -0.37452717886E+02  0.62996235788E+01  0.50528862703E+02  0.30000008671E+02 0.  0.
        -12    1    1    2    0    0  0.14518061560E+02  0.37452717886E+02 -0.62996235788E+01  0.40659137297E+02  0.00000000000E+00 0.  1.
         11    1    3    3    0    0 -0.10374412326E+02 -0.11717126358E+02 -0.93769682675E+01  0.18244095356E+02  0.51100000000E-03 0. -1.
        -11    1    3    3    0    0 -0.44101197699E+01 -0.84568232580E+01  0.95856552376E+00  0.95857114565E+01  0.51100000000E-03 0.  1.
         12    1    3    3    0    0  0.26647053616E+00 -0.17278768270E+02  0.14718026323E+02  0.22699055890E+02  0.00000000000E+00 0. -1.
</event>
<event>
 7    1  0.5601662E-013  0.5052888E+02  0.7816164E-02  0.1300439E+00
        -11   -1    0    0    0    0  0.00000000000E+00  0.00000000000E+00  0.45593999997E+02  0.45594000000E+02  0.51100000000E-03 0.  1.
         11   -1    0    0    0    0 -0.00000000000E+00 -0.00000000000E+00 -0.45593999997E+02  0.45594000000E+02  0.51100000000E-03 0. -1.
    9900012    2    1    2    0    0 -0.21660736212E+02  0.52730875185E+01 -0.34002521206E+02  0.50528875641E+02  0.30000048000E+02 0.  0.
        -12    1    1    2    0    0  0.21660736212E+02 -0.52730875185E+01  0.34002521206E+02  0.40659124359E+02  0.00000000000E+00 0.  1.
         11    1    3    3    0    0 -0.10547509948E+02  0.11544393585E+02 -0.15395118677E+02  0.21943852640E+02  0.51100000000E-03 0. -1.
        -11    1    3    3    0    0  0.25026404553E+01  0.60508590912E+00  0.17746709075E+01  0.31271065375E+01  0.51100000000E-03 0.  1.
        -12    1    3    3    0    0 -0.13615866720E+02 -0.68763919751E+01 -0.20382073437E+02  0.25457916464E+02  0.00000000000E+00 0.  1.
</event>
<event>
 7    1  0.5601662E-013  0.5052886E+02  0.7816164E-02  0.1300439E+00
        -11   -1    0    0    0    0  0.00000000000E+00  0.00000000000E+00  0.45593999997E+02  0.45594000000E+02  0.51100000000E-03 0.  1.
         11   -1    0    0    0    0 -0.00000000000E+00 -0.00000000000E+00 -0.45593999997E+02  0.45594000000E+02  0.51100000000E-03 0. -1.
    9900012    2    1    2    0    0 -0.32662955771E+02 -0.20221720253E+02  0.13318369379E+02  0.50528860651E+02  0.30000002435E+02 0.  0.
        -12    1    1    2    0    0  0.32662955771E+02  0.20221720253E+02 -0.13318369379E+02  0.40659139349E+02  0.00000000000E+00 0.  1.
         11    1    3    3    0    0  0.16041334561E+01  0.37008205919E+00  0.16302065703E-01  0.16463507809E+01  0.51100000000E-03 0.  1.
        -11    1    3    3    0    0  0.99171427174E+00 -0.98757143345E+01  0.75615944404E+00  0.99541452762E+01  0.51100000000E-03 0. -1.
        -12    1    3    3    0    0 -0.35258803499E+02 -0.10716087977E+02  0.12545907869E+02  0.38928364594E+02  0.00000000000E+00 0.  1.
</event>
<event>
 7    1  0.5601662E-013  0.5052885E+02  0.7816164E-02  0.1300439E+00
        -11   -1    0    0    0    0  0.00000000000E+00  0.00000000000E+00  0.45593999997E+02  0.45594000000E+02  0.51100000000E-03 0.  1.
         11   -1    0    0    0    0 -0.00000000000E+00 -0.00000000000E+00 -0.45593999997E+02  0.45594000000E+02  0.51100000000E-03 0. -1.
    9900012    2    1    2    0    0  0.24803705765E+02 -0.13383129416E+02 -0.29305877375E+02  0.50528850705E+02  0.29999972204E+02 0.  0.
        -12    1    1    2    0    0 -0.24803705765E+02  0.13383129416E+02  0.29305877375E+02  0.40659149295E+02  0.00000000000E+00 0.  1.
         11    1    3    3    0    0  0.10726051409E+02  0.48556487969E+00 -0.15033634758E+02  0.18474147514E+02  0.51100000000E-03 0. -1.
        -11    1    3    3    0    0  0.54652612383E+01  0.78293882413E+00 -0.14008528918E+02  0.15057255936E+02  0.51100000000E-03 0.  1.
        -12    1    3    3    0    0  0.86123931176E+01 -0.14651633120E+02 -0.26371369907E+00  0.16997447255E+02  0.00000000000E+00 0.  1.
</event>
<event>
 7    1  0.5601662E-013  0.5052878E+02  0.7816164E-02  0.1300439E+00
        -11   -1    0    0    0    0  0.00000000000E+00  0.00000000000E+00  0.45593999997E+02  0.45594000000E+02  0.51100000000E-03 0.  1.
         11   -1    0    0    0    0 -0.00000000000E+00 -0.00000000000E+00 -0.45593999997E+02  0.45594000000E+02  0.51100000000E-03 0. -1.
    9900012    2    1    2    0    0  0.28307955363E+02  0.16980425056E+02 -0.23738085890E+02  0.50528783411E+02  0.29999767655E+02 0.  0.
        -12    1    1    2    0    0 -0.28307955363E+02 -0.16980425056E+02  0.23738085890E+02  0.40659216589E+02  0.00000000000E+00 0.  1.
         11    1    3    3    0    0  0.11848381894E+02  0.99267434142E+01 -0.50754125550E+01  0.16269118021E+02  0.51100000000E-03 0. -1.
        -11    1    3    3    0    0  0.20850302768E+02  0.68071836534E+01 -0.91227740985E+01  0.23754954900E+02  0.51100000000E-03 0.  1.
         12    1    3    3    0    0 -0.43907292986E+01  0.24649798788E+00 -0.95398992365E+01  0.10504710490E+02  0.00000000000E+00 0. -1.
</event>
<event>
 7    1  0.5601662E-013  0.5052881E+02  0.7816164E-02  0.1300439E+00
        -11   -1    0    0    0    0  0.00000000000E+00  0.00000000000E+00  0.45593999997E+02  0.45594000000E+02  0.51100000000E-03 0.  1.
         11   -1    0    0    0    0 -0.00000000000E+00 -0.00000000000E+00 -0.45593999997E+02  0.45594000000E+02  0.51100000000E-03 0. -1.
    9900012    2    1    2    0    0 -0.15438880215E+02 -0.99873531935E+01 -0.36263808823E+02  0.50528805757E+02  0.29999835579E+02 0.  0.
        -12    1    1    2    0    0  0.15438880215E+02  0.99873531935E+01  0.36263808823E+02  0.40659194243E+02  0.00000000000E+00 0.  1.
         11    1    3    3    0    0  0.52725839875E-01  0.45121469846E+01 -0.39380349779E+01  0.59891877724E+01  0.51100000000E-03 0. -1.
        -11    1    3    3    0    0  0.45010637291E+01 -0.11224159897E+01 -0.52934972114E+00  0.46690045765E+01  0.51100000000E-03 0.  1.
        -12    1    3    3    0    0 -0.19992669784E+02 -0.13377084188E+02 -0.31796424124E+02  0.39870613408E+02  0.00000000000E+00 0.  1.
</event>
<event>
 7    1  0.5601662E-013  0.5052885E+02  0.7816164E-02  0.1300439E+00
        -11   -1    0    0    0    0  0.00000000000E+00  0.00000000000E+00  0.45593999997E+02  0.45594000000E+02  0.51100000000E-03 0. -1.
         11   -1    0    0    0    0 -0.00000000000E+00 -0.00000000000E+00 -0.45593999997E+02  0.45594000000E+02  0.51100000000E-03 0.  1.
    9900012    2    1    2    0    0  0.28499006223E+02  0.28759225364E+02  0.37256379097E+01  0.50528846331E+02  0.29999958906E+02 0.  0.
        -12    1    1    2    0    0 -0.28499006223E+02 -0.28759225364E+02 -0.37256379097E+01  0.40659153669E+02  0.00000000000E+00 0.  1.
         11    1    3    3    0    0  0.45155576693E+01  0.12576356694E+02 -0.39453416541E+01  0.13932721550E+02  0.51100000000E-03 0. -1.
        -11    1    3    3    0    0  0.84083841067E+01  0.11585637733E+02 -0.58502781887E+01  0.15464594405E+02  0.51100000000E-03 0.  1.
        -12    1    3    3    0    0  0.15575064447E+02  0.45972309382E+01  0.13521257752E+02  0.21131530376E+02  0.00000000000E+00 0.  1.
</event>
<event>
 7    1  0.5601662E-013  0.5052886E+02  0.7816164E-02  0.1300439E+00
        -11   -1    0    0    0    0  0.00000000000E+00  0.00000000000E+00  0.45593999997E+02  0.45594000000E+02  0.51100000000E-03 0. -1.
         11   -1    0    0    0    0 -0.00000000000E+00 -0.00000000000E+00 -0.45593999997E+02  0.45594000000E+02  0.51100000000E-03 0.  1.
    9900012    2    1    2    0    0 -0.27960883077E+02  0.29282085970E+02 -0.37301472983E+01  0.50528861542E+02  0.30000005144E+02 0.  0.
        -12    1    1    2    0    0  0.27960883077E+02 -0.29282085970E+02  0.37301472983E+01  0.40659138458E+02  0.00000000000E+00 0.  1.
         11    1    3    3    0    0 -0.47734412618E+01  0.10146145612E+02 -0.30338155742E+01  0.11616111632E+02  0.51100000000E-03 0. -1.
        -11    1    3    3    0    0 -0.26456350520E+02  0.21080471807E+02 -0.37499610944E+01  0.34035084587E+02  0.51100000000E-03 0.  1.
        -12    1    3    3    0    0  0.32689087039E+01 -0.19445314482E+01  0.30536293703E+01  0.48776653226E+01  0.00000000000E+00 0.  1.
</event>
<event>
 7    1  0.5601662E-013  0.5052886E+02  0.7816164E-02  0.1300439E+00
        -11   -1    0    0    0    0  0.00000000000E+00  0.00000000000E+00  0.45593999997E+02  0.45594000000E+02  0.51100000000E-03 0.  1.
         11   -1    0    0    0    0 -0.00000000000E+00 -0.00000000000E+00 -0.45593999997E+02  0.45594000000E+02  0.51100000000E-03 0. -1.
    9900012    2    1    2    0    0 -0.19281554771E+02 -0.34717611783E+02 -0.87220646010E+01  0.50528864087E+02  0.30000012878E+02 0.  0.
        -12    1    1    2    0    0  0.19281554771E+02  0.34717611783E+02  0.87220646010E+01  0.40659135913E+02  0.00000000000E+00 0.  1.
         11    1    3    3    0    0 -0.74484437732E+01 -0.18077931809E+01 -0.43986903206E+01  0.88371888983E+01  0.51100000000E-03 0. -1.
        -11    1    3    3    0    0 -0.10372131198E+02 -0.26960636480E+01 -0.40056796748E+01  0.11440949904E+02  0.51100000000E-03 0.  1.
        -12    1    3    3    0    0 -0.14609798004E+01 -0.30213754954E+02 -0.31769460563E+00  0.30250725285E+02  0.00000000000E+00 0.  1.
</event>
<event>
 7    1  0.5601662E-013  0.5052886E+02  0.7816164E-02  0.1300439E+00
        -11   -1    0    0    0    0  0.00000000000E+00  0.00000000000E+00  0.45593999997E+02  0.45594000000E+02  0.51100000000E-03 0.  1.
         11   -1    0    0    0    0 -0.00000000000E+00 -0.00000000000E+00 -0.45593999997E+02  0.45594000000E+02  0.51100000000E-03 0. -1.
    9900012    2    1    2    0    0  0.18996349272E+01 -0.40532725614E+02  0.25797210728E+01  0.50528863027E+02  0.30000009657E+02 0.  0.
        -12    1    1    2    0    0 -0.18996349272E+01  0.40532725614E+02 -0.25797210728E+01  0.40659136973E+02  0.00000000000E+00 0.  1.
         11    1    3    3    0    0  0.60607670284E+01 -0.27463059771E+02  0.16093133560E+01  0.28169885316E+02  0.51100000000E-03 0. -1.
        -11    1    3    3    0    0  0.22588174055E+01 -0.15214210641E+02  0.20071099585E+01  0.15511381374E+02  0.51100000000E-03 0.  1.
        -12    1    3    3    0    0 -0.64199495067E+01  0.21445447976E+01 -0.10367022417E+01  0.68475963371E+01  0.00000000000E+00 0.  1.
</event>
<event>
 7    1  0.5601662E-013  0.5052886E+02  0.7816164E-02  0.1300439E+00
        -11   -1    0    0    0    0  0.00000000000E+00  0.00000000000E+00  0.45593999997E+02  0.45594000000E+02  0.51100000000E-03 0.  1.
         11   -1    0    0    0    0 -0.00000000000E+00 -0.00000000000E+00 -0.45593999997E+02  0.45594000000E+02  0.51100000000E-03 0. -1.
    9900012    2    1    2    0    0 -0.53592528771E+01  0.71769215531E+01 -0.39660257371E+02  0.50528858234E+02  0.29999995089E+02 0.  0.
        -12    1    1    2    0    0  0.53592528771E+01 -0.71769215531E+01  0.39660257371E+02  0.40659141766E+02  0.00000000000E+00 0.  1.
         11    1    3    3    0    0 -0.11969161386E+01  0.52608333700E+01 -0.14874092440E+02  0.15822376628E+02  0.51100000000E-03 0.  1.
        -11    1    3    3    0    0 -0.79117341320E+01  0.60207694646E+01 -0.26961892406E+02  0.28736541968E+02  0.51100000000E-03 0. -1.
         12    1    3    3    0    0  0.37493973935E+01 -0.41046812815E+01  0.21757274748E+01  0.59699396380E+01  0.00000000000E+00 0. -1.
</event>
<event>
 7    1  0.5601662E-013  0.5052880E+02  0.7816164E-02  0.1300439E+00
        -11   -1    0    0    0    0  0.00000000000E+00  0.00000000000E+00  0.45593999997E+02  0.45594000000E+02  0.51100000000E-03 0. -1.
         11   -1    0    0    0    0 -0.00000000000E+00 -0.00000000000E+00 -0.45593999997E+02  0.45594000000E+02  0.51100000000E-03 0.  1.
    9900012    2    1    2    0    0 -0.38966438537E+02 -0.10489003491E+02  0.49767252256E+01  0.50528802757E+02  0.29999826459E+02 0.  0.
        -12    1    1    2    0    0  0.38966438537E+02  0.10489003491E+02 -0.49767252256E+01  0.40659197243E+02  0.00000000000E+00 0.  1.
         11    1    3    3    0    0 -0.22180934563E+02 -0.18454648350E+01  0.50578880851E+01  0.22825026412E+02  0.51100000000E-03 0. -1.
        -11    1    3    3    0    0 -0.12904942871E+02  0.44726169208E+01 -0.22891583245E+01  0.13848541393E+02  0.51100000000E-03 0.  1.
        -12    1    3    3    0    0 -0.38805611028E+01 -0.13116155577E+02  0.22079954651E+01  0.13855234952E+02  0.00000000000E+00 0.  1.
</event>
<event>
 7    1  0.5601662E-013  0.5052882E+02  0.7816164E-02  0.1300439E+00
        -11   -1    0    0    0    0  0.00000000000E+00  0.00000000000E+00  0.45593999997E+02  0.45594000000E+02  0.51100000000E-03 0. -1.
         11   -1    0    0    0    0 -0.00000000000E+00 -0.00000000000E+00 -0.45593999997E+02  0.45594000000E+02  0.51100000000E-03 0.  1.
    9900012    2    1    2    0    0 -0.15588460451E+02  0.94576450728E+01  0.36341735045E+02  0.50528820771E+02  0.29999881214E+02 0.  0.
        -12    1    1    2    0    0  0.15588460451E+02 -0.94576450728E+01 -0.36341735045E+02  0.40659179229E+02  0.00000000000E+00 0.  1.
         11    1    3    3    0    0  0.47596822121E+01  0.99145168917E+01  0.11524225836E+02  0.15929846243E+02  0.51100000000E-03 0.  1.
        -11    1    3    3    0    0 -0.68333982106E+01 -0.62531068694E+00  0.18398238569E+02  0.19636229966E+02  0.51100000000E-03 0. -1.
        -12    1    3    3    0    0 -0.13514744453E+02  0.16843886800E+00  0.64192706400E+01  0.14962744562E+02  0.00000000000E+00 0.  1.
</event>
<event>
 7    1  0.5601662E-013  0.5052883E+02  0.7816164E-02  0.1300439E+00
        -11   -1    0    0    0    0  0.00000000000E+00  0.00000000000E+00  0.45593999997E+02  0.45594000000E+02  0.51100000000E-03 0. -1.
         11   -1    0    0    0    0 -0.00000000000E+00 -0.00000000000E+00 -0.45593999997E+02  0.45594000000E+02  0.51100000000E-03 0.  1.
    9900012    2    1    2    0    0  0.39739887771E+02  0.21976312300E+01 -0.83114416070E+01  0.50528827300E+02  0.29999901059E+02 0.  0.
        -12    1    1    2    0    0 -0.39739887771E+02 -0.21976312300E+01  0.83114416070E+01  0.40659172700E+02  0.00000000000E+00 0.  1.
         11    1    3    3    0    0  0.11899957150E+01  0.72048264083E+00 -0.19905248480E+01  0.24284510431E+01  0.51100000000E-03 0. -1.
        -11    1    3    3    0    0  0.16443485728E+02  0.14582623938E+02 -0.25368715817E+01  0.22124123971E+02  0.51100000000E-03 0.  1.
         12    1    3    3    0    0  0.22106406328E+02 -0.13105475349E+02 -0.37840451774E+01  0.25976252285E+02  0.00000000000E+00 0. -1.
</event>
<event>
 7    1  0.5601662E-013  0.5052885E+02  0.7816164E-02  0.1300439E+00
        -11   -1    0    0    0    0  0.00000000000E+00  0.00000000000E+00  0.45593999997E+02  0.45594000000E+02  0.51100000000E-03 0.  1.
         11   -1    0    0    0    0 -0.00000000000E+00 -0.00000000000E+00 -0.45593999997E+02  0.45594000000E+02  0.51100000000E-03 0. -1.
    9900012    2    1    2    0    0  0.21079270565E+02 -0.24423356322E+01 -0.34682352651E+02  0.50528852981E+02  0.29999979122E+02 0.  0.
        -12    1    1    2    0    0 -0.21079270565E+02  0.24423356322E+01  0.34682352651E+02  0.40659147019E+02  0.00000000000E+00 0.  1.
         11    1    3    3    0    0  0.21215611042E+01  0.33152769164E+01 -0.56810049805E+01  0.69112878974E+01  0.51100000000E-03 0. -1.
        -11    1    3    3    0    0  0.11404748124E+02 -0.66012160029E+00 -0.32037160760E+02  0.34012993254E+02  0.51100000000E-03 0.  1.
        -12    1    3    3    0    0  0.75529613370E+01 -0.50974909483E+01  0.30358130890E+01  0.96045718300E+01  0.00000000000E+00 0.  1.
</event>
<event>
 7    1  0.5601662E-013  0.5052886E+02  0.7816164E-02  0.1300439E+00
        -11   -1    0    0    0    0  0.00000000000E+00  0.00000000000E+00  0.45593999997E+02  0.45594000000E+02  0.51100000000E-03 0.  1.
         11   -1    0    0    0    0 -0.00000000000E+00 -0.00000000000E+00 -0.45593999997E+02  0.45594000000E+02  0.51100000000E-03 0. -1.
    9900012    2    1    2    0    0  0.38747854293E+01  0.30015441700E+02 -0.27151887865E+02  0.50528859365E+02  0.29999998525E+02 0.  0.
        -12    1    1    2    0    0 -0.38747854293E+01 -0.30015441700E+02  0.27151887865E+02  0.40659140635E+02  0.00000000000E+00 0.  1.
         11    1    3    3    0    0  0.10390764427E+02  0.14013785504E+02 -0.22264770234E+02  0.28285582253E+02  0.51100000000E-03 0. -1.
        -11    1    3    3    0    0 -0.19231803538E+01  0.16202286616E+02 -0.62126703192E+01  0.17458808293E+02  0.51100000000E-03 0.  1.
        -12    1    3    3    0    0 -0.45927986440E+01 -0.20063042017E+00  0.13255526881E+01  0.47844688189E+01  0.00000000000E+00 0.  1.
</event>
<event>
 7    1  0.5601662E-013  0.5052889E+02  0.7816164E-02  0.1300439E+00
        -11   -1    0    0    0    0  0.00000000000E+00  0.00000000000E+00  0.45593999997E+02  0.45594000000E+02  0.51100000000E-03 0. -1.
         11   -1    0    0    0    0 -0.00000000000E+00 -0.00000000000E+00 -0.45593999997E+02  0.45594000000E+02  0.51100000000E-03 0.  1.
    9900012    2    1    2    0    0  0.29823944610E+02 -0.24490162431E+02  0.12803426267E+02  0.50528887219E+02  0.30000083190E+02 0.  0.
        -12    1    1    2    0    0 -0.29823944610E+02  0.24490162431E+02 -0.12803426267E+02  0.40659112781E+02  0.00000000000E+00 0.  1.
         11    1    3    3    0    0  0.72903482806E+00  0.32742276956E+01 -0.31494027044E+01  0.46011733763E+01  0.51100000000E-03 0. -1.
        -11    1    3    3    0    0  0.13577284027E+02 -0.61253451574E+01  0.16055387567E-01  0.14895058002E+02  0.51100000000E-03 0.  1.
        -12    1    3    3    0    0  0.15517625755E+02 -0.21639044969E+02  0.15936773584E+02  0.31032655840E+02  0.00000000000E+00 0.  1.
</event>
<event>
 7    1  0.5601662E-013  0.5052886E+02  0.7816164E-02  0.1300439E+00
        -11   -1    0    0    0    0  0.00000000000E+00  0.00000000000E+00  0.45593999997E+02  0.45594000000E+02  0.51100000000E-03 0. -1.
         11   -1    0    0    0    0 -0.00000000000E+00 -0.00000000000E+00 -0.45593999997E+02  0.45594000000E+02  0.51100000000E-03 0.  1.
    9900012    2    1    2    0    0 -0.36385691257E+02 -0.13642350073E+02  0.11963848540E+02  0.50528856924E+02  0.29999991107E+02 0.  0.
        -12    1    1    2    0    0  0.36385691257E+02  0.13642350073E+02 -0.11963848540E+02  0.40659143076E+02  0.00000000000E+00 0.  1.
         11    1    3    3    0    0 -0.10651435177E+02 -0.10642520900E+02  0.51457550742E+01  0.15912106020E+02  0.51100000000E-03 0. -1.
        -11    1    3    3    0    0 -0.23563487455E+02 -0.93001664539E+01  0.99968659417E+01  0.27233588930E+02  0.51100000000E-03 0.  1.
        -12    1    3    3    0    0 -0.21707686248E+01  0.63003372811E+01 -0.31787724760E+01  0.73831619739E+01  0.00000000000E+00 0.  1.
</event>
<event>
 7    1  0.5601662E-013  0.5052886E+02  0.7816164E-02  0.1300439E+00
        -11   -1    0    0    0    0  0.00000000000E+00  0.00000000000E+00  0.45593999997E+02  0.45594000000E+02  0.51100000000E-03 0.  1.
         11   -1    0    0    0    0 -0.00000000000E+00 -0.00000000000E+00 -0.45593999997E+02  0.45594000000E+02  0.51100000000E-03 0. -1.
    9900012    2    1    2    0    0 -0.84632478368E+01 -0.17756783329E+02 -0.35584208866E+02  0.50528857870E+02  0.29999993982E+02 0.  0.
        -12    1    1    2    0    0  0.84632478368E+01  0.17756783329E+02  0.35584208866E+02  0.40659142130E+02  0.00000000000E+00 0.  1.
         11    1    3    3    0    0  0.40487839273E+01 -0.46767811821E+00 -0.10415638870E+02  0.11184672881E+02  0.51100000000E-03 0.  1.
        -11    1    3    3    0    0  0.56590313973E+01 -0.80395326324E+01 -0.88563917313E+01  0.13232323910E+02  0.51100000000E-03 0. -1.
         12    1    3    3    0    0 -0.18171063161E+02 -0.92495725786E+01 -0.16312178264E+02  0.26111861079E+02  0.00000000000E+00 0. -1.
</event>
<event>
 7    1  0.5601662E-013  0.5052887E+02  0.7816164E-02  0.1300439E+00
        -11   -1    0    0    0    0  0.00000000000E+00  0.00000000000E+00  0.45593999997E+02  0.45594000000E+02  0.51100000000E-03 0.  1.
         11   -1    0    0    0    0 -0.00000000000E+00 -0.00000000000E+00 -0.45593999997E+02  0.45594000000E+02  0.51100000000E-03 0. -1.
    9900012    2    1    2    0    0 -0.17277057993E+02 -0.13622169335E+02 -0.34192167616E+02  0.50528873638E+02  0.30000041909E+02 0.  0.
        -12    1    1    2    0    0  0.17277057993E+02  0.13622169335E+02  0.34192167616E+02  0.40659126362E+02  0.00000000000E+00 0.  1.
         11    1    3    3    0    0  0.27340545810E+01 -0.20356922231E+01 -0.95086037151E+01  0.10101120836E+02  0.51100000000E-03 0. -1.
        -11    1    3    3    0    0 -0.16364883955E+02 -0.10280088348E+02 -0.28859138529E+02  0.34732398711E+02  0.51100000000E-03 0.  1.
        -12    1    3    3    0    0 -0.36462286186E+01 -0.13063887638E+01  0.41755746283E+01  0.56953540907E+01  0.00000000000E+00 0.  1.
</event>
<event>
 7    1  0.5601662E-013  0.5052886E+02  0.7816164E-02  0.1300439E+00
        -11   -1    0    0    0    0  0.00000000000E+00  0.00000000000E+00  0.45593999997E+02  0.45594000000E+02  0.51100000000E-03 0.  1.
         11   -1    0    0    0    0 -0.00000000000E+00 -0.00000000000E+00 -0.45593999997E+02  0.45594000000E+02  0.51100000000E-03 0. -1.
    9900012    2    1    2    0    0  0.10974937732E+02  0.29652197857E+02 -0.25562934078E+02  0.50528859642E+02  0.29999999367E+02 0.  0.
        -12    1    1    2    0    0 -0.10974937732E+02 -0.29652197857E+02  0.25562934078E+02  0.40659140358E+02  0.00000000000E+00 0.  1.
         11    1    3    3    0    0 -0.65419212917E+00  0.23905736109E+02 -0.21503480387E+02  0.32160719134E+02  0.51100000000E-03 0. -1.
        -11    1    3    3    0    0  0.81642803876E+01  0.78993156781E+01 -0.69962420039E+01  0.13341741448E+02  0.51100000000E-03 0.  1.
        -12    1    3    3    0    0  0.34648494731E+01 -0.21528539292E+01  0.29367883127E+01  0.50263990595E+01  0.00000000000E+00 0.  1.
</event>
<event>
 7    1  0.5601662E-013  0.5052886E+02  0.7816164E-02  0.1300439E+00
        -11   -1    0    0    0    0  0.00000000000E+00  0.00000000000E+00  0.45593999997E+02  0.45594000000E+02  0.51100000000E-03 0.  1.
         11   -1    0    0    0    0 -0.00000000000E+00 -0.00000000000E+00 -0.45593999997E+02  0.45594000000E+02  0.51100000000E-03 0. -1.
    9900012    2    1    2    0    0 -0.35564119558E+01  0.33772041521E+02 -0.22359941413E+02  0.50528857923E+02  0.29999994143E+02 0.  0.
        -12    1    1    2    0    0  0.35564119558E+01 -0.33772041521E+02  0.22359941413E+02  0.40659142077E+02  0.00000000000E+00 0.  1.
         11    1    3    3    0    0  0.31497647508E+01  0.24892379888E+01 -0.17212293467E+01  0.43680607225E+01  0.51100000000E-03 0. -1.
        -11    1    3    3    0    0 -0.37985872766E+01  0.12979855389E+02  0.50917721256E+01  0.14451022623E+02  0.51100000000E-03 0.  1.
         12    1    3    3    0    0 -0.29075894300E+01  0.18302948143E+02 -0.25730484191E+02  0.31709774577E+02  0.00000000000E+00 0. -1.
</event>
<event>
 7    1  0.5601662E-013  0.5052886E+02  0.7816164E-02  0.1300439E+00
        -11   -1    0    0    0    0  0.00000000000E+00  0.00000000000E+00  0.45593999997E+02  0.45594000000E+02  0.51100000000E-03 0.  1.
         11   -1    0    0    0    0 -0.00000000000E+00 -0.00000000000E+00 -0.45593999997E+02  0.45594000000E+02  0.51100000000E-03 0. -1.
    9900012    2    1    2    0    0 -0.29779648261E+02  0.94124221261E+01 -0.26033530299E+02  0.50528857847E+02  0.29999993910E+02 0.  0.
        -12    1    1    2    0    0  0.29779648261E+02 -0.94124221261E+01  0.26033530299E+02  0.40659142153E+02  0.00000000000E+00 0.  1.
         11    1    3    3    0    0 -0.13867214637E+02  0.13809103026E+02 -0.61776123392E+01  0.20522033590E+02  0.51100000000E-03 0. -1.
        -11    1    3    3    0    0 -0.16460168950E+02 -0.69535155359E+01 -0.11495431800E+02  0.21246964318E+02  0.51100000000E-03 0.  1.
         12    1    3    3    0    0  0.54773532582E+00  0.25568346356E+01 -0.83604861589E+01  0.87598599392E+01  0.00000000000E+00 0. -1.
</event>
<event>
 7    1  0.5601662E-013  0.5052886E+02  0.7816164E-02  0.1300439E+00
        -11   -1    0    0    0    0  0.00000000000E+00  0.00000000000E+00  0.45593999997E+02  0.45594000000E+02  0.51100000000E-03 0.  1.
         11   -1    0    0    0    0 -0.00000000000E+00 -0.00000000000E+00 -0.45593999997E+02  0.45594000000E+02  0.51100000000E-03 0. -1.
    9900012    2    1    2    0    0  0.19659143352E+02 -0.15083865531E+02 -0.32236017020E+02  0.50528859453E+02  0.29999998794E+02 0.  0.
        -12    1    1    2    0    0 -0.19659143352E+02  0.15083865531E+02  0.32236017020E+02  0.40659140547E+02  0.00000000000E+00 0.  1.
         11    1    3    3    0    0  0.94982212125E+01 -0.41372935030E+01 -0.28523013677E+01  0.10745651543E+02  0.51100000000E-03 0. -1.
        -11    1    3    3    0    0  0.41351915415E+01  0.23277852198E+01  0.20226137476E+01  0.51584260921E+01  0.51100000000E-03 0.  1.
         12    1    3    3    0    0  0.60257305977E+01 -0.13274357248E+02 -0.31406329400E+02  0.34624781818E+02  0.00000000000E+00 0. -1.
</event>
<event>
 7    1  0.5601662E-013  0.5052887E+02  0.7816164E-02  0.1300439E+00
        -11   -1    0    0    0    0  0.00000000000E+00  0.00000000000E+00  0.45593999997E+02  0.45594000000E+02  0.51100000000E-03 0.  1.
         11   -1    0    0    0    0 -0.00000000000E+00 -0.00000000000E+00 -0.45593999997E+02  0.45594000000E+02  0.51100000000E-03 0. -1.
    9900012    2    1    2    0    0  0.40304120446E+02  0.16478961959E+01 -0.51017029023E+01  0.50528867455E+02  0.30000023116E+02 0.  0.
        -12    1    1    2    0    0 -0.40304120446E+02 -0.16478961959E+01  0.51017029023E+01  0.40659132545E+02  0.00000000000E+00 0.  1.
         11    1    3    3    0    0  0.48814236899E+01 -0.24524411951E+01 -0.44190752213E+01  0.70264493969E+01  0.51100000000E-03 0. -1.
        -11    1    3    3    0    0  0.33464286227E+02  0.27434597852E+00 -0.85474921617E+01  0.34539735681E+02  0.51100000000E-03 0.  1.
        -12    1    3    3    0    0  0.19584105293E+01  0.38259914125E+01  0.78648644807E+01  0.89626823769E+01  0.00000000000E+00 0.  1.
</event>
<event>
 7    1  0.5601662E-013  0.5052885E+02  0.7816164E-02  0.1300439E+00
        -11   -1    0    0    0    0  0.00000000000E+00  0.00000000000E+00  0.45593999997E+02  0.45594000000E+02  0.51100000000E-03 0. -1.
         11   -1    0    0    0    0 -0.00000000000E+00 -0.00000000000E+00 -0.45593999997E+02  0.45594000000E+02  0.51100000000E-03 0.  1.
    9900012    2    1    2    0    0  0.22236271146E+02 -0.25036707676E+02  0.23062482951E+02  0.50528848440E+02  0.29999965318E+02 0.  0.
        -12    1    1    2    0    0 -0.22236271146E+02  0.25036707676E+02 -0.23062482951E+02  0.40659151560E+02  0.00000000000E+00 0.  1.
         11    1    3    3    0    0  0.63913844409E+01 -0.11146710017E+02  0.34797368617E+01  0.13311931046E+02  0.51100000000E-03 0. -1.
        -11    1    3    3    0    0  0.33983879639E+01 -0.44598814415E+00 -0.53031746606E+01  0.63143968770E+01  0.51100000000E-03 0.  1.
         12    1    3    3    0    0  0.12446498741E+02 -0.13444009514E+02  0.24885920750E+02  0.30902520517E+02  0.00000000000E+00 0. -1.
</event>
<event>
 7    1  0.5943728E-013  0.5052885E+02  0.7816164E-02  0.1300439E+00
        -11   -1    0    0    0    0  0.00000000000E+00  0.00000000000E+00  0.45593999997E+02  0.45594000000E+02  0.51100000000E-03 0. -1.
         11   -1    0    0    0    0 -0.00000000000E+00 -0.00000000000E+00 -0.45593999997E+02  0.45594000000E+02  0.51100000000E-03 0.  1.
    9900012    2    1    2    0    0  0.22630536978E+02 -0.22581575004E+02  0.25121652305E+02  0.50528854066E+02  0.29999982418E+02 0.  0.
        -12    1    1    2    0    0 -0.22630536978E+02  0.22581575004E+02 -0.25121652305E+02  0.40659145934E+02  0.00000000000E+00 0.  1.
         11    1    3    3    0    0  0.16848591202E+02 -0.12806794388E+02  0.14475484127E+02  0.25640371466E+02  0.51100000000E-03 0. -1.
        -11    1    3    3    0    0  0.11669795534E+02 -0.10200955254E+01  0.73752816059E+01  0.13842669602E+02  0.51100000000E-03 0.  1.
        -12    1    3    3    0    0 -0.58878497573E+01 -0.87546850907E+01  0.32708865723E+01  0.11045812997E+02  0.00000000000E+00 0.  1.
</event>
<event>
 7    1  0.5601662E-013  0.5052887E+02  0.7816164E-02  0.1300439E+00
        -11   -1    0    0    0    0  0.00000000000E+00  0.00000000000E+00  0.45593999997E+02  0.45594000000E+02  0.51100000000E-03 0.  1.
         11   -1    0    0    0    0 -0.00000000000E+00 -0.00000000000E+00 -0.45593999997E+02  0.45594000000E+02  0.51100000000E-03 0. -1.
    9900012    2    1    2    0    0 -0.33364411795E+00  0.13984659899E+00 -0.40657521762E+02  0.50528868784E+02  0.30000027155E+02 0.  0.
        -12    1    1    2    0    0  0.33364411795E+00 -0.13984659899E+00  0.40657521762E+02  0.40659131216E+02  0.00000000000E+00 0.  1.
         11    1    3    3    0    0  0.44680452262E+01  0.66308337983E+01 -0.65400223836E+01  0.10329727878E+02  0.51100000000E-03 0. -1.
        -11    1    3    3    0    0  0.72306832606E+01  0.66246845758E+00 -0.11544874133E+02  0.13638393010E+02  0.51100000000E-03 0.  1.
         12    1    3    3    0    0 -0.12032372605E+02 -0.71534556569E+01 -0.22572625245E+02  0.26560747896E+02  0.00000000000E+00 0. -1.
</event>
<event>
 7    1  0.5601662E-013  0.5052886E+02  0.7816164E-02  0.1300439E+00
        -11   -1    0    0    0    0  0.00000000000E+00  0.00000000000E+00  0.45593999997E+02  0.45594000000E+02  0.51100000000E-03 0. -1.
         11   -1    0    0    0    0 -0.00000000000E+00 -0.00000000000E+00 -0.45593999997E+02  0.45594000000E+02  0.51100000000E-03 0.  1.
    9900012    2    1    2    0    0  0.21028436627E+02  0.28191280510E+02  0.20401517735E+02  0.50528863639E+02  0.30000011516E+02 0.  0.
        -12    1    1    2    0    0 -0.21028436627E+02 -0.28191280510E+02 -0.20401517735E+02  0.40659136361E+02  0.00000000000E+00 0.  1.
         11    1    3    3    0    0  0.15941605063E+01  0.18776834524E+01  0.66909247485E+01  0.71299030231E+01  0.51100000000E-03 0. -1.
        -11    1    3    3    0    0  0.17446049125E+02  0.53045591403E+01  0.12795594560E+02  0.22276225402E+02  0.51100000000E-03 0.  1.
        -12    1    3    3    0    0  0.19882269948E+01  0.21009037917E+02  0.91499842674E+00  0.21122735214E+02  0.00000000000E+00 0.  1.
</event>
<event>
 7    1  0.5601662E-013  0.5052886E+02  0.7816164E-02  0.1300439E+00
        -11   -1    0    0    0    0  0.00000000000E+00  0.00000000000E+00  0.45593999997E+02  0.45594000000E+02  0.51100000000E-03 0.  1.
         11   -1    0    0    0    0 -0.00000000000E+00 -0.00000000000E+00 -0.45593999997E+02  0.45594000000E+02  0.51100000000E-03 0. -1.
    9900012    2    1    2    0    0 -0.32606315296E+02  0.75251756249E+01 -0.23094715177E+02  0.50528856693E+02  0.29999990403E+02 0.  0.
        -12    1    1    2    0    0  0.32606315296E+02 -0.75251756249E+01  0.23094715177E+02  0.40659143307E+02  0.00000000000E+00 0.  1.
         11    1    3    3    0    0 -0.90164982034E+01 -0.84504304961E+01 -0.83403512094E+01  0.14908671100E+02  0.51100000000E-03 0. -1.
        -11    1    3    3    0    0 -0.88927940536E+01  0.61787681408E+01 -0.14318142963E+02  0.17951829433E+02  0.51100000000E-03 0.  1.
        -12    1    3    3    0    0 -0.14697023039E+02  0.97968379801E+01 -0.43622100505E+00  0.17668356160E+02  0.00000000000E+00 0.  1.
</event>
<event>
 7    1  0.5601662E-013  0.5052880E+02  0.7816164E-02  0.1300439E+00
        -11   -1    0    0    0    0  0.00000000000E+00  0.00000000000E+00  0.45593999997E+02  0.45594000000E+02  0.51100000000E-03 0.  1.
         11   -1    0    0    0    0 -0.00000000000E+00 -0.00000000000E+00 -0.45593999997E+02  0.45594000000E+02  0.51100000000E-03 0. -1.
    9900012    2    1    2    0    0 -0.37874273901E+02  0.12963069699E+02  0.71182135161E+01  0.50528797312E+02  0.29999809909E+02 0.  0.
        -12    1    1    2    0    0  0.37874273901E+02 -0.12963069699E+02 -0.71182135161E+01  0.40659202688E+02  0.00000000000E+00 0.  1.
         11    1    3    3    0    0 -0.37184371034E+02  0.14996034857E+02  0.79533880448E+01  0.40875602653E+02  0.51100000000E-03 0. -1.
        -11    1    3    3    0    0 -0.16140861026E+01  0.32250787819E+01  0.13958231745E+01  0.38671345582E+01  0.51100000000E-03 0.  1.
        -12    1    3    3    0    0  0.92418323515E+00 -0.52580439407E+01 -0.22309977032E+01  0.57860601004E+01  0.00000000000E+00 0.  1.
</event>
<event>
 7    1  0.5601662E-013  0.5052886E+02  0.7816164E-02  0.1300439E+00
        -11   -1    0    0    0    0  0.00000000000E+00  0.00000000000E+00  0.45593999997E+02  0.45594000000E+02  0.51100000000E-03 0.  1.
         11   -1    0    0    0    0 -0.00000000000E+00 -0.00000000000E+00 -0.45593999997E+02  0.45594000000E+02  0.51100000000E-03 0. -1.
    9900012    2    1    2    0    0  0.36135459124E+02  0.18630839119E+02  0.53475481309E+00  0.50528861604E+02  0.30000005332E+02 0.  0.
        -12    1    1    2    0    0 -0.36135459124E+02 -0.18630839119E+02 -0.53475481309E+00  0.40659138396E+02  0.00000000000E+00 0.  1.
         11    1    3    3    0    0  0.15099893833E+02  0.12333428133E+02 -0.12419842931E+02  0.23116503671E+02  0.51100000000E-03 0. -1.
        -11    1    3    3    0    0  0.77323950030E+01 -0.13279998553E+01  0.87910082018E+00  0.78947029463E+01  0.51100000000E-03 0.  1.
        -12    1    3    3    0    0  0.13303170288E+02  0.76254108413E+01  0.12075496924E+02  0.19517654987E+02  0.00000000000E+00 0.  1.
</event>
<event>
 7    1  0.5601662E-013  0.5052888E+02  0.7816164E-02  0.1300439E+00
        -11   -1    0    0    0    0  0.00000000000E+00  0.00000000000E+00  0.45593999997E+02  0.45594000000E+02  0.51100000000E-03 0. -1.
         11   -1    0    0    0    0 -0.00000000000E+00 -0.00000000000E+00 -0.45593999997E+02  0.45594000000E+02  0.51100000000E-03 0.  1.
    9900012    2    1    2    0    0 -0.19276319064E+02 -0.13132160385E+02  0.33303660748E+02  0.50528881315E+02  0.30000065245E+02 0.  0.
        -12    1    1    2    0    0  0.19276319064E+02  0.13132160385E+02 -0.33303660748E+02  0.40659118685E+02  0.00000000000E+00 0.  1.
         11    1    3    3    0    0 -0.14281407138E+02 -0.13255821537E+02  0.17470927672E+02  0.26170760562E+02  0.51100000000E-03 0. -1.
        -11    1    3    3    0    0  0.42898279930E+01 -0.30083337258E+01  0.13214881875E+02  0.14215688490E+02  0.51100000000E-03 0.  1.
        -12    1    3    3    0    0 -0.92847399197E+01  0.31319948770E+01  0.26178512007E+01  0.10142432262E+02  0.00000000000E+00 0.  1.
</event>
<event>
 7    1  0.5601662E-013  0.5052887E+02  0.7816164E-02  0.1300439E+00
        -11   -1    0    0    0    0  0.00000000000E+00  0.00000000000E+00  0.45593999997E+02  0.45594000000E+02  0.51100000000E-03 0.  1.
         11   -1    0    0    0    0 -0.00000000000E+00 -0.00000000000E+00 -0.45593999997E+02  0.45594000000E+02  0.51100000000E-03 0. -1.
    9900012    2    1    2    0    0 -0.28109168219E+02  0.22762814495E+02 -0.18571322091E+02  0.50528867374E+02  0.30000022871E+02 0.  0.
        -12    1    1    2    0    0  0.28109168219E+02 -0.22762814495E+02  0.18571322091E+02  0.40659132626E+02  0.00000000000E+00 0.  1.
         11    1    3    3    0    0 -0.15131615794E+02  0.16740625881E+02 -0.16180493354E+02  0.27767295815E+02  0.51100000000E-03 0. -1.
        -11    1    3    3    0    0 -0.13113445698E+02  0.10341879915E+02  0.17298096012E+01  0.16790151273E+02  0.51100000000E-03 0.  1.
        -12    1    3    3    0    0  0.13589327257E+00 -0.43196913019E+01 -0.41206383381E+01  0.59714202865E+01  0.00000000000E+00 0.  1.
</event>
<event>
 7    1  0.5601662E-013  0.5052886E+02  0.7816164E-02  0.1300439E+00
        -11   -1    0    0    0    0  0.00000000000E+00  0.00000000000E+00  0.45593999997E+02  0.45594000000E+02  0.51100000000E-03 0. -1.
         11   -1    0    0    0    0 -0.00000000000E+00 -0.00000000000E+00 -0.45593999997E+02  0.45594000000E+02  0.51100000000E-03 0.  1.
    9900012    2    1    2    0    0  0.25968069639E+02  0.28743319763E+02  0.12355038959E+02  0.50528855156E+02  0.29999985733E+02 0.  0.
        -12    1    1    2    0    0 -0.25968069639E+02 -0.28743319763E+02 -0.12355038959E+02  0.40659144844E+02  0.00000000000E+00 0.  1.
         11    1    3    3    0    0  0.19889438640E+02  0.19896899677E+02  0.17153380666E+02  0.32950187476E+02  0.51100000000E-03 0. -1.
        -11    1    3    3    0    0  0.43686602697E+00 -0.19571647410E+01  0.26285263603E+01  0.33061301905E+01  0.51100000000E-03 0.  1.
        -12    1    3    3    0    0  0.56417649716E+01  0.10803584827E+02 -0.74268680673E+01  0.14272537490E+02  0.00000000000E+00 0.  1.
</event>
<event>
 7    1  0.5601662E-013  0.5052889E+02  0.7816164E-02  0.1300439E+00
        -11   -1    0    0    0    0  0.00000000000E+00  0.00000000000E+00  0.45593999997E+02  0.45594000000E+02  0.51100000000E-03 0.  1.
         11   -1    0    0    0    0 -0.00000000000E+00 -0.00000000000E+00 -0.45593999997E+02  0.45594000000E+02  0.51100000000E-03 0. -1.
    9900012    2    1    2    0    0 -0.32837413982E+02  0.35114102884E+01 -0.23717870445E+02  0.50528891086E+02  0.30000094946E+02 0.  0.
        -12    1    1    2    0    0  0.32837413982E+02 -0.35114102884E+01  0.23717870445E+02  0.40659108914E+02  0.00000000000E+00 0.  1.
         11    1    3    3    0    0 -0.65314617134E+01  0.34020279045E+01 -0.21794713489E+02  0.23005289008E+02  0.51100000000E-03 0. -1.
        -11    1    3    3    0    0 -0.10002391976E+01  0.15800723127E+01  0.79065776206E+00  0.20303317275E+01  0.51100000000E-03 0.  1.
         12    1    3    3    0    0 -0.25305713071E+02 -0.14706899288E+01 -0.27138147176E+01  0.25493270351E+02  0.00000000000E+00 0. -1.
</event>
<event>
 7    1  0.5601662E-013  0.5052888E+02  0.7816164E-02  0.1300439E+00
        -11   -1    0    0    0    0  0.00000000000E+00  0.00000000000E+00  0.45593999997E+02  0.45594000000E+02  0.51100000000E-03 0. -1.
         11   -1    0    0    0    0 -0.00000000000E+00 -0.00000000000E+00 -0.45593999997E+02  0.45594000000E+02  0.51100000000E-03 0.  1.
    9900012    2    1    2    0    0  0.35342334357E+02  0.13016922310E+02  0.15318056976E+02  0.50528883756E+02  0.30000072665E+02 0.  0.
        -12    1    1    2    0    0 -0.35342334357E+02 -0.13016922310E+02 -0.15318056976E+02  0.40659116244E+02  0.00000000000E+00 0.  1.
         11    1    3    3    0    0  0.11229909450E+02  0.28143258302E+01 -0.65938013394E+01  0.13323269587E+02  0.51100000000E-03 0. -1.
        -11    1    3    3    0    0  0.14471361695E+01 -0.10534110327E+01 -0.17911418264E+01  0.25322059948E+01  0.51100000000E-03 0.  1.
        -12    1    3    3    0    0  0.22665288738E+02  0.11256007512E+02  0.23703000142E+02  0.34673408174E+02  0.00000000000E+00 0.  1.
</event>
<event>
 7    1  0.5601662E-013  0.5052886E+02  0.7816164E-02  0.1300439E+00
        -11   -1    0    0    0    0  0.00000000000E+00  0.00000000000E+00  0.45593999997E+02  0.45594000000E+02  0.51100000000E-03 0. -1.
         11   -1    0    0    0    0 -0.00000000000E+00 -0.00000000000E+00 -0.45593999997E+02  0.45594000000E+02  0.51100000000E-03 0.  1.
    9900012    2    1    2    0    0  0.14467014268E+02  0.25907317022E+02  0.27797163624E+02  0.50528857330E+02  0.29999992342E+02 0.  0.
        -12    1    1    2    0    0 -0.14467014268E+02 -0.25907317022E+02 -0.27797163624E+02  0.40659142670E+02  0.00000000000E+00 0.  1.
         11    1    3    3    0    0  0.40840312982E+01 -0.14372295056E+01 -0.34360252415E+01  0.55273149012E+01  0.51100000000E-03 0.  1.
        -11    1    3    3    0    0  0.40742025828E+00  0.19477843767E+02  0.21373187061E+02  0.28919984690E+02  0.51100000000E-03 0. -1.
         12    1    3    3    0    0  0.99755627114E+01  0.78667027605E+01  0.98600018041E+01  0.16081557739E+02  0.00000000000E+00 0. -1.
</event>
<event>
 7    1  0.5601662E-013  0.5052886E+02  0.7816164E-02  0.1300439E+00
        -11   -1    0    0    0    0  0.00000000000E+00  0.00000000000E+00  0.45593999997E+02  0.45594000000E+02  0.51100000000E-03 0.  1.
         11   -1    0    0    0    0 -0.00000000000E+00 -0.00000000000E+00 -0.45593999997E+02  0.45594000000E+02  0.51100000000E-03 0. -1.
    9900012    2    1    2    0    0  0.54342656270E+01 -0.11889756965E+02 -0.38500234270E+02  0.50528860776E+02  0.30000002813E+02 0.  0.
        -12    1    1    2    0    0 -0.54342656270E+01  0.11889756965E+02  0.38500234270E+02  0.40659139224E+02  0.00000000000E+00 0.  1.
         11    1    3    3    0    0 -0.38903335337E-01 -0.11452235294E+02 -0.70718372320E+01  0.13459795274E+02  0.51100000000E-03 0. -1.
        -11    1    3    3    0    0  0.32420066032E+01 -0.95520479419E+01 -0.18809838573E+02  0.21343904378E+02  0.51100000000E-03 0.  1.
        -12    1    3    3    0    0  0.22311623592E+01  0.91145262714E+01 -0.12618558465E+02  0.15725161124E+02  0.00000000000E+00 0.  1.
</event>
<event>
 7    1  0.5601662E-013  0.5052886E+02  0.7816164E-02  0.1300439E+00
        -11   -1    0    0    0    0  0.00000000000E+00  0.00000000000E+00  0.45593999997E+02  0.45594000000E+02  0.51100000000E-03 0.  1.
         11   -1    0    0    0    0 -0.00000000000E+00 -0.00000000000E+00 -0.45593999997E+02  0.45594000000E+02  0.51100000000E-03 0. -1.
    9900012    2    1    2    0    0  0.37631930852E+02 -0.15302262001E+02 -0.16865814557E+01  0.50528855899E+02  0.29999987992E+02 0.  0.
        -12    1    1    2    0    0 -0.37631930852E+02  0.15302262001E+02  0.16865814557E+01  0.40659144101E+02  0.00000000000E+00 0.  1.
         11    1    3    3    0    0  0.21045338538E+02 -0.72830378466E+01 -0.77626610093E+01  0.23584058613E+02  0.51100000000E-03 0. -1.
        -11    1    3    3    0    0  0.14576020977E+02 -0.99195088073E+01 -0.26150224935E+01  0.17824011484E+02  0.51100000000E-03 0.  1.
         12    1    3    3    0    0  0.20105713375E+01  0.19002846527E+01  0.86911020471E+01  0.91207858026E+01  0.00000000000E+00 0. -1.
</event>
<event>
 7    1  0.5601662E-013  0.5052886E+02  0.7816164E-02  0.1300439E+00
        -11   -1    0    0    0    0  0.00000000000E+00  0.00000000000E+00  0.45593999997E+02  0.45594000000E+02  0.51100000000E-03 0.  1.
         11   -1    0    0    0    0 -0.00000000000E+00 -0.00000000000E+00 -0.45593999997E+02  0.45594000000E+02  0.51100000000E-03 0. -1.
    9900012    2    1    2    0    0  0.18388397252E+02  0.31054166507E+02  0.18726213714E+02  0.50528862146E+02  0.30000006980E+02 0.  0.
        -12    1    1    2    0    0 -0.18388397252E+02 -0.31054166507E+02 -0.18726213714E+02  0.40659137854E+02  0.00000000000E+00 0.  1.
         11    1    3    3    0    0  0.15838800319E+02  0.16732333469E+02  0.65690854162E+01  0.23958118923E+02  0.51100000000E-03 0. -1.
        -11    1    3    3    0    0  0.90024655758E+01  0.11579540334E+02  0.28887131504E+01  0.14949073707E+02  0.51100000000E-03 0.  1.
        -12    1    3    3    0    0 -0.64528686424E+01  0.27422927041E+01  0.92684151472E+01  0.11621669516E+02  0.00000000000E+00 0.  1.
</event>
<event>
 7    1  0.5601662E-013  0.5052884E+02  0.7816164E-02  0.1300439E+00
        -11   -1    0    0    0    0  0.00000000000E+00  0.00000000000E+00  0.45593999997E+02  0.45594000000E+02  0.51100000000E-03 0.  1.
         11   -1    0    0    0    0 -0.00000000000E+00 -0.00000000000E+00 -0.45593999997E+02  0.45594000000E+02  0.51100000000E-03 0. -1.
    9900012    2    1    2    0    0  0.34919408700E+02 -0.15554329630E+02 -0.13851526303E+02  0.50528842912E+02  0.29999948514E+02 0.  0.
        -12    1    1    2    0    0 -0.34919408700E+02  0.15554329630E+02  0.13851526303E+02  0.40659157088E+02  0.00000000000E+00 0.  1.
         11    1    3    3    0    0  0.18937459280E+02 -0.61162711480E+01 -0.12735904345E+02  0.23627090309E+02  0.51100000000E-03 0. -1.
        -11    1    3    3    0    0  0.70538334408E+01 -0.29946506672E+01 -0.10108961320E+02  0.12685251202E+02  0.51100000000E-03 0.  1.
         12    1    3    3    0    0  0.89281159797E+01 -0.64434078152E+01  0.89933393614E+01  0.14216501401E+02  0.00000000000E+00 0. -1.
</event>
<event>
 7    1  0.5601662E-013  0.5052884E+02  0.7816164E-02  0.1300439E+00
        -11   -1    0    0    0    0  0.00000000000E+00  0.00000000000E+00  0.45593999997E+02  0.45594000000E+02  0.51100000000E-03 0.  1.
         11   -1    0    0    0    0 -0.00000000000E+00 -0.00000000000E+00 -0.45593999997E+02  0.45594000000E+02  0.51100000000E-03 0. -1.
    9900012    2    1    2    0    0 -0.18443106122E+02 -0.14538406288E+02 -0.33191171056E+02  0.50528840430E+02  0.29999940972E+02 0.  0.
        -12    1    1    2    0    0  0.18443106122E+02  0.14538406288E+02  0.33191171056E+02  0.40659159570E+02  0.00000000000E+00 0.  1.
         11    1    3    3    0    0 -0.17642847597E+01  0.36721521456E+01  0.14708865634E+01  0.43313865721E+01  0.51100000000E-03 0. -1.
        -11    1    3    3    0    0  0.14759277061E+01  0.25545763755E+01 -0.30392486607E+01  0.42357119513E+01  0.51100000000E-03 0.  1.
         12    1    3    3    0    0 -0.18154749068E+02 -0.20765134810E+02 -0.31622808959E+02  0.41961741907E+02  0.00000000000E+00 0. -1.
</event>
<event>
 7    1  0.5601662E-013  0.5052888E+02  0.7816164E-02  0.1300439E+00
        -11   -1    0    0    0    0  0.00000000000E+00  0.00000000000E+00  0.45593999997E+02  0.45594000000E+02  0.51100000000E-03 0. -1.
         11   -1    0    0    0    0 -0.00000000000E+00 -0.00000000000E+00 -0.45593999997E+02  0.45594000000E+02  0.51100000000E-03 0.  1.
    9900012    2    1    2    0    0  0.27245360373E+01 -0.33501957929E+02  0.22877065575E+02  0.50528875427E+02  0.30000047349E+02 0.  0.
        -12    1    1    2    0    0 -0.27245360373E+01  0.33501957929E+02 -0.22877065575E+02  0.40659124573E+02  0.00000000000E+00 0.  1.
         11    1    3    3    0    0 -0.39585788648E+01  0.88626213833E+00  0.95321886938E+00  0.41670653560E+01  0.51100000000E-03 0. -1.
        -11    1    3    3    0    0  0.31750815526E+01 -0.14100230612E+02 -0.22291646240E+01  0.14624186178E+02  0.51100000000E-03 0.  1.
         12    1    3    3    0    0  0.35080333495E+01 -0.20287989455E+02  0.24153011330E+02  0.31737623894E+02  0.00000000000E+00 0. -1.
</event>
<event>
 7    1  0.5601662E-013  0.5052886E+02  0.7816164E-02  0.1300439E+00
        -11   -1    0    0    0    0  0.00000000000E+00  0.00000000000E+00  0.45593999997E+02  0.45594000000E+02  0.51100000000E-03 0. -1.
         11   -1    0    0    0    0 -0.00000000000E+00 -0.00000000000E+00 -0.45593999997E+02  0.45594000000E+02  0.51100000000E-03 0.  1.
    9900012    2    1    2    0    0 -0.17811345938E+02 -0.30144076919E+01  0.36425746161E+02  0.50528859807E+02  0.29999999869E+02 0.  0.
        -12    1    1    2    0    0  0.17811345938E+02  0.30144076919E+01 -0.36425746161E+02  0.40659140193E+02  0.00000000000E+00 0.  1.
         11    1    3    3    0    0 -0.14238269389E+02 -0.60907393242E+01  0.27116507680E+02  0.31227078149E+02  0.51100000000E-03 0.  1.
        -11    1    3    3    0    0 -0.36760801609E+01  0.72850281286E+00  0.13764039746E+02  0.14265099792E+02  0.51100000000E-03 0. -1.
        -12    1    3    3    0    0  0.10300361169E+00  0.23478288194E+01 -0.44548012646E+01  0.50366818658E+01  0.00000000000E+00 0.  1.
</event>
<event>
 7    1  0.5601662E-013  0.5052887E+02  0.7816164E-02  0.1300439E+00
        -11   -1    0    0    0    0  0.00000000000E+00  0.00000000000E+00  0.45593999997E+02  0.45594000000E+02  0.51100000000E-03 0.  1.
         11   -1    0    0    0    0 -0.00000000000E+00 -0.00000000000E+00 -0.45593999997E+02  0.45594000000E+02  0.51100000000E-03 0. -1.
    9900012    2    1    2    0    0  0.27367710004E+01 -0.31708014436E+02 -0.25303697805E+02  0.50528865509E+02  0.30000017200E+02 0.  0.
        -12    1    1    2    0    0 -0.27367710004E+01  0.31708014436E+02  0.25303697805E+02  0.40659134491E+02  0.00000000000E+00 0.  1.
         11    1    3    3    0    0  0.39221217717E+01 -0.26397465300E+01  0.24022588099E+01  0.53030320181E+01  0.51100000000E-03 0. -1.
        -11    1    3    3    0    0 -0.54833886359E+00  0.11894464899E+01  0.22752297840E+01  0.26252865163E+01  0.51100000000E-03 0.  1.
         12    1    3    3    0    0 -0.63701190772E+00 -0.30257714396E+02 -0.29981186399E+02  0.42600546974E+02  0.00000000000E+00 0. -1.
</event>
<event>
 7    1  0.5601662E-013  0.5052884E+02  0.7816164E-02  0.1300439E+00
        -11   -1    0    0    0    0  0.00000000000E+00  0.00000000000E+00  0.45593999997E+02  0.45594000000E+02  0.51100000000E-03 0. -1.
         11   -1    0    0    0    0 -0.00000000000E+00 -0.00000000000E+00 -0.45593999997E+02  0.45594000000E+02  0.51100000000E-03 0.  1.
    9900012    2    1    2    0    0 -0.89086623940E+01 -0.25776145202E+02  0.30156152460E+02  0.50528837954E+02  0.29999933444E+02 0.  0.
        -12    1    1    2    0    0  0.89086623940E+01  0.25776145202E+02 -0.30156152460E+02  0.40659162046E+02  0.00000000000E+00 0.  1.
         11    1    3    3    0    0  0.70026411987E+00 -0.53461697665E+01 -0.20740169138E+01  0.57769756300E+01  0.51100000000E-03 0. -1.
        -11    1    3    3    0    0 -0.59104954333E+01 -0.17893250444E+01 -0.12063232251E+01  0.62921265376E+01  0.51100000000E-03 0.  1.
         12    1    3    3    0    0 -0.36984310807E+01 -0.18640650391E+02  0.33436492598E+02  0.38459735786E+02  0.00000000000E+00 0. -1.
</event>
<event>
 7    1  0.6341171E-013  0.5052886E+02  0.7816164E-02  0.1300439E+00
        -11   -1    0    0    0    0  0.00000000000E+00  0.00000000000E+00  0.45593999997E+02  0.45594000000E+02  0.51100000000E-03 0.  1.
         11   -1    0    0    0    0 -0.00000000000E+00 -0.00000000000E+00 -0.45593999997E+02  0.45594000000E+02  0.51100000000E-03 0. -1.
    9900012    2    1    2    0    0  0.34407421218E+02 -0.16224764798E+02 -0.14354524772E+02  0.50528855775E+02  0.29999987615E+02 0.  0.
        -12    1    1    2    0    0 -0.34407421218E+02  0.16224764798E+02  0.14354524772E+02  0.40659144225E+02  0.00000000000E+00 0.  1.
         11    1    3    3    0    0  0.26703113249E+02 -0.12279372587E+02 -0.58864294482E+01  0.29974811096E+02  0.51100000000E-03 0. -1.
        -11    1    3    3    0    0  0.43066169117E+01  0.33801813623E+01  0.32171845379E+01  0.63500277069E+01  0.51100000000E-03 0.  1.
         12    1    3    3    0    0  0.33976910573E+01 -0.73255735734E+01 -0.11685279862E+02  0.14204016972E+02  0.00000000000E+00 0. -1.
</event>
<event>
 7    1  0.5601662E-013  0.5052885E+02  0.7816164E-02  0.1300439E+00
        -11   -1    0    0    0    0  0.00000000000E+00  0.00000000000E+00  0.45593999997E+02  0.45594000000E+02  0.51100000000E-03 0.  1.
         11   -1    0    0    0    0 -0.00000000000E+00 -0.00000000000E+00 -0.45593999997E+02  0.45594000000E+02  0.51100000000E-03 0. -1.
    9900012    2    1    2    0    0  0.12491791516E+02  0.18913959736E+02 -0.33754757272E+02  0.50528851378E+02  0.29999974249E+02 0.  0.
        -12    1    1    2    0    0 -0.12491791516E+02 -0.18913959736E+02  0.33754757272E+02  0.40659148622E+02  0.00000000000E+00 0.  1.
         11    1    3    3    0    0  0.61752301652E+01  0.91569994446E+01 -0.73007877435E+01  0.13239547136E+02  0.51100000000E-03 0. -1.
        -11    1    3    3    0    0 -0.27996522977E+01  0.13690695413E+02 -0.74210152996E+01  0.15822283723E+02  0.51100000000E-03 0.  1.
         12    1    3    3    0    0  0.91162136486E+01 -0.39337351220E+01 -0.19032954229E+02  0.21467020519E+02  0.00000000000E+00 0. -1.
</event>
<event>
 7    1  0.5601662E-013  0.5052885E+02  0.7816164E-02  0.1300439E+00
        -11   -1    0    0    0    0  0.00000000000E+00  0.00000000000E+00  0.45593999997E+02  0.45594000000E+02  0.51100000000E-03 0. -1.
         11   -1    0    0    0    0 -0.00000000000E+00 -0.00000000000E+00 -0.45593999997E+02  0.45594000000E+02  0.51100000000E-03 0.  1.
    9900012    2    1    2    0    0 -0.40150971526E+02  0.28009079959E+01  0.57637497028E+01  0.50528850836E+02  0.29999972601E+02 0.  0.
        -12    1    1    2    0    0  0.40150971526E+02 -0.28009079959E+01 -0.57637497028E+01  0.40659149164E+02  0.00000000000E+00 0.  1.
         11    1    3    3    0    0 -0.19219634815E+02 -0.41249058083E+01  0.26534909061E+01  0.19835579765E+02  0.51100000000E-03 0. -1.
        -11    1    3    3    0    0 -0.22070509162E+02  0.12145740724E+02  0.24870017673E+01  0.25314256269E+02  0.51100000000E-03 0.  1.
         12    1    3    3    0    0  0.11391724510E+01 -0.52199269193E+01  0.62325702943E+00  0.53790148020E+01  0.00000000000E+00 0. -1.
</event>
<event>
 7    1  0.5601662E-013  0.5052886E+02  0.7816164E-02  0.1300439E+00
        -11   -1    0    0    0    0  0.00000000000E+00  0.00000000000E+00  0.45593999997E+02  0.45594000000E+02  0.51100000000E-03 0.  1.
         11   -1    0    0    0    0 -0.00000000000E+00 -0.00000000000E+00 -0.45593999997E+02  0.45594000000E+02  0.51100000000E-03 0. -1.
    9900012    2    1    2    0    0  0.33274692311E+02  0.75668584678E+01 -0.22106629303E+02  0.50528861365E+02  0.30000004604E+02 0.  0.
        -12    1    1    2    0    0 -0.33274692311E+02 -0.75668584678E+01  0.22106629303E+02  0.40659138635E+02  0.00000000000E+00 0.  1.
         11    1    3    3    0    0  0.12131839459E+02 -0.33374781585E+01 -0.27592586053E+01  0.12881529313E+02  0.51100000000E-03 0. -1.
        -11    1    3    3    0    0 -0.33135378617E+01 -0.22923554495E+01 -0.48437987309E+01  0.63005406970E+01  0.51100000000E-03 0.  1.
         12    1    3    3    0    0  0.24456390713E+02  0.13196692076E+02 -0.14503571967E+02  0.31346791355E+02  0.00000000000E+00 0. -1.
</event>
<event>
 7    1  0.5601662E-013  0.5052886E+02  0.7816164E-02  0.1300439E+00
        -11   -1    0    0    0    0  0.00000000000E+00  0.00000000000E+00  0.45593999997E+02  0.45594000000E+02  0.51100000000E-03 0.  1.
         11   -1    0    0    0    0 -0.00000000000E+00 -0.00000000000E+00 -0.45593999997E+02  0.45594000000E+02  0.51100000000E-03 0. -1.
    9900012    2    1    2    0    0  0.40472270002E+02 -0.34248715300E+01  0.18523378330E+01  0.50528861549E+02  0.30000005165E+02 0.  0.
        -12    1    1    2    0    0 -0.40472270002E+02  0.34248715300E+01 -0.18523378330E+01  0.40659138451E+02  0.00000000000E+00 0.  1.
         11    1    3    3    0    0  0.39579974173E+02  0.69253013839E+00  0.13886112659E+01  0.39610379890E+02  0.51100000000E-03 0. -1.
        -11    1    3    3    0    0  0.50785543938E+01 -0.98165502152E+00  0.18734511939E+01  0.55013799132E+01  0.51100000000E-03 0.  1.
        -12    1    3    3    0    0 -0.41862585646E+01 -0.31357466469E+01 -0.14097246267E+01  0.54171017460E+01  0.00000000000E+00 0.  1.
</event>
<event>
 7    1  0.5601662E-013  0.5052890E+02  0.7816164E-02  0.1300439E+00
        -11   -1    0    0    0    0  0.00000000000E+00  0.00000000000E+00  0.45593999997E+02  0.45594000000E+02  0.51100000000E-03 0.  1.
         11   -1    0    0    0    0 -0.00000000000E+00 -0.00000000000E+00 -0.45593999997E+02  0.45594000000E+02  0.51100000000E-03 0. -1.
    9900012    2    1    2    0    0  0.14604580335E+02  0.11881019551E+01 -0.37926995261E+02  0.50528901110E+02  0.30000125412E+02 0.  0.
        -12    1    1    2    0    0 -0.14604580335E+02 -0.11881019551E+01  0.37926995261E+02  0.40659098890E+02  0.00000000000E+00 0.  1.
         11    1    3    3    0    0  0.20616735946E+02 -0.24890863709E+01 -0.31010316948E+02  0.37321376040E+02  0.51100000000E-03 0. -1.
        -11    1    3    3    0    0 -0.53227235732E-01  0.51076428212E+01 -0.34897401023E+01  0.61862051833E+01  0.51100000000E-03 0.  1.
        -12    1    3    3    0    0 -0.59589283750E+01 -0.14304544953E+01 -0.34269382106E+01  0.70213198860E+01  0.00000000000E+00 0.  1.
</event>
<event>
 7    1  0.5601662E-013  0.5052885E+02  0.7816164E-02  0.1300439E+00
        -11   -1    0    0    0    0  0.00000000000E+00  0.00000000000E+00  0.45593999997E+02  0.45594000000E+02  0.51100000000E-03 0.  1.
         11   -1    0    0    0    0 -0.00000000000E+00 -0.00000000000E+00 -0.45593999997E+02  0.45594000000E+02  0.51100000000E-03 0. -1.
    9900012    2    1    2    0    0  0.12009147653E+02  0.26496830856E+02 -0.28405370933E+02  0.50528846411E+02  0.29999959150E+02 0.  0.
        -12    1    1    2    0    0 -0.12009147653E+02 -0.26496830856E+02  0.28405370933E+02  0.40659153589E+02  0.00000000000E+00 0.  1.
         11    1    3    3    0    0  0.30903481400E+01  0.11969154039E+02 -0.79668240826E+01  0.14706501496E+02  0.51100000000E-03 0. -1.
        -11    1    3    3    0    0  0.11805195855E+02  0.19655919163E+02 -0.18966099989E+02  0.29756188540E+02  0.51100000000E-03 0.  1.
        -12    1    3    3    0    0 -0.28863963424E+01 -0.51282423460E+01 -0.14724468605E+01  0.60661563747E+01  0.00000000000E+00 0.  1.
</event>
<event>
 7    1  0.5601662E-013  0.5052882E+02  0.7816164E-02  0.1300439E+00
        -11   -1    0    0    0    0  0.00000000000E+00  0.00000000000E+00  0.45593999997E+02  0.45594000000E+02  0.51100000000E-03 0.  1.
         11   -1    0    0    0    0 -0.00000000000E+00 -0.00000000000E+00 -0.45593999997E+02  0.45594000000E+02  0.51100000000E-03 0. -1.
    9900012    2    1    2    0    0  0.14844202076E+02 -0.27593799316E+02 -0.25911408244E+02  0.50528816865E+02  0.29999869344E+02 0.  0.
        -12    1    1    2    0    0 -0.14844202076E+02  0.27593799316E+02  0.25911408244E+02  0.40659183135E+02  0.00000000000E+00 0.  1.
         11    1    3    3    0    0  0.12145740143E+02 -0.71105926958E+01 -0.21094621923E+02  0.25358679115E+02  0.51100000000E-03 0. -1.
        -11    1    3    3    0    0  0.65362393234E+01 -0.15734316466E+02 -0.73551638639E+01  0.18557736254E+02  0.51100000000E-03 0.  1.
         12    1    3    3    0    0 -0.38377773904E+01 -0.47488901546E+01  0.25383775433E+01  0.66124014966E+01  0.00000000000E+00 0. -1.
</event>
<event>
 7    1  0.5601662E-013  0.5052886E+02  0.7816164E-02  0.1300439E+00
        -11   -1    0    0    0    0  0.00000000000E+00  0.00000000000E+00  0.45593999997E+02  0.45594000000E+02  0.51100000000E-03 0.  1.
         11   -1    0    0    0    0 -0.00000000000E+00 -0.00000000000E+00 -0.45593999997E+02  0.45594000000E+02  0.51100000000E-03 0. -1.
    9900012    2    1    2    0    0 -0.68518576888E+01  0.15504161850E+02 -0.36957256713E+02  0.50528858196E+02  0.29999994973E+02 0.  0.
        -12    1    1    2    0    0  0.68518576888E+01 -0.15504161850E+02  0.36957256713E+02  0.40659141804E+02  0.00000000000E+00 0.  1.
         11    1    3    3    0    0  0.22882722138E+01  0.51198011596E+01 -0.54461623689E+01  0.78172398228E+01  0.51100000000E-03 0. -1.
        -11    1    3    3    0    0  0.57576933128E+01  0.68597102902E+01 -0.15821310217E+01  0.90944926401E+01  0.51100000000E-03 0.  1.
         12    1    3    3    0    0 -0.14897823215E+02  0.35246503997E+01 -0.29928963323E+02  0.33617125733E+02  0.00000000000E+00 0. -1.
</event>
<event>
 7    1  0.5601662E-013  0.5052886E+02  0.7816164E-02  0.1300439E+00
        -11   -1    0    0    0    0  0.00000000000E+00  0.00000000000E+00  0.45593999997E+02  0.45594000000E+02  0.51100000000E-03 0. -1.
         11   -1    0    0    0    0 -0.00000000000E+00 -0.00000000000E+00 -0.45593999997E+02  0.45594000000E+02  0.51100000000E-03 0.  1.
    9900012    2    1    2    0    0  0.14464119736E+02  0.14677976073E+02  0.35050132967E+02  0.50528861269E+02  0.30000004314E+02 0.  0.
        -12    1    1    2    0    0 -0.14464119736E+02 -0.14677976073E+02 -0.35050132967E+02  0.40659138731E+02  0.00000000000E+00 0.  1.
         11    1    3    3    0    0 -0.22590466637E+01  0.78712700003E+01  0.32956308584E+01  0.88273079850E+01  0.51100000000E-03 0. -1.
        -11    1    3    3    0    0 -0.78484347007E+00 -0.19485833496E+01 -0.18579691472E+01  0.28044617943E+01  0.51100000000E-03 0.  1.
         12    1    3    3    0    0  0.17508009869E+02  0.87552894224E+01  0.33612471256E+02  0.38897091490E+02  0.00000000000E+00 0. -1.
</event>
<event>
 7    1  0.5601662E-013  0.5052880E+02  0.7816164E-02  0.1300439E+00
        -11   -1    0    0    0    0  0.00000000000E+00  0.00000000000E+00  0.45593999997E+02  0.45594000000E+02  0.51100000000E-03 0.  1.
         11   -1    0    0    0    0 -0.00000000000E+00 -0.00000000000E+00 -0.45593999997E+02  0.45594000000E+02  0.51100000000E-03 0. -1.
    9900012    2    1    2    0    0 -0.30771247573E+02  0.25639865979E+02 -0.69926921766E+01  0.50528804871E+02  0.29999832886E+02 0.  0.
        -12    1    1    2    0    0  0.30771247573E+02 -0.25639865979E+02  0.69926921766E+01  0.40659195129E+02  0.00000000000E+00 0.  1.
         11    1    3    3    0    0 -0.19162658559E+02  0.12324476902E+02  0.28223102469E+01  0.22957910387E+02  0.51100000000E-03 0. -1.
        -11    1    3    3    0    0 -0.16083177859E+02  0.89221236888E+01 -0.35984103201E+01  0.18740903347E+02  0.51100000000E-03 0.  1.
        -12    1    3    3    0    0  0.44745888448E+01  0.43932653882E+01 -0.62165921034E+01  0.88299911371E+01  0.00000000000E+00 0.  1.
</event>
<event>
 7    1  0.5601662E-013  0.5052886E+02  0.7816164E-02  0.1300439E+00
        -11   -1    0    0    0    0  0.00000000000E+00  0.00000000000E+00  0.45593999997E+02  0.45594000000E+02  0.51100000000E-03 0.  1.
         11   -1    0    0    0    0 -0.00000000000E+00 -0.00000000000E+00 -0.45593999997E+02  0.45594000000E+02  0.51100000000E-03 0. -1.
    9900012    2    1    2    0    0 -0.11974252749E+01  0.94454767504E+01 -0.39528661358E+02  0.50528856784E+02  0.29999990680E+02 0.  0.
        -12    1    1    2    0    0  0.11974252749E+01 -0.94454767504E+01  0.39528661358E+02  0.40659143216E+02  0.00000000000E+00 0.  1.
         11    1    3    3    0    0 -0.73973321520E+00  0.91145698787E+01 -0.29825440034E+02  0.31195824445E+02  0.51100000000E-03 0. -1.
        -11    1    3    3    0    0  0.30423071064E+01  0.77994952751E+01 -0.59522563758E+01  0.10272152418E+02  0.51100000000E-03 0.  1.
         12    1    3    3    0    0 -0.34999991661E+01 -0.74685884033E+01 -0.37509649477E+01  0.90608799208E+01  0.00000000000E+00 0. -1.
</event>
<event>
 7    1  0.5601662E-013  0.5052886E+02  0.7816164E-02  0.1300439E+00
        -11   -1    0    0    0    0  0.00000000000E+00  0.00000000000E+00  0.45593999997E+02  0.45594000000E+02  0.51100000000E-03 0.  1.
         11   -1    0    0    0    0 -0.00000000000E+00 -0.00000000000E+00 -0.45593999997E+02  0.45594000000E+02  0.51100000000E-03 0. -1.
    9900012    2    1    2    0    0  0.34867910772E+02 -0.32180997197E+01 -0.20664904081E+02  0.50528860461E+02  0.30000001857E+02 0.  0.
        -12    1    1    2    0    0 -0.34867910772E+02  0.32180997197E+01  0.20664904081E+02  0.40659139539E+02  0.00000000000E+00 0.  1.
         11    1    3    3    0    0  0.17252131663E+01 -0.83988337958E+01 -0.89161722251E+01  0.12369919038E+02  0.51100000000E-03 0. -1.
        -11    1    3    3    0    0  0.98572386037E+01  0.82444769525E+00  0.28977703368E+01  0.10307373093E+02  0.51100000000E-03 0.  1.
        -12    1    3    3    0    0  0.23285459002E+02  0.43562863808E+01 -0.14646502193E+02  0.27851568330E+02  0.00000000000E+00 0.  1.
</event>
<event>
 7    1  0.5601662E-013  0.5052885E+02  0.7816164E-02  0.1300439E+00
        -11   -1    0    0    0    0  0.00000000000E+00  0.00000000000E+00  0.45593999997E+02  0.45594000000E+02  0.51100000000E-03 0.  1.
         11   -1    0    0    0    0 -0.00000000000E+00 -0.00000000000E+00 -0.45593999997E+02  0.45594000000E+02  0.51100000000E-03 0. -1.
    9900012    2    1    2    0    0 -0.17677315293E+02 -0.35656434930E+02 -0.83245035918E+01  0.50528853576E+02  0.29999980929E+02 0.  0.
        -12    1    1    2    0    0  0.17677315293E+02  0.35656434930E+02  0.83245035918E+01  0.40659146424E+02  0.00000000000E+00 0.  1.
         11    1    3    3    0    0 -0.26577395633E+01 -0.66541687335E+01 -0.28617068682E+01  0.77156274910E+01  0.51100000000E-03 0. -1.
        -11    1    3    3    0    0 -0.90292828981E+01 -0.12576749971E+01 -0.10586247561E+02  0.13970623956E+02  0.51100000000E-03 0.  1.
        -12    1    3    3    0    0 -0.59902928316E+01 -0.27744591200E+02  0.51234508370E+01  0.28842602128E+02  0.00000000000E+00 0.  1.
</event>
<event>
 7    1  0.5601662E-013  0.5052886E+02  0.7816164E-02  0.1300439E+00
        -11   -1    0    0    0    0  0.00000000000E+00  0.00000000000E+00  0.45593999997E+02  0.45594000000E+02  0.51100000000E-03 0. -1.
         11   -1    0    0    0    0 -0.00000000000E+00 -0.00000000000E+00 -0.45593999997E+02  0.45594000000E+02  0.51100000000E-03 0.  1.
    9900012    2    1    2    0    0 -0.37688009196E+02  0.14450038884E+02  0.48965577803E+01  0.50528856637E+02  0.29999990233E+02 0.  0.
        -12    1    1    2    0    0  0.37688009196E+02 -0.14450038884E+02 -0.48965577803E+01  0.40659143363E+02  0.00000000000E+00 0.  1.
         11    1    3    3    0    0 -0.11943355499E+00  0.54171873496E+01  0.15597841460E+01  0.56385379309E+01  0.51100000000E-03 0. -1.
        -11    1    3    3    0    0 -0.69517297254E+01  0.12132071722E+02  0.59853085231E+00  0.13995426035E+02  0.51100000000E-03 0.  1.
        -12    1    3    3    0    0 -0.30616845916E+02 -0.30992201882E+01  0.27382427820E+01  0.30894892671E+02  0.00000000000E+00 0.  1.
</event>
<event>
 7    1  0.5601662E-013  0.5052886E+02  0.7816164E-02  0.1300439E+00
        -11   -1    0    0    0    0  0.00000000000E+00  0.00000000000E+00  0.45593999997E+02  0.45594000000E+02  0.51100000000E-03 0. -1.
         11   -1    0    0    0    0 -0.00000000000E+00 -0.00000000000E+00 -0.45593999997E+02  0.45594000000E+02  0.51100000000E-03 0.  1.
    9900012    2    1    2    0    0  0.32514575762E+02 -0.12912166206E+02  0.20718207526E+02  0.50528858393E+02  0.29999995572E+02 0.  0.
        -12    1    1    2    0    0 -0.32514575762E+02  0.12912166206E+02 -0.20718207526E+02  0.40659141607E+02  0.00000000000E+00 0.  1.
         11    1    3    3    0    0  0.13248133030E+02 -0.10828214820E+02  0.95284023524E+01  0.19584527480E+02  0.51100000000E-03 0. -1.
        -11    1    3    3    0    0  0.75604667066E+01  0.48606064634E-01  0.16320447655E+02  0.17986662594E+02  0.51100000000E-03 0.  1.
        -12    1    3    3    0    0  0.11705976026E+02 -0.21325574505E+01 -0.51306424811E+01  0.12957668319E+02  0.00000000000E+00 0.  1.
</event>
<event>
 7    1  0.5601662E-013  0.5052885E+02  0.7816164E-02  0.1300439E+00
        -11   -1    0    0    0    0  0.00000000000E+00  0.00000000000E+00  0.45593999997E+02  0.45594000000E+02  0.51100000000E-03 0. -1.
         11   -1    0    0    0    0 -0.00000000000E+00 -0.00000000000E+00 -0.45593999997E+02  0.45594000000E+02  0.51100000000E-03 0.  1.
    9900012    2    1    2    0    0  0.18841773255E+02 -0.35894332137E+01  0.35850666403E+02  0.50528846889E+02  0.29999960603E+02 0.  0.
        -12    1    1    2    0    0 -0.18841773255E+02  0.35894332137E+01 -0.35850666403E+02  0.40659153111E+02  0.00000000000E+00 0.  1.
         11    1    3    3    0    0  0.70306107701E+01 -0.59065612391E+01  0.56065453441E+01  0.10758731544E+02  0.51100000000E-03 0. -1.
        -11    1    3    3    0    0  0.14033286887E+02  0.83195754581E+01  0.11490834628E+02  0.19954642502E+02  0.51100000000E-03 0.  1.
         12    1    3    3    0    0 -0.22221244022E+01 -0.60024474327E+01  0.18753286431E+02  0.19815472843E+02  0.00000000000E+00 0. -1.
</event>
<event>
 7    1  0.5601662E-013  0.5052885E+02  0.7816164E-02  0.1300439E+00
        -11   -1    0    0    0    0  0.00000000000E+00  0.00000000000E+00  0.45593999997E+02  0.45594000000E+02  0.51100000000E-03 0.  1.
         11   -1    0    0    0    0 -0.00000000000E+00 -0.00000000000E+00 -0.45593999997E+02  0.45594000000E+02  0.51100000000E-03 0. -1.
    9900012    2    1    2    0    0 -0.16468220377E+02  0.19871892324E+02 -0.31417698921E+02  0.50528853521E+02  0.29999980761E+02 0.  0.
        -12    1    1    2    0    0  0.16468220377E+02 -0.19871892324E+02  0.31417698921E+02  0.40659146479E+02  0.00000000000E+00 0.  1.
         11    1    3    3    0    0 -0.83122779300E+01  0.18496109922E+02 -0.17040965179E+02  0.26487629964E+02  0.51100000000E-03 0. -1.
        -11    1    3    3    0    0 -0.10178847330E+02 -0.14842192380E+00 -0.77909689792E+00  0.10209699030E+02  0.51100000000E-03 0.  1.
         12    1    3    3    0    0  0.20229048829E+01  0.15242043262E+01 -0.13597636844E+02  0.13831524527E+02  0.00000000000E+00 0. -1.
</event>
<event>
 7    1  0.5601662E-013  0.5052898E+02  0.7816164E-02  0.1300438E+00
        -11   -1    0    0    0    0  0.00000000000E+00  0.00000000000E+00  0.45593999997E+02  0.45594000000E+02  0.51100000000E-03 0. -1.
         11   -1    0    0    0    0 -0.00000000000E+00 -0.00000000000E+00 -0.45593999997E+02  0.45594000000E+02  0.51100000000E-03 0.  1.
    9900012    2    1    2    0    0  0.29387382427E+02 -0.27212682623E+02 -0.70005267401E+01  0.50528982352E+02  0.30000372355E+02 0.  0.
        -12    1    1    2    0    0 -0.29387382427E+02  0.27212682623E+02  0.70005267401E+01  0.40659017648E+02  0.00000000000E+00 0.  1.
         11    1    3    3    0    0  0.68888658749E+01 -0.89534809667E+01 -0.34783647917E+01  0.11820334866E+02  0.51100000000E-03 0. -1.
        -11    1    3    3    0    0  0.15315583272E+02 -0.19379347748E+02 -0.12066212407E+02  0.27490356349E+02  0.51100000000E-03 0.  1.
         12    1    3    3    0    0  0.71829332805E+01  0.11201460918E+01  0.85440504591E+01  0.11218291137E+02  0.00000000000E+00 0. -1.
</event>
<event>
 7    1  0.5601662E-013  0.5052885E+02  0.7816164E-02  0.1300439E+00
        -11   -1    0    0    0    0  0.00000000000E+00  0.00000000000E+00  0.45593999997E+02  0.45594000000E+02  0.51100000000E-03 0. -1.
         11   -1    0    0    0    0 -0.00000000000E+00 -0.00000000000E+00 -0.45593999997E+02  0.45594000000E+02  0.51100000000E-03 0.  1.
    9900012    2    1    2    0    0  0.30663122660E+02 -0.22459948676E+02 -0.14439187008E+02  0.50528849650E+02  0.29999968995E+02 0.  0.
        -12    1    1    2    0    0 -0.30663122660E+02  0.22459948676E+02  0.14439187008E+02  0.40659150350E+02  0.00000000000E+00 0.  1.
         11    1    3    3    0    0  0.76995737204E+01  0.17402892234E+01 -0.21907998536E+01  0.81921698174E+01  0.51100000000E-03 0. -1.
        -11    1    3    3    0    0  0.13035958783E+02  0.52687774320E+00 -0.86789428795E-01  0.13046890595E+02  0.51100000000E-03 0.  1.
         12    1    3    3    0    0  0.99275901567E+01 -0.24727115643E+02 -0.12161597725E+02  0.29289789237E+02  0.00000000000E+00 0. -1.
</event>
<event>
 7    1  0.5601662E-013  0.5052887E+02  0.7816164E-02  0.1300439E+00
        -11   -1    0    0    0    0  0.00000000000E+00  0.00000000000E+00  0.45593999997E+02  0.45594000000E+02  0.51100000000E-03 0.  1.
         11   -1    0    0    0    0 -0.00000000000E+00 -0.00000000000E+00 -0.45593999997E+02  0.45594000000E+02  0.51100000000E-03 0. -1.
    9900012    2    1    2    0    0  0.27807037321E+02 -0.29361851962E+02 -0.42208506251E+01  0.50528865046E+02  0.30000015794E+02 0.  0.
        -12    1    1    2    0    0 -0.27807037321E+02  0.29361851962E+02  0.42208506251E+01  0.40659134954E+02  0.00000000000E+00 0.  1.
         11    1    3    3    0    0  0.37436708476E+00 -0.35347359673E+01 -0.28688764104E+01  0.45678179902E+01  0.51100000000E-03 0. -1.
        -11    1    3    3    0    0 -0.14396470360E+00 -0.15390971192E+02 -0.51539162795E+01  0.16231622635E+02  0.51100000000E-03 0.  1.
         12    1    3    3    0    0  0.27576634940E+02 -0.10436144802E+02  0.38019420648E+01  0.29729424421E+02  0.00000000000E+00 0. -1.
</event>
<event>
 7    1  0.5601662E-013  0.5052886E+02  0.7816164E-02  0.1300439E+00
        -11   -1    0    0    0    0  0.00000000000E+00  0.00000000000E+00  0.45593999997E+02  0.45594000000E+02  0.51100000000E-03 0.  1.
         11   -1    0    0    0    0 -0.00000000000E+00 -0.00000000000E+00 -0.45593999997E+02  0.45594000000E+02  0.51100000000E-03 0. -1.
    9900012    2    1    2    0    0  0.31601444598E+02 -0.12684330973E+02 -0.22217603913E+02  0.50528862324E+02  0.30000007520E+02 0.  0.
        -12    1    1    2    0    0 -0.31601444598E+02  0.12684330973E+02  0.22217603913E+02  0.40659137676E+02  0.00000000000E+00 0.  1.
         11    1    3    3    0    0  0.61318889877E+01 -0.12300761625E+02 -0.11876170068E+02  0.18164586834E+02  0.51100000000E-03 0. -1.
        -11    1    3    3    0    0  0.13959228860E+02 -0.74790503051E+01 -0.87961485208E+00  0.15860957928E+02  0.51100000000E-03 0.  1.
         12    1    3    3    0    0  0.11510326751E+02  0.70954809567E+01 -0.94618189923E+01  0.16503317562E+02  0.00000000000E+00 0. -1.
</event>
<event>
 7    1  0.5601662E-013  0.5052886E+02  0.7816164E-02  0.1300439E+00
        -11   -1    0    0    0    0  0.00000000000E+00  0.00000000000E+00  0.45593999997E+02  0.45594000000E+02  0.51100000000E-03 0.  1.
         11   -1    0    0    0    0 -0.00000000000E+00 -0.00000000000E+00 -0.45593999997E+02  0.45594000000E+02  0.51100000000E-03 0. -1.
    9900012    2    1    2    0    0  0.24466587779E+02  0.24122559338E+02 -0.21740605487E+02  0.50528859410E+02  0.29999998663E+02 0.  0.
        -12    1    1    2    0    0 -0.24466587779E+02 -0.24122559338E+02  0.21740605487E+02  0.40659140590E+02  0.00000000000E+00 0.  1.
         11    1    3    3    0    0  0.85079290937E+01  0.99330236018E+01  0.31672786943E+01  0.13456651512E+02  0.51100000000E-03 0. -1.
        -11    1    3    3    0    0  0.13976530932E+01 -0.39355845843E+01 -0.44578036653E+01  0.61085410671E+01  0.51100000000E-03 0.  1.
         12    1    3    3    0    0  0.14561005592E+02  0.18125120320E+02 -0.20450080516E+02  0.30963666831E+02  0.00000000000E+00 0. -1.
</event>
<event>
 7    1  0.5601662E-013  0.5052885E+02  0.7816164E-02  0.1300439E+00
        -11   -1    0    0    0    0  0.00000000000E+00  0.00000000000E+00  0.45593999997E+02  0.45594000000E+02  0.51100000000E-03 0. -1.
         11   -1    0    0    0    0 -0.00000000000E+00 -0.00000000000E+00 -0.45593999997E+02  0.45594000000E+02  0.51100000000E-03 0.  1.
    9900012    2    1    2    0    0  0.27016181677E+02 -0.30342229407E+02  0.16252203257E+01  0.50528852212E+02  0.29999976783E+02 0.  0.
        -12    1    1    2    0    0 -0.27016181677E+02  0.30342229407E+02 -0.16252203257E+01  0.40659147788E+02  0.00000000000E+00 0.  1.
         11    1    3    3    0    0 -0.12842050485E+01 -0.58121382639E+00 -0.16466603348E+01  0.21675983571E+01  0.51100000000E-03 0. -1.
        -11    1    3    3    0    0  0.48125479250E+01  0.43940269871E+01  0.22589008598E+01  0.68971533294E+01  0.51100000000E-03 0.  1.
         12    1    3    3    0    0  0.23487838801E+02 -0.34155042567E+02  0.10129798007E+01  0.41464100525E+02  0.00000000000E+00 0. -1.
</event>
<event>
 7    1  0.5601662E-013  0.5052885E+02  0.7816164E-02  0.1300439E+00
        -11   -1    0    0    0    0  0.00000000000E+00  0.00000000000E+00  0.45593999997E+02  0.45594000000E+02  0.51100000000E-03 0.  1.
         11   -1    0    0    0    0 -0.00000000000E+00 -0.00000000000E+00 -0.45593999997E+02  0.45594000000E+02  0.51100000000E-03 0. -1.
    9900012    2    1    2    0    0  0.26529514555E+02 -0.26460607662E+02 -0.15785665132E+02  0.50528854362E+02  0.29999983318E+02 0.  0.
        -12    1    1    2    0    0 -0.26529514555E+02  0.26460607662E+02  0.15785665132E+02  0.40659145638E+02  0.00000000000E+00 0.  1.
         11    1    3    3    0    0  0.46517294530E+01 -0.17504387144E+02 -0.88294205774E+00  0.18133442672E+02  0.51100000000E-03 0. -1.
        -11    1    3    3    0    0 -0.25017350317E+00 -0.13845325921E+01  0.27530769377E+01  0.30917551919E+01  0.51100000000E-03 0.  1.
        -12    1    3    3    0    0  0.22127958606E+02 -0.75716879255E+01 -0.17655800012E+02  0.29303656498E+02  0.00000000000E+00 0.  1.
</event>
<event>
 7    1  0.5601662E-013  0.5052886E+02  0.7816164E-02  0.1300439E+00
        -11   -1    0    0    0    0  0.00000000000E+00  0.00000000000E+00  0.45593999997E+02  0.45594000000E+02  0.51100000000E-03 0.  1.
         11   -1    0    0    0    0 -0.00000000000E+00 -0.00000000000E+00 -0.45593999997E+02  0.45594000000E+02  0.51100000000E-03 0. -1.
    9900012    2    1    2    0    0 -0.24269885934E+02  0.32551433846E+02  0.21312784929E+01  0.50528861339E+02  0.30000004525E+02 0.  0.
        -12    1    1    2    0    0  0.24269885934E+02 -0.32551433846E+02 -0.21312784929E+01  0.40659138661E+02  0.00000000000E+00 0.  1.
         11    1    3    3    0    0 -0.18920746206E+02  0.32216056124E+02  0.63714002014E+01  0.37900707776E+02  0.51100000000E-03 0. -1.
        -11    1    3    3    0    0 -0.12030857046E+01  0.35350387399E+01  0.21948112692E+01  0.43314098021E+01  0.51100000000E-03 0.  1.
        -12    1    3    3    0    0 -0.41460540234E+01 -0.31996610180E+01 -0.64349329777E+01  0.82967437602E+01  0.00000000000E+00 0.  1.
</event>
<event>
 7    1  0.5601662E-013  0.5052887E+02  0.7816164E-02  0.1300439E+00
        -11   -1    0    0    0    0  0.00000000000E+00  0.00000000000E+00  0.45593999997E+02  0.45594000000E+02  0.51100000000E-03 0.  1.
         11   -1    0    0    0    0 -0.00000000000E+00 -0.00000000000E+00 -0.45593999997E+02  0.45594000000E+02  0.51100000000E-03 0. -1.
    9900012    2    1    2    0    0 -0.30981157092E+01 -0.85010566393E+01 -0.39639609903E+02  0.50528868699E+02  0.30000026896E+02 0.  0.
        -12    1    1    2    0    0  0.30981157092E+01  0.85010566393E+01  0.39639609903E+02  0.40659131301E+02  0.00000000000E+00 0.  1.
         11    1    3    3    0    0 -0.52334305899E+01  0.80132577348E+00 -0.61110335433E+01  0.80855210075E+01  0.51100000000E-03 0. -1.
        -11    1    3    3    0    0 -0.81759358489E+01 -0.76475197280E+01 -0.28952506999E+02  0.31041555161E+02  0.51100000000E-03 0.  1.
        -12    1    3    3    0    0  0.10311250730E+02 -0.16548626848E+01 -0.45760693605E+01  0.11401792530E+02  0.00000000000E+00 0.  1.
</event>
<event>
 7    1  0.5601662E-013  0.5052886E+02  0.7816164E-02  0.1300439E+00
        -11   -1    0    0    0    0  0.00000000000E+00  0.00000000000E+00  0.45593999997E+02  0.45594000000E+02  0.51100000000E-03 0. -1.
         11   -1    0    0    0    0 -0.00000000000E+00 -0.00000000000E+00 -0.45593999997E+02  0.45594000000E+02  0.51100000000E-03 0.  1.
    9900012    2    1    2    0    0  0.18554543704E+02  0.34779926906E+02  0.99624748047E+01  0.50528864349E+02  0.30000013674E+02 0.  0.
        -12    1    1    2    0    0 -0.18554543704E+02 -0.34779926906E+02 -0.99624748047E+01  0.40659135651E+02  0.00000000000E+00 0.  1.
         11    1    3    3    0    0 -0.40902897468E+00  0.14556530200E+02  0.74924704621E+01  0.16376720980E+02  0.51100000000E-03 0. -1.
        -11    1    3    3    0    0  0.71053166238E+01  0.45710472498E+01  0.10026393049E+02  0.13111390282E+02  0.51100000000E-03 0.  1.
        -12    1    3    3    0    0  0.11858256055E+02  0.15652349456E+02 -0.75563887065E+01  0.21040753087E+02  0.00000000000E+00 0.  1.
</event>
<event>
 7    1  0.5601662E-013  0.5052886E+02  0.7816164E-02  0.1300439E+00
        -11   -1    0    0    0    0  0.00000000000E+00  0.00000000000E+00  0.45593999997E+02  0.45594000000E+02  0.51100000000E-03 0.  1.
         11   -1    0    0    0    0 -0.00000000000E+00 -0.00000000000E+00 -0.45593999997E+02  0.45594000000E+02  0.51100000000E-03 0. -1.
    9900012    2    1    2    0    0  0.21888191711E+02  0.21309900031E+02 -0.26832081934E+02  0.50528863307E+02  0.30000010507E+02 0.  0.
        -12    1    1    2    0    0 -0.21888191711E+02 -0.21309900031E+02  0.26832081934E+02  0.40659136693E+02  0.00000000000E+00 0.  1.
         11    1    3    3    0    0 -0.25331595725E+01  0.41556782186E+01 -0.62757738577E+01  0.79417817051E+01  0.51100000000E-03 0. -1.
        -11    1    3    3    0    0 -0.11658016764E+01 -0.39539870719E+01 -0.20556799780E+01  0.46064007367E+01  0.51100000000E-03 0.  1.
        -12    1    3    3    0    0  0.25587152960E+02  0.21108208885E+02 -0.18500628098E+02  0.37980680865E+02  0.00000000000E+00 0.  1.
</event>
<event>
 7    1  0.5601662E-013  0.5052886E+02  0.7816164E-02  0.1300439E+00
        -11   -1    0    0    0    0  0.00000000000E+00  0.00000000000E+00  0.45593999997E+02  0.45594000000E+02  0.51100000000E-03 0.  1.
         11   -1    0    0    0    0 -0.00000000000E+00 -0.00000000000E+00 -0.45593999997E+02  0.45594000000E+02  0.51100000000E-03 0. -1.
    9900012    2    1    2    0    0 -0.35264988441E+02  0.17645120295E+02 -0.99093732814E+01  0.50528863772E+02  0.30000011921E+02 0.  0.
        -12    1    1    2    0    0  0.35264988441E+02 -0.17645120295E+02  0.99093732814E+01  0.40659136228E+02  0.00000000000E+00 0.  1.
         11    1    3    3    0    0 -0.14960960462E+02  0.11294265762E+02 -0.10922956454E+02  0.21695662124E+02  0.51100000000E-03 0. -1.
        -11    1    3    3    0    0 -0.29993039789E+01 -0.58714709878E+01 -0.30446167582E+01  0.72622095387E+01  0.51100000000E-03 0.  1.
         12    1    3    3    0    0 -0.17304724000E+02  0.12222325522E+02  0.40581999311E+01  0.21570992109E+02  0.00000000000E+00 0. -1.
</event>
<event>
 7    1  0.5601662E-013  0.5052885E+02  0.7816164E-02  0.1300439E+00
        -11   -1    0    0    0    0  0.00000000000E+00  0.00000000000E+00  0.45593999997E+02  0.45594000000E+02  0.51100000000E-03 0.  1.
         11   -1    0    0    0    0 -0.00000000000E+00 -0.00000000000E+00 -0.45593999997E+02  0.45594000000E+02  0.51100000000E-03 0. -1.
    9900012    2    1    2    0    0  0.19782196296E+02 -0.32336354679E+02 -0.14703453219E+02  0.50528847761E+02  0.29999963255E+02 0.  0.
        -12    1    1    2    0    0 -0.19782196296E+02  0.32336354679E+02  0.14703453219E+02  0.40659152239E+02  0.00000000000E+00 0.  1.
         11    1    3    3    0    0  0.53576503614E+01 -0.71853549206E+01 -0.42147950402E+01  0.99044555742E+01  0.51100000000E-03 0. -1.
        -11    1    3    3    0    0  0.20763062316E+02 -0.11729610467E+02 -0.31115032915E+01  0.24049323721E+02  0.51100000000E-03 0.  1.
        -12    1    3    3    0    0 -0.63385163811E+01 -0.13421389292E+02 -0.73771548876E+01  0.16575068466E+02  0.00000000000E+00 0.  1.
</event>
<event>
 7    1  0.5601662E-013  0.5052886E+02  0.7816164E-02  0.1300439E+00
        -11   -1    0    0    0    0  0.00000000000E+00  0.00000000000E+00  0.45593999997E+02  0.45594000000E+02  0.51100000000E-03 0.  1.
         11   -1    0    0    0    0 -0.00000000000E+00 -0.00000000000E+00 -0.45593999997E+02  0.45594000000E+02  0.51100000000E-03 0. -1.
    9900012    2    1    2    0    0 -0.81585722290E+01  0.27238877905E+02 -0.29062812945E+02  0.50528857528E+02  0.29999992941E+02 0.  0.
        -12    1    1    2    0    0  0.81585722290E+01 -0.27238877905E+02  0.29062812945E+02  0.40659142472E+02  0.00000000000E+00 0.  1.
         11    1    3    3    0    0 -0.70077027723E+01  0.18963193860E+02 -0.26705222588E+02  0.33494470189E+02  0.51100000000E-03 0.  1.
        -11    1    3    3    0    0 -0.58436652728E+01  0.69930937241E+01 -0.60398440820E+01  0.10933046257E+02  0.51100000000E-03 0. -1.
        -12    1    3    3    0    0  0.46927958160E+01  0.12825903208E+01  0.36822537251E+01  0.61013410819E+01  0.00000000000E+00 0.  1.
</event>
<event>
 7    1  0.5601662E-013  0.5052886E+02  0.7816164E-02  0.1300439E+00
        -11   -1    0    0    0    0  0.00000000000E+00  0.00000000000E+00  0.45593999997E+02  0.45594000000E+02  0.51100000000E-03 0. -1.
         11   -1    0    0    0    0 -0.00000000000E+00 -0.00000000000E+00 -0.45593999997E+02  0.45594000000E+02  0.51100000000E-03 0.  1.
    9900012    2    1    2    0    0 -0.34979044469E+01  0.32705217536E+02  0.23901856162E+02  0.50528864278E+02  0.30000013461E+02 0.  0.
        -12    1    1    2    0    0  0.34979044469E+01 -0.32705217536E+02 -0.23901856162E+02  0.40659135722E+02  0.00000000000E+00 0.  1.
         11    1    3    3    0    0 -0.19126978378E+01  0.19016460941E+02  0.11286744963E+02  0.22196279235E+02  0.51100000000E-03 0. -1.
        -11    1    3    3    0    0 -0.10839144657E+02  0.11332152564E+02  0.63893216462E+01  0.16933049636E+02  0.51100000000E-03 0.  1.
        -12    1    3    3    0    0  0.92539380475E+01  0.23566040310E+01  0.62257895525E+01  0.11399535407E+02  0.00000000000E+00 0.  1.
</event>
<event>
 7    1  0.5601662E-013  0.5052885E+02  0.7816164E-02  0.1300439E+00
        -11   -1    0    0    0    0  0.00000000000E+00  0.00000000000E+00  0.45593999997E+02  0.45594000000E+02  0.51100000000E-03 0.  1.
         11   -1    0    0    0    0 -0.00000000000E+00 -0.00000000000E+00 -0.45593999997E+02  0.45594000000E+02  0.51100000000E-03 0. -1.
    9900012    2    1    2    0    0 -0.18789338754E+02  0.12413093147E+02 -0.33853241525E+02  0.50528854731E+02  0.29999984439E+02 0.  0.
        -12    1    1    2    0    0  0.18789338754E+02 -0.12413093147E+02  0.33853241525E+02  0.40659145269E+02  0.00000000000E+00 0.  1.
         11    1    3    3    0    0  0.48779743172E+01  0.22419748412E+01 -0.56977464643E+01  0.78284991959E+01  0.51100000000E-03 0. -1.
        -11    1    3    3    0    0  0.23492974886E+01  0.49454039372E+01 -0.60838880818E+01  0.81847366020E+01  0.51100000000E-03 0.  1.
        -12    1    3    3    0    0 -0.26016610559E+02  0.52257143689E+01 -0.22071606979E+02  0.34515618933E+02  0.00000000000E+00 0.  1.
</event>
<event>
 7    1  0.5601662E-013  0.5052885E+02  0.7816164E-02  0.1300439E+00
        -11   -1    0    0    0    0  0.00000000000E+00  0.00000000000E+00  0.45593999997E+02  0.45594000000E+02  0.51100000000E-03 0.  1.
         11   -1    0    0    0    0 -0.00000000000E+00 -0.00000000000E+00 -0.45593999997E+02  0.45594000000E+02  0.51100000000E-03 0. -1.
    9900012    2    1    2    0    0  0.13737197881E+02 -0.15594038651E+02 -0.34946841737E+02  0.50528851036E+02  0.29999973208E+02 0.  0.
        -12    1    1    2    0    0 -0.13737197881E+02  0.15594038651E+02  0.34946841737E+02  0.40659148964E+02  0.00000000000E+00 0.  1.
         11    1    3    3    0    0  0.72589036535E+01 -0.90815013295E+01 -0.20709146566E+00  0.11627907627E+02  0.51100000000E-03 0. -1.
        -11    1    3    3    0    0  0.26972854730E+01  0.41585245982E+01 -0.48320859562E+01  0.69222634092E+01  0.51100000000E-03 0.  1.
         12    1    3    3    0    0  0.37810087550E+01 -0.10671061920E+02 -0.29907664315E+02  0.31978679999E+02  0.00000000000E+00 0. -1.
</event>
<event>
 7    1  0.5601662E-013  0.5052887E+02  0.7816164E-02  0.1300439E+00
        -11   -1    0    0    0    0  0.00000000000E+00  0.00000000000E+00  0.45593999997E+02  0.45594000000E+02  0.51100000000E-03 0.  1.
         11   -1    0    0    0    0 -0.00000000000E+00 -0.00000000000E+00 -0.45593999997E+02  0.45594000000E+02  0.51100000000E-03 0. -1.
    9900012    2    1    2    0    0 -0.19771220009E+02  0.32229455974E+02 -0.14950795065E+02  0.50528865158E+02  0.30000016135E+02 0.  0.
        -12    1    1    2    0    0  0.19771220009E+02 -0.32229455974E+02  0.14950795065E+02  0.40659134842E+02  0.00000000000E+00 0.  1.
         11    1    3    3    0    0 -0.13691732841E+02  0.22852056540E+02 -0.21192265625E+02  0.34041036395E+02  0.51100000000E-03 0. -1.
        -11    1    3    3    0    0 -0.10029660978E+01  0.41732718187E+01 -0.26178046562E+01  0.50274287807E+01  0.51100000000E-03 0.  1.
        -12    1    3    3    0    0 -0.50765210700E+01  0.52041276151E+01  0.88592752154E+01  0.11460399982E+02  0.00000000000E+00 0.  1.
</event>
<event>
 7    1  0.5601662E-013  0.5052884E+02  0.7816164E-02  0.1300439E+00
        -11   -1    0    0    0    0  0.00000000000E+00  0.00000000000E+00  0.45593999997E+02  0.45594000000E+02  0.51100000000E-03 0. -1.
         11   -1    0    0    0    0 -0.00000000000E+00 -0.00000000000E+00 -0.45593999997E+02  0.45594000000E+02  0.51100000000E-03 0.  1.
    9900012    2    1    2    0    0 -0.23126221690E+02  0.92310686299E+01  0.32142373141E+02  0.50528844711E+02  0.29999953982E+02 0.  0.
        -12    1    1    2    0    0  0.23126221690E+02 -0.92310686299E+01 -0.32142373141E+02  0.40659155289E+02  0.00000000000E+00 0.  1.
         11    1    3    3    0    0  0.43493280616E+01  0.28722223988E+01  0.35133408519E+01  0.62856885302E+01  0.51100000000E-03 0.  1.
        -11    1    3    3    0    0 -0.25366867773E+02  0.11112166739E+02  0.27274140490E+02  0.38869486361E+02  0.51100000000E-03 0. -1.
         12    1    3    3    0    0 -0.21086819780E+01 -0.47533205078E+01  0.13548917992E+01  0.53736698188E+01  0.00000000000E+00 0. -1.
</event>
<event>
 7    1  0.5601662E-013  0.5052886E+02  0.7816164E-02  0.1300439E+00
        -11   -1    0    0    0    0  0.00000000000E+00  0.00000000000E+00  0.45593999997E+02  0.45594000000E+02  0.51100000000E-03 0. -1.
         11   -1    0    0    0    0 -0.00000000000E+00 -0.00000000000E+00 -0.45593999997E+02  0.45594000000E+02  0.51100000000E-03 0.  1.
    9900012    2    1    2    0    0 -0.26731327277E+02  0.14458966118E+02  0.27010003041E+02  0.50528858058E+02  0.29999994553E+02 0.  0.
        -12    1    1    2    0    0  0.26731327277E+02 -0.14458966118E+02 -0.27010003041E+02  0.40659141942E+02  0.00000000000E+00 0.  1.
         11    1    3    3    0    0 -0.18884942219E+02  0.14448001470E+02  0.22370105780E+02  0.32646706142E+02  0.51100000000E-03 0. -1.
        -11    1    3    3    0    0 -0.40817773615E+01  0.73709119601E+01  0.48375209006E-01  0.84257693996E+01  0.51100000000E-03 0.  1.
        -12    1    3    3    0    0 -0.37646076971E+01 -0.73599473116E+01  0.45915220514E+01  0.94563825161E+01  0.00000000000E+00 0.  1.
</event>
<event>
 7    1  0.5601662E-013  0.5052881E+02  0.7816164E-02  0.1300439E+00
        -11   -1    0    0    0    0  0.00000000000E+00  0.00000000000E+00  0.45593999997E+02  0.45594000000E+02  0.51100000000E-03 0.  1.
         11   -1    0    0    0    0 -0.00000000000E+00 -0.00000000000E+00 -0.45593999997E+02  0.45594000000E+02  0.51100000000E-03 0. -1.
    9900012    2    1    2    0    0 -0.14635079129E+02  0.26055753901E+02 -0.27569582627E+02  0.50528809911E+02  0.29999848206E+02 0.  0.
        -12    1    1    2    0    0  0.14635079129E+02 -0.26055753901E+02  0.27569582627E+02  0.40659190089E+02  0.00000000000E+00 0.  1.
         11    1    3    3    0    0 -0.17645686135E+01 -0.19993945622E+01 -0.10943802951E+01  0.28825248478E+01  0.51100000000E-03 0.  1.
        -11    1    3    3    0    0 -0.11462311183E+02  0.20226653836E+01 -0.18520699361E+01  0.11785835406E+02  0.51100000000E-03 0. -1.
         12    1    3    3    0    0 -0.14081993321E+01  0.26032483079E+02 -0.24623132396E+02  0.35860449657E+02  0.00000000000E+00 0. -1.
</event>
<event>
 7    1  0.5601662E-013  0.5052886E+02  0.7816164E-02  0.1300439E+00
        -11   -1    0    0    0    0  0.00000000000E+00  0.00000000000E+00  0.45593999997E+02  0.45594000000E+02  0.51100000000E-03 0. -1.
         11   -1    0    0    0    0 -0.00000000000E+00 -0.00000000000E+00 -0.45593999997E+02  0.45594000000E+02  0.51100000000E-03 0.  1.
    9900012    2    1    2    0    0 -0.15621442711E+02 -0.17293485744E+02  0.33317730881E+02  0.50528864340E+02  0.30000013649E+02 0.  0.
        -12    1    1    2    0    0  0.15621442711E+02  0.17293485744E+02 -0.33317730881E+02  0.40659135660E+02  0.00000000000E+00 0.  1.
         11    1    3    3    0    0 -0.98883261870E+01 -0.10039762139E+01  0.13232186486E+02  0.16549251417E+02  0.51100000000E-03 0. -1.
        -11    1    3    3    0    0 -0.62977417842E+01  0.21706227431E+01  0.12195337349E+02  0.13896021301E+02  0.51100000000E-03 0.  1.
        -12    1    3    3    0    0  0.56462525975E+00 -0.18460132273E+02  0.78902070455E+01  0.20083591622E+02  0.00000000000E+00 0.  1.
</event>
<event>
 7    1  0.5601662E-013  0.5052886E+02  0.7816164E-02  0.1300439E+00
        -11   -1    0    0    0    0  0.00000000000E+00  0.00000000000E+00  0.45593999997E+02  0.45594000000E+02  0.51100000000E-03 0.  1.
         11   -1    0    0    0    0 -0.00000000000E+00 -0.00000000000E+00 -0.45593999997E+02  0.45594000000E+02  0.51100000000E-03 0. -1.
    9900012    2    1    2    0    0  0.18966149302E+02 -0.40107586537E+00 -0.35962336854E+02  0.50528863841E+02  0.30000012132E+02 0.  0.
        -12    1    1    2    0    0 -0.18966149302E+02  0.40107586537E+00  0.35962336854E+02  0.40659136159E+02  0.00000000000E+00 0.  1.
         11    1    3    3    0    0 -0.31562783071E+01 -0.71182508744E+01 -0.29729148249E+01  0.83348551925E+01  0.51100000000E-03 0. -1.
        -11    1    3    3    0    0  0.53422488635E+01  0.23759105289E+01 -0.11737846388E+01  0.59634171748E+01  0.51100000000E-03 0.  1.
         12    1    3    3    0    0  0.16780178745E+02  0.43412644802E+01 -0.31815637390E+02  0.36230591474E+02  0.00000000000E+00 0. -1.
</event>
<event>
 7    1  0.5601662E-013  0.5052886E+02  0.7816164E-02  0.1300439E+00
        -11   -1    0    0    0    0  0.00000000000E+00  0.00000000000E+00  0.45593999997E+02  0.45594000000E+02  0.51100000000E-03 0.  1.
         11   -1    0    0    0    0 -0.00000000000E+00 -0.00000000000E+00 -0.45593999997E+02  0.45594000000E+02  0.51100000000E-03 0. -1.
    9900012    2    1    2    0    0  0.52945052450E+00  0.40651105724E+02 -0.61071748472E+00  0.50528859696E+02  0.29999999531E+02 0.  0.
        -12    1    1    2    0    0 -0.52945052450E+00 -0.40651105724E+02  0.61071748472E+00  0.40659140304E+02  0.00000000000E+00 0.  1.
         11    1    3    3    0    0 -0.40594242496E+01 -0.61219454126E+00 -0.79863433539E+00  0.41822869889E+01  0.51100000000E-03 0. -1.
        -11    1    3    3    0    0 -0.46798075960E+01  0.92678068519E+00  0.12974779121E+01  0.49439832896E+01  0.51100000000E-03 0.  1.
         12    1    3    3    0    0  0.92686823701E+01  0.40336519580E+02 -0.11095610614E+01  0.41402589417E+02  0.00000000000E+00 0. -1.
</event>
<event>
 7    1  0.5601662E-013  0.5052887E+02  0.7816164E-02  0.1300439E+00
        -11   -1    0    0    0    0  0.00000000000E+00  0.00000000000E+00  0.45593999997E+02  0.45594000000E+02  0.51100000000E-03 0. -1.
         11   -1    0    0    0    0 -0.00000000000E+00 -0.00000000000E+00 -0.45593999997E+02  0.45594000000E+02  0.51100000000E-03 0.  1.
    9900012    2    1    2    0    0  0.12165954511E+02  0.31594210163E+02  0.22515784070E+02  0.50528866988E+02  0.30000021696E+02 0.  0.
        -12    1    1    2    0    0 -0.12165954511E+02 -0.31594210163E+02 -0.22515784070E+02  0.40659133012E+02  0.00000000000E+00 0.  1.
         11    1    3    3    0    0  0.18614158907E+01  0.24052290898E+02  0.16852287674E+02  0.29427489983E+02  0.51100000000E-03 0. -1.
        -11    1    3    3    0    0  0.15852106006E+01  0.10647936434E+02  0.48571110589E+01  0.11810290896E+02  0.51100000000E-03 0.  1.
        -12    1    3    3    0    0  0.87193280202E+01 -0.31060171690E+01  0.80638533751E+00  0.92910861093E+01  0.00000000000E+00 0.  1.
</event>
<event>
 7    1  0.5601662E-013  0.5052887E+02  0.7816164E-02  0.1300439E+00
        -11   -1    0    0    0    0  0.00000000000E+00  0.00000000000E+00  0.45593999997E+02  0.45594000000E+02  0.51100000000E-03 0. -1.
         11   -1    0    0    0    0 -0.00000000000E+00 -0.00000000000E+00 -0.45593999997E+02  0.45594000000E+02  0.51100000000E-03 0.  1.
    9900012    2    1    2    0    0 -0.10511297364E+02 -0.39114110951E+02 -0.35726987978E+01  0.50528865424E+02  0.30000016942E+02 0.  0.
        -12    1    1    2    0    0  0.10511297364E+02  0.39114110951E+02  0.35726987978E+01  0.40659134576E+02  0.00000000000E+00 0.  1.
         11    1    3    3    0    0 -0.49631426936E-03 -0.29093906054E+00  0.44868182333E+01  0.44962410860E+01  0.51100000000E-03 0.  1.
        -11    1    3    3    0    0 -0.16166840171E+02 -0.22612554889E+02 -0.77631340955E+01  0.28861056997E+02  0.51100000000E-03 0. -1.
         12    1    3    3    0    0  0.56560391203E+01 -0.16210617001E+02 -0.29638293566E+00  0.17171567341E+02  0.00000000000E+00 0. -1.
</event>
<event>
 7    1  0.5601662E-013  0.5052886E+02  0.7816164E-02  0.1300439E+00
        -11   -1    0    0    0    0  0.00000000000E+00  0.00000000000E+00  0.45593999997E+02  0.45594000000E+02  0.51100000000E-03 0. -1.
         11   -1    0    0    0    0 -0.00000000000E+00 -0.00000000000E+00 -0.45593999997E+02  0.45594000000E+02  0.51100000000E-03 0.  1.
    9900012    2    1    2    0    0 -0.22049716830E+02  0.59422144296E+01  0.33640240134E+02  0.50528859811E+02  0.29999999881E+02 0.  0.
        -12    1    1    2    0    0  0.22049716830E+02 -0.59422144296E+01 -0.33640240134E+02  0.40659140189E+02  0.00000000000E+00 0.  1.
         11    1    3    3    0    0 -0.21818228356E+02  0.10996295827E+02  0.22058449646E+02  0.32916998823E+02  0.51100000000E-03 0. -1.
        -11    1    3    3    0    0 -0.43245307174E+01 -0.43642073202E+01  0.11958055793E+02  0.13444068211E+02  0.51100000000E-03 0.  1.
        -12    1    3    3    0    0  0.40930422433E+01 -0.68987407671E+00 -0.37626530453E+00  0.41677927763E+01  0.00000000000E+00 0.  1.
</event>
<event>
 7    1  0.5601662E-013  0.5052886E+02  0.7816164E-02  0.1300439E+00
        -11   -1    0    0    0    0  0.00000000000E+00  0.00000000000E+00  0.45593999997E+02  0.45594000000E+02  0.51100000000E-03 0. -1.
         11   -1    0    0    0    0 -0.00000000000E+00 -0.00000000000E+00 -0.45593999997E+02  0.45594000000E+02  0.51100000000E-03 0.  1.
    9900012    2    1    2    0    0 -0.38106481815E+02 -0.14014960379E+02 -0.21547140380E+01  0.50528857568E+02  0.29999993064E+02 0.  0.
        -12    1    1    2    0    0  0.38106481815E+02  0.14014960379E+02  0.21547140380E+01  0.40659142432E+02  0.00000000000E+00 0.  1.
         11    1    3    3    0    0 -0.10939784184E+02  0.76229149192E+00  0.74232952909E+01  0.13242555628E+02  0.51100000000E-03 0.  1.
        -11    1    3    3    0    0 -0.10351875862E+02 -0.77921808924E+01 -0.13445154193E+02  0.18672214343E+02  0.51100000000E-03 0. -1.
         12    1    3    3    0    0 -0.16814821769E+02 -0.69850709786E+01  0.38671448644E+01  0.18614087598E+02  0.00000000000E+00 0. -1.
</event>
<event>
 7    1  0.5601662E-013  0.5052886E+02  0.7816164E-02  0.1300439E+00
        -11   -1    0    0    0    0  0.00000000000E+00  0.00000000000E+00  0.45593999997E+02  0.45594000000E+02  0.51100000000E-03 0.  1.
         11   -1    0    0    0    0 -0.00000000000E+00 -0.00000000000E+00 -0.45593999997E+02  0.45594000000E+02  0.51100000000E-03 0. -1.
    9900012    2    1    2    0    0 -0.20575037666E+02 -0.31730859097E+02 -0.14932717676E+02  0.50528860176E+02  0.30000000992E+02 0.  0.
        -12    1    1    2    0    0  0.20575037666E+02  0.31730859097E+02  0.14932717676E+02  0.40659139824E+02  0.00000000000E+00 0.  1.
         11    1    3    3    0    0  0.17421070647E+01  0.29634591906E+01 -0.36829910081E+00  0.34572636417E+01  0.51100000000E-03 0. -1.
        -11    1    3    3    0    0 -0.14816531282E+01 -0.42207444092E+01  0.37734518387E+01  0.58522575474E+01  0.51100000000E-03 0.  1.
        -12    1    3    3    0    0 -0.20835491602E+02 -0.30473573879E+02 -0.18337870414E+02  0.41219338987E+02  0.00000000000E+00 0.  1.
</event>
<event>
 7    1  0.5601662E-013  0.5052885E+02  0.7816164E-02  0.1300439E+00
        -11   -1    0    0    0    0  0.00000000000E+00  0.00000000000E+00  0.45593999997E+02  0.45594000000E+02  0.51100000000E-03 0. -1.
         11   -1    0    0    0    0 -0.00000000000E+00 -0.00000000000E+00 -0.45593999997E+02  0.45594000000E+02  0.51100000000E-03 0.  1.
    9900012    2    1    2    0    0  0.90718556375E+01  0.33560495162E+02  0.21084626017E+02  0.50528845379E+02  0.29999956015E+02 0.  0.
        -12    1    1    2    0    0 -0.90718556375E+01 -0.33560495162E+02 -0.21084626017E+02  0.40659154621E+02  0.00000000000E+00 0.  1.
         11    1    3    3    0    0  0.10298493648E+02  0.98542371904E+01  0.13223341570E+02  0.19442780783E+02  0.51100000000E-03 0. -1.
        -11    1    3    3    0    0  0.84702406003E+01  0.12831782163E+02  0.25902490903E+01  0.15591953050E+02  0.51100000000E-03 0.  1.
        -12    1    3    3    0    0 -0.96968786105E+01  0.10874475808E+02  0.52710353563E+01  0.15494111546E+02  0.00000000000E+00 0.  1.
</event>
<event>
 7    1  0.5601662E-013  0.5052887E+02  0.7816164E-02  0.1300439E+00
        -11   -1    0    0    0    0  0.00000000000E+00  0.00000000000E+00  0.45593999997E+02  0.45594000000E+02  0.51100000000E-03 0. -1.
         11   -1    0    0    0    0 -0.00000000000E+00 -0.00000000000E+00 -0.45593999997E+02  0.45594000000E+02  0.51100000000E-03 0.  1.
    9900012    2    1    2    0    0 -0.34433100979E+02 -0.21412988445E+02 -0.30017770416E+01  0.50528865940E+02  0.30000018510E+02 0.  0.
        -12    1    1    2    0    0  0.34433100979E+02  0.21412988445E+02  0.30017770416E+01  0.40659134060E+02  0.00000000000E+00 0.  1.
         11    1    3    3    0    0 -0.16349892907E+02 -0.18287092302E+02 -0.92232437450E+00  0.24547656210E+02  0.51100000000E-03 0. -1.
        -11    1    3    3    0    0 -0.14663683069E+01 -0.83510636738E+01 -0.66289656128E+00  0.85047006184E+01  0.51100000000E-03 0.  1.
        -12    1    3    3    0    0 -0.16616839765E+02  0.52251675307E+01 -0.14165561058E+01  0.17476509111E+02  0.00000000000E+00 0.  1.
</event>
<event>
 7    1  0.5601662E-013  0.5052886E+02  0.7816164E-02  0.1300439E+00
        -11   -1    0    0    0    0  0.00000000000E+00  0.00000000000E+00  0.45593999997E+02  0.45594000000E+02  0.51100000000E-03 0. -1.
         11   -1    0    0    0    0 -0.00000000000E+00 -0.00000000000E+00 -0.45593999997E+02  0.45594000000E+02  0.51100000000E-03 0.  1.
    9900012    2    1    2    0    0  0.37860065471E+02  0.47315991554E+01 -0.14049659966E+02  0.50528861627E+02  0.30000005402E+02 0.  0.
        -12    1    1    2    0    0 -0.37860065471E+02 -0.47315991554E+01  0.14049659966E+02  0.40659138373E+02  0.00000000000E+00 0.  1.
         11    1    3    3    0    0  0.23874291627E+02  0.11263437220E+02 -0.10796659379E+02  0.28520425535E+02  0.51100000000E-03 0. -1.
        -11    1    3    3    0    0  0.69559292890E+01  0.44842029482E+01 -0.33804972235E+01  0.89398428450E+01  0.51100000000E-03 0.  1.
         12    1    3    3    0    0  0.70298445555E+01 -0.11016041013E+02  0.12749663674E+00  0.13068593247E+02  0.00000000000E+00 0. -1.
</event>
<event>
 7    1  0.5601662E-013  0.5052886E+02  0.7816164E-02  0.1300439E+00
        -11   -1    0    0    0    0  0.00000000000E+00  0.00000000000E+00  0.45593999997E+02  0.45594000000E+02  0.51100000000E-03 0.  1.
         11   -1    0    0    0    0 -0.00000000000E+00 -0.00000000000E+00 -0.45593999997E+02  0.45594000000E+02  0.51100000000E-03 0. -1.
    9900012    2    1    2    0    0  0.22406583398E+02 -0.11095319642E+02 -0.32062513095E+02  0.50528857812E+02  0.29999993804E+02 0.  0.
        -12    1    1    2    0    0 -0.22406583398E+02  0.11095319642E+02  0.32062513095E+02  0.40659142188E+02  0.00000000000E+00 0.  1.
         11    1    3    3    0    0  0.14974077534E+02  0.36677642358E+01 -0.12138396927E+02  0.19621828985E+02  0.51100000000E-03 0. -1.
        -11    1    3    3    0    0 -0.63301532013E+00  0.39811509061E+00 -0.11949182415E+02  0.11972558819E+02  0.51100000000E-03 0.  1.
        -12    1    3    3    0    0  0.80655211832E+01 -0.15161198968E+02 -0.79749337535E+01  0.18934470008E+02  0.00000000000E+00 0.  1.
</event>
<event>
 7    1  0.5601662E-013  0.5052886E+02  0.7816164E-02  0.1300439E+00
        -11   -1    0    0    0    0  0.00000000000E+00  0.00000000000E+00  0.45593999997E+02  0.45594000000E+02  0.51100000000E-03 0.  1.
         11   -1    0    0    0    0 -0.00000000000E+00 -0.00000000000E+00 -0.45593999997E+02  0.45594000000E+02  0.51100000000E-03 0. -1.
    9900012    2    1    2    0    0  0.29359809990E+02 -0.26968671802E+02 -0.79911417471E+01  0.50528855299E+02  0.29999986166E+02 0.  0.
        -12    1    1    2    0    0 -0.29359809990E+02  0.26968671802E+02  0.79911417471E+01  0.40659144701E+02  0.00000000000E+00 0.  1.
         11    1    3    3    0    0  0.96179300674E+01 -0.23829704739E+02  0.17631700876E+00  0.25698064025E+02  0.51100000000E-03 0. -1.
        -11    1    3    3    0    0  0.50065950587E+01 -0.64056747501E+01 -0.12409477802E+01  0.82242698606E+01  0.51100000000E-03 0.  1.
        -12    1    3    3    0    0  0.14735284864E+02  0.32667076863E+01 -0.69265109757E+01  0.16606521412E+02  0.00000000000E+00 0.  1.
</event>
<event>
 7    1  0.5601662E-013  0.5052886E+02  0.7816164E-02  0.1300439E+00
        -11   -1    0    0    0    0  0.00000000000E+00  0.00000000000E+00  0.45593999997E+02  0.45594000000E+02  0.51100000000E-03 0.  1.
         11   -1    0    0    0    0 -0.00000000000E+00 -0.00000000000E+00 -0.45593999997E+02  0.45594000000E+02  0.51100000000E-03 0. -1.
    9900012    2    1    2    0    0 -0.27578783462E+02 -0.20811514622E+02 -0.21434948650E+02  0.50528862507E+02  0.30000008075E+02 0.  0.
        -12    1    1    2    0    0  0.27578783462E+02  0.20811514622E+02  0.21434948650E+02  0.40659137493E+02  0.00000000000E+00 0.  1.
         11    1    3    3    0    0 -0.24473605005E+02 -0.46184540958E+01 -0.13779144595E+02  0.28463174212E+02  0.51100000000E-03 0. -1.
        -11    1    3    3    0    0 -0.56946568151E+01 -0.14246570340E+02 -0.97775197502E+01  0.18193234331E+02  0.51100000000E-03 0.  1.
        -12    1    3    3    0    0  0.25894783585E+01 -0.19464901860E+01  0.21217156952E+01  0.38724539641E+01  0.00000000000E+00 0.  1.
</event>
<event>
 7    1  0.5601662E-013  0.5052887E+02  0.7816164E-02  0.1300439E+00
        -11   -1    0    0    0    0  0.00000000000E+00  0.00000000000E+00  0.45593999997E+02  0.45594000000E+02  0.51100000000E-03 0. -1.
         11   -1    0    0    0    0 -0.00000000000E+00 -0.00000000000E+00 -0.45593999997E+02  0.45594000000E+02  0.51100000000E-03 0.  1.
    9900012    2    1    2    0    0  0.31862826750E+02  0.14282578672E+02 -0.20831053946E+02  0.50528873220E+02  0.30000040639E+02 0.  0.
        -12    1    1    2    0    0 -0.31862826750E+02 -0.14282578672E+02  0.20831053946E+02  0.40659126780E+02  0.00000000000E+00 0.  1.
         11    1    3    3    0    0  0.10582450467E+02  0.61955111994E+01 -0.19028244288E+02  0.22637285567E+02  0.51100000000E-03 0. -1.
        -11    1    3    3    0    0  0.27255251434E+01 -0.44808229212E+01  0.89062668176E+00  0.53197253224E+01  0.51100000000E-03 0.  1.
         12    1    3    3    0    0  0.18554851139E+02  0.12567890394E+02 -0.26934363404E+01  0.22571862330E+02  0.00000000000E+00 0. -1.
</event>
<event>
 7    1  0.5601662E-013  0.5052886E+02  0.7816164E-02  0.1300439E+00
        -11   -1    0    0    0    0  0.00000000000E+00  0.00000000000E+00  0.45593999997E+02  0.45594000000E+02  0.51100000000E-03 0.  1.
         11   -1    0    0    0    0 -0.00000000000E+00 -0.00000000000E+00 -0.45593999997E+02  0.45594000000E+02  0.51100000000E-03 0. -1.
    9900012    2    1    2    0    0 -0.68855788045E+01  0.41908894833E+01 -0.39852115201E+02  0.50528857902E+02  0.29999994079E+02 0.  0.
        -12    1    1    2    0    0  0.68855788045E+01 -0.41908894833E+01  0.39852115201E+02  0.40659142098E+02  0.00000000000E+00 0.  1.
         11    1    3    3    0    0  0.14861971421E+01 -0.96277300895E+01 -0.90246083180E+01  0.13279515209E+02  0.51100000000E-03 0. -1.
        -11    1    3    3    0    0 -0.69828551345E+01  0.92939185249E+01 -0.84364968532E+01  0.14363553418E+02  0.51100000000E-03 0.  1.
         12    1    3    3    0    0 -0.13889208120E+01  0.45247010478E+01 -0.22391010030E+02  0.22885789275E+02  0.00000000000E+00 0. -1.
</event>
<event>
 7    1  0.5601662E-013  0.5052886E+02  0.7816164E-02  0.1300439E+00
        -11   -1    0    0    0    0  0.00000000000E+00  0.00000000000E+00  0.45593999997E+02  0.45594000000E+02  0.51100000000E-03 0.  1.
         11   -1    0    0    0    0 -0.00000000000E+00 -0.00000000000E+00 -0.45593999997E+02  0.45594000000E+02  0.51100000000E-03 0. -1.
    9900012    2    1    2    0    0 -0.38651091442E+02  0.36423354073E+00  0.12614528759E+02  0.50528857466E+02  0.29999992755E+02 0.  0.
        -12    1    1    2    0    0  0.38651091442E+02 -0.36423354073E+00 -0.12614528759E+02  0.40659142534E+02  0.00000000000E+00 0.  1.
         11    1    3    3    0    0 -0.82732046241E+01  0.20247828192E+01  0.69157746526E+01  0.10971490305E+02  0.51100000000E-03 0. -1.
        -11    1    3    3    0    0 -0.13758621453E+01  0.43314881795E+01  0.86752484478E+01  0.97936061992E+01  0.51100000000E-03 0.  1.
         12    1    3    3    0    0 -0.29002024673E+02 -0.59920374579E+01 -0.29764943415E+01  0.29763760962E+02  0.00000000000E+00 0. -1.
</event>
<event>
 7    1  0.5601662E-013  0.5052887E+02  0.7816164E-02  0.1300439E+00
        -11   -1    0    0    0    0  0.00000000000E+00  0.00000000000E+00  0.45593999997E+02  0.45594000000E+02  0.51100000000E-03 0.  1.
         11   -1    0    0    0    0 -0.00000000000E+00 -0.00000000000E+00 -0.45593999997E+02  0.45594000000E+02  0.51100000000E-03 0. -1.
    9900012    2    1    2    0    0  0.16807255303E+02 -0.67343399569E+01 -0.36405079956E+02  0.50528868035E+02  0.30000024880E+02 0.  0.
        -12    1    1    2    0    0 -0.16807255303E+02  0.67343399569E+01  0.36405079956E+02  0.40659131965E+02  0.00000000000E+00 0.  1.
         11    1    3    3    0    0  0.34727920302E+01 -0.12388747213E+02 -0.63713212199E+01  0.14357404931E+02  0.51100000000E-03 0. -1.
        -11    1    3    3    0    0 -0.19521319171E+01 -0.69320881546E+00 -0.23578569403E+00  0.20849346844E+01  0.51100000000E-03 0.  1.
         12    1    3    3    0    0  0.15286595190E+02  0.63476160718E+01 -0.29797973042E+02  0.34086528420E+02  0.00000000000E+00 0. -1.
</event>
<event>
 7    1  0.5601662E-013  0.5052900E+02  0.7816164E-02  0.1300438E+00
        -11   -1    0    0    0    0  0.00000000000E+00  0.00000000000E+00  0.45593999997E+02  0.45594000000E+02  0.51100000000E-03 0. -1.
         11   -1    0    0    0    0 -0.00000000000E+00 -0.00000000000E+00 -0.45593999997E+02  0.45594000000E+02  0.51100000000E-03 0.  1.
    9900012    2    1    2    0    0  0.33087139132E+02 -0.23160446362E+02 -0.46892923981E+01  0.50528997125E+02  0.30000417257E+02 0.  0.
        -12    1    1    2    0    0 -0.33087139132E+02  0.23160446362E+02  0.46892923981E+01  0.40659002875E+02  0.00000000000E+00 0.  1.
         11    1    3    3    0    0  0.20079330611E+02 -0.14929099083E+02 -0.12990713542E+02  0.28192484030E+02  0.51100000000E-03 0. -1.
        -11    1    3    3    0    0  0.10459982946E+02 -0.81215207863E+01 -0.42049182190E+00  0.13249420997E+02  0.51100000000E-03 0.  1.
        -12    1    3    3    0    0  0.25478255754E+01 -0.10982649319E+00  0.87219129657E+01  0.90870920983E+01  0.00000000000E+00 0.  1.
</event>
<event>
 7    1  0.5601662E-013  0.5052886E+02  0.7816164E-02  0.1300439E+00
        -11   -1    0    0    0    0  0.00000000000E+00  0.00000000000E+00  0.45593999997E+02  0.45594000000E+02  0.51100000000E-03 0.  1.
         11   -1    0    0    0    0 -0.00000000000E+00 -0.00000000000E+00 -0.45593999997E+02  0.45594000000E+02  0.51100000000E-03 0. -1.
    9900012    2    1    2    0    0 -0.23527647820E+02  0.44320350319E+01 -0.32862935379E+02  0.50528859967E+02  0.30000000356E+02 0.  0.
        -12    1    1    2    0    0  0.23527647820E+02 -0.44320350319E+01  0.32862935379E+02  0.40659140033E+02  0.00000000000E+00 0.  1.
         11    1    3    3    0    0 -0.36562467482E+01 -0.45725504810E+01 -0.18471196679E+02  0.19376828048E+02  0.51100000000E-03 0. -1.
        -11    1    3    3    0    0  0.91383816790E-01  0.72636240848E+01 -0.17938213076E+01  0.74824047600E+01  0.51100000000E-03 0.  1.
        -12    1    3    3    0    0 -0.19962784889E+02  0.17409614280E+01 -0.12597917393E+02  0.23669627159E+02  0.00000000000E+00 0.  1.
</event>
<event>
 7    1  0.5601662E-013  0.5052886E+02  0.7816164E-02  0.1300439E+00
        -11   -1    0    0    0    0  0.00000000000E+00  0.00000000000E+00  0.45593999997E+02  0.45594000000E+02  0.51100000000E-03 0.  1.
         11   -1    0    0    0    0 -0.00000000000E+00 -0.00000000000E+00 -0.45593999997E+02  0.45594000000E+02  0.51100000000E-03 0. -1.
    9900012    2    1    2    0    0  0.24085485541E+02  0.21791879521E+02 -0.24457497436E+02  0.50528858252E+02  0.29999995143E+02 0.  0.
        -12    1    1    2    0    0 -0.24085485541E+02 -0.21791879521E+02  0.24457497436E+02  0.40659141748E+02  0.00000000000E+00 0.  1.
         11    1    3    3    0    0  0.58731037078E+01  0.12229904526E+02 -0.19372242989E+02  0.23650532987E+02  0.51100000000E-03 0. -1.
        -11    1    3    3    0    0 -0.17536623793E+01 -0.98182982955E+00 -0.37562933144E+01  0.42601715082E+01  0.51100000000E-03 0.  1.
         12    1    3    3    0    0  0.19966044213E+02  0.10543804825E+02 -0.13289611331E+01  0.22618153757E+02  0.00000000000E+00 0. -1.
</event>
<event>
 7    1  0.5601662E-013  0.5052885E+02  0.7816164E-02  0.1300439E+00
        -11   -1    0    0    0    0  0.00000000000E+00  0.00000000000E+00  0.45593999997E+02  0.45594000000E+02  0.51100000000E-03 0.  1.
         11   -1    0    0    0    0 -0.00000000000E+00 -0.00000000000E+00 -0.45593999997E+02  0.45594000000E+02  0.51100000000E-03 0. -1.
    9900012    2    1    2    0    0 -0.89116443726E+01 -0.11824476249E+02 -0.37867279141E+02  0.50528850064E+02  0.29999970254E+02 0.  0.
        -12    1    1    2    0    0  0.89116443726E+01  0.11824476249E+02  0.37867279141E+02  0.40659149936E+02  0.00000000000E+00 0.  1.
         11    1    3    3    0    0  0.74223436381E+01 -0.11702981163E+02 -0.13312740466E+02  0.19216659756E+02  0.51100000000E-03 0. -1.
        -11    1    3    3    0    0 -0.74145764243E+01 -0.34483968528E+00 -0.30400655910E+01  0.80210259331E+01  0.51100000000E-03 0.  1.
        -12    1    3    3    0    0 -0.89194115864E+01  0.22334459890E+00 -0.21514473084E+02  0.23291164375E+02  0.00000000000E+00 0.  1.
</event>
<event>
 7    1  0.5601662E-013  0.5052880E+02  0.7816164E-02  0.1300439E+00
        -11   -1    0    0    0    0  0.00000000000E+00  0.00000000000E+00  0.45593999997E+02  0.45594000000E+02  0.51100000000E-03 0.  1.
         11   -1    0    0    0    0 -0.00000000000E+00 -0.00000000000E+00 -0.45593999997E+02  0.45594000000E+02  0.51100000000E-03 0. -1.
    9900012    2    1    2    0    0 -0.10472074615E+02 -0.39229289074E+02 -0.21375281299E+01  0.50528800617E+02  0.29999819955E+02 0.  0.
        -12    1    1    2    0    0  0.10472074615E+02  0.39229289074E+02  0.21375281299E+01  0.40659199383E+02  0.00000000000E+00 0.  1.
         11    1    3    3    0    0  0.53814768376E+01 -0.84314959484E+01  0.29479843509E+01  0.10427896666E+02  0.51100000000E-03 0. -1.
        -11    1    3    3    0    0 -0.82892690382E+01 -0.23560170811E+00 -0.11030742298E+01  0.83656597091E+01  0.51100000000E-03 0.  1.
        -12    1    3    3    0    0 -0.75642824144E+01 -0.30562191417E+02 -0.39824382510E+01  0.31735244242E+02  0.00000000000E+00 0.  1.
</event>
<event>
 7    1  0.5601662E-013  0.5052892E+02  0.7816164E-02  0.1300439E+00
        -11   -1    0    0    0    0  0.00000000000E+00  0.00000000000E+00  0.45593999997E+02  0.45594000000E+02  0.51100000000E-03 0.  1.
         11   -1    0    0    0    0 -0.00000000000E+00 -0.00000000000E+00 -0.45593999997E+02  0.45594000000E+02  0.51100000000E-03 0. -1.
    9900012    2    1    2    0    0 -0.27346872383E+02 -0.29942988525E+02 -0.29541364315E+01  0.50528918444E+02  0.30000178103E+02 0.  0.
        -12    1    1    2    0    0  0.27346872383E+02  0.29942988525E+02  0.29541364315E+01  0.40659081556E+02  0.00000000000E+00 0.  1.
         11    1    3    3    0    0 -0.24463515122E+01 -0.10274895355E+01 -0.49870575430E+01  0.56489922699E+01  0.51100000000E-03 0.  1.
        -11    1    3    3    0    0 -0.20771915905E+02 -0.77663187903E+01 -0.39297244887E+01  0.22521787956E+02  0.51100000000E-03 0. -1.
        -12    1    3    3    0    0 -0.41286049654E+01 -0.21149180199E+02  0.59626456002E+01  0.22358138218E+02  0.00000000000E+00 0.  1.
</event>
<event>
 7    1  0.5601662E-013  0.5052887E+02  0.7816164E-02  0.1300439E+00
        -11   -1    0    0    0    0  0.00000000000E+00  0.00000000000E+00  0.45593999997E+02  0.45594000000E+02  0.51100000000E-03 0.  1.
         11   -1    0    0    0    0 -0.00000000000E+00 -0.00000000000E+00 -0.45593999997E+02  0.45594000000E+02  0.51100000000E-03 0. -1.
    9900012    2    1    2    0    0 -0.16913586876E+02 -0.21636607448E+02 -0.29982545214E+02  0.50528865475E+02  0.30000017097E+02 0.  0.
        -12    1    1    2    0    0  0.16913586876E+02  0.21636607448E+02  0.29982545214E+02  0.40659134525E+02  0.00000000000E+00 0.  1.
         11    1    3    3    0    0 -0.48270988117E+01 -0.14880378329E+02 -0.78131706099E+01  0.17486342596E+02  0.51100000000E-03 0. -1.
        -11    1    3    3    0    0 -0.89478618314E+01 -0.13735196946E+02 -0.17931151949E+02  0.24294980489E+02  0.51100000000E-03 0.  1.
        -12    1    3    3    0    0 -0.31386262329E+01  0.69789678280E+01 -0.42382226548E+01  0.87475423889E+01  0.00000000000E+00 0.  1.
</event>
<event>
 7    1  0.5601662E-013  0.5052886E+02  0.7816164E-02  0.1300439E+00
        -11   -1    0    0    0    0  0.00000000000E+00  0.00000000000E+00  0.45593999997E+02  0.45594000000E+02  0.51100000000E-03 0. -1.
         11   -1    0    0    0    0 -0.00000000000E+00 -0.00000000000E+00 -0.45593999997E+02  0.45594000000E+02  0.51100000000E-03 0.  1.
    9900012    2    1    2    0    0  0.10820992423E+02  0.32170413399E+02 -0.22386065355E+02  0.50528864528E+02  0.30000014219E+02 0.  0.
        -12    1    1    2    0    0 -0.10820992423E+02 -0.32170413399E+02  0.22386065355E+02  0.40659135472E+02  0.00000000000E+00 0.  1.
         11    1    3    3    0    0 -0.14068248834E+01  0.31832278487E+02 -0.15103454672E+02  0.35261699522E+02  0.51100000000E-03 0. -1.
        -11    1    3    3    0    0  0.18768319013E+00  0.38642073402E+00 -0.21263234616E+01  0.21692850638E+01  0.51100000000E-03 0.  1.
        -12    1    3    3    0    0  0.12040134117E+02 -0.48285821993E-01 -0.51562872213E+01  0.13097879942E+02  0.00000000000E+00 0.  1.
</event>
<event>
 7    1  0.5601662E-013  0.5052886E+02  0.7816164E-02  0.1300439E+00
        -11   -1    0    0    0    0  0.00000000000E+00  0.00000000000E+00  0.45593999997E+02  0.45594000000E+02  0.51100000000E-03 0. -1.
         11   -1    0    0    0    0 -0.00000000000E+00 -0.00000000000E+00 -0.45593999997E+02  0.45594000000E+02  0.51100000000E-03 0.  1.
    9900012    2    1    2    0    0  0.24558298789E+02 -0.25935987319E+02 -0.19426275869E+02  0.50528859924E+02  0.30000000224E+02 0.  0.
        -12    1    1    2    0    0 -0.24558298789E+02  0.25935987319E+02  0.19426275869E+02  0.40659140076E+02  0.00000000000E+00 0.  1.
         11    1    3    3    0    0  0.49405689629E+01  0.38630780869E+01 -0.21446372843E+01  0.66281266829E+01  0.51100000000E-03 0.  1.
        -11    1    3    3    0    0  0.14050721825E+02 -0.13224551485E+02  0.30677866999E-01  0.19295400674E+02  0.51100000000E-03 0. -1.
         12    1    3    3    0    0  0.55670080011E+01 -0.16574513921E+02 -0.17312316451E+02  0.24605332567E+02  0.00000000000E+00 0. -1.
</event>
<event>
 7    1  0.5601662E-013  0.5052891E+02  0.7816164E-02  0.1300439E+00
        -11   -1    0    0    0    0  0.00000000000E+00  0.00000000000E+00  0.45593999997E+02  0.45594000000E+02  0.51100000000E-03 0.  1.
         11   -1    0    0    0    0 -0.00000000000E+00 -0.00000000000E+00 -0.45593999997E+02  0.45594000000E+02  0.51100000000E-03 0. -1.
    9900012    2    1    2    0    0 -0.35564465127E+02  0.12176109163E+02 -0.15494272343E+02  0.50528913812E+02  0.30000164024E+02 0.  0.
        -12    1    1    2    0    0  0.35564465127E+02 -0.12176109163E+02  0.15494272343E+02  0.40659086188E+02  0.00000000000E+00 0.  1.
         11    1    3    3    0    0 -0.51274227088E+01  0.87044566768E+00 -0.26072477215E+01  0.58177212238E+01  0.51100000000E-03 0. -1.
        -11    1    3    3    0    0 -0.14004421318E+02 -0.87956676351E+01 -0.76670879674E+01  0.18228324766E+02  0.51100000000E-03 0.  1.
         12    1    3    3    0    0 -0.16432621100E+02  0.20101331130E+02 -0.52199366546E+01  0.26482867823E+02  0.00000000000E+00 0. -1.
</event>
<event>
 7    1  0.5601662E-013  0.5052886E+02  0.7816164E-02  0.1300439E+00
        -11   -1    0    0    0    0  0.00000000000E+00  0.00000000000E+00  0.45593999997E+02  0.45594000000E+02  0.51100000000E-03 0. -1.
         11   -1    0    0    0    0 -0.00000000000E+00 -0.00000000000E+00 -0.45593999997E+02  0.45594000000E+02  0.51100000000E-03 0.  1.
    9900012    2    1    2    0    0 -0.25369741290E+02 -0.30827319540E+02  0.76953364793E+01  0.50528860724E+02  0.30000002658E+02 0.  0.
        -12    1    1    2    0    0  0.25369741290E+02  0.30827319540E+02 -0.76953364793E+01  0.40659139276E+02  0.00000000000E+00 0.  1.
         11    1    3    3    0    0 -0.10435728361E+02 -0.77333837463E+01 -0.70437665790E+01  0.14775801111E+02  0.51100000000E-03 0.  1.
        -11    1    3    3    0    0 -0.87155687301E+01 -0.94858149191E+01 -0.22913049445E+01  0.13084032313E+02  0.51100000000E-03 0. -1.
         12    1    3    3    0    0 -0.62184441984E+01 -0.13608120874E+02  0.17030408003E+02  0.22669027300E+02  0.00000000000E+00 0. -1.
</event>
<event>
 7    1  0.5601662E-013  0.5052885E+02  0.7816164E-02  0.1300439E+00
        -11   -1    0    0    0    0  0.00000000000E+00  0.00000000000E+00  0.45593999997E+02  0.45594000000E+02  0.51100000000E-03 0.  1.
         11   -1    0    0    0    0 -0.00000000000E+00 -0.00000000000E+00 -0.45593999997E+02  0.45594000000E+02  0.51100000000E-03 0. -1.
    9900012    2    1    2    0    0  0.20251181855E+02  0.29662798647E+02 -0.19057145515E+02  0.50528846230E+02  0.29999958602E+02 0.  0.
        -12    1    1    2    0    0 -0.20251181855E+02 -0.29662798647E+02  0.19057145515E+02  0.40659153770E+02  0.00000000000E+00 0.  1.
         11    1    3    3    0    0  0.11281151612E+02  0.20729288860E+02 -0.29783358073E+00  0.23602044476E+02  0.51100000000E-03 0. -1.
        -11    1    3    3    0    0  0.10707226436E+02  0.62148480057E+01 -0.59842581921E+01  0.13750650168E+02  0.51100000000E-03 0.  1.
        -12    1    3    3    0    0 -0.17371961928E+01  0.27186617807E+01 -0.12775053742E+02  0.13176151586E+02  0.00000000000E+00 0.  1.
</event>
<event>
 7    1  0.5601662E-013  0.5052886E+02  0.7816164E-02  0.1300439E+00
        -11   -1    0    0    0    0  0.00000000000E+00  0.00000000000E+00  0.45593999997E+02  0.45594000000E+02  0.51100000000E-03 0.  1.
         11   -1    0    0    0    0 -0.00000000000E+00 -0.00000000000E+00 -0.45593999997E+02  0.45594000000E+02  0.51100000000E-03 0. -1.
    9900012    2    1    2    0    0 -0.17943520295E+02  0.18590098836E+02 -0.31394324961E+02  0.50528864064E+02  0.30000012808E+02 0.  0.
        -12    1    1    2    0    0  0.17943520295E+02 -0.18590098836E+02  0.31394324961E+02  0.40659135936E+02  0.00000000000E+00 0.  1.
         11    1    3    3    0    0 -0.48135245499E+01  0.12216132409E+02 -0.18418847415E+02  0.22619855215E+02  0.51100000000E-03 0. -1.
        -11    1    3    3    0    0 -0.12063096768E+02  0.88162241007E+01 -0.17281462359E+02  0.22844978716E+02  0.51100000000E-03 0.  1.
        -12    1    3    3    0    0 -0.10668989774E+01 -0.24422576730E+01  0.43059848127E+01  0.50640301319E+01  0.00000000000E+00 0.  1.
</event>
<event>
 7    1  0.5601662E-013  0.5052884E+02  0.7816164E-02  0.1300439E+00
        -11   -1    0    0    0    0  0.00000000000E+00  0.00000000000E+00  0.45593999997E+02  0.45594000000E+02  0.51100000000E-03 0.  1.
         11   -1    0    0    0    0 -0.00000000000E+00 -0.00000000000E+00 -0.45593999997E+02  0.45594000000E+02  0.51100000000E-03 0. -1.
    9900012    2    1    2    0    0 -0.12931047111E+01  0.27220260595E-01 -0.40638586375E+02  0.50528836663E+02  0.29999929521E+02 0.  0.
        -12    1    1    2    0    0  0.12931047111E+01 -0.27220260595E-01  0.40638586375E+02  0.40659163337E+02  0.00000000000E+00 0.  1.
         11    1    3    3    0    0 -0.35662687045E+01 -0.65839394040E+01 -0.84089923013E+01  0.11259559598E+02  0.51100000000E-03 0. -1.
        -11    1    3    3    0    0 -0.72931816751E+01 -0.38502883043E+01 -0.11240646313E+02  0.13941569093E+02  0.51100000000E-03 0.  1.
         12    1    3    3    0    0  0.95663456685E+01  0.10461447969E+02 -0.20988947760E+02  0.25327707972E+02  0.00000000000E+00 0. -1.
</event>
<event>
 7    1  0.5601662E-013  0.5052886E+02  0.7816164E-02  0.1300439E+00
        -11   -1    0    0    0    0  0.00000000000E+00  0.00000000000E+00  0.45593999997E+02  0.45594000000E+02  0.51100000000E-03 0. -1.
         11   -1    0    0    0    0 -0.00000000000E+00 -0.00000000000E+00 -0.45593999997E+02  0.45594000000E+02  0.51100000000E-03 0.  1.
    9900012    2    1    2    0    0 -0.38873277819E+02 -0.17013689673E+01  0.11795734791E+02  0.50528859035E+02  0.29999997522E+02 0.  0.
        -12    1    1    2    0    0  0.38873277819E+02  0.17013689673E+01 -0.11795734791E+02  0.40659140965E+02  0.00000000000E+00 0.  1.
         11    1    3    3    0    0 -0.64169008091E+01 -0.43026843206E+01 -0.25416717589E+01  0.81332529745E+01  0.51100000000E-03 0. -1.
        -11    1    3    3    0    0  0.27274124750E+01 -0.26440681713E+01 -0.54065918523E+00  0.38369503409E+01  0.51100000000E-03 0.  1.
         12    1    3    3    0    0 -0.35183789485E+02  0.52453835246E+01  0.14878065735E+02  0.38558655719E+02  0.00000000000E+00 0. -1.
</event>
<event>
 7    1  0.5601662E-013  0.5052884E+02  0.7816164E-02  0.1300439E+00
        -11   -1    0    0    0    0  0.00000000000E+00  0.00000000000E+00  0.45593999997E+02  0.45594000000E+02  0.51100000000E-03 0.  1.
         11   -1    0    0    0    0 -0.00000000000E+00 -0.00000000000E+00 -0.45593999997E+02  0.45594000000E+02  0.51100000000E-03 0. -1.
    9900012    2    1    2    0    0 -0.20280311838E+02  0.35207370917E+02  0.15223213979E+01  0.50528837717E+02  0.29999932725E+02 0.  0.
        -12    1    1    2    0    0  0.20280311838E+02 -0.35207370917E+02 -0.15223213979E+01  0.40659162283E+02  0.00000000000E+00 0.  1.
         11    1    3    3    0    0 -0.10588146913E+02  0.43437976723E+01  0.51640983866E+01  0.12555689773E+02  0.51100000000E-03 0. -1.
        -11    1    3    3    0    0 -0.11476737358E+02  0.94517503769E+01  0.36037514788E+01  0.15298304173E+02  0.51100000000E-03 0.  1.
         12    1    3    3    0    0  0.17845724339E+01  0.21411822867E+02 -0.72455284676E+01  0.22674843771E+02  0.00000000000E+00 0. -1.
</event>
<event>
 7    1  0.5601662E-013  0.5052886E+02  0.7816164E-02  0.1300439E+00
        -11   -1    0    0    0    0  0.00000000000E+00  0.00000000000E+00  0.45593999997E+02  0.45594000000E+02  0.51100000000E-03 0.  1.
         11   -1    0    0    0    0 -0.00000000000E+00 -0.00000000000E+00 -0.45593999997E+02  0.45594000000E+02  0.51100000000E-03 0. -1.
    9900012    2    1    2    0    0 -0.12361857013E+02 -0.37520930565E+01 -0.38552195415E+02  0.50528862251E+02  0.30000007300E+02 0.  0.
        -12    1    1    2    0    0  0.12361857013E+02  0.37520930565E+01  0.38552195415E+02  0.40659137749E+02  0.00000000000E+00 0.  1.
         11    1    3    3    0    0 -0.49040011788E+01  0.56867548077E+00 -0.11292365040E+02  0.12324371295E+02  0.51100000000E-03 0. -1.
        -11    1    3    3    0    0 -0.39048121328E+01  0.10325109608E+02 -0.15787875557E+02  0.19264279407E+02  0.51100000000E-03 0.  1.
        -12    1    3    3    0    0 -0.35530437012E+01 -0.14645878145E+02 -0.11471954819E+02  0.18940211550E+02  0.00000000000E+00 0.  1.
</event>
<event>
 7    1  0.5601662E-013  0.5052886E+02  0.7816164E-02  0.1300439E+00
        -11   -1    0    0    0    0  0.00000000000E+00  0.00000000000E+00  0.45593999997E+02  0.45594000000E+02  0.51100000000E-03 0.  1.
         11   -1    0    0    0    0 -0.00000000000E+00 -0.00000000000E+00 -0.45593999997E+02  0.45594000000E+02  0.51100000000E-03 0. -1.
    9900012    2    1    2    0    0  0.27607421134E+02  0.11996434624E+01 -0.29825439801E+02  0.50528859509E+02  0.29999998965E+02 0.  0.
        -12    1    1    2    0    0 -0.27607421134E+02 -0.11996434624E+01  0.29825439801E+02  0.40659140491E+02  0.00000000000E+00 0.  1.
         11    1    3    3    0    0  0.30028114700E+02 -0.41431859057E+01 -0.25130394864E+02  0.39374997247E+02  0.51100000000E-03 0. -1.
        -11    1    3    3    0    0  0.29105987306E+01  0.18497768418E+01 -0.29688780563E+01  0.45505490338E+01  0.51100000000E-03 0.  1.
        -12    1    3    3    0    0 -0.53312922964E+01  0.34930525263E+01 -0.17261668802E+01  0.66033132289E+01  0.00000000000E+00 0.  1.
</event>
<event>
 7    1  0.5601662E-013  0.5052885E+02  0.7816164E-02  0.1300439E+00
        -11   -1    0    0    0    0  0.00000000000E+00  0.00000000000E+00  0.45593999997E+02  0.45594000000E+02  0.51100000000E-03 0. -1.
         11   -1    0    0    0    0 -0.00000000000E+00 -0.00000000000E+00 -0.45593999997E+02  0.45594000000E+02  0.51100000000E-03 0.  1.
    9900012    2    1    2    0    0 -0.37278474935E+02 -0.12081992812E+02  0.10840090954E+02  0.50528845856E+02  0.29999957465E+02 0.  0.
        -12    1    1    2    0    0  0.37278474935E+02  0.12081992812E+02 -0.10840090954E+02  0.40659154144E+02  0.00000000000E+00 0.  1.
         11    1    3    3    0    0 -0.87266333146E+01 -0.22616599843E+01  0.36529381165E+01  0.97269312754E+01  0.51100000000E-03 0. -1.
        -11    1    3    3    0    0 -0.16624393294E+02 -0.17412447174E+02  0.10525318411E+02  0.26274438089E+02  0.51100000000E-03 0.  1.
        -12    1    3    3    0    0 -0.11927448326E+02  0.75921143463E+01 -0.33381655739E+01  0.14527476492E+02  0.00000000000E+00 0.  1.
</event>
<event>
 7    1  0.5601662E-013  0.5052884E+02  0.7816164E-02  0.1300439E+00
        -11   -1    0    0    0    0  0.00000000000E+00  0.00000000000E+00  0.45593999997E+02  0.45594000000E+02  0.51100000000E-03 0.  1.
         11   -1    0    0    0    0 -0.00000000000E+00 -0.00000000000E+00 -0.45593999997E+02  0.45594000000E+02  0.51100000000E-03 0. -1.
    9900012    2    1    2    0    0 -0.37156503674E+02 -0.32090434212E+01  0.16194543665E+02  0.50528843965E+02  0.29999951717E+02 0.  0.
        -12    1    1    2    0    0  0.37156503674E+02  0.32090434212E+01 -0.16194543665E+02  0.40659156035E+02  0.00000000000E+00 0.  1.
         11    1    3    3    0    0 -0.15743626163E+02 -0.51419046890E+01  0.32008596007E+01  0.16868504707E+02  0.51100000000E-03 0. -1.
        -11    1    3    3    0    0 -0.72060434553E+01 -0.10111340852E+02  0.47849919435E+01  0.13306480536E+02  0.51100000000E-03 0.  1.
        -12    1    3    3    0    0 -0.14206834055E+02  0.12044202119E+02  0.82086921206E+01  0.20353858722E+02  0.00000000000E+00 0.  1.
</event>
<event>
 7    1  0.5601662E-013  0.5052885E+02  0.7816164E-02  0.1300439E+00
        -11   -1    0    0    0    0  0.00000000000E+00  0.00000000000E+00  0.45593999997E+02  0.45594000000E+02  0.51100000000E-03 0.  1.
         11   -1    0    0    0    0 -0.00000000000E+00 -0.00000000000E+00 -0.45593999997E+02  0.45594000000E+02  0.51100000000E-03 0. -1.
    9900012    2    1    2    0    0 -0.15691827641E+02  0.33087494414E+02 -0.17667783872E+02  0.50528851850E+02  0.29999975684E+02 0.  0.
        -12    1    1    2    0    0  0.15691827641E+02 -0.33087494414E+02  0.17667783872E+02  0.40659148150E+02  0.00000000000E+00 0.  1.
         11    1    3    3    0    0 -0.79871358758E+01  0.60002532287E+00 -0.19947858519E+01  0.82543043767E+01  0.51100000000E-03 0.  1.
        -11    1    3    3    0    0 -0.13428662326E+02  0.14876924514E+02 -0.41556506634E+01  0.20467566723E+02  0.51100000000E-03 0. -1.
        -12    1    3    3    0    0  0.57239705614E+01  0.17610544578E+02 -0.11517347357E+02  0.21806980750E+02  0.00000000000E+00 0.  1.
</event>
<event>
 7    1  0.5601662E-013  0.5052887E+02  0.7816164E-02  0.1300439E+00
        -11   -1    0    0    0    0  0.00000000000E+00  0.00000000000E+00  0.45593999997E+02  0.45594000000E+02  0.51100000000E-03 0.  1.
         11   -1    0    0    0    0 -0.00000000000E+00 -0.00000000000E+00 -0.45593999997E+02  0.45594000000E+02  0.51100000000E-03 0. -1.
    9900012    2    1    2    0    0 -0.97828880576E+01 -0.37644389563E+02 -0.11847363784E+02  0.50528868271E+02  0.30000025598E+02 0.  0.
        -12    1    1    2    0    0  0.97828880576E+01  0.37644389563E+02  0.11847363784E+02  0.40659131729E+02  0.00000000000E+00 0.  1.
         11    1    3    3    0    0 -0.31076161541E+01 -0.17559581352E+02 -0.44098138217E+01  0.18369611689E+02  0.51100000000E-03 0. -1.
        -11    1    3    3    0    0  0.60888490186E+01 -0.16512092700E+02 -0.15856904576E+01  0.17670249070E+02  0.51100000000E-03 0.  1.
        -12    1    3    3    0    0 -0.12764120922E+02 -0.35727155112E+01 -0.58518595045E+01  0.14489007513E+02  0.00000000000E+00 0.  1.
</event>
<event>
 7    1  0.5601662E-013  0.5052886E+02  0.7816164E-02  0.1300439E+00
        -11   -1    0    0    0    0  0.00000000000E+00  0.00000000000E+00  0.45593999997E+02  0.45594000000E+02  0.51100000000E-03 0.  1.
         11   -1    0    0    0    0 -0.00000000000E+00 -0.00000000000E+00 -0.45593999997E+02  0.45594000000E+02  0.51100000000E-03 0. -1.
    9900012    2    1    2    0    0 -0.13723611810E+01 -0.39550386017E+02 -0.93300375814E+01  0.50528855757E+02  0.29999987560E+02 0.  0.
        -12    1    1    2    0    0  0.13723611810E+01  0.39550386017E+02  0.93300375814E+01  0.40659144243E+02  0.00000000000E+00 0.  1.
         11    1    3    3    0    0 -0.36970221805E+01  0.59136699403E+00  0.42338848596E+01  0.56518553759E+01  0.51100000000E-03 0. -1.
        -11    1    3    3    0    0 -0.15353549630E+01 -0.35751367333E+00 -0.32262075515E+01  0.35907584596E+01  0.51100000000E-03 0.  1.
         12    1    3    3    0    0  0.38600159625E+01 -0.39784239337E+02 -0.10337714889E+02  0.41286241922E+02  0.00000000000E+00 0. -1.
</event>
<event>
 7    1  0.5601662E-013  0.5052882E+02  0.7816164E-02  0.1300439E+00
        -11   -1    0    0    0    0  0.00000000000E+00  0.00000000000E+00  0.45593999997E+02  0.45594000000E+02  0.51100000000E-03 0. -1.
         11   -1    0    0    0    0 -0.00000000000E+00 -0.00000000000E+00 -0.45593999997E+02  0.45594000000E+02  0.51100000000E-03 0.  1.
    9900012    2    1    2    0    0  0.22231653691E+02 -0.24966655829E+02 -0.23142781697E+02  0.50528823006E+02  0.29999888009E+02 0.  0.
        -12    1    1    2    0    0 -0.22231653691E+02  0.24966655829E+02  0.23142781697E+02  0.40659176994E+02  0.00000000000E+00 0.  1.
         11    1    3    3    0    0  0.89657410544E+00  0.21377512684E+01 -0.67438163625E+01  0.71311208800E+01  0.51100000000E-03 0. -1.
        -11    1    3    3    0    0 -0.20852742252E+01  0.19172581905E+01 -0.17565548915E+01  0.33331265970E+01  0.51100000000E-03 0.  1.
         12    1    3    3    0    0  0.23420353811E+02 -0.29021665288E+02 -0.14642410443E+02  0.40064575529E+02  0.00000000000E+00 0. -1.
</event>
<event>
 7    1  0.5601662E-013  0.5052886E+02  0.7816164E-02  0.1300439E+00
        -11   -1    0    0    0    0  0.00000000000E+00  0.00000000000E+00  0.45593999997E+02  0.45594000000E+02  0.51100000000E-03 0. -1.
         11   -1    0    0    0    0 -0.00000000000E+00 -0.00000000000E+00 -0.45593999997E+02  0.45594000000E+02  0.51100000000E-03 0.  1.
    9900012    2    1    2    0    0  0.30783767564E+02 -0.59209834261E+01  0.25893384387E+02  0.50528859020E+02  0.29999997479E+02 0.  0.
        -12    1    1    2    0    0 -0.30783767564E+02  0.59209834261E+01 -0.25893384387E+02  0.40659140980E+02  0.00000000000E+00 0.  1.
         11    1    3    3    0    0  0.11193217945E+02  0.20271759723E+01  0.10292677895E+02  0.15340690627E+02  0.51100000000E-03 0. -1.
        -11    1    3    3    0    0  0.77718738482E+01 -0.70250669979E+01 -0.48542320297E+01  0.11546304963E+02  0.51100000000E-03 0.  1.
         12    1    3    3    0    0  0.11818675771E+02 -0.92309240042E+00  0.20454938522E+02  0.23641863431E+02  0.00000000000E+00 0. -1.
</event>
<event>
 7    1  0.5601662E-013  0.5052887E+02  0.7816164E-02  0.1300439E+00
        -11   -1    0    0    0    0  0.00000000000E+00  0.00000000000E+00  0.45593999997E+02  0.45594000000E+02  0.51100000000E-03 0.  1.
         11   -1    0    0    0    0 -0.00000000000E+00 -0.00000000000E+00 -0.45593999997E+02  0.45594000000E+02  0.51100000000E-03 0. -1.
    9900012    2    1    2    0    0  0.26198715915E+02 -0.30053294293E+02 -0.79744250741E+01  0.50528872258E+02  0.30000037715E+02 0.  0.
        -12    1    1    2    0    0 -0.26198715915E+02  0.30053294293E+02  0.79744250741E+01  0.40659127742E+02  0.00000000000E+00 0.  1.
         11    1    3    3    0    0 -0.15603487268E+01 -0.30633504021E+01  0.17420129819E+01  0.38540126265E+01  0.51100000000E-03 0. -1.
        -11    1    3    3    0    0 -0.39445484475E+01 -0.68062599435E+01 -0.33762145708E+01  0.85605760298E+01  0.51100000000E-03 0.  1.
        -12    1    3    3    0    0  0.31703613090E+02 -0.20183683948E+02 -0.63402234852E+01  0.38114283602E+02  0.00000000000E+00 0.  1.
</event>
<event>
 7    1  0.5601662E-013  0.5052887E+02  0.7816164E-02  0.1300439E+00
        -11   -1    0    0    0    0  0.00000000000E+00  0.00000000000E+00  0.45593999997E+02  0.45594000000E+02  0.51100000000E-03 0. -1.
         11   -1    0    0    0    0 -0.00000000000E+00 -0.00000000000E+00 -0.45593999997E+02  0.45594000000E+02  0.51100000000E-03 0.  1.
    9900012    2    1    2    0    0 -0.27839666555E+02  0.14691177208E+02  0.25734933451E+02  0.50528874070E+02  0.30000043224E+02 0.  0.
        -12    1    1    2    0    0  0.27839666555E+02 -0.14691177208E+02 -0.25734933451E+02  0.40659125930E+02  0.00000000000E+00 0.  1.
         11    1    3    3    0    0 -0.21716069008E+00  0.15209595644E+02  0.62555139718E+01  0.16447200787E+02  0.51100000000E-03 0.  1.
        -11    1    3    3    0    0 -0.10228626745E+02  0.10792555705E+01  0.92901217198E+01  0.13859868668E+02  0.51100000000E-03 0. -1.
        -12    1    3    3    0    0 -0.17393879120E+02 -0.15976740065E+01  0.10189297759E+02  0.20221804615E+02  0.00000000000E+00 0.  1.
</event>
<event>
 7    1  0.5601662E-013  0.5052886E+02  0.7816164E-02  0.1300439E+00
        -11   -1    0    0    0    0  0.00000000000E+00  0.00000000000E+00  0.45593999997E+02  0.45594000000E+02  0.51100000000E-03 0.  1.
         11   -1    0    0    0    0 -0.00000000000E+00 -0.00000000000E+00 -0.45593999997E+02  0.45594000000E+02  0.51100000000E-03 0. -1.
    9900012    2    1    2    0    0  0.29599866704E+01  0.32813966168E+02 -0.23825362981E+02  0.50528858126E+02  0.29999994761E+02 0.  0.
        -12    1    1    2    0    0 -0.29599866704E+01 -0.32813966168E+02  0.23825362981E+02  0.40659141874E+02  0.00000000000E+00 0.  1.
         11    1    3    3    0    0 -0.56017699382E+01  0.55158267040E+01  0.73614940425E-02  0.78615663275E+01  0.51100000000E-03 0. -1.
        -11    1    3    3    0    0 -0.59698872438E+01  0.12019090273E+02 -0.47721509716E+01  0.14243297015E+02  0.51100000000E-03 0.  1.
         12    1    3    3    0    0  0.14531643852E+02  0.15279049191E+02 -0.19060573503E+02  0.28423994784E+02  0.00000000000E+00 0. -1.
</event>
<event>
 7    1  0.5601662E-013  0.5052887E+02  0.7816164E-02  0.1300439E+00
        -11   -1    0    0    0    0  0.00000000000E+00  0.00000000000E+00  0.45593999997E+02  0.45594000000E+02  0.51100000000E-03 0.  1.
         11   -1    0    0    0    0 -0.00000000000E+00 -0.00000000000E+00 -0.45593999997E+02  0.45594000000E+02  0.51100000000E-03 0. -1.
    9900012    2    1    2    0    0 -0.98878447498E+01 -0.57700743261E+01 -0.39014123538E+02  0.50528867361E+02  0.30000022830E+02 0.  0.
        -12    1    1    2    0    0  0.98878447498E+01  0.57700743261E+01  0.39014123538E+02  0.40659132639E+02  0.00000000000E+00 0.  1.
         11    1    3    3    0    0 -0.37853711599E+01  0.14235468854E+01  0.13146169804E+01  0.42524979270E+01  0.51100000000E-03 0. -1.
        -11    1    3    3    0    0  0.28794688316E+01  0.40191209628E+01 -0.24100867452E+02  0.24602773955E+02  0.51100000000E-03 0.  1.
         12    1    3    3    0    0 -0.89819424214E+01 -0.11212742174E+02 -0.16227873066E+02  0.21673595479E+02  0.00000000000E+00 0. -1.
</event>
<event>
 7    1  0.5601662E-013  0.5052886E+02  0.7816164E-02  0.1300439E+00
        -11   -1    0    0    0    0  0.00000000000E+00  0.00000000000E+00  0.45593999997E+02  0.45594000000E+02  0.51100000000E-03 0.  1.
         11   -1    0    0    0    0 -0.00000000000E+00 -0.00000000000E+00 -0.45593999997E+02  0.45594000000E+02  0.51100000000E-03 0. -1.
    9900012    2    1    2    0    0  0.20474799851E+02 -0.21275950992E+02 -0.27951428566E+02  0.50528857382E+02  0.29999992500E+02 0.  0.
        -12    1    1    2    0    0 -0.20474799851E+02  0.21275950992E+02  0.27951428566E+02  0.40659142618E+02  0.00000000000E+00 0.  1.
         11    1    3    3    0    0 -0.20126829299E+01 -0.27446809782E+00 -0.44481173256E+00  0.20794429666E+01  0.51100000000E-03 0. -1.
        -11    1    3    3    0    0  0.11059661424E+02  0.29540111123E+01 -0.19661904935E+01  0.11614998829E+02  0.51100000000E-03 0.  1.
         12    1    3    3    0    0  0.11427821357E+02 -0.23955494006E+02 -0.25540426340E+02  0.36834415587E+02  0.00000000000E+00 0. -1.
</event>
<event>
 7    1  0.5601662E-013  0.5052886E+02  0.7816164E-02  0.1300439E+00
        -11   -1    0    0    0    0  0.00000000000E+00  0.00000000000E+00  0.45593999997E+02  0.45594000000E+02  0.51100000000E-03 0.  1.
         11   -1    0    0    0    0 -0.00000000000E+00 -0.00000000000E+00 -0.45593999997E+02  0.45594000000E+02  0.51100000000E-03 0. -1.
    9900012    2    1    2    0    0  0.88576215168E+01  0.32653358388E+02 -0.22549199014E+02  0.50528860202E+02  0.30000001071E+02 0.  0.
        -12    1    1    2    0    0 -0.88576215168E+01 -0.32653358388E+02  0.22549199014E+02  0.40659139798E+02  0.00000000000E+00 0.  1.
         11    1    3    3    0    0 -0.19547543862E+01  0.68611500123E+01 -0.10991412970E+02  0.13103724797E+02  0.51100000000E-03 0. -1.
        -11    1    3    3    0    0 -0.64834413026E+01  0.81883760814E+01 -0.71289610195E+00  0.10468654884E+02  0.51100000000E-03 0.  1.
        -12    1    3    3    0    0  0.17295817206E+02  0.17603832294E+02 -0.10844889941E+02  0.26956480521E+02  0.00000000000E+00 0.  1.
</event>
<event>
 7    1  0.5601662E-013  0.5052886E+02  0.7816164E-02  0.1300439E+00
        -11   -1    0    0    0    0  0.00000000000E+00  0.00000000000E+00  0.45593999997E+02  0.45594000000E+02  0.51100000000E-03 0.  1.
         11   -1    0    0    0    0 -0.00000000000E+00 -0.00000000000E+00 -0.45593999997E+02  0.45594000000E+02  0.51100000000E-03 0. -1.
    9900012    2    1    2    0    0  0.56503345523E+01 -0.17782313612E+02 -0.36125182052E+02  0.50528859131E+02  0.29999997814E+02 0.  0.
        -12    1    1    2    0    0 -0.56503345523E+01  0.17782313612E+02  0.36125182052E+02  0.40659140869E+02  0.00000000000E+00 0.  1.
         11    1    3    3    0    0 -0.18731861909E+01 -0.86138908171E+00 -0.24119402154E+02  0.24207362066E+02  0.51100000000E-03 0. -1.
        -11    1    3    3    0    0 -0.35107612766E+01 -0.54139110031E+01 -0.72044064983E+01  0.96715743467E+01  0.51100000000E-03 0.  1.
         12    1    3    3    0    0  0.11034282020E+02 -0.11507013527E+02 -0.48013733991E+01  0.16649922718E+02  0.00000000000E+00 0. -1.
</event>
<event>
 7    1  0.5601662E-013  0.5052887E+02  0.7816164E-02  0.1300439E+00
        -11   -1    0    0    0    0  0.00000000000E+00  0.00000000000E+00  0.45593999997E+02  0.45594000000E+02  0.51100000000E-03 0.  1.
         11   -1    0    0    0    0 -0.00000000000E+00 -0.00000000000E+00 -0.45593999997E+02  0.45594000000E+02  0.51100000000E-03 0. -1.
    9900012    2    1    2    0    0 -0.31891559711E+02  0.25149314164E+02 -0.18988601268E+01  0.50528865067E+02  0.30000015858E+02 0.  0.
        -12    1    1    2    0    0  0.31891559711E+02 -0.25149314164E+02  0.18988601268E+01  0.40659134933E+02  0.00000000000E+00 0.  1.
         11    1    3    3    0    0 -0.19034146651E+02  0.14935619739E+02 -0.14211710518E+02  0.28059654164E+02  0.51100000000E-03 0.  1.
        -11    1    3    3    0    0 -0.89313981684E+01  0.62637414191E+01  0.25086257337E+01  0.11193638066E+02  0.51100000000E-03 0. -1.
        -12    1    3    3    0    0 -0.39260148915E+01  0.39499530058E+01  0.98042246574E+01  0.11275572837E+02  0.00000000000E+00 0.  1.
</event>
<event>
 7    1  0.5601662E-013  0.5052885E+02  0.7816164E-02  0.1300439E+00
        -11   -1    0    0    0    0  0.00000000000E+00  0.00000000000E+00  0.45593999997E+02  0.45594000000E+02  0.51100000000E-03 0.  1.
         11   -1    0    0    0    0 -0.00000000000E+00 -0.00000000000E+00 -0.45593999997E+02  0.45594000000E+02  0.51100000000E-03 0. -1.
    9900012    2    1    2    0    0 -0.12740326817E+02 -0.10580049979E+02 -0.37133722746E+02  0.50528846665E+02  0.29999959921E+02 0.  0.
        -12    1    1    2    0    0  0.12740326817E+02  0.10580049979E+02  0.37133722746E+02  0.40659153335E+02  0.00000000000E+00 0.  1.
         11    1    3    3    0    0 -0.76315439481E+01 -0.52324001389E+01 -0.11474473474E+02  0.14740489002E+02  0.51100000000E-03 0.  1.
        -11    1    3    3    0    0 -0.83917437869E+01 -0.11583477217E+02 -0.24879375932E+02  0.28698112399E+02  0.51100000000E-03 0. -1.
         12    1    3    3    0    0  0.32829609183E+01  0.62358273771E+01 -0.77987333976E+00  0.70902452634E+01  0.00000000000E+00 0. -1.
</event>
<event>
 7    1  0.5601662E-013  0.5052885E+02  0.7816164E-02  0.1300439E+00
        -11   -1    0    0    0    0  0.00000000000E+00  0.00000000000E+00  0.45593999997E+02  0.45594000000E+02  0.51100000000E-03 0.  1.
         11   -1    0    0    0    0 -0.00000000000E+00 -0.00000000000E+00 -0.45593999997E+02  0.45594000000E+02  0.51100000000E-03 0. -1.
    9900012    2    1    2    0    0  0.16267316951E+01 -0.13196977436E+02 -0.38423430206E+02  0.50528850252E+02  0.29999970825E+02 0.  0.
        -12    1    1    2    0    0 -0.16267316951E+01  0.13196977436E+02  0.38423430206E+02  0.40659149748E+02  0.00000000000E+00 0.  1.
         11    1    3    3    0    0 -0.46451717954E+01 -0.12685677562E+02 -0.27278171075E+02  0.30440148714E+02  0.51100000000E-03 0. -1.
        -11    1    3    3    0    0  0.68448916313E+01 -0.72340169362E+01 -0.63526752410E+01  0.11812706102E+02  0.51100000000E-03 0.  1.
         12    1    3    3    0    0 -0.57298814083E+00  0.67227170628E+01 -0.47925838896E+01  0.82759954359E+01  0.00000000000E+00 0. -1.
</event>
<event>
 7    1  0.5601662E-013  0.5052889E+02  0.7816164E-02  0.1300439E+00
        -11   -1    0    0    0    0  0.00000000000E+00  0.00000000000E+00  0.45593999997E+02  0.45594000000E+02  0.51100000000E-03 0.  1.
         11   -1    0    0    0    0 -0.00000000000E+00 -0.00000000000E+00 -0.45593999997E+02  0.45594000000E+02  0.51100000000E-03 0. -1.
    9900012    2    1    2    0    0  0.21932568999E+02 -0.41882877171E+01 -0.33979174420E+02  0.50528885017E+02  0.30000076498E+02 0.  0.
        -12    1    1    2    0    0 -0.21932568999E+02  0.41882877171E+01  0.33979174420E+02  0.40659114983E+02  0.00000000000E+00 0.  1.
         11    1    3    3    0    0  0.29134361934E+01  0.22143936976E+01 -0.10034962560E+02  0.10681391471E+02  0.51100000000E-03 0.  1.
        -11    1    3    3    0    0  0.16306775414E+02  0.42211389198E+00 -0.27277137094E+02  0.31782563031E+02  0.51100000000E-03 0. -1.
         12    1    3    3    0    0  0.27123573914E+01 -0.68247953067E+01  0.33329252340E+01  0.80649305150E+01  0.00000000000E+00 0. -1.
</event>
<event>
 7    1  0.5601662E-013  0.5052894E+02  0.7816164E-02  0.1300439E+00
        -11   -1    0    0    0    0  0.00000000000E+00  0.00000000000E+00  0.45593999997E+02  0.45594000000E+02  0.51100000000E-03 0. -1.
         11   -1    0    0    0    0 -0.00000000000E+00 -0.00000000000E+00 -0.45593999997E+02  0.45594000000E+02  0.51100000000E-03 0.  1.
    9900012    2    1    2    0    0  0.19164469410E+02  0.15261070584E+02  0.32449686010E+02  0.50528938460E+02  0.30000238943E+02 0.  0.
        -12    1    1    2    0    0 -0.19164469410E+02 -0.15261070584E+02 -0.32449686010E+02  0.40659061540E+02  0.00000000000E+00 0.  1.
         11    1    3    3    0    0  0.20241406202E+01 -0.75227627387E-01 -0.94380984382E+00  0.22346323476E+01  0.51100000000E-03 0. -1.
        -11    1    3    3    0    0  0.18867398836E+02  0.83212074142E+01  0.83803836196E+01  0.22258752471E+02  0.51100000000E-03 0.  1.
         12    1    3    3    0    0 -0.17270700462E+01  0.70150907976E+01  0.25013112234E+02  0.26035553642E+02  0.00000000000E+00 0. -1.
</event>
<event>
 7    1  0.5601662E-013  0.5052886E+02  0.7816164E-02  0.1300439E+00
        -11   -1    0    0    0    0  0.00000000000E+00  0.00000000000E+00  0.45593999997E+02  0.45594000000E+02  0.51100000000E-03 0.  1.
         11   -1    0    0    0    0 -0.00000000000E+00 -0.00000000000E+00 -0.45593999997E+02  0.45594000000E+02  0.51100000000E-03 0. -1.
    9900012    2    1    2    0    0  0.15475871395E+02 -0.30552064751E+02 -0.21914244200E+02  0.50528863821E+02  0.30000012069E+02 0.  0.
        -12    1    1    2    0    0 -0.15475871395E+02  0.30552064751E+02  0.21914244200E+02  0.40659136179E+02  0.00000000000E+00 0.  1.
         11    1    3    3    0    0  0.11927794526E+02 -0.12619428640E+02 -0.14501448048E+02  0.22623312251E+02  0.51100000000E-03 0. -1.
        -11    1    3    3    0    0  0.75513239788E+01 -0.19505364447E+02 -0.20284325116E+01  0.21014192222E+02  0.51100000000E-03 0.  1.
         12    1    3    3    0    0 -0.40032471104E+01  0.15727283355E+01 -0.53843636407E+01  0.68913593477E+01  0.00000000000E+00 0. -1.
</event>
<event>
 7    1  0.5601662E-013  0.5052887E+02  0.7816164E-02  0.1300439E+00
        -11   -1    0    0    0    0  0.00000000000E+00  0.00000000000E+00  0.45593999997E+02  0.45594000000E+02  0.51100000000E-03 0. -1.
         11   -1    0    0    0    0 -0.00000000000E+00 -0.00000000000E+00 -0.45593999997E+02  0.45594000000E+02  0.51100000000E-03 0.  1.
    9900012    2    1    2    0    0  0.20045368131E+01 -0.23332832275E+02  0.33237415196E+02  0.50528868200E+02  0.30000025382E+02 0.  0.
        -12    1    1    2    0    0 -0.20045368131E+01  0.23332832275E+02 -0.33237415196E+02  0.40659131800E+02  0.00000000000E+00 0.  1.
         11    1    3    3    0    0  0.45249199771E+01 -0.17418772842E+02  0.25101816737E+01  0.18171118855E+02  0.51100000000E-03 0.  1.
        -11    1    3    3    0    0 -0.12081964158E+01 -0.64297468704E+01  0.12798732288E+02  0.14373897587E+02  0.51100000000E-03 0. -1.
        -12    1    3    3    0    0 -0.13121867483E+01  0.51568743781E+00  0.17928501234E+02  0.17983851759E+02  0.00000000000E+00 0.  1.
</event>
<event>
 7    1  0.5601662E-013  0.5052885E+02  0.7816164E-02  0.1300439E+00
        -11   -1    0    0    0    0  0.00000000000E+00  0.00000000000E+00  0.45593999997E+02  0.45594000000E+02  0.51100000000E-03 0.  1.
         11   -1    0    0    0    0 -0.00000000000E+00 -0.00000000000E+00 -0.45593999997E+02  0.45594000000E+02  0.51100000000E-03 0. -1.
    9900012    2    1    2    0    0  0.17114896637E+02 -0.29017449875E+02 -0.22764767831E+02  0.50528846805E+02  0.29999960349E+02 0.  0.
        -12    1    1    2    0    0 -0.17114896637E+02  0.29017449875E+02  0.22764767831E+02  0.40659153195E+02  0.00000000000E+00 0.  1.
         11    1    3    3    0    0  0.56618040125E+01 -0.20914783410E+02 -0.10249697277E+02  0.23969574136E+02  0.51100000000E-03 0. -1.
        -11    1    3    3    0    0 -0.11047690169E+01 -0.10537905913E+02 -0.64279050657E+01  0.12392979440E+02  0.51100000000E-03 0.  1.
         12    1    3    3    0    0  0.12557861641E+02  0.24352394473E+01 -0.60871654883E+01  0.14166293229E+02  0.00000000000E+00 0. -1.
</event>
<event>
 7    1  0.5601662E-013  0.5052878E+02  0.7816164E-02  0.1300439E+00
        -11   -1    0    0    0    0  0.00000000000E+00  0.00000000000E+00  0.45593999997E+02  0.45594000000E+02  0.51100000000E-03 0.  1.
         11   -1    0    0    0    0 -0.00000000000E+00 -0.00000000000E+00 -0.45593999997E+02  0.45594000000E+02  0.51100000000E-03 0. -1.
    9900012    2    1    2    0    0  0.30669681410E+02 -0.11741435942E+02 -0.23972518876E+02  0.50528777959E+02  0.29999751083E+02 0.  0.
        -12    1    1    2    0    0 -0.30669681410E+02  0.11741435942E+02  0.23972518876E+02  0.40659222041E+02  0.00000000000E+00 0.  1.
         11    1    3    3    0    0  0.11688684907E+02  0.46244481896E+01 -0.18609615057E+02  0.22457262717E+02  0.51100000000E-03 0. -1.
        -11    1    3    3    0    0  0.10826960545E+01 -0.70901640706E+01  0.14403447407E+00  0.71737997940E+01  0.51100000000E-03 0.  1.
        -12    1    3    3    0    0  0.17898300448E+02 -0.92757200610E+01 -0.55069382926E+01  0.20897715448E+02  0.00000000000E+00 0.  1.
</event>
<event>
 7    1  0.5601662E-013  0.5052886E+02  0.7816164E-02  0.1300439E+00
        -11   -1    0    0    0    0  0.00000000000E+00  0.00000000000E+00  0.45593999997E+02  0.45594000000E+02  0.51100000000E-03 0.  1.
         11   -1    0    0    0    0 -0.00000000000E+00 -0.00000000000E+00 -0.45593999997E+02  0.45594000000E+02  0.51100000000E-03 0. -1.
    9900012    2    1    2    0    0 -0.35961800150E+02  0.71616119640E+01  0.17567742499E+02  0.50528864096E+02  0.30000012906E+02 0.  0.
        -12    1    1    2    0    0  0.35961800150E+02 -0.71616119640E+01 -0.17567742499E+02  0.40659135904E+02  0.00000000000E+00 0.  1.
         11    1    3    3    0    0 -0.19297451400E+01 -0.35992135488E+01  0.18554085159E+01  0.44856209712E+01  0.51100000000E-03 0. -1.
        -11    1    3    3    0    0  0.11212146453E+01 -0.47266773474E+01  0.14904048466E+01  0.50813293433E+01  0.51100000000E-03 0.  1.
         12    1    3    3    0    0 -0.35153269655E+02  0.15487502860E+02  0.14221929136E+02  0.40961913782E+02  0.00000000000E+00 0. -1.
</event>
<event>
 7    1  0.5601662E-013  0.5052885E+02  0.7816164E-02  0.1300439E+00
        -11   -1    0    0    0    0  0.00000000000E+00  0.00000000000E+00  0.45593999997E+02  0.45594000000E+02  0.51100000000E-03 0. -1.
         11   -1    0    0    0    0 -0.00000000000E+00 -0.00000000000E+00 -0.45593999997E+02  0.45594000000E+02  0.51100000000E-03 0.  1.
    9900012    2    1    2    0    0 -0.34022495822E+02  0.73753111935E+01  0.21005733182E+02  0.50528852645E+02  0.29999978099E+02 0.  0.
        -12    1    1    2    0    0  0.34022495822E+02 -0.73753111935E+01 -0.21005733182E+02  0.40659147355E+02  0.00000000000E+00 0.  1.
         11    1    3    3    0    0 -0.74793207345E+00 -0.28558440555E+01  0.18011254662E+00  0.29576491418E+01  0.51100000000E-03 0. -1.
        -11    1    3    3    0    0 -0.10066526471E+00 -0.37941329528E+01  0.88267963519E+01  0.96082210871E+01  0.51100000000E-03 0.  1.
         12    1    3    3    0    0 -0.33173898483E+02  0.14025288202E+02  0.11998824283E+02  0.37962982416E+02  0.00000000000E+00 0. -1.
</event>
<event>
 7    1  0.5601662E-013  0.5052886E+02  0.7816164E-02  0.1300439E+00
        -11   -1    0    0    0    0  0.00000000000E+00  0.00000000000E+00  0.45593999997E+02  0.45594000000E+02  0.51100000000E-03 0.  1.
         11   -1    0    0    0    0 -0.00000000000E+00 -0.00000000000E+00 -0.45593999997E+02  0.45594000000E+02  0.51100000000E-03 0. -1.
    9900012    2    1    2    0    0  0.21166998039E+02  0.11903794371E+02 -0.32610174912E+02  0.50528860386E+02  0.30000001628E+02 0.  0.
        -12    1    1    2    0    0 -0.21166998039E+02 -0.11903794371E+02  0.32610174912E+02  0.40659139614E+02  0.00000000000E+00 0.  1.
         11    1    3    3    0    0 -0.16710016366E+01  0.46144793583E+01  0.12203589437E+00  0.49092320416E+01  0.51100000000E-03 0. -1.
        -11    1    3    3    0    0 -0.20712928045E+01 -0.32856702869E+01 -0.11951608590E+01  0.40637781505E+01  0.51100000000E-03 0.  1.
         12    1    3    3    0    0  0.24909292480E+02  0.10574985299E+02 -0.31537049947E+02  0.41555850194E+02  0.00000000000E+00 0. -1.
</event>
<event>
 7    1  0.5601662E-013  0.5052887E+02  0.7816164E-02  0.1300439E+00
        -11   -1    0    0    0    0  0.00000000000E+00  0.00000000000E+00  0.45593999997E+02  0.45594000000E+02  0.51100000000E-03 0.  1.
         11   -1    0    0    0    0 -0.00000000000E+00 -0.00000000000E+00 -0.45593999997E+02  0.45594000000E+02  0.51100000000E-03 0. -1.
    9900012    2    1    2    0    0 -0.22812383650E+02  0.60717022860E+01 -0.33104301745E+02  0.50528865596E+02  0.30000017465E+02 0.  0.
        -12    1    1    2    0    0  0.22812383650E+02 -0.60717022860E+01  0.33104301745E+02  0.40659134404E+02  0.00000000000E+00 0.  1.
         11    1    3    3    0    0 -0.89352777956E+01 -0.22804349660E+01 -0.67035355612E+01  0.11400743932E+02  0.51100000000E-03 0. -1.
        -11    1    3    3    0    0 -0.15534395825E+02  0.33453451516E+01 -0.43778926924E+01  0.16482558434E+02  0.51100000000E-03 0.  1.
        -12    1    3    3    0    0  0.16572899705E+01  0.50067921004E+01 -0.22022873492E+02  0.22645563230E+02  0.00000000000E+00 0.  1.
</event>
<event>
 7    1  0.5601662E-013  0.5052878E+02  0.7816164E-02  0.1300439E+00
        -11   -1    0    0    0    0  0.00000000000E+00  0.00000000000E+00  0.45593999997E+02  0.45594000000E+02  0.51100000000E-03 0. -1.
         11   -1    0    0    0    0 -0.00000000000E+00 -0.00000000000E+00 -0.45593999997E+02  0.45594000000E+02  0.51100000000E-03 0.  1.
    9900012    2    1    2    0    0  0.37826149445E+02 -0.10817440940E+02  0.10263402650E+02  0.50528781559E+02  0.29999762025E+02 0.  0.
        -12    1    1    2    0    0 -0.37826149445E+02  0.10817440940E+02 -0.10263402650E+02  0.40659218441E+02  0.00000000000E+00 0.  1.
         11    1    3    3    0    0  0.10272023177E+02 -0.12591355168E+01  0.31771344978E+00  0.10353783101E+02  0.51100000000E-03 0. -1.
        -11    1    3    3    0    0  0.31429965787E+02 -0.46631097302E+01  0.11412165504E+02  0.33761292385E+02  0.51100000000E-03 0.  1.
        -12    1    3    3    0    0 -0.38758395192E+01 -0.48951956928E+01 -0.14664763039E+01  0.64137060737E+01  0.00000000000E+00 0.  1.
</event>
<event>
 7    1  0.5601662E-013  0.5052886E+02  0.7816164E-02  0.1300439E+00
        -11   -1    0    0    0    0  0.00000000000E+00  0.00000000000E+00  0.45593999997E+02  0.45594000000E+02  0.51100000000E-03 0.  1.
         11   -1    0    0    0    0 -0.00000000000E+00 -0.00000000000E+00 -0.45593999997E+02  0.45594000000E+02  0.51100000000E-03 0. -1.
    9900012    2    1    2    0    0  0.24496470211E+02  0.32011942125E+02 -0.53220259074E+01  0.50528862636E+02  0.30000008469E+02 0.  0.
        -12    1    1    2    0    0 -0.24496470211E+02 -0.32011942125E+02  0.53220259074E+01  0.40659137364E+02  0.00000000000E+00 0.  1.
         11    1    3    3    0    0  0.29520937147E+01  0.22634165041E+02 -0.34940043699E+01  0.23091737726E+02  0.51100000000E-03 0. -1.
        -11    1    3    3    0    0  0.22941414867E+00  0.11489649847E+01  0.37408500604E+01  0.39200396456E+01  0.51100000000E-03 0.  1.
        -12    1    3    3    0    0  0.21314962348E+02  0.82288120985E+01 -0.55688715979E+01  0.23517085264E+02  0.00000000000E+00 0.  1.
</event>
<event>
 7    1  0.5601662E-013  0.5052887E+02  0.7816164E-02  0.1300439E+00
        -11   -1    0    0    0    0  0.00000000000E+00  0.00000000000E+00  0.45593999997E+02  0.45594000000E+02  0.51100000000E-03 0.  1.
         11   -1    0    0    0    0 -0.00000000000E+00 -0.00000000000E+00 -0.45593999997E+02  0.45594000000E+02  0.51100000000E-03 0. -1.
    9900012    2    1    2    0    0 -0.20045497995E+02  0.10330268382E+02 -0.33832359963E+02  0.50528867996E+02  0.30000024760E+02 0.  0.
        -12    1    1    2    0    0  0.20045497995E+02 -0.10330268382E+02  0.33832359963E+02  0.40659132004E+02  0.00000000000E+00 0.  1.
         11    1    3    3    0    0 -0.22678225603E+02  0.45263656568E+01 -0.14335027016E+02  0.27208140370E+02  0.51100000000E-03 0. -1.
        -11    1    3    3    0    0 -0.94443890152E-01  0.32422664664E+01  0.22041593891E+00  0.32511221040E+01  0.51100000000E-03 0.  1.
        -12    1    3    3    0    0  0.27271714983E+01  0.25616362585E+01 -0.19717748885E+02  0.20069605522E+02  0.00000000000E+00 0.  1.
</event>
<event>
 7    1  0.5601662E-013  0.5052886E+02  0.7816164E-02  0.1300439E+00
        -11   -1    0    0    0    0  0.00000000000E+00  0.00000000000E+00  0.45593999997E+02  0.45594000000E+02  0.51100000000E-03 0. -1.
         11   -1    0    0    0    0 -0.00000000000E+00 -0.00000000000E+00 -0.45593999997E+02  0.45594000000E+02  0.51100000000E-03 0.  1.
    9900012    2    1    2    0    0  0.19895080408E+02  0.32466155367E+02 -0.14258340390E+02  0.50528859092E+02  0.29999997695E+02 0.  0.
        -12    1    1    2    0    0 -0.19895080408E+02 -0.32466155367E+02  0.14258340390E+02  0.40659140908E+02  0.00000000000E+00 0.  1.
         11    1    3    3    0    0 -0.28513822594E+01  0.86312817664E+01  0.35379703276E+01  0.97543139185E+01  0.51100000000E-03 0. -1.
        -11    1    3    3    0    0 -0.23456967990E-01 -0.73110864856E+00  0.18172705069E+01  0.19589646351E+01  0.51100000000E-03 0.  1.
         12    1    3    3    0    0  0.22769919636E+02  0.24565982249E+02 -0.19613581224E+02  0.38815580538E+02  0.00000000000E+00 0. -1.
</event>
<event>
 7    1  0.5601662E-013  0.5052886E+02  0.7816164E-02  0.1300439E+00
        -11   -1    0    0    0    0  0.00000000000E+00  0.00000000000E+00  0.45593999997E+02  0.45594000000E+02  0.51100000000E-03 0. -1.
         11   -1    0    0    0    0 -0.00000000000E+00 -0.00000000000E+00 -0.45593999997E+02  0.45594000000E+02  0.51100000000E-03 0.  1.
    9900012    2    1    2    0    0 -0.22106541137E+02  0.27534358028E+02 -0.20157517387E+02  0.50528861541E+02  0.30000005139E+02 0.  0.
        -12    1    1    2    0    0  0.22106541137E+02 -0.27534358028E+02  0.20157517387E+02  0.40659138459E+02  0.00000000000E+00 0.  1.
         11    1    3    3    0    0  0.15343067724E+01  0.24215171062E+00 -0.19297142465E+01  0.24772024659E+01  0.51100000000E-03 0.  1.
        -11    1    3    3    0    0  0.44144222704E+01  0.10345069080E+02 -0.18070119555E+01  0.11391789619E+02  0.51100000000E-03 0. -1.
        -12    1    3    3    0    0 -0.28055270180E+02  0.16947137237E+02 -0.16420791185E+02  0.36659869456E+02  0.00000000000E+00 0.  1.
</event>
<event>
 7    1  0.5601662E-013  0.5052885E+02  0.7816164E-02  0.1300439E+00
        -11   -1    0    0    0    0  0.00000000000E+00  0.00000000000E+00  0.45593999997E+02  0.45594000000E+02  0.51100000000E-03 0.  1.
         11   -1    0    0    0    0 -0.00000000000E+00 -0.00000000000E+00 -0.45593999997E+02  0.45594000000E+02  0.51100000000E-03 0. -1.
    9900012    2    1    2    0    0  0.16114352556E+02  0.59064224345E-01 -0.37329485157E+02  0.50528852087E+02  0.29999976405E+02 0.  0.
        -12    1    1    2    0    0 -0.16114352556E+02 -0.59064224345E-01  0.37329485157E+02  0.40659147913E+02  0.00000000000E+00 0.  1.
         11    1    3    3    0    0 -0.55843642943E+01  0.89022621346E+00 -0.72863441662E+01  0.92232553284E+01  0.51100000000E-03 0. -1.
        -11    1    3    3    0    0 -0.13999331967E+00  0.54536778934E+01 -0.76971487528E+01  0.94344210144E+01  0.51100000000E-03 0.  1.
         12    1    3    3    0    0  0.21838710170E+02 -0.62848398825E+01 -0.22345992238E+02  0.31871175744E+02  0.00000000000E+00 0. -1.
</event>
<event>
 7    1  0.5601662E-013  0.5052883E+02  0.7816164E-02  0.1300439E+00
        -11   -1    0    0    0    0  0.00000000000E+00  0.00000000000E+00  0.45593999997E+02  0.45594000000E+02  0.51100000000E-03 0.  1.
         11   -1    0    0    0    0 -0.00000000000E+00 -0.00000000000E+00 -0.45593999997E+02  0.45594000000E+02  0.51100000000E-03 0. -1.
    9900012    2    1    2    0    0 -0.37325071362E+02 -0.14380991548E+02  0.72934451578E+01  0.50528828681E+02  0.29999905260E+02 0.  0.
        -12    1    1    2    0    0  0.37325071362E+02  0.14380991548E+02 -0.72934451578E+01  0.40659171319E+02  0.00000000000E+00 0.  1.
         11    1    3    3    0    0 -0.16149202589E+02 -0.12945625527E+02  0.89771767391E+01  0.22560489069E+02  0.51100000000E-03 0. -1.
        -11    1    3    3    0    0 -0.85530674142E+01 -0.75868394439E+01  0.49252905144E+01  0.12448838574E+02  0.51100000000E-03 0.  1.
        -12    1    3    3    0    0 -0.12622801359E+02  0.61514734234E+01 -0.66090220957E+01  0.15519501038E+02  0.00000000000E+00 0.  1.
</event>
<event>
 7    1  0.5601662E-013  0.5052883E+02  0.7816164E-02  0.1300439E+00
        -11   -1    0    0    0    0  0.00000000000E+00  0.00000000000E+00  0.45593999997E+02  0.45594000000E+02  0.51100000000E-03 0.  1.
         11   -1    0    0    0    0 -0.00000000000E+00 -0.00000000000E+00 -0.45593999997E+02  0.45594000000E+02  0.51100000000E-03 0. -1.
    9900012    2    1    2    0    0 -0.27403826560E+02 -0.30033483471E+02 -0.43371655955E+00  0.50528831912E+02  0.29999915081E+02 0.  0.
        -12    1    1    2    0    0  0.27403826560E+02  0.30033483471E+02  0.43371655955E+00  0.40659168088E+02  0.00000000000E+00 0.  1.
         11    1    3    3    0    0 -0.12647333449E+02 -0.18470982237E+02 -0.79886549988E+01  0.23768694477E+02  0.51100000000E-03 0. -1.
        -11    1    3    3    0    0 -0.15635383766E+02 -0.15017265537E+02  0.46752170046E+01  0.22177491833E+02  0.51100000000E-03 0.  1.
        -12    1    3    3    0    0  0.87889065557E+00  0.34547643029E+01  0.28797214347E+01  0.45826456021E+01  0.00000000000E+00 0.  1.
</event>
<event>
 7    1  0.5601662E-013  0.5052888E+02  0.7816164E-02  0.1300439E+00
        -11   -1    0    0    0    0  0.00000000000E+00  0.00000000000E+00  0.45593999997E+02  0.45594000000E+02  0.51100000000E-03 0.  1.
         11   -1    0    0    0    0 -0.00000000000E+00 -0.00000000000E+00 -0.45593999997E+02  0.45594000000E+02  0.51100000000E-03 0. -1.
    9900012    2    1    2    0    0 -0.15814423331E+02 -0.23401084141E+02 -0.29248201269E+02  0.50528880460E+02  0.30000062647E+02 0.  0.
        -12    1    1    2    0    0  0.15814423331E+02  0.23401084141E+02  0.29248201269E+02  0.40659119540E+02  0.00000000000E+00 0.  1.
         11    1    3    3    0    0  0.16622095266E+01 -0.83660537795E+00 -0.41347000121E+01  0.45341585239E+01  0.51100000000E-03 0. -1.
        -11    1    3    3    0    0  0.27589397845E+01  0.34738727926E+01 -0.72255503737E+01  0.84786861823E+01  0.51100000000E-03 0.  1.
         12    1    3    3    0    0 -0.20235572642E+02 -0.26038351556E+02 -0.17887950883E+02  0.37516035754E+02  0.00000000000E+00 0. -1.
</event>
<event>
 7    1  0.5601662E-013  0.5052886E+02  0.7816164E-02  0.1300439E+00
        -11   -1    0    0    0    0  0.00000000000E+00  0.00000000000E+00  0.45593999997E+02  0.45594000000E+02  0.51100000000E-03 0. -1.
         11   -1    0    0    0    0 -0.00000000000E+00 -0.00000000000E+00 -0.45593999997E+02  0.45594000000E+02  0.51100000000E-03 0.  1.
    9900012    2    1    2    0    0  0.32954100739E+02  0.23146726627E+02  0.56055029205E+01  0.50528863609E+02  0.30000011426E+02 0.  0.
        -12    1    1    2    0    0 -0.32954100739E+02 -0.23146726627E+02 -0.56055029205E+01  0.40659136391E+02  0.00000000000E+00 0.  1.
         11    1    3    3    0    0  0.67082501005E+01  0.78070743363E+01 -0.73213651235E+01  0.12631445548E+02  0.51100000000E-03 0. -1.
        -11    1    3    3    0    0  0.16597722665E+02  0.79740671643E+01 -0.21528901019E+01  0.18539284799E+02  0.51100000000E-03 0.  1.
        -12    1    3    3    0    0  0.96481279738E+01  0.73655851259E+01  0.15079758146E+02  0.19358133262E+02  0.00000000000E+00 0.  1.
</event>
<event>
 7    1  0.5943285E-013  0.5052892E+02  0.7816164E-02  0.1300439E+00
        -11   -1    0    0    0    0  0.00000000000E+00  0.00000000000E+00  0.45593999997E+02  0.45594000000E+02  0.51100000000E-03 0. -1.
         11   -1    0    0    0    0 -0.00000000000E+00 -0.00000000000E+00 -0.45593999997E+02  0.45594000000E+02  0.51100000000E-03 0.  1.
    9900012    2    1    2    0    0  0.78966716834E+01 -0.35667750592E+02  0.17849790665E+02  0.50528918816E+02  0.30000179233E+02 0.  0.
        -12    1    1    2    0    0 -0.78966716834E+01  0.35667750592E+02 -0.17849790665E+02  0.40659081184E+02  0.00000000000E+00 0.  1.
         11    1    3    3    0    0  0.19016310402E+01 -0.26991620112E+02  0.12161157938E+02  0.29665763424E+02  0.51100000000E-03 0. -1.
        -11    1    3    3    0    0 -0.47912682258E+01 -0.42545475246E+01 -0.22143148274E+01  0.67794259540E+01  0.51100000000E-03 0.  1.
        -12    1    3    3    0    0  0.10786308869E+02 -0.44215829554E+01  0.79029475537E+01  0.14083729438E+02  0.00000000000E+00 0.  1.
</event>
<event>
 7    1  0.5601662E-013  0.5052885E+02  0.7816164E-02  0.1300439E+00
        -11   -1    0    0    0    0  0.00000000000E+00  0.00000000000E+00  0.45593999997E+02  0.45594000000E+02  0.51100000000E-03 0. -1.
         11   -1    0    0    0    0 -0.00000000000E+00 -0.00000000000E+00 -0.45593999997E+02  0.45594000000E+02  0.51100000000E-03 0.  1.
    9900012    2    1    2    0    0 -0.36371378143E+01 -0.10178950512E+02  0.39196003047E+02  0.50528850232E+02  0.29999970764E+02 0.  0.
        -12    1    1    2    0    0  0.36371378143E+01  0.10178950512E+02 -0.39196003047E+02  0.40659149768E+02  0.00000000000E+00 0.  1.
         11    1    3    3    0    0  0.15553790163E+01 -0.31834192858E+00  0.34343161741E+01  0.37835265709E+01  0.51100000000E-03 0. -1.
        -11    1    3    3    0    0  0.10029773353E+02  0.18399410236E+01  0.17464325117E+02  0.20223362444E+02  0.51100000000E-03 0.  1.
         12    1    3    3    0    0 -0.15222290184E+02 -0.11700549607E+02  0.18297361757E+02  0.26521961217E+02  0.00000000000E+00 0. -1.
</event>
<event>
 7    1  0.5601662E-013  0.5052888E+02  0.7816164E-02  0.1300439E+00
        -11   -1    0    0    0    0  0.00000000000E+00  0.00000000000E+00  0.45593999997E+02  0.45594000000E+02  0.51100000000E-03 0. -1.
         11   -1    0    0    0    0 -0.00000000000E+00 -0.00000000000E+00 -0.45593999997E+02  0.45594000000E+02  0.51100000000E-03 0.  1.
    9900012    2    1    2    0    0 -0.94091648575E+01 -0.28379447328E+02  0.27554289815E+02  0.50528876778E+02  0.30000051455E+02 0.  0.
        -12    1    1    2    0    0  0.94091648575E+01  0.28379447328E+02 -0.27554289815E+02  0.40659123222E+02  0.00000000000E+00 0.  1.
         11    1    3    3    0    0 -0.16219919777E+00 -0.20041358151E+02  0.18385860070E+02  0.27197834397E+02  0.51100000000E-03 0. -1.
        -11    1    3    3    0    0 -0.11011523967E+02 -0.60036619687E+01  0.13291789913E+02  0.18274826852E+02  0.51100000000E-03 0.  1.
         12    1    3    3    0    0  0.17645583074E+01 -0.23344272084E+01 -0.41233601675E+01  0.50562155297E+01  0.00000000000E+00 0. -1.
</event>
<event>
 7    1  0.5601662E-013  0.5052886E+02  0.7816164E-02  0.1300439E+00
        -11   -1    0    0    0    0  0.00000000000E+00  0.00000000000E+00  0.45593999997E+02  0.45594000000E+02  0.51100000000E-03 0.  1.
         11   -1    0    0    0    0 -0.00000000000E+00 -0.00000000000E+00 -0.45593999997E+02  0.45594000000E+02  0.51100000000E-03 0. -1.
    9900012    2    1    2    0    0 -0.36098955313E+02 -0.11635847920E+02 -0.14650522412E+02  0.50528864022E+02  0.30000012681E+02 0.  0.
        -12    1    1    2    0    0  0.36098955313E+02  0.11635847920E+02  0.14650522412E+02  0.40659135978E+02  0.00000000000E+00 0.  1.
         11    1    3    3    0    0 -0.11697039864E+02 -0.96150910756E+01  0.53758009755E-01  0.15141783520E+02  0.51100000000E-03 0. -1.
        -11    1    3    3    0    0  0.49559072049E+00 -0.38199080973E+01  0.29169095897E+01  0.48317356974E+01  0.51100000000E-03 0.  1.
        -12    1    3    3    0    0 -0.24897506169E+02  0.17991512525E+01 -0.17621190012E+02  0.30555344804E+02  0.00000000000E+00 0.  1.
</event>
<event>
 7    1  0.5601662E-013  0.5052895E+02  0.7816164E-02  0.1300438E+00
        -11   -1    0    0    0    0  0.00000000000E+00  0.00000000000E+00  0.45593999997E+02  0.45594000000E+02  0.51100000000E-03 0.  1.
         11   -1    0    0    0    0 -0.00000000000E+00 -0.00000000000E+00 -0.45593999997E+02  0.45594000000E+02  0.51100000000E-03 0. -1.
    9900012    2    1    2    0    0 -0.21725385123E+02  0.33107903389E+02 -0.92213367843E+01  0.50528945932E+02  0.30000261655E+02 0.  0.
        -12    1    1    2    0    0  0.21725385123E+02 -0.33107903389E+02  0.92213367843E+01  0.40659054068E+02  0.00000000000E+00 0.  1.
         11    1    3    3    0    0 -0.13924343291E+02  0.11900146881E+02  0.19177005800E+01  0.18416796889E+02  0.51100000000E-03 0.  1.
        -11    1    3    3    0    0 -0.37989516424E+00  0.17617024023E+02  0.75846487200E+00  0.17637435329E+02  0.51100000000E-03 0. -1.
         12    1    3    3    0    0 -0.74211466675E+01  0.35907324854E+01 -0.11897502236E+02  0.14474713714E+02  0.00000000000E+00 0. -1.
</event>
<event>
 7    1  0.5601662E-013  0.5052886E+02  0.7816164E-02  0.1300439E+00
        -11   -1    0    0    0    0  0.00000000000E+00  0.00000000000E+00  0.45593999997E+02  0.45594000000E+02  0.51100000000E-03 0.  1.
         11   -1    0    0    0    0 -0.00000000000E+00 -0.00000000000E+00 -0.45593999997E+02  0.45594000000E+02  0.51100000000E-03 0. -1.
    9900012    2    1    2    0    0 -0.18348251767E+02 -0.56854535542E+00 -0.36279251979E+02  0.50528859443E+02  0.29999998762E+02 0.  0.
        -12    1    1    2    0    0  0.18348251767E+02  0.56854535542E+00  0.36279251979E+02  0.40659140557E+02  0.00000000000E+00 0.  1.
         11    1    3    3    0    0 -0.17873743141E+01  0.56654478589E+01 -0.82875427366E+01  0.10196831432E+02  0.51100000000E-03 0. -1.
        -11    1    3    3    0    0 -0.12396296727E+02 -0.14616884171E+02 -0.22183598839E+02  0.29316096826E+02  0.51100000000E-03 0.  1.
         12    1    3    3    0    0 -0.41645807265E+01  0.83828909564E+01 -0.58081104027E+01  0.11015931185E+02  0.00000000000E+00 0. -1.
</event>
<event>
 7    1  0.5601662E-013  0.5052887E+02  0.7816164E-02  0.1300439E+00
        -11   -1    0    0    0    0  0.00000000000E+00  0.00000000000E+00  0.45593999997E+02  0.45594000000E+02  0.51100000000E-03 0.  1.
         11   -1    0    0    0    0 -0.00000000000E+00 -0.00000000000E+00 -0.45593999997E+02  0.45594000000E+02  0.51100000000E-03 0. -1.
    9900012    2    1    2    0    0  0.11690640449E+02 -0.38932781148E+02  0.85595496456E+00  0.50528865959E+02  0.30000018570E+02 0.  0.
        -12    1    1    2    0    0 -0.11690640449E+02  0.38932781148E+02 -0.85595496456E+00  0.40659134041E+02  0.00000000000E+00 0.  1.
         11    1    3    3    0    0  0.10141049946E+02 -0.16617315113E+01 -0.34348950646E+01  0.10835162665E+02  0.51100000000E-03 0. -1.
        -11    1    3    3    0    0  0.50489205603E+01 -0.63987909224E+01  0.26872834680E+01  0.85824015748E+01  0.51100000000E-03 0.  1.
         12    1    3    3    0    0 -0.34993300566E+01 -0.30872258714E+02  0.16035665612E+01  0.31111301719E+02  0.00000000000E+00 0. -1.
</event>
<event>
 7    1  0.5601662E-013  0.5052885E+02  0.7816164E-02  0.1300439E+00
        -11   -1    0    0    0    0  0.00000000000E+00  0.00000000000E+00  0.45593999997E+02  0.45594000000E+02  0.51100000000E-03 0.  1.
         11   -1    0    0    0    0 -0.00000000000E+00 -0.00000000000E+00 -0.45593999997E+02  0.45594000000E+02  0.51100000000E-03 0. -1.
    9900012    2    1    2    0    0 -0.18339392474E+02  0.21804017494E+02 -0.29007200329E+02  0.50528853845E+02  0.29999981747E+02 0.  0.
        -12    1    1    2    0    0  0.18339392474E+02 -0.21804017494E+02  0.29007200329E+02  0.40659146155E+02  0.00000000000E+00 0.  1.
         11    1    3    3    0    0 -0.17227499183E+01 -0.42512277210E+01 -0.10320964159E+02  0.11294383819E+02  0.51100000000E-03 0. -1.
        -11    1    3    3    0    0 -0.23107029845E+00  0.14361244398E+02 -0.81178939970E+01  0.16498452574E+02  0.51100000000E-03 0.  1.
        -12    1    3    3    0    0 -0.16385572257E+02  0.11694000817E+02 -0.10568342173E+02  0.22736017452E+02  0.00000000000E+00 0.  1.
</event>
<event>
 7    1  0.5601662E-013  0.5052885E+02  0.7816164E-02  0.1300439E+00
        -11   -1    0    0    0    0  0.00000000000E+00  0.00000000000E+00  0.45593999997E+02  0.45594000000E+02  0.51100000000E-03 0.  1.
         11   -1    0    0    0    0 -0.00000000000E+00 -0.00000000000E+00 -0.45593999997E+02  0.45594000000E+02  0.51100000000E-03 0. -1.
    9900012    2    1    2    0    0  0.32981731562E+02  0.19734626434E+01 -0.23695506619E+02  0.50528853359E+02  0.29999980270E+02 0.  0.
        -12    1    1    2    0    0 -0.32981731562E+02 -0.19734626434E+01  0.23695506619E+02  0.40659146641E+02  0.00000000000E+00 0.  1.
         11    1    3    3    0    0  0.12222893263E+02  0.67264690247E+01 -0.22455142140E+01  0.14131059394E+02  0.51100000000E-03 0. -1.
        -11    1    3    3    0    0  0.10262864638E+02  0.78418862593E+01 -0.10909838494E+02  0.16906985152E+02  0.51100000000E-03 0.  1.
        -12    1    3    3    0    0  0.10495973661E+02 -0.12594892641E+02 -0.10540153911E+02  0.19490808813E+02  0.00000000000E+00 0.  1.
</event>
<event>
 7    1  0.5601662E-013  0.5052886E+02  0.7816164E-02  0.1300439E+00
        -11   -1    0    0    0    0  0.00000000000E+00  0.00000000000E+00  0.45593999997E+02  0.45594000000E+02  0.51100000000E-03 0.  1.
         11   -1    0    0    0    0 -0.00000000000E+00 -0.00000000000E+00 -0.45593999997E+02  0.45594000000E+02  0.51100000000E-03 0. -1.
    9900012    2    1    2    0    0 -0.36307472654E+02 -0.17554586564E+02  0.51739433881E+01  0.50528858714E+02  0.29999996547E+02 0.  0.
        -12    1    1    2    0    0  0.36307472654E+02  0.17554586564E+02 -0.51739433881E+01  0.40659141286E+02  0.00000000000E+00 0.  1.
         11    1    3    3    0    0 -0.22993220098E+02 -0.49595069129E+01  0.69336706253E+01  0.24522656216E+02  0.51100000000E-03 0. -1.
        -11    1    3    3    0    0  0.16965832260E+01 -0.22736022248E+01  0.56639556525E+01  0.63346709160E+01  0.51100000000E-03 0.  1.
        -12    1    3    3    0    0 -0.15010835782E+02 -0.10321477426E+02 -0.74236828897E+01  0.19671531582E+02  0.00000000000E+00 0.  1.
</event>
<event>
 7    1  0.5601662E-013  0.5052888E+02  0.7816164E-02  0.1300439E+00
        -11   -1    0    0    0    0  0.00000000000E+00  0.00000000000E+00  0.45593999997E+02  0.45594000000E+02  0.51100000000E-03 0. -1.
         11   -1    0    0    0    0 -0.00000000000E+00 -0.00000000000E+00 -0.45593999997E+02  0.45594000000E+02  0.51100000000E-03 0.  1.
    9900012    2    1    2    0    0 -0.33092736549E+02 -0.22966864030E+02 -0.55278921842E+01  0.50528884814E+02  0.30000075882E+02 0.  0.
        -12    1    1    2    0    0  0.33092736549E+02  0.22966864030E+02  0.55278921842E+01  0.40659115186E+02  0.00000000000E+00 0.  1.
         11    1    3    3    0    0 -0.25463952090E+02 -0.20530581558E+02 -0.51853009495E+01  0.33118046158E+02  0.51100000000E-03 0. -1.
        -11    1    3    3    0    0 -0.49729777460E+01 -0.88762962956E+01 -0.16949371940E+01  0.10314647640E+02  0.51100000000E-03 0.  1.
        -12    1    3    3    0    0 -0.26558067130E+01  0.64400138232E+01  0.13523459593E+01  0.70961910159E+01  0.00000000000E+00 0.  1.
</event>
<event>
 7    1  0.5601662E-013  0.5052887E+02  0.7816164E-02  0.1300439E+00
        -11   -1    0    0    0    0  0.00000000000E+00  0.00000000000E+00  0.45593999997E+02  0.45594000000E+02  0.51100000000E-03 0.  1.
         11   -1    0    0    0    0 -0.00000000000E+00 -0.00000000000E+00 -0.45593999997E+02  0.45594000000E+02  0.51100000000E-03 0. -1.
    9900012    2    1    2    0    0  0.51376741274E+01 -0.33904897993E+02 -0.21845521713E+02  0.50528872830E+02  0.30000039453E+02 0.  0.
        -12    1    1    2    0    0 -0.51376741274E+01  0.33904897993E+02  0.21845521713E+02  0.40659127170E+02  0.00000000000E+00 0.  1.
         11    1    3    3    0    0 -0.49620455346E+01  0.14234542365E+01 -0.90919651875E+00  0.52416368075E+01  0.51100000000E-03 0. -1.
        -11    1    3    3    0    0  0.13049345754E+02 -0.18773155138E+02 -0.85809281091E+01  0.24420260152E+02  0.51100000000E-03 0.  1.
         12    1    3    3    0    0 -0.29496260916E+01 -0.16555197091E+02 -0.12355397086E+02  0.20866975870E+02  0.00000000000E+00 0. -1.
</event>
<event>
 7    1  0.5601662E-013  0.5052886E+02  0.7816164E-02  0.1300439E+00
        -11   -1    0    0    0    0  0.00000000000E+00  0.00000000000E+00  0.45593999997E+02  0.45594000000E+02  0.51100000000E-03 0.  1.
         11   -1    0    0    0    0 -0.00000000000E+00 -0.00000000000E+00 -0.45593999997E+02  0.45594000000E+02  0.51100000000E-03 0. -1.
    9900012    2    1    2    0    0 -0.25560960047E+02 -0.17280530312E+02 -0.26479918772E+02  0.50528861979E+02  0.30000006471E+02 0.  0.
        -12    1    1    2    0    0  0.25560960047E+02  0.17280530312E+02  0.26479918772E+02  0.40659138021E+02  0.00000000000E+00 0.  1.
         11    1    3    3    0    0 -0.97754267323E+01 -0.15132131987E+02 -0.20123817358E+02  0.27009413388E+02  0.51100000000E-03 0. -1.
        -11    1    3    3    0    0 -0.53344277614E+01 -0.14769584960E+01 -0.10805587741E+02  0.12140768206E+02  0.51100000000E-03 0.  1.
        -12    1    3    3    0    0 -0.10451105554E+02 -0.67143982978E+00  0.44494863263E+01  0.11378680385E+02  0.00000000000E+00 0.  1.
</event>
<event>
 7    1  0.5601662E-013  0.5052886E+02  0.7816164E-02  0.1300439E+00
        -11   -1    0    0    0    0  0.00000000000E+00  0.00000000000E+00  0.45593999997E+02  0.45594000000E+02  0.51100000000E-03 0.  1.
         11   -1    0    0    0    0 -0.00000000000E+00 -0.00000000000E+00 -0.45593999997E+02  0.45594000000E+02  0.51100000000E-03 0. -1.
    9900012    2    1    2    0    0  0.28874296578E+02 -0.28077289636E+02  0.55773481399E+01  0.50528855783E+02  0.29999987639E+02 0.  0.
        -12    1    1    2    0    0 -0.28874296578E+02  0.28077289636E+02 -0.55773481399E+01  0.40659144217E+02  0.00000000000E+00 0.  1.
         11    1    3    3    0    0 -0.42382841194E+01 -0.42119851125E+00 -0.21168742476E+01  0.47562188032E+01  0.51100000000E-03 0. -1.
        -11    1    3    3    0    0  0.46707657148E+01 -0.10412435659E+02  0.48189917039E+01  0.12387798433E+02  0.51100000000E-03 0.  1.
        -12    1    3    3    0    0  0.28441814983E+02 -0.17243655465E+02  0.28752306837E+01  0.33384838547E+02  0.00000000000E+00 0.  1.
</event>
<event>
 7    1  0.5601662E-013  0.5052887E+02  0.7816164E-02  0.1300439E+00
        -11   -1    0    0    0    0  0.00000000000E+00  0.00000000000E+00  0.45593999997E+02  0.45594000000E+02  0.51100000000E-03 0.  1.
         11   -1    0    0    0    0 -0.00000000000E+00 -0.00000000000E+00 -0.45593999997E+02  0.45594000000E+02  0.51100000000E-03 0. -1.
    9900012    2    1    2    0    0 -0.50551215654E+01 -0.40298526913E+02 -0.19076481031E+01  0.50528872530E+02  0.30000038541E+02 0.  0.
        -12    1    1    2    0    0  0.50551215654E+01  0.40298526913E+02  0.19076481031E+01  0.40659127470E+02  0.00000000000E+00 0.  1.
         11    1    3    3    0    0  0.32148417664E+01 -0.17176259538E+02 -0.38661804746E+01  0.17897107336E+02  0.51100000000E-03 0. -1.
        -11    1    3    3    0    0  0.69228633808E+01 -0.92953454154E+01  0.32838124239E+01  0.12046281919E+02  0.51100000000E-03 0.  1.
        -12    1    3    3    0    0 -0.15192826713E+02 -0.13826921960E+02 -0.13252800524E+01  0.20585483274E+02  0.00000000000E+00 0.  1.
</event>
<event>
 7    1  0.5601662E-013  0.5052885E+02  0.7816164E-02  0.1300439E+00
        -11   -1    0    0    0    0  0.00000000000E+00  0.00000000000E+00  0.45593999997E+02  0.45594000000E+02  0.51100000000E-03 0. -1.
         11   -1    0    0    0    0 -0.00000000000E+00 -0.00000000000E+00 -0.45593999997E+02  0.45594000000E+02  0.51100000000E-03 0.  1.
    9900012    2    1    2    0    0  0.46860975088E+01 -0.22741620590E+02  0.33377018638E+02  0.50528853550E+02  0.29999980851E+02 0.  0.
        -12    1    1    2    0    0 -0.46860975088E+01  0.22741620590E+02 -0.33377018638E+02  0.40659146450E+02  0.00000000000E+00 0.  1.
         11    1    3    3    0    0  0.41368368531E+01 -0.22118818423E+01  0.88199118406E+00  0.47732325675E+01  0.51100000000E-03 0.  1.
        -11    1    3    3    0    0 -0.79472113936E+01  0.17031812742E+01  0.11058998965E+02  0.13724447303E+02  0.51100000000E-03 0. -1.
         12    1    3    3    0    0  0.84964720493E+01 -0.22232920022E+02  0.21436028488E+02  0.32031173680E+02  0.00000000000E+00 0. -1.
</event>
<event>
 7    1  0.5601662E-013  0.5052886E+02  0.7816164E-02  0.1300439E+00
        -11   -1    0    0    0    0  0.00000000000E+00  0.00000000000E+00  0.45593999997E+02  0.45594000000E+02  0.51100000000E-03 0.  1.
         11   -1    0    0    0    0 -0.00000000000E+00 -0.00000000000E+00 -0.45593999997E+02  0.45594000000E+02  0.51100000000E-03 0. -1.
    9900012    2    1    2    0    0 -0.28900296713E+02  0.18079509794E+02 -0.22160101629E+02  0.50528856764E+02  0.29999990619E+02 0.  0.
        -12    1    1    2    0    0  0.28900296713E+02 -0.18079509794E+02  0.22160101629E+02  0.40659143236E+02  0.00000000000E+00 0.  1.
         11    1    3    3    0    0 -0.83818319328E+01  0.10440640665E+01 -0.30760832039E+01  0.89892972174E+01  0.51100000000E-03 0.  1.
        -11    1    3    3    0    0 -0.20204934408E+02  0.12195392231E+01 -0.62964584733E+01  0.21198397107E+02  0.51100000000E-03 0. -1.
        -12    1    3    3    0    0 -0.31353037277E+00  0.15815906505E+02 -0.12787559951E+02  0.20341162439E+02  0.00000000000E+00 0.  1.
</event>
<event>
 7    1  0.5601662E-013  0.5052886E+02  0.7816164E-02  0.1300439E+00
        -11   -1    0    0    0    0  0.00000000000E+00  0.00000000000E+00  0.45593999997E+02  0.45594000000E+02  0.51100000000E-03 0. -1.
         11   -1    0    0    0    0 -0.00000000000E+00 -0.00000000000E+00 -0.45593999997E+02  0.45594000000E+02  0.51100000000E-03 0.  1.
    9900012    2    1    2    0    0 -0.30938342261E+02 -0.61405401495E+01  0.25656937164E+02  0.50528859824E+02  0.29999999922E+02 0.  0.
        -12    1    1    2    0    0  0.30938342261E+02  0.61405401495E+01 -0.25656937164E+02  0.40659140176E+02  0.00000000000E+00 0.  1.
         11    1    3    3    0    0 -0.31269258898E+01 -0.66930043947E+01  0.18355315457E+02  0.19786146142E+02  0.51100000000E-03 0. -1.
        -11    1    3    3    0    0 -0.10424585545E+01  0.46595078377E+00  0.35289361307E+01  0.37090727206E+01  0.51100000000E-03 0.  1.
         12    1    3    3    0    0 -0.26768957817E+02  0.86513461494E-01  0.37726855755E+01  0.27033640962E+02  0.00000000000E+00 0. -1.
</event>
<event>
 7    1  0.5601662E-013  0.5052885E+02  0.7816164E-02  0.1300439E+00
        -11   -1    0    0    0    0  0.00000000000E+00  0.00000000000E+00  0.45593999997E+02  0.45594000000E+02  0.51100000000E-03 0.  1.
         11   -1    0    0    0    0 -0.00000000000E+00 -0.00000000000E+00 -0.45593999997E+02  0.45594000000E+02  0.51100000000E-03 0. -1.
    9900012    2    1    2    0    0 -0.12377208632E+02 -0.35584075501E+02 -0.15288713772E+02  0.50528849842E+02  0.29999969579E+02 0.  0.
        -12    1    1    2    0    0  0.12377208632E+02  0.35584075501E+02  0.15288713772E+02  0.40659150158E+02  0.00000000000E+00 0.  1.
         11    1    3    3    0    0 -0.59967088132E+01 -0.27269829165E+00 -0.10996333037E+02  0.12528137190E+02  0.51100000000E-03 0. -1.
        -11    1    3    3    0    0 -0.61124593897E+01 -0.16020341038E+02 -0.69963622553E+01  0.18519248684E+02  0.51100000000E-03 0.  1.
        -12    1    3    3    0    0 -0.26804042900E+00 -0.19291036172E+02  0.27039815198E+01  0.19481463967E+02  0.00000000000E+00 0.  1.
</event>
<event>
 7    1  0.5601662E-013  0.5052873E+02  0.7816164E-02  0.1300439E+00
        -11   -1    0    0    0    0  0.00000000000E+00  0.00000000000E+00  0.45593999997E+02  0.45594000000E+02  0.51100000000E-03 0.  1.
         11   -1    0    0    0    0 -0.00000000000E+00 -0.00000000000E+00 -0.45593999997E+02  0.45594000000E+02  0.51100000000E-03 0. -1.
    9900012    2    1    2    0    0 -0.93566888171E+01  0.22412343975E+02 -0.32608521717E+02  0.50528727052E+02  0.29999596344E+02 0.  0.
        -12    1    1    2    0    0  0.93566888171E+01 -0.22412343975E+02  0.32608521717E+02  0.40659272948E+02  0.00000000000E+00 0.  1.
         11    1    3    3    0    0  0.33740957581E+01  0.15042180129E+01  0.32125176938E+01  0.48956576891E+01  0.51100000000E-03 0. -1.
        -11    1    3    3    0    0  0.33978709918E+00  0.32506790594E+01 -0.15045913706E+02  0.15396814253E+02  0.51100000000E-03 0.  1.
         12    1    3    3    0    0 -0.13070571674E+02  0.17657446903E+02 -0.20775125705E+02  0.30236255110E+02  0.00000000000E+00 0. -1.
</event>
<event>
 7    1  0.5601662E-013  0.5052886E+02  0.7816164E-02  0.1300439E+00
        -11   -1    0    0    0    0  0.00000000000E+00  0.00000000000E+00  0.45593999997E+02  0.45594000000E+02  0.51100000000E-03 0.  1.
         11   -1    0    0    0    0 -0.00000000000E+00 -0.00000000000E+00 -0.45593999997E+02  0.45594000000E+02  0.51100000000E-03 0. -1.
    9900012    2    1    2    0    0  0.25983367566E+02 -0.27316585456E+02 -0.15226113581E+02  0.50528858767E+02  0.29999996707E+02 0.  0.
        -12    1    1    2    0    0 -0.25983367566E+02  0.27316585456E+02  0.15226113581E+02  0.40659141233E+02  0.00000000000E+00 0.  1.
         11    1    3    3    0    0  0.60847807741E+01 -0.17569805020E+02 -0.11155424938E+02  0.21683314122E+02  0.51100000000E-03 0. -1.
        -11    1    3    3    0    0  0.20980497048E+02 -0.88602036952E+01 -0.84165765878E+01  0.24280099415E+02  0.51100000000E-03 0.  1.
        -12    1    3    3    0    0 -0.10819102553E+01 -0.88657674091E+00  0.43458879447E+01  0.45654452297E+01  0.00000000000E+00 0.  1.
</event>
<event>
 7    1  0.5601662E-013  0.5052887E+02  0.7816164E-02  0.1300439E+00
        -11   -1    0    0    0    0  0.00000000000E+00  0.00000000000E+00  0.45593999997E+02  0.45594000000E+02  0.51100000000E-03 0. -1.
         11   -1    0    0    0    0 -0.00000000000E+00 -0.00000000000E+00 -0.45593999997E+02  0.45594000000E+02  0.51100000000E-03 0.  1.
    9900012    2    1    2    0    0  0.79374623088E+01  0.29564490444E+02  0.26760096947E+02  0.50528865827E+02  0.30000018167E+02 0.  0.
        -12    1    1    2    0    0 -0.79374623088E+01 -0.29564490444E+02 -0.26760096947E+02  0.40659134173E+02  0.00000000000E+00 0.  1.
         11    1    3    3    0    0  0.93458592568E+01  0.22287861159E+02  0.16408810868E+02  0.29212033730E+02  0.51100000000E-03 0. -1.
        -11    1    3    3    0    0  0.39689401988E+01  0.10419413754E+02  0.10161556088E+02  0.15085552415E+02  0.51100000000E-03 0.  1.
        -12    1    3    3    0    0 -0.53773371467E+01 -0.31427844686E+01  0.18972999101E+00  0.62312796820E+01  0.00000000000E+00 0.  1.
</event>
<event>
 7    1  0.5601662E-013  0.5052885E+02  0.7816164E-02  0.1300439E+00
        -11   -1    0    0    0    0  0.00000000000E+00  0.00000000000E+00  0.45593999997E+02  0.45594000000E+02  0.51100000000E-03 0.  1.
         11   -1    0    0    0    0 -0.00000000000E+00 -0.00000000000E+00 -0.45593999997E+02  0.45594000000E+02  0.51100000000E-03 0. -1.
    9900012    2    1    2    0    0 -0.12996486941E+02 -0.27950278406E+02 -0.26514893585E+02  0.50528851981E+02  0.29999976082E+02 0.  0.
        -12    1    1    2    0    0  0.12996486941E+02  0.27950278406E+02  0.26514893585E+02  0.40659148019E+02  0.00000000000E+00 0.  1.
         11    1    3    3    0    0 -0.79855019696E+01 -0.21883929242E+02 -0.15997618674E+02  0.28259483440E+02  0.51100000000E-03 0. -1.
        -11    1    3    3    0    0 -0.60656284415E+01 -0.25749327916E+01 -0.15063030020E+02  0.16441319926E+02  0.51100000000E-03 0.  1.
        -12    1    3    3    0    0  0.10546434705E+01 -0.34914163724E+01  0.45457551098E+01  0.58280486146E+01  0.00000000000E+00 0.  1.
</event>
<event>
 7    1  0.5601662E-013  0.5052886E+02  0.7816164E-02  0.1300439E+00
        -11   -1    0    0    0    0  0.00000000000E+00  0.00000000000E+00  0.45593999997E+02  0.45594000000E+02  0.51100000000E-03 0. -1.
         11   -1    0    0    0    0 -0.00000000000E+00 -0.00000000000E+00 -0.45593999997E+02  0.45594000000E+02  0.51100000000E-03 0.  1.
    9900012    2    1    2    0    0 -0.19376768447E+02 -0.33933253833E+02  0.11235697481E+02  0.50528858727E+02  0.29999996587E+02 0.  0.
        -12    1    1    2    0    0  0.19376768447E+02  0.33933253833E+02 -0.11235697481E+02  0.40659141273E+02  0.00000000000E+00 0.  1.
         11    1    3    3    0    0 -0.72007349309E+01 -0.70310764775E+01 -0.73254032118E+01  0.12447817176E+02  0.51100000000E-03 0.  1.
        -11    1    3    3    0    0  0.27846220167E+01 -0.33669983141E+01 -0.35421721998E+00  0.43836363356E+01  0.51100000000E-03 0. -1.
        -12    1    3    3    0    0 -0.14960655533E+02 -0.23535179042E+02  0.18915317913E+02  0.33697405215E+02  0.00000000000E+00 0.  1.
</event>
<event>
 7    1  0.5601662E-013  0.5052886E+02  0.7816164E-02  0.1300439E+00
        -11   -1    0    0    0    0  0.00000000000E+00  0.00000000000E+00  0.45593999997E+02  0.45594000000E+02  0.51100000000E-03 0.  1.
         11   -1    0    0    0    0 -0.00000000000E+00 -0.00000000000E+00 -0.45593999997E+02  0.45594000000E+02  0.51100000000E-03 0. -1.
    9900012    2    1    2    0    0  0.21546018501E+02 -0.32830567407E+02 -0.10539847184E+02  0.50528862673E+02  0.30000008580E+02 0.  0.
        -12    1    1    2    0    0 -0.21546018501E+02  0.32830567407E+02  0.10539847184E+02  0.40659137327E+02  0.00000000000E+00 0.  1.
         11    1    3    3    0    0 -0.30633929785E+00 -0.48647104048E+01  0.30324852728E+01  0.57406635748E+01  0.51100000000E-03 0. -1.
        -11    1    3    3    0    0 -0.28424109889E+01  0.22011985545E+01 -0.30989108297E+00  0.36084079662E+01  0.51100000000E-03 0.  1.
        -12    1    3    3    0    0  0.24694768787E+02 -0.30167055557E+02 -0.13262441374E+02  0.41179791132E+02  0.00000000000E+00 0.  1.
</event>
<event>
 7    1  0.5601662E-013  0.5052886E+02  0.7816164E-02  0.1300439E+00
        -11   -1    0    0    0    0  0.00000000000E+00  0.00000000000E+00  0.45593999997E+02  0.45594000000E+02  0.51100000000E-03 0.  1.
         11   -1    0    0    0    0 -0.00000000000E+00 -0.00000000000E+00 -0.45593999997E+02  0.45594000000E+02  0.51100000000E-03 0. -1.
    9900012    2    1    2    0    0  0.12936179416E+02 -0.32803393982E+01 -0.38406516089E+02  0.50528857823E+02  0.29999993839E+02 0.  0.
        -12    1    1    2    0    0 -0.12936179416E+02  0.32803393982E+01  0.38406516089E+02  0.40659142177E+02  0.00000000000E+00 0.  1.
         11    1    3    3    0    0  0.16154623514E+02 -0.77054781912E+01 -0.32424533933E+02  0.37036423370E+02  0.51100000000E-03 0. -1.
        -11    1    3    3    0    0 -0.98782026233E+00 -0.30611788132E+01 -0.45160811023E+01  0.55445102020E+01  0.51100000000E-03 0.  1.
        -12    1    3    3    0    0 -0.22306238357E+01  0.74863176061E+01 -0.14659010537E+01  0.79479242507E+01  0.00000000000E+00 0.  1.
</event>
<event>
 7    1  0.5601662E-013  0.5052886E+02  0.7816164E-02  0.1300439E+00
        -11   -1    0    0    0    0  0.00000000000E+00  0.00000000000E+00  0.45593999997E+02  0.45594000000E+02  0.51100000000E-03 0. -1.
         11   -1    0    0    0    0 -0.00000000000E+00 -0.00000000000E+00 -0.45593999997E+02  0.45594000000E+02  0.51100000000E-03 0.  1.
    9900012    2    1    2    0    0 -0.28998512988E+02  0.90214968246E+01  0.27034507565E+02  0.50528858842E+02  0.29999996936E+02 0.  0.
        -12    1    1    2    0    0  0.28998512988E+02 -0.90214968246E+01 -0.27034507565E+02  0.40659141158E+02  0.00000000000E+00 0.  1.
         11    1    3    3    0    0  0.60888896623E+01  0.18404390162E+00  0.37927527409E+01  0.71758917977E+01  0.51100000000E-03 0. -1.
        -11    1    3    3    0    0 -0.46635277767E+01 -0.34037488691E-01  0.14178299281E+01  0.48744119482E+01  0.51100000000E-03 0.  1.
         12    1    3    3    0    0 -0.30423874873E+02  0.88714904117E+01  0.21823924896E+02  0.38478555096E+02  0.00000000000E+00 0. -1.
</event>
<event>
 7    1  0.5601662E-013  0.5052884E+02  0.7816164E-02  0.1300439E+00
        -11   -1    0    0    0    0  0.00000000000E+00  0.00000000000E+00  0.45593999997E+02  0.45594000000E+02  0.51100000000E-03 0.  1.
         11   -1    0    0    0    0 -0.00000000000E+00 -0.00000000000E+00 -0.45593999997E+02  0.45594000000E+02  0.51100000000E-03 0. -1.
    9900012    2    1    2    0    0 -0.78692800842E+01  0.12583260422E+01 -0.39870516071E+02  0.50528843525E+02  0.29999950378E+02 0.  0.
        -12    1    1    2    0    0  0.78692800842E+01 -0.12583260422E+01  0.39870516071E+02  0.40659156475E+02  0.00000000000E+00 0.  1.
         11    1    3    3    0    0  0.67430766833E+01 -0.41237127789E+01 -0.44889755652E+01  0.90898290482E+01  0.51100000000E-03 0. -1.
        -11    1    3    3    0    0 -0.53947322433E+01  0.99200184765E+01 -0.18994448872E+02  0.22097488336E+02  0.51100000000E-03 0.  1.
        -12    1    3    3    0    0 -0.92176245243E+01 -0.45379796554E+01 -0.16387091635E+02  0.19341526141E+02  0.00000000000E+00 0.  1.
</event>
<event>
 7    1  0.5601662E-013  0.5052889E+02  0.7816164E-02  0.1300439E+00
        -11   -1    0    0    0    0  0.00000000000E+00  0.00000000000E+00  0.45593999997E+02  0.45594000000E+02  0.51100000000E-03 0.  1.
         11   -1    0    0    0    0 -0.00000000000E+00 -0.00000000000E+00 -0.45593999997E+02  0.45594000000E+02  0.51100000000E-03 0. -1.
    9900012    2    1    2    0    0  0.65659410017E+01  0.90294908653E+01 -0.39096289586E+02  0.50528890985E+02  0.30000094638E+02 0.  0.
        -12    1    1    2    0    0 -0.65659410017E+01 -0.90294908653E+01  0.39096289586E+02  0.40659109015E+02  0.00000000000E+00 0.  1.
         11    1    3    3    0    0 -0.77922323781E+00  0.14615694932E+01 -0.17297958530E+02  0.17377075237E+02  0.51100000000E-03 0. -1.
        -11    1    3    3    0    0  0.58658822251E+01  0.94192667372E+01 -0.26032948181E+02  0.28299214678E+02  0.51100000000E-03 0.  1.
        -12    1    3    3    0    0  0.14792820144E+01 -0.18513453651E+01  0.42346171256E+01  0.48526010695E+01  0.00000000000E+00 0.  1.
</event>
<event>
 7    1  0.5601662E-013  0.5052883E+02  0.7816164E-02  0.1300439E+00
        -11   -1    0    0    0    0  0.00000000000E+00  0.00000000000E+00  0.45593999997E+02  0.45594000000E+02  0.51100000000E-03 0.  1.
         11   -1    0    0    0    0 -0.00000000000E+00 -0.00000000000E+00 -0.45593999997E+02  0.45594000000E+02  0.51100000000E-03 0. -1.
    9900012    2    1    2    0    0  0.19058150347E+02 -0.10891819210E+02 -0.34224604077E+02  0.50528827055E+02  0.29999900315E+02 0.  0.
        -12    1    1    2    0    0 -0.19058150347E+02  0.10891819210E+02  0.34224604077E+02  0.40659172945E+02  0.00000000000E+00 0.  1.
         11    1    3    3    0    0  0.70331699549E+01 -0.41691266914E+01 -0.11971422282E+02  0.14496966879E+02  0.51100000000E-03 0. -1.
        -11    1    3    3    0    0  0.43879988158E-01 -0.89187349437E+01  0.17739518210E+01  0.90935506692E+01  0.51100000000E-03 0.  1.
         12    1    3    3    0    0  0.11981100404E+02  0.21960424256E+01 -0.24027133616E+02  0.26938309506E+02  0.00000000000E+00 0. -1.
</event>
<event>
 7    1  0.5601662E-013  0.5052886E+02  0.7816164E-02  0.1300439E+00
        -11   -1    0    0    0    0  0.00000000000E+00  0.00000000000E+00  0.45593999997E+02  0.45594000000E+02  0.51100000000E-03 0. -1.
         11   -1    0    0    0    0 -0.00000000000E+00 -0.00000000000E+00 -0.45593999997E+02  0.45594000000E+02  0.51100000000E-03 0.  1.
    9900012    2    1    2    0    0 -0.55989585129E+01  0.31077051100E+02  0.25613167163E+02  0.50528858671E+02  0.29999996416E+02 0.  0.
        -12    1    1    2    0    0  0.55989585129E+01 -0.31077051100E+02 -0.25613167163E+02  0.40659141329E+02  0.00000000000E+00 0.  1.
         11    1    3    3    0    0 -0.42340919621E+01  0.13377707944E+02  0.14175543421E+02  0.19945842577E+02  0.51100000000E-03 0. -1.
        -11    1    3    3    0    0  0.69197737044E+01 -0.15843964066E+01  0.48040391705E+01  0.85716026918E+01  0.51100000000E-03 0.  1.
         12    1    3    3    0    0 -0.82846402551E+01  0.19283739563E+02  0.66335845723E+01  0.22011413402E+02  0.00000000000E+00 0. -1.
</event>
<event>
 7    1  0.5601662E-013  0.5052886E+02  0.7816164E-02  0.1300439E+00
        -11   -1    0    0    0    0  0.00000000000E+00  0.00000000000E+00  0.45593999997E+02  0.45594000000E+02  0.51100000000E-03 0.  1.
         11   -1    0    0    0    0 -0.00000000000E+00 -0.00000000000E+00 -0.45593999997E+02  0.45594000000E+02  0.51100000000E-03 0. -1.
    9900012    2    1    2    0    0  0.13905341827E+02  0.18623518776E+02 -0.33361228490E+02  0.50528861429E+02  0.30000004801E+02 0.  0.
        -12    1    1    2    0    0 -0.13905341827E+02 -0.18623518776E+02  0.33361228490E+02  0.40659138571E+02  0.00000000000E+00 0.  1.
         11    1    3    3    0    0 -0.11286550810E+01  0.75934965568E+01 -0.10576306668E+02  0.13068791652E+02  0.51100000000E-03 0. -1.
        -11    1    3    3    0    0  0.23882636607E+00  0.37628094504E+01 -0.20470429195E+02  0.20814760260E+02  0.51100000000E-03 0.  1.
        -12    1    3    3    0    0  0.14795170542E+02  0.72672127692E+01 -0.23144926267E+01  0.16645309517E+02  0.00000000000E+00 0.  1.
</event>
<event>
 7    1  0.5601662E-013  0.5052887E+02  0.7816164E-02  0.1300439E+00
        -11   -1    0    0    0    0  0.00000000000E+00  0.00000000000E+00  0.45593999997E+02  0.45594000000E+02  0.51100000000E-03 0.  1.
         11   -1    0    0    0    0 -0.00000000000E+00 -0.00000000000E+00 -0.45593999997E+02  0.45594000000E+02  0.51100000000E-03 0. -1.
    9900012    2    1    2    0    0  0.79923677660E+01 -0.30696443858E+02 -0.25436490048E+02  0.50528872685E+02  0.30000039014E+02 0.  0.
        -12    1    1    2    0    0 -0.79923677660E+01  0.30696443858E+02  0.25436490048E+02  0.40659127315E+02  0.00000000000E+00 0.  1.
         11    1    3    3    0    0  0.44770047878E+01 -0.24019398606E+02 -0.14913662763E+02  0.28625031328E+02  0.51100000000E-03 0. -1.
        -11    1    3    3    0    0  0.71780649346E+01 -0.11210091063E+02 -0.64340551559E+01  0.14784715887E+02  0.51100000000E-03 0.  1.
         12    1    3    3    0    0 -0.36627019564E+01  0.45330458104E+01 -0.40887721293E+01  0.71191254705E+01  0.00000000000E+00 0. -1.
</event>
<event>
 7    1  0.5601662E-013  0.5052885E+02  0.7816164E-02  0.1300439E+00
        -11   -1    0    0    0    0  0.00000000000E+00  0.00000000000E+00  0.45593999997E+02  0.45594000000E+02  0.51100000000E-03 0. -1.
         11   -1    0    0    0    0 -0.00000000000E+00 -0.00000000000E+00 -0.45593999997E+02  0.45594000000E+02  0.51100000000E-03 0.  1.
    9900012    2    1    2    0    0  0.18597099595E+02  0.30392329451E+02  0.19586235039E+02  0.50528850897E+02  0.29999972786E+02 0.  0.
        -12    1    1    2    0    0 -0.18597099595E+02 -0.30392329451E+02 -0.19586235039E+02  0.40659149103E+02  0.00000000000E+00 0.  1.
         11    1    3    3    0    0  0.25578018124E+01  0.11931026327E+02  0.14735472883E+02  0.19131803383E+02  0.51100000000E-03 0. -1.
        -11    1    3    3    0    0  0.69819545098E+01  0.19071121427E+02  0.79429341065E+01  0.21807007217E+02  0.51100000000E-03 0.  1.
        -12    1    3    3    0    0  0.90573432729E+01 -0.60981830329E+00 -0.30921719511E+01  0.95900402972E+01  0.00000000000E+00 0.  1.
</event>
<event>
 7    1  0.5601662E-013  0.5052885E+02  0.7816164E-02  0.1300439E+00
        -11   -1    0    0    0    0  0.00000000000E+00  0.00000000000E+00  0.45593999997E+02  0.45594000000E+02  0.51100000000E-03 0. -1.
         11   -1    0    0    0    0 -0.00000000000E+00 -0.00000000000E+00 -0.45593999997E+02  0.45594000000E+02  0.51100000000E-03 0.  1.
    9900012    2    1    2    0    0  0.10848912797E+02  0.38596514042E+02 -0.67658180187E+01  0.50528854675E+02  0.29999984270E+02 0.  0.
        -12    1    1    2    0    0 -0.10848912797E+02 -0.38596514042E+02  0.67658180187E+01  0.40659145325E+02  0.00000000000E+00 0.  1.
         11    1    3    3    0    0  0.16471250151E+02  0.21555780941E+02  0.48083406956E+01  0.27551296050E+02  0.51100000000E-03 0. -1.
        -11    1    3    3    0    0  0.20126262232E+01  0.24673499660E+01 -0.32096227429E+01  0.45210793603E+01  0.51100000000E-03 0.  1.
        -12    1    3    3    0    0 -0.76349635772E+01  0.14573383135E+02 -0.83645359714E+01  0.18456479265E+02  0.00000000000E+00 0.  1.
</event>
<event>
 7    1  0.5601662E-013  0.5052886E+02  0.7816164E-02  0.1300439E+00
        -11   -1    0    0    0    0  0.00000000000E+00  0.00000000000E+00  0.45593999997E+02  0.45594000000E+02  0.51100000000E-03 0. -1.
         11   -1    0    0    0    0 -0.00000000000E+00 -0.00000000000E+00 -0.45593999997E+02  0.45594000000E+02  0.51100000000E-03 0.  1.
    9900012    2    1    2    0    0  0.17931555615E+02  0.36363950703E+02 -0.30475745519E+01  0.50528864395E+02  0.30000013816E+02 0.  0.
        -12    1    1    2    0    0 -0.17931555615E+02 -0.36363950703E+02  0.30475745519E+01  0.40659135605E+02  0.00000000000E+00 0.  1.
         11    1    3    3    0    0  0.22490074199E+02  0.30322698316E+02  0.50902583005E+00  0.37756172717E+02  0.51100000000E-03 0. -1.
        -11    1    3    3    0    0  0.17629598788E+01  0.46147006851E+01 -0.38839411930E+01  0.62839867440E+01  0.51100000000E-03 0.  1.
        -12    1    3    3    0    0 -0.63214784634E+01  0.14265517012E+01  0.32734081100E+00  0.64887049344E+01  0.00000000000E+00 0.  1.
</event>
<event>
 7    1  0.5601662E-013  0.5052886E+02  0.7816164E-02  0.1300439E+00
        -11   -1    0    0    0    0  0.00000000000E+00  0.00000000000E+00  0.45593999997E+02  0.45594000000E+02  0.51100000000E-03 0.  1.
         11   -1    0    0    0    0 -0.00000000000E+00 -0.00000000000E+00 -0.45593999997E+02  0.45594000000E+02  0.51100000000E-03 0. -1.
    9900012    2    1    2    0    0 -0.25623164558E+02  0.27964500908E+02 -0.14649435423E+02  0.50528857962E+02  0.29999994263E+02 0.  0.
        -12    1    1    2    0    0  0.25623164558E+02 -0.27964500908E+02  0.14649435423E+02  0.40659142038E+02  0.00000000000E+00 0.  1.
         11    1    3    3    0    0  0.21909917250E+01 -0.30612185950E+01 -0.14516676490E+01  0.40347048529E+01  0.51100000000E-03 0. -1.
        -11    1    3    3    0    0  0.18576631603E+01  0.32089993330E+01 -0.23883810021E+01  0.44105502161E+01  0.51100000000E-03 0.  1.
         12    1    3    3    0    0 -0.29671819443E+02  0.27816720170E+02 -0.10809386772E+02  0.42083602894E+02  0.00000000000E+00 0. -1.
</event>
<event>
 7    1  0.5601662E-013  0.5052886E+02  0.7816164E-02  0.1300439E+00
        -11   -1    0    0    0    0  0.00000000000E+00  0.00000000000E+00  0.45593999997E+02  0.45594000000E+02  0.51100000000E-03 0. -1.
         11   -1    0    0    0    0 -0.00000000000E+00 -0.00000000000E+00 -0.45593999997E+02  0.45594000000E+02  0.51100000000E-03 0.  1.
    9900012    2    1    2    0    0 -0.11091105599E+02 -0.38492659424E+02 -0.69618953605E+01  0.50528862774E+02  0.30000008887E+02 0.  0.
        -12    1    1    2    0    0  0.11091105599E+02  0.38492659424E+02  0.69618953605E+01  0.40659137226E+02  0.00000000000E+00 0.  1.
         11    1    3    3    0    0  0.18738042865E+01 -0.58434472013E+01 -0.92071051758E+00  0.62052176284E+01  0.51100000000E-03 0. -1.
        -11    1    3    3    0    0  0.80349953349E+01 -0.74352264816E+01 -0.31032076654E+01  0.11378648467E+02  0.51100000000E-03 0.  1.
        -12    1    3    3    0    0 -0.20999905220E+02 -0.25213985741E+02 -0.29379771775E+01  0.32944996678E+02  0.00000000000E+00 0.  1.
</event>
<event>
 7    1  0.5601662E-013  0.5052886E+02  0.7816164E-02  0.1300439E+00
        -11   -1    0    0    0    0  0.00000000000E+00  0.00000000000E+00  0.45593999997E+02  0.45594000000E+02  0.51100000000E-03 0.  1.
         11   -1    0    0    0    0 -0.00000000000E+00 -0.00000000000E+00 -0.45593999997E+02  0.45594000000E+02  0.51100000000E-03 0. -1.
    9900012    2    1    2    0    0  0.19269912458E+02  0.34402390086E+02 -0.99152147261E+01  0.50528862616E+02  0.30000008408E+02 0.  0.
        -12    1    1    2    0    0 -0.19269912458E+02 -0.34402390086E+02  0.99152147261E+01  0.40659137384E+02  0.00000000000E+00 0.  1.
         11    1    3    3    0    0 -0.86477924247E+00 -0.14422708248E+01 -0.55373312085E+00  0.17704826744E+01  0.51100000000E-03 0. -1.
        -11    1    3    3    0    0  0.14306028594E+01  0.14293295875E+02 -0.13752404241E+02  0.19886516894E+02  0.51100000000E-03 0.  1.
         12    1    3    3    0    0  0.18704088841E+02  0.21551365035E+02  0.43909226358E+01  0.28871863047E+02  0.00000000000E+00 0. -1.
</event>
<event>
 7    1  0.5601662E-013  0.5052886E+02  0.7816164E-02  0.1300439E+00
        -11   -1    0    0    0    0  0.00000000000E+00  0.00000000000E+00  0.45593999997E+02  0.45594000000E+02  0.51100000000E-03 0.  1.
         11   -1    0    0    0    0 -0.00000000000E+00 -0.00000000000E+00 -0.45593999997E+02  0.45594000000E+02  0.51100000000E-03 0. -1.
    9900012    2    1    2    0    0  0.12498714303E+02  0.15971554496E+02 -0.35239999257E+02  0.50528856380E+02  0.29999989453E+02 0.  0.
        -12    1    1    2    0    0 -0.12498714303E+02 -0.15971554496E+02  0.35239999257E+02  0.40659143620E+02  0.00000000000E+00 0.  1.
         11    1    3    3    0    0  0.31481443487E+01  0.15364299953E+01 -0.20070018852E+02  0.20373440724E+02  0.51100000000E-03 0. -1.
        -11    1    3    3    0    0  0.96187286676E+01  0.16260869293E+02 -0.18440299224E+02  0.26400387252E+02  0.51100000000E-03 0.  1.
        -12    1    3    3    0    0 -0.26815871293E+00 -0.18257447920E+01  0.32703188182E+01  0.37550284038E+01  0.00000000000E+00 0.  1.
</event>
<event>
 7    1  0.5601662E-013  0.5052885E+02  0.7816164E-02  0.1300439E+00
        -11   -1    0    0    0    0  0.00000000000E+00  0.00000000000E+00  0.45593999997E+02  0.45594000000E+02  0.51100000000E-03 0.  1.
         11   -1    0    0    0    0 -0.00000000000E+00 -0.00000000000E+00 -0.45593999997E+02  0.45594000000E+02  0.51100000000E-03 0. -1.
    9900012    2    1    2    0    0 -0.31610023332E+02  0.18096958755E+02 -0.18068573872E+02  0.50528845397E+02  0.29999956069E+02 0.  0.
        -12    1    1    2    0    0  0.31610023332E+02 -0.18096958755E+02  0.18068573872E+02  0.40659154603E+02  0.00000000000E+00 0.  1.
         11    1    3    3    0    0 -0.10956892753E+02 -0.11263874991E+01  0.39754251496E+00  0.11021809647E+02  0.51100000000E-03 0. -1.
        -11    1    3    3    0    0  0.21614477808E+01 -0.17978266894E+01  0.88079867370E+00  0.29461574769E+01  0.51100000000E-03 0.  1.
         12    1    3    3    0    0 -0.22814578361E+02  0.21021172943E+02 -0.19346915061E+02  0.36560878273E+02  0.00000000000E+00 0. -1.
</event>
<event>
 7    1  0.5601662E-013  0.5052883E+02  0.7816164E-02  0.1300439E+00
        -11   -1    0    0    0    0  0.00000000000E+00  0.00000000000E+00  0.45593999997E+02  0.45594000000E+02  0.51100000000E-03 0.  1.
         11   -1    0    0    0    0 -0.00000000000E+00 -0.00000000000E+00 -0.45593999997E+02  0.45594000000E+02  0.51100000000E-03 0. -1.
    9900012    2    1    2    0    0 -0.11768849803E+02  0.31649803427E+02 -0.22648441855E+02  0.50528833738E+02  0.29999920631E+02 0.  0.
        -12    1    1    2    0    0  0.11768849803E+02 -0.31649803427E+02  0.22648441855E+02  0.40659166262E+02  0.00000000000E+00 0.  1.
         11    1    3    3    0    0 -0.61813283171E+01  0.63095263071E+01 -0.37309863619E+00  0.88407095211E+01  0.51100000000E-03 0. -1.
        -11    1    3    3    0    0 -0.57037433958E+01  0.62172860481E+01  0.38806515215E+01  0.92869150433E+01  0.51100000000E-03 0.  1.
         12    1    3    3    0    0  0.11622191013E+00  0.19122991071E+02 -0.26155994741E+02  0.32401209174E+02  0.00000000000E+00 0. -1.
</event>
<event>
 7    1  0.5601662E-013  0.5052886E+02  0.7816164E-02  0.1300439E+00
        -11   -1    0    0    0    0  0.00000000000E+00  0.00000000000E+00  0.45593999997E+02  0.45594000000E+02  0.51100000000E-03 0. -1.
         11   -1    0    0    0    0 -0.00000000000E+00 -0.00000000000E+00 -0.45593999997E+02  0.45594000000E+02  0.51100000000E-03 0.  1.
    9900012    2    1    2    0    0 -0.12895201142E+02  0.33251737933E+02  0.19524377451E+02  0.50528860770E+02  0.30000002797E+02 0.  0.
        -12    1    1    2    0    0  0.12895201142E+02 -0.33251737933E+02 -0.19524377451E+02  0.40659139230E+02  0.00000000000E+00 0.  1.
         11    1    3    3    0    0 -0.42636647519E+01 -0.12908117634E+01  0.12385458589E+02  0.13162242090E+02  0.51100000000E-03 0. -1.
        -11    1    3    3    0    0 -0.15533177283E+01  0.11803631466E+01 -0.11558641793E+01  0.22676144701E+01  0.51100000000E-03 0.  1.
        -12    1    3    3    0    0 -0.70782186616E+01  0.33362186550E+02  0.82947830412E+01  0.35099004210E+02  0.00000000000E+00 0.  1.
</event>
<event>
 7    1  0.5601662E-013  0.5052886E+02  0.7816164E-02  0.1300439E+00
        -11   -1    0    0    0    0  0.00000000000E+00  0.00000000000E+00  0.45593999997E+02  0.45594000000E+02  0.51100000000E-03 0. -1.
         11   -1    0    0    0    0 -0.00000000000E+00 -0.00000000000E+00 -0.45593999997E+02  0.45594000000E+02  0.51100000000E-03 0.  1.
    9900012    2    1    2    0    0  0.15145311180E+02 -0.13105811692E+02  0.35383937461E+02  0.50528858579E+02  0.29999996138E+02 0.  0.
        -12    1    1    2    0    0 -0.15145311180E+02  0.13105811692E+02 -0.35383937461E+02  0.40659141421E+02  0.00000000000E+00 0.  1.
         11    1    3    3    0    0  0.12575016725E+02 -0.60432372235E+01  0.87490182796E+01  0.16468062512E+02  0.51100000000E-03 0. -1.
        -11    1    3    3    0    0 -0.33044013704E+01 -0.16875603103E+01 -0.20859805035E+01  0.42565529645E+01  0.51100000000E-03 0.  1.
        -12    1    3    3    0    0  0.58746958249E+01 -0.53750141582E+01  0.28720899685E+02  0.29804243103E+02  0.00000000000E+00 0.  1.
</event>
<event>
 7    1  0.5601662E-013  0.5052886E+02  0.7816164E-02  0.1300439E+00
        -11   -1    0    0    0    0  0.00000000000E+00  0.00000000000E+00  0.45593999997E+02  0.45594000000E+02  0.51100000000E-03 0. -1.
         11   -1    0    0    0    0 -0.00000000000E+00 -0.00000000000E+00 -0.45593999997E+02  0.45594000000E+02  0.51100000000E-03 0.  1.
    9900012    2    1    2    0    0  0.30663077217E+02  0.15534980466E+02 -0.21716484856E+02  0.50528860351E+02  0.30000001522E+02 0.  0.
        -12    1    1    2    0    0 -0.30663077217E+02 -0.15534980466E+02  0.21716484856E+02  0.40659139649E+02  0.00000000000E+00 0.  1.
         11    1    3    3    0    0  0.26506690314E+00 -0.21100806979E+01 -0.65679365138E+01  0.69036578221E+01  0.51100000000E-03 0. -1.
        -11    1    3    3    0    0 -0.25859723172E+01 -0.12774053376E+01 -0.10781157810E+01  0.30791802675E+01  0.51100000000E-03 0.  1.
         12    1    3    3    0    0  0.32983982631E+02  0.18922466502E+02 -0.14070432561E+02  0.40546022261E+02  0.00000000000E+00 0. -1.
</event>
<event>
 7    1  0.5601662E-013  0.5052886E+02  0.7816164E-02  0.1300439E+00
        -11   -1    0    0    0    0  0.00000000000E+00  0.00000000000E+00  0.45593999997E+02  0.45594000000E+02  0.51100000000E-03 0. -1.
         11   -1    0    0    0    0 -0.00000000000E+00 -0.00000000000E+00 -0.45593999997E+02  0.45594000000E+02  0.51100000000E-03 0.  1.
    9900012    2    1    2    0    0  0.15407641789E+02  0.29932367441E+02  0.22799645955E+02  0.50528857095E+02  0.29999991626E+02 0.  0.
        -12    1    1    2    0    0 -0.15407641789E+02 -0.29932367441E+02 -0.22799645955E+02  0.40659142905E+02  0.00000000000E+00 0.  1.
         11    1    3    3    0    0  0.60861293746E+01  0.19620938401E+01  0.65391394530E+00  0.64279379828E+01  0.51100000000E-03 0. -1.
        -11    1    3    3    0    0  0.80139271310E+01  0.13288636766E+02 -0.21674319619E+01  0.15668715861E+02  0.51100000000E-03 0.  1.
        -12    1    3    3    0    0  0.13075852837E+01  0.14681636834E+02  0.24313163971E+02  0.28432203251E+02  0.00000000000E+00 0.  1.
</event>
<event>
 7    1  0.5601662E-013  0.5052886E+02  0.7816164E-02  0.1300439E+00
        -11   -1    0    0    0    0  0.00000000000E+00  0.00000000000E+00  0.45593999997E+02  0.45594000000E+02  0.51100000000E-03 0. -1.
         11   -1    0    0    0    0 -0.00000000000E+00 -0.00000000000E+00 -0.45593999997E+02  0.45594000000E+02  0.51100000000E-03 0.  1.
    9900012    2    1    2    0    0 -0.29643895081E+02 -0.24580749203E+02  0.13045751758E+02  0.50528863439E+02  0.30000010909E+02 0.  0.
        -12    1    1    2    0    0  0.29643895081E+02  0.24580749203E+02 -0.13045751758E+02  0.40659136561E+02  0.00000000000E+00 0.  1.
         11    1    3    3    0    0  0.33274707227E+00  0.14657342499E+01 -0.11340737953E+01  0.18828757633E+01  0.51100000000E-03 0. -1.
        -11    1    3    3    0    0 -0.20693792548E+01 -0.15259605243E+01  0.11072319853E+02  0.11366932445E+02  0.51100000000E-03 0.  1.
         12    1    3    3    0    0 -0.27907262898E+02 -0.24520522929E+02  0.31075057001E+01  0.37279055230E+02  0.00000000000E+00 0. -1.
</event>
<event>
 7    1  0.5845665E-013  0.5052888E+02  0.7816164E-02  0.1300439E+00
        -11   -1    0    0    0    0  0.00000000000E+00  0.00000000000E+00  0.45593999997E+02  0.45594000000E+02  0.51100000000E-03 0.  1.
         11   -1    0    0    0    0 -0.00000000000E+00 -0.00000000000E+00 -0.45593999997E+02  0.45594000000E+02  0.51100000000E-03 0. -1.
    9900012    2    1    2    0    0 -0.36856919037E+02  0.10669737796E+02 -0.13449469681E+02  0.50528880233E+02  0.30000061955E+02 0.  0.
        -12    1    1    2    0    0  0.36856919037E+02 -0.10669737796E+02  0.13449469681E+02  0.40659119767E+02  0.00000000000E+00 0.  1.
         11    1    3    3    0    0 -0.24146822995E+02  0.91677040856E+01 -0.15204468367E+02  0.29971515102E+02  0.51100000000E-03 0. -1.
        -11    1    3    3    0    0 -0.14688208978E+02  0.43526569439E+01 -0.19944032361E+01  0.15448842998E+02  0.51100000000E-03 0.  1.
        -12    1    3    3    0    0  0.19781129353E+01 -0.28506232332E+01  0.37494019224E+01  0.51085221325E+01  0.00000000000E+00 0.  1.
</event>
<event>
 7    1  0.5601662E-013  0.5052886E+02  0.7816164E-02  0.1300439E+00
        -11   -1    0    0    0    0  0.00000000000E+00  0.00000000000E+00  0.45593999997E+02  0.45594000000E+02  0.51100000000E-03 0.  1.
         11   -1    0    0    0    0 -0.00000000000E+00 -0.00000000000E+00 -0.45593999997E+02  0.45594000000E+02  0.51100000000E-03 0. -1.
    9900012    2    1    2    0    0 -0.33423615959E+02  0.22507556295E+02  0.54256617128E+01  0.50528855897E+02  0.29999987985E+02 0.  0.
        -12    1    1    2    0    0  0.33423615959E+02 -0.22507556295E+02 -0.54256617128E+01  0.40659144103E+02  0.00000000000E+00 0.  1.
         11    1    3    3    0    0 -0.21317869464E+02  0.92887129509E+01  0.41443698237E+01  0.23620066644E+02  0.51100000000E-03 0.  1.
        -11    1    3    3    0    0 -0.11059131639E+02 -0.17156525989E+01  0.36064944392E+01  0.11758174129E+02  0.51100000000E-03 0. -1.
         12    1    3    3    0    0 -0.10466148558E+01  0.14934495943E+02 -0.23252025501E+01  0.15150615124E+02  0.00000000000E+00 0. -1.
</event>
<event>
 7    1  0.5601662E-013  0.5052886E+02  0.7816164E-02  0.1300439E+00
        -11   -1    0    0    0    0  0.00000000000E+00  0.00000000000E+00  0.45593999997E+02  0.45594000000E+02  0.51100000000E-03 0.  1.
         11   -1    0    0    0    0 -0.00000000000E+00 -0.00000000000E+00 -0.45593999997E+02  0.45594000000E+02  0.51100000000E-03 0. -1.
    9900012    2    1    2    0    0 -0.28428447638E+02 -0.76839869784E+01 -0.28034714632E+02  0.50528861845E+02  0.30000006064E+02 0.  0.
        -12    1    1    2    0    0  0.28428447638E+02  0.76839869784E+01  0.28034714632E+02  0.40659138155E+02  0.00000000000E+00 0.  1.
         11    1    3    3    0    0 -0.48874913668E+01  0.33413026563E+01 -0.11781613089E+02  0.13185533077E+02  0.51100000000E-03 0.  1.
        -11    1    3    3    0    0 -0.25542950665E+02 -0.11629311145E+02 -0.85169480894E+01  0.29329534797E+02  0.51100000000E-03 0. -1.
         12    1    3    3    0    0  0.20019943934E+01  0.60402151060E+00 -0.77361534543E+01  0.80137939707E+01  0.00000000000E+00 0. -1.
</event>
<event>
 7    1  0.5601662E-013  0.5052887E+02  0.7816164E-02  0.1300439E+00
        -11   -1    0    0    0    0  0.00000000000E+00  0.00000000000E+00  0.45593999997E+02  0.45594000000E+02  0.51100000000E-03 0.  1.
         11   -1    0    0    0    0 -0.00000000000E+00 -0.00000000000E+00 -0.45593999997E+02  0.45594000000E+02  0.51100000000E-03 0. -1.
    9900012    2    1    2    0    0 -0.30652300017E+02 -0.46285230777E+01 -0.26309279119E+02  0.50528869538E+02  0.30000029446E+02 0.  0.
        -12    1    1    2    0    0  0.30652300017E+02  0.46285230777E+01  0.26309279119E+02  0.40659130462E+02  0.00000000000E+00 0.  1.
         11    1    3    3    0    0  0.53258900581E+00  0.44878493609E+00  0.78601408540E+00  0.10501796854E+01  0.51100000000E-03 0. -1.
        -11    1    3    3    0    0 -0.10879030045E+02 -0.15332994230E+01  0.44023660131E+01  0.11835756360E+02  0.51100000000E-03 0.  1.
         12    1    3    3    0    0 -0.20305858978E+02 -0.35440085908E+01 -0.31497659217E+02  0.37642933492E+02  0.00000000000E+00 0. -1.
</event>
<event>
 7    1  0.5601662E-013  0.5052886E+02  0.7816164E-02  0.1300439E+00
        -11   -1    0    0    0    0  0.00000000000E+00  0.00000000000E+00  0.45593999997E+02  0.45594000000E+02  0.51100000000E-03 0. -1.
         11   -1    0    0    0    0 -0.00000000000E+00 -0.00000000000E+00 -0.45593999997E+02  0.45594000000E+02  0.51100000000E-03 0.  1.
    9900012    2    1    2    0    0 -0.68371094907E+01  0.37287594343E+02 -0.14698814590E+02  0.50528857013E+02  0.29999991376E+02 0.  0.
        -12    1    1    2    0    0  0.68371094907E+01 -0.37287594343E+02  0.14698814590E+02  0.40659142987E+02  0.00000000000E+00 0.  1.
         11    1    3    3    0    0 -0.82888233578E+01  0.13758577687E+02 -0.47082422971E+01  0.16738297357E+02  0.51100000000E-03 0. -1.
        -11    1    3    3    0    0 -0.13636551492E+01  0.24882298357E+02 -0.17537087844E+01  0.24981269416E+02  0.51100000000E-03 0.  1.
        -12    1    3    3    0    0  0.28153690164E+01 -0.13532817005E+01 -0.82368635090E+01  0.88092902395E+01  0.00000000000E+00 0.  1.
</event>
<event>
 7    1  0.5601662E-013  0.5052886E+02  0.7816164E-02  0.1300439E+00
        -11   -1    0    0    0    0  0.00000000000E+00  0.00000000000E+00  0.45593999997E+02  0.45594000000E+02  0.51100000000E-03 0.  1.
         11   -1    0    0    0    0 -0.00000000000E+00 -0.00000000000E+00 -0.45593999997E+02  0.45594000000E+02  0.51100000000E-03 0. -1.
    9900012    2    1    2    0    0 -0.25791871668E+02  0.41536306947E+01 -0.31155937708E+02  0.50528859004E+02  0.29999997429E+02 0.  0.
        -12    1    1    2    0    0  0.25791871668E+02 -0.41536306947E+01  0.31155937708E+02  0.40659140996E+02  0.00000000000E+00 0.  1.
         11    1    3    3    0    0 -0.69971631434E+01 -0.27687346684E+01 -0.10189400262E+01  0.75937094201E+01  0.51100000000E-03 0. -1.
        -11    1    3    3    0    0 -0.11241971139E+02  0.33050868264E+01 -0.63970056095E-01  0.11717918179E+02  0.51100000000E-03 0.  1.
         12    1    3    3    0    0 -0.75527373853E+01  0.36172785367E+01 -0.30073027625E+02  0.31217231405E+02  0.00000000000E+00 0. -1.
</event>
<event>
 7    1  0.5601662E-013  0.5052887E+02  0.7816164E-02  0.1300439E+00
        -11   -1    0    0    0    0  0.00000000000E+00  0.00000000000E+00  0.45593999997E+02  0.45594000000E+02  0.51100000000E-03 0.  1.
         11   -1    0    0    0    0 -0.00000000000E+00 -0.00000000000E+00 -0.45593999997E+02  0.45594000000E+02  0.51100000000E-03 0. -1.
    9900012    2    1    2    0    0  0.11536148962E+02 -0.22322616420E+02 -0.31965337737E+02  0.50528871218E+02  0.30000034554E+02 0.  0.
        -12    1    1    2    0    0 -0.11536148962E+02  0.22322616420E+02  0.31965337737E+02  0.40659128782E+02  0.00000000000E+00 0.  1.
         11    1    3    3    0    0  0.74902916003E+01 -0.21286226489E+02 -0.30116769230E+02  0.37632800793E+02  0.51100000000E-03 0. -1.
        -11    1    3    3    0    0 -0.22756112735E+01  0.38714031511E+01 -0.19419102737E+01  0.48925642355E+01  0.51100000000E-03 0.  1.
        -12    1    3    3    0    0  0.63214686354E+01 -0.49077930813E+01  0.93341766940E-01  0.80035061893E+01  0.00000000000E+00 0.  1.
</event>
<event>
 7    1  0.5601662E-013  0.5052884E+02  0.7816164E-02  0.1300439E+00
        -11   -1    0    0    0    0  0.00000000000E+00  0.00000000000E+00  0.45593999997E+02  0.45594000000E+02  0.51100000000E-03 0.  1.
         11   -1    0    0    0    0 -0.00000000000E+00 -0.00000000000E+00 -0.45593999997E+02  0.45594000000E+02  0.51100000000E-03 0. -1.
    9900012    2    1    2    0    0  0.27225769303E+02 -0.14587549940E+02 -0.26441032704E+02  0.50528839435E+02  0.29999937947E+02 0.  0.
        -12    1    1    2    0    0 -0.27225769303E+02  0.14587549940E+02  0.26441032704E+02  0.40659160565E+02  0.00000000000E+00 0.  1.
         11    1    3    3    0    0  0.18754695900E+02  0.12159086898E+01 -0.22949526515E+01  0.18933670013E+02  0.51100000000E-03 0. -1.
        -11    1    3    3    0    0  0.58167748901E+00 -0.10382906402E+01 -0.88152758200E+01  0.88952506541E+01  0.51100000000E-03 0.  1.
        -12    1    3    3    0    0  0.78893959144E+01 -0.14765167990E+02 -0.15330804232E+02  0.22699918768E+02  0.00000000000E+00 0.  1.
</event>
<event>
 7    1  0.5601662E-013  0.5052885E+02  0.7816164E-02  0.1300439E+00
        -11   -1    0    0    0    0  0.00000000000E+00  0.00000000000E+00  0.45593999997E+02  0.45594000000E+02  0.51100000000E-03 0.  1.
         11   -1    0    0    0    0 -0.00000000000E+00 -0.00000000000E+00 -0.45593999997E+02  0.45594000000E+02  0.51100000000E-03 0. -1.
    9900012    2    1    2    0    0  0.37147286165E+02 -0.16524539209E+02 -0.43073329705E+00  0.50528846091E+02  0.29999958177E+02 0.  0.
        -12    1    1    2    0    0 -0.37147286165E+02  0.16524539209E+02  0.43073329705E+00  0.40659153909E+02  0.00000000000E+00 0.  1.
         11    1    3    3    0    0  0.18255756867E+02 -0.11029566001E+02  0.10413268745E+02  0.23735209104E+02  0.51100000000E-03 0. -1.
        -11    1    3    3    0    0  0.14403146038E+02 -0.57471683300E+00 -0.41629384920E+00  0.14420617742E+02  0.51100000000E-03 0.  1.
         12    1    3    3    0    0  0.44883832595E+01 -0.49202563746E+01 -0.10427708193E+02  0.12373019245E+02  0.00000000000E+00 0. -1.
</event>
<event>
 7    1  0.5601662E-013  0.5052886E+02  0.7816164E-02  0.1300439E+00
        -11   -1    0    0    0    0  0.00000000000E+00  0.00000000000E+00  0.45593999997E+02  0.45594000000E+02  0.51100000000E-03 0.  1.
         11   -1    0    0    0    0 -0.00000000000E+00 -0.00000000000E+00 -0.45593999997E+02  0.45594000000E+02  0.51100000000E-03 0. -1.
    9900012    2    1    2    0    0 -0.37752176258E+02  0.13049035943E+02  0.75935266565E+01  0.50528858367E+02  0.29999995492E+02 0.  0.
        -12    1    1    2    0    0  0.37752176258E+02 -0.13049035943E+02 -0.75935266565E+01  0.40659141633E+02  0.00000000000E+00 0.  1.
         11    1    3    3    0    0 -0.12812416775E+02  0.12077931245E+02 -0.84174756429E+00  0.17627903619E+02  0.51100000000E-03 0. -1.
        -11    1    3    3    0    0 -0.17467941515E+02  0.96422905140E+01  0.28177357211E+01  0.20150493344E+02  0.51100000000E-03 0.  1.
        -12    1    3    3    0    0 -0.74718179683E+01 -0.86711858169E+01  0.56175384996E+01  0.12750461404E+02  0.00000000000E+00 0.  1.
</event>
<event>
 7    1  0.5601662E-013  0.5052887E+02  0.7816164E-02  0.1300439E+00
        -11   -1    0    0    0    0  0.00000000000E+00  0.00000000000E+00  0.45593999997E+02  0.45594000000E+02  0.51100000000E-03 0.  1.
         11   -1    0    0    0    0 -0.00000000000E+00 -0.00000000000E+00 -0.45593999997E+02  0.45594000000E+02  0.51100000000E-03 0. -1.
    9900012    2    1    2    0    0 -0.27853479543E+02  0.11262468362E+01 -0.29598650633E+02  0.50528869735E+02  0.30000030047E+02 0.  0.
        -12    1    1    2    0    0  0.27853479543E+02 -0.11262468362E+01  0.29598650633E+02  0.40659130265E+02  0.00000000000E+00 0.  1.
         11    1    3    3    0    0 -0.14038124245E+02 -0.33414911138E+01 -0.86290693634E+01  0.16813546131E+02  0.51100000000E-03 0. -1.
        -11    1    3    3    0    0 -0.11759152929E+02  0.31314793943E+01 -0.25672989512E+02  0.28411023065E+02  0.51100000000E-03 0.  1.
         12    1    3    3    0    0 -0.20562023695E+01  0.13362585557E+01  0.47034082428E+01  0.53043005392E+01  0.00000000000E+00 0. -1.
</event>
<event>
 7    1  0.5601662E-013  0.5052886E+02  0.7816164E-02  0.1300439E+00
        -11   -1    0    0    0    0  0.00000000000E+00  0.00000000000E+00  0.45593999997E+02  0.45594000000E+02  0.51100000000E-03 0. -1.
         11   -1    0    0    0    0 -0.00000000000E+00 -0.00000000000E+00 -0.45593999997E+02  0.45594000000E+02  0.51100000000E-03 0.  1.
    9900012    2    1    2    0    0  0.25268560236E+01 -0.15759901054E+02  0.37395271886E+02  0.50528857829E+02  0.29999993858E+02 0.  0.
        -12    1    1    2    0    0 -0.25268560236E+01  0.15759901054E+02 -0.37395271886E+02  0.40659142171E+02  0.00000000000E+00 0.  1.
         11    1    3    3    0    0  0.34470732049E+01 -0.77921014364E+01  0.16586446599E+02  0.18646966765E+02  0.51100000000E-03 0. -1.
        -11    1    3    3    0    0  0.85846392386E+01  0.10633898201E+01  0.18742294407E+01  0.88509640731E+01  0.51100000000E-03 0.  1.
         12    1    3    3    0    0 -0.95048564199E+01 -0.90311894382E+01  0.18934595846E+02  0.23030926992E+02  0.00000000000E+00 0. -1.
</event>
<event>
 7    1  0.5601662E-013  0.5052886E+02  0.7816164E-02  0.1300439E+00
        -11   -1    0    0    0    0  0.00000000000E+00  0.00000000000E+00  0.45593999997E+02  0.45594000000E+02  0.51100000000E-03 0.  1.
         11   -1    0    0    0    0 -0.00000000000E+00 -0.00000000000E+00 -0.45593999997E+02  0.45594000000E+02  0.51100000000E-03 0. -1.
    9900012    2    1    2    0    0  0.40381617362E+02  0.25419055276E+01  0.40037092319E+01  0.50528855984E+02  0.29999988249E+02 0.  0.
        -12    1    1    2    0    0 -0.40381617362E+02 -0.25419055276E+01 -0.40037092319E+01  0.40659144016E+02  0.00000000000E+00 0.  1.
         11    1    3    3    0    0  0.19929919039E+02 -0.32075934316E+01  0.31457010711E+01  0.20430021145E+02  0.51100000000E-03 0. -1.
        -11    1    3    3    0    0  0.18778166282E+02 -0.19725006484E+00  0.82104071966E+01  0.20495590333E+02  0.51100000000E-03 0.  1.
         12    1    3    3    0    0  0.16735320415E+01  0.59467490241E+01 -0.73523990357E+01  0.96032445053E+01  0.00000000000E+00 0. -1.
</event>
<event>
 7    1  0.5601662E-013  0.5052888E+02  0.7816164E-02  0.1300439E+00
        -11   -1    0    0    0    0  0.00000000000E+00  0.00000000000E+00  0.45593999997E+02  0.45594000000E+02  0.51100000000E-03 0. -1.
         11   -1    0    0    0    0 -0.00000000000E+00 -0.00000000000E+00 -0.45593999997E+02  0.45594000000E+02  0.51100000000E-03 0.  1.
    9900012    2    1    2    0    0  0.40099788123E+02 -0.56710890283E+01  0.36069581822E+01  0.50528875494E+02  0.30000047551E+02 0.  0.
        -12    1    1    2    0    0 -0.40099788123E+02  0.56710890283E+01 -0.36069581822E+01  0.40659124506E+02  0.00000000000E+00 0.  1.
         11    1    3    3    0    0  0.29049928467E+02 -0.46622561046E+01  0.53054130924E+01  0.29896193474E+02  0.51100000000E-03 0. -1.
        -11    1    3    3    0    0  0.14805824243E+02 -0.17949543175E+00  0.24132730384E+01  0.15002284398E+02  0.51100000000E-03 0.  1.
        -12    1    3    3    0    0 -0.37559645872E+01 -0.82933749196E+00 -0.41117279486E+01  0.56303976217E+01  0.00000000000E+00 0.  1.
</event>
<event>
 7    1  0.5601662E-013  0.5052886E+02  0.7816164E-02  0.1300439E+00
        -11   -1    0    0    0    0  0.00000000000E+00  0.00000000000E+00  0.45593999997E+02  0.45594000000E+02  0.51100000000E-03 0.  1.
         11   -1    0    0    0    0 -0.00000000000E+00 -0.00000000000E+00 -0.45593999997E+02  0.45594000000E+02  0.51100000000E-03 0. -1.
    9900012    2    1    2    0    0 -0.14819776820E+02  0.37852206755E+02 -0.86619187830E+00  0.50528860442E+02  0.30000001800E+02 0.  0.
        -12    1    1    2    0    0  0.14819776820E+02 -0.37852206755E+02  0.86619187830E+00  0.40659139558E+02  0.00000000000E+00 0.  1.
         11    1    3    3    0    0  0.18153036590E+01  0.11307879753E+01  0.61820804658E+01  0.65415692281E+01  0.51100000000E-03 0. -1.
        -11    1    3    3    0    0 -0.18254298060E+01  0.12311438161E+02  0.44359824981E+01  0.13212934744E+02  0.51100000000E-03 0.  1.
         12    1    3    3    0    0 -0.14809650673E+02  0.24409980618E+02 -0.11484254842E+02  0.30774356470E+02  0.00000000000E+00 0. -1.
</event>
<event>
 7    1  0.5601662E-013  0.5052887E+02  0.7816164E-02  0.1300439E+00
        -11   -1    0    0    0    0  0.00000000000E+00  0.00000000000E+00  0.45593999997E+02  0.45594000000E+02  0.51100000000E-03 0.  1.
         11   -1    0    0    0    0 -0.00000000000E+00 -0.00000000000E+00 -0.45593999997E+02  0.45594000000E+02  0.51100000000E-03 0. -1.
    9900012    2    1    2    0    0 -0.16350212246E+02  0.15568819646E+02 -0.33814902360E+02  0.50528865636E+02  0.30000017587E+02 0.  0.
        -12    1    1    2    0    0  0.16350212246E+02 -0.15568819646E+02  0.33814902360E+02  0.40659134364E+02  0.00000000000E+00 0.  1.
         11    1    3    3    0    0 -0.97967948306E+01 -0.62158178875E+00 -0.58708528006E+01  0.11438114606E+02  0.51100000000E-03 0. -1.
        -11    1    3    3    0    0 -0.22320058149E+01 -0.49991175962E+01 -0.78500993889E+01  0.95706367277E+01  0.51100000000E-03 0.  1.
        -12    1    3    3    0    0 -0.43214116000E+01  0.21189519031E+02 -0.20093950170E+02  0.29520114302E+02  0.00000000000E+00 0.  1.
</event>
<event>
 7    1  0.5601662E-013  0.5052886E+02  0.7816164E-02  0.1300439E+00
        -11   -1    0    0    0    0  0.00000000000E+00  0.00000000000E+00  0.45593999997E+02  0.45594000000E+02  0.51100000000E-03 0. -1.
         11   -1    0    0    0    0 -0.00000000000E+00 -0.00000000000E+00 -0.45593999997E+02  0.45594000000E+02  0.51100000000E-03 0.  1.
    9900012    2    1    2    0    0 -0.37793098184E+01  0.34554741953E+02  0.21091525657E+02  0.50528857993E+02  0.29999994357E+02 0.  0.
        -12    1    1    2    0    0  0.37793098184E+01 -0.34554741953E+02 -0.21091525657E+02  0.40659142007E+02  0.00000000000E+00 0.  1.
         11    1    3    3    0    0  0.13180945872E+01  0.11136053188E+02  0.17284153066E+02  0.20603179401E+02  0.51100000000E-03 0. -1.
        -11    1    3    3    0    0 -0.34724622692E+01  0.24952202203E+02  0.68905881431E+01  0.26118012830E+02  0.51100000000E-03 0.  1.
        -12    1    3    3    0    0 -0.16249421364E+01 -0.15335134376E+01 -0.30832155528E+01  0.38076657620E+01  0.00000000000E+00 0.  1.
</event>
<event>
 7    1  0.5601662E-013  0.5052886E+02  0.7816164E-02  0.1300439E+00
        -11   -1    0    0    0    0  0.00000000000E+00  0.00000000000E+00  0.45593999997E+02  0.45594000000E+02  0.51100000000E-03 0.  1.
         11   -1    0    0    0    0 -0.00000000000E+00 -0.00000000000E+00 -0.45593999997E+02  0.45594000000E+02  0.51100000000E-03 0. -1.
    9900012    2    1    2    0    0 -0.22497633070E+02  0.19393084717E+02 -0.27765630860E+02  0.50528862212E+02  0.30000007180E+02 0.  0.
        -12    1    1    2    0    0  0.22497633070E+02 -0.19393084717E+02  0.27765630860E+02  0.40659137788E+02  0.00000000000E+00 0.  1.
         11    1    3    3    0    0  0.28481324274E+00  0.21539430428E+01 -0.21130146307E+01  0.30307458332E+01  0.51100000000E-03 0. -1.
        -11    1    3    3    0    0 -0.14369059605E+02 -0.87454927091E+00 -0.23299146939E+02  0.27387678958E+02  0.51100000000E-03 0.  1.
        -12    1    3    3    0    0 -0.84133867070E+01  0.18113690945E+02 -0.23534692901E+01  0.20110437421E+02  0.00000000000E+00 0.  1.
</event>
<event>
 7    1  0.5601662E-013  0.5052887E+02  0.7816164E-02  0.1300439E+00
        -11   -1    0    0    0    0  0.00000000000E+00  0.00000000000E+00  0.45593999997E+02  0.45594000000E+02  0.51100000000E-03 0. -1.
         11   -1    0    0    0    0 -0.00000000000E+00 -0.00000000000E+00 -0.45593999997E+02  0.45594000000E+02  0.51100000000E-03 0.  1.
    9900012    2    1    2    0    0 -0.34167986809E+02  0.20613758986E+02  0.77965730481E+01  0.50528869004E+02  0.30000027823E+02 0.  0.
        -12    1    1    2    0    0  0.34167986809E+02 -0.20613758986E+02 -0.77965730481E+01  0.40659130996E+02  0.00000000000E+00 0.  1.
         11    1    3    3    0    0 -0.12504450802E+02  0.30478768600E+01  0.10103476462E+02  0.16362490033E+02  0.51100000000E-03 0. -1.
        -11    1    3    3    0    0 -0.51087309034E+01  0.62128868238E+00  0.70224024701E+01  0.87062774929E+01  0.51100000000E-03 0.  1.
        -12    1    3    3    0    0 -0.16554805103E+02  0.16944593444E+02 -0.93293058835E+01  0.25460101478E+02  0.00000000000E+00 0.  1.
</event>
<event>
 7    1  0.5601662E-013  0.5052886E+02  0.7816164E-02  0.1300439E+00
        -11   -1    0    0    0    0  0.00000000000E+00  0.00000000000E+00  0.45593999997E+02  0.45594000000E+02  0.51100000000E-03 0.  1.
         11   -1    0    0    0    0 -0.00000000000E+00 -0.00000000000E+00 -0.45593999997E+02  0.45594000000E+02  0.51100000000E-03 0. -1.
    9900012    2    1    2    0    0  0.22558068782E+02  0.61674875570E+01 -0.33260509514E+02  0.50528857570E+02  0.29999993071E+02 0.  0.
        -12    1    1    2    0    0 -0.22558068782E+02 -0.61674875570E+01  0.33260509514E+02  0.40659142430E+02  0.00000000000E+00 0.  1.
         11    1    3    3    0    0 -0.74402367967E+00  0.30052143739E+00 -0.11423651972E+02  0.11451799378E+02  0.51100000000E-03 0.  1.
        -11    1    3    3    0    0  0.23502416149E+01  0.10295488898E+02 -0.10303236331E+02  0.14753894620E+02  0.51100000000E-03 0. -1.
        -12    1    3    3    0    0  0.20951850847E+02 -0.44285227782E+01 -0.11533621211E+02  0.24323163572E+02  0.00000000000E+00 0.  1.
</event>
<event>
 7    1  0.5601662E-013  0.5052885E+02  0.7816164E-02  0.1300439E+00
        -11   -1    0    0    0    0  0.00000000000E+00  0.00000000000E+00  0.45593999997E+02  0.45594000000E+02  0.51100000000E-03 0. -1.
         11   -1    0    0    0    0 -0.00000000000E+00 -0.00000000000E+00 -0.45593999997E+02  0.45594000000E+02  0.51100000000E-03 0.  1.
    9900012    2    1    2    0    0 -0.86983300681E+01 -0.98927226759E+01  0.38466079016E+02  0.50528854131E+02  0.29999982617E+02 0.  0.
        -12    1    1    2    0    0  0.86983300681E+01  0.98927226759E+01 -0.38466079016E+02  0.40659145869E+02  0.00000000000E+00 0.  1.
         11    1    3    3    0    0  0.10121728977E+01  0.23292748684E+01  0.37485413330E+00  0.25672030052E+01  0.51100000000E-03 0. -1.
        -11    1    3    3    0    0  0.79659196778E+01 -0.64869573628E+00  0.11331423007E+02  0.13866428167E+02  0.51100000000E-03 0.  1.
        -12    1    3    3    0    0 -0.17676422644E+02 -0.11573301808E+02  0.26759801876E+02  0.34095222959E+02  0.00000000000E+00 0.  1.
</event>
<event>
 7    1  0.5601662E-013  0.5052887E+02  0.7816164E-02  0.1300439E+00
        -11   -1    0    0    0    0  0.00000000000E+00  0.00000000000E+00  0.45593999997E+02  0.45594000000E+02  0.51100000000E-03 0. -1.
         11   -1    0    0    0    0 -0.00000000000E+00 -0.00000000000E+00 -0.45593999997E+02  0.45594000000E+02  0.51100000000E-03 0.  1.
    9900012    2    1    2    0    0 -0.22928200024E+02  0.30608915508E+02  0.13804234241E+02  0.50528868825E+02  0.30000027281E+02 0.  0.
        -12    1    1    2    0    0  0.22928200024E+02 -0.30608915508E+02 -0.13804234241E+02  0.40659131175E+02  0.00000000000E+00 0.  1.
         11    1    3    3    0    0  0.22211097701E+01  0.74158133379E+01  0.88745887613E+01  0.11776499566E+02  0.51100000000E-03 0. -1.
        -11    1    3    3    0    0 -0.54551741048E+01  0.15490317909E+02 -0.18942922415E+01  0.16531703384E+02  0.51100000000E-03 0.  1.
        -12    1    3    3    0    0 -0.19694135690E+02  0.77027842608E+01  0.68239377210E+01  0.22220665875E+02  0.00000000000E+00 0.  1.
</event>
<event>
 7    1  0.5601662E-013  0.5052887E+02  0.7816164E-02  0.1300439E+00
        -11   -1    0    0    0    0  0.00000000000E+00  0.00000000000E+00  0.45593999997E+02  0.45594000000E+02  0.51100000000E-03 0. -1.
         11   -1    0    0    0    0 -0.00000000000E+00 -0.00000000000E+00 -0.45593999997E+02  0.45594000000E+02  0.51100000000E-03 0.  1.
    9900012    2    1    2    0    0 -0.32661582956E+02  0.88938616710E+01  0.22522995472E+02  0.50528866934E+02  0.30000021534E+02 0.  0.
        -12    1    1    2    0    0  0.32661582956E+02 -0.88938616710E+01 -0.22522995472E+02  0.40659133066E+02  0.00000000000E+00 0.  1.
         11    1    3    3    0    0 -0.11219608914E+02  0.40766479990E+01  0.88374346316E+01  0.14852573320E+02  0.51100000000E-03 0. -1.
        -11    1    3    3    0    0 -0.11429570569E+02  0.13200180118E+02  0.14350063005E+02  0.22600976683E+02  0.51100000000E-03 0.  1.
         12    1    3    3    0    0 -0.10012403473E+02 -0.83829664458E+01 -0.66450216417E+00  0.13075316932E+02  0.00000000000E+00 0. -1.
</event>
<event>
 7    1  0.5601662E-013  0.5052887E+02  0.7816164E-02  0.1300439E+00
        -11   -1    0    0    0    0  0.00000000000E+00  0.00000000000E+00  0.45593999997E+02  0.45594000000E+02  0.51100000000E-03 0.  1.
         11   -1    0    0    0    0 -0.00000000000E+00 -0.00000000000E+00 -0.45593999997E+02  0.45594000000E+02  0.51100000000E-03 0. -1.
    9900012    2    1    2    0    0  0.10562930355E+02 -0.32723968204E+02 -0.21696334706E+02  0.50528873935E+02  0.30000042812E+02 0.  0.
        -12    1    1    2    0    0 -0.10562930355E+02  0.32723968204E+02  0.21696334706E+02  0.40659126065E+02  0.00000000000E+00 0.  1.
         11    1    3    3    0    0  0.14555125041E+02 -0.14099536750E+02 -0.16953554199E+02  0.26421044676E+02  0.51100000000E-03 0. -1.
        -11    1    3    3    0    0  0.19110467215E+01 -0.16787361865E+02 -0.10990633762E+01  0.16931496051E+02  0.51100000000E-03 0.  1.
        -12    1    3    3    0    0 -0.59032414071E+01 -0.18370695889E+01 -0.36437171313E+01  0.71763332084E+01  0.00000000000E+00 0.  1.
</event>
<event>
 7    1  0.5601662E-013  0.5052886E+02  0.7816164E-02  0.1300439E+00
        -11   -1    0    0    0    0  0.00000000000E+00  0.00000000000E+00  0.45593999997E+02  0.45594000000E+02  0.51100000000E-03 0.  1.
         11   -1    0    0    0    0 -0.00000000000E+00 -0.00000000000E+00 -0.45593999997E+02  0.45594000000E+02  0.51100000000E-03 0. -1.
    9900012    2    1    2    0    0  0.30896558810E+01  0.17942772118E+01 -0.40501851423E+02  0.50528863599E+02  0.30000011395E+02 0.  0.
        -12    1    1    2    0    0 -0.30896558810E+01 -0.17942772118E+01  0.40501851423E+02  0.40659136401E+02  0.00000000000E+00 0.  1.
         11    1    3    3    0    0 -0.32486070296E+01  0.83534853326E+01 -0.28442968032E+02  0.29821747024E+02  0.51100000000E-03 0. -1.
        -11    1    3    3    0    0 -0.35908977972E+01  0.55129548156E+00 -0.61435554216E+01  0.71373487499E+01  0.51100000000E-03 0.  1.
        -12    1    3    3    0    0  0.99291607079E+01 -0.71105036023E+01 -0.59153279698E+01  0.13569767825E+02  0.00000000000E+00 0.  1.
</event>
<event>
 7    1  0.5601662E-013  0.5052886E+02  0.7816164E-02  0.1300439E+00
        -11   -1    0    0    0    0  0.00000000000E+00  0.00000000000E+00  0.45593999997E+02  0.45594000000E+02  0.51100000000E-03 0. -1.
         11   -1    0    0    0    0 -0.00000000000E+00 -0.00000000000E+00 -0.45593999997E+02  0.45594000000E+02  0.51100000000E-03 0.  1.
    9900012    2    1    2    0    0 -0.35743174133E+02  0.85595758344E+01 -0.17387485942E+02  0.50528861999E+02  0.30000006532E+02 0.  0.
        -12    1    1    2    0    0  0.35743174133E+02 -0.85595758344E+01  0.17387485942E+02  0.40659138001E+02  0.00000000000E+00 0.  1.
         11    1    3    3    0    0 -0.17886267149E+02 -0.17434000696E+01 -0.30394966408E+01  0.18226259529E+02  0.51100000000E-03 0. -1.
        -11    1    3    3    0    0 -0.70182878446E+01 -0.30563882201E+01 -0.12949310831E+02  0.15042690068E+02  0.51100000000E-03 0.  1.
         12    1    3    3    0    0 -0.10838619140E+02  0.13359364124E+02 -0.13986784705E+01  0.17259912402E+02  0.00000000000E+00 0. -1.
</event>
<event>
 7    1  0.5601662E-013  0.5052886E+02  0.7816164E-02  0.1300439E+00
        -11   -1    0    0    0    0  0.00000000000E+00  0.00000000000E+00  0.45593999997E+02  0.45594000000E+02  0.51100000000E-03 0.  1.
         11   -1    0    0    0    0 -0.00000000000E+00 -0.00000000000E+00 -0.45593999997E+02  0.45594000000E+02  0.51100000000E-03 0. -1.
    9900012    2    1    2    0    0 -0.57981534568E+01 -0.39322075325E+02  0.85627876666E+01  0.50528861741E+02  0.30000005747E+02 0.  0.
        -12    1    1    2    0    0  0.57981534568E+01  0.39322075325E+02 -0.85627876666E+01  0.40659138259E+02  0.00000000000E+00 0.  1.
         11    1    3    3    0    0  0.96734587513E+00 -0.37415902773E+02  0.10288968693E+02  0.38816857361E+02  0.51100000000E-03 0. -1.
        -11    1    3    3    0    0 -0.28941212573E+01 -0.53637869707E+01  0.38850703061E+00  0.61071340654E+01  0.51100000000E-03 0.  1.
        -12    1    3    3    0    0 -0.38713780747E+01  0.34576144186E+01 -0.21146880569E+01  0.56048703146E+01  0.00000000000E+00 0.  1.
</event>
<event>
 7    1  0.5601662E-013  0.5052885E+02  0.7816164E-02  0.1300439E+00
        -11   -1    0    0    0    0  0.00000000000E+00  0.00000000000E+00  0.45593999997E+02  0.45594000000E+02  0.51100000000E-03 0.  1.
         11   -1    0    0    0    0 -0.00000000000E+00 -0.00000000000E+00 -0.45593999997E+02  0.45594000000E+02  0.51100000000E-03 0. -1.
    9900012    2    1    2    0    0 -0.23017354825E+02 -0.15901930148E+02 -0.29504171542E+02  0.50528854117E+02  0.29999982573E+02 0.  0.
        -12    1    1    2    0    0  0.23017354825E+02  0.15901930148E+02  0.29504171542E+02  0.40659145883E+02  0.00000000000E+00 0.  1.
         11    1    3    3    0    0 -0.21557257986E+02 -0.31070965899E+01 -0.21533376340E+02  0.30627695277E+02  0.51100000000E-03 0. -1.
        -11    1    3    3    0    0 -0.34517629904E+01 -0.10579917908E+01 -0.70994489695E+01  0.79646839424E+01  0.51100000000E-03 0.  1.
        -12    1    3    3    0    0  0.19916661514E+01 -0.11736841767E+02 -0.87134623309E+00  0.11936474898E+02  0.00000000000E+00 0.  1.
</event>
<event>
 7    1  0.5601662E-013  0.5052887E+02  0.7816164E-02  0.1300439E+00
        -11   -1    0    0    0    0  0.00000000000E+00  0.00000000000E+00  0.45593999997E+02  0.45594000000E+02  0.51100000000E-03 0. -1.
         11   -1    0    0    0    0 -0.00000000000E+00 -0.00000000000E+00 -0.45593999997E+02  0.45594000000E+02  0.51100000000E-03 0.  1.
    9900012    2    1    2    0    0 -0.10295329743E+02  0.37337811112E+02  0.12371705609E+02  0.50528867535E+02  0.30000023360E+02 0.  0.
        -12    1    1    2    0    0  0.10295329743E+02 -0.37337811112E+02 -0.12371705609E+02  0.40659132465E+02  0.00000000000E+00 0.  1.
         11    1    3    3    0    0 -0.29918932354E+01 -0.82930472822E-01  0.23829874307E+00  0.30025138047E+01  0.51100000000E-03 0.  1.
        -11    1    3    3    0    0 -0.15406530286E+02  0.17836217152E+02  0.11733164400E+02  0.26327912277E+02  0.51100000000E-03 0. -1.
         12    1    3    3    0    0  0.81030937785E+01  0.19584524432E+02  0.40024246580E+00  0.21198441453E+02  0.00000000000E+00 0. -1.
</event>
<event>
 7    1  0.5601662E-013  0.5052885E+02  0.7816164E-02  0.1300439E+00
        -11   -1    0    0    0    0  0.00000000000E+00  0.00000000000E+00  0.45593999997E+02  0.45594000000E+02  0.51100000000E-03 0.  1.
         11   -1    0    0    0    0 -0.00000000000E+00 -0.00000000000E+00 -0.45593999997E+02  0.45594000000E+02  0.51100000000E-03 0. -1.
    9900012    2    1    2    0    0 -0.31450277802E+01 -0.38166835591E+02 -0.13658990311E+02  0.50528849061E+02  0.29999967206E+02 0.  0.
        -12    1    1    2    0    0  0.31450277802E+01  0.38166835591E+02  0.13658990311E+02  0.40659150939E+02  0.00000000000E+00 0.  1.
         11    1    3    3    0    0  0.52643433151E+01 -0.15160632645E+02 -0.80867659035E-01  0.16048820286E+02  0.51100000000E-03 0. -1.
        -11    1    3    3    0    0  0.50986129444E+01 -0.56764167216E+01  0.15726909848E+01  0.77904375967E+01  0.51100000000E-03 0.  1.
        -12    1    3    3    0    0 -0.13507984040E+02 -0.17329786225E+02 -0.15150813637E+02  0.26689591178E+02  0.00000000000E+00 0.  1.
</event>
<event>
 7    1  0.5601662E-013  0.5052886E+02  0.7816164E-02  0.1300439E+00
        -11   -1    0    0    0    0  0.00000000000E+00  0.00000000000E+00  0.45593999997E+02  0.45594000000E+02  0.51100000000E-03 0. -1.
         11   -1    0    0    0    0 -0.00000000000E+00 -0.00000000000E+00 -0.45593999997E+02  0.45594000000E+02  0.51100000000E-03 0.  1.
    9900012    2    1    2    0    0  0.50313538675E+01 -0.27098361926E+02 -0.29891971106E+02  0.50528859854E+02  0.30000000013E+02 0.  0.
        -12    1    1    2    0    0 -0.50313538675E+01  0.27098361926E+02  0.29891971106E+02  0.40659140146E+02  0.00000000000E+00 0.  1.
         11    1    3    3    0    0  0.49324828983E+01 -0.22530013532E+00 -0.50809204879E+01  0.70849065596E+01  0.51100000000E-03 0. -1.
        -11    1    3    3    0    0 -0.14271559492E+01 -0.26326600956E+01 -0.17959816266E+02  0.18207764109E+02  0.51100000000E-03 0.  1.
         12    1    3    3    0    0  0.15260269184E+01 -0.24240401695E+02 -0.68512343519E+01  0.25236189186E+02  0.00000000000E+00 0. -1.
</event>
<event>
 7    1  0.5601662E-013  0.5052887E+02  0.7816164E-02  0.1300439E+00
        -11   -1    0    0    0    0  0.00000000000E+00  0.00000000000E+00  0.45593999997E+02  0.45594000000E+02  0.51100000000E-03 0.  1.
         11   -1    0    0    0    0 -0.00000000000E+00 -0.00000000000E+00 -0.45593999997E+02  0.45594000000E+02  0.51100000000E-03 0. -1.
    9900012    2    1    2    0    0  0.37255616069E+02 -0.23225191323E+01 -0.16118001084E+02  0.50528868397E+02  0.30000025980E+02 0.  0.
        -12    1    1    2    0    0 -0.37255616069E+02  0.23225191323E+01  0.16118001084E+02  0.40659131603E+02  0.00000000000E+00 0.  1.
         11    1    3    3    0    0  0.12961599836E+02  0.76050566679E+01 -0.65350850469E+01  0.16387412672E+02  0.51100000000E-03 0. -1.
        -11    1    3    3    0    0  0.15128722531E+01  0.51248641721E+01 -0.26781248868E+01  0.59770702193E+01  0.51100000000E-03 0.  1.
        -12    1    3    3    0    0  0.22781143979E+02 -0.15052439972E+02 -0.69047911500E+01  0.28164385506E+02  0.00000000000E+00 0.  1.
</event>
<event>
 7    1  0.5601662E-013  0.5052886E+02  0.7816164E-02  0.1300439E+00
        -11   -1    0    0    0    0  0.00000000000E+00  0.00000000000E+00  0.45593999997E+02  0.45594000000E+02  0.51100000000E-03 0. -1.
         11   -1    0    0    0    0 -0.00000000000E+00 -0.00000000000E+00 -0.45593999997E+02  0.45594000000E+02  0.51100000000E-03 0.  1.
    9900012    2    1    2    0    0 -0.30100507539E+02  0.20539181491E+02  0.18035167640E+02  0.50528858319E+02  0.29999995347E+02 0.  0.
        -12    1    1    2    0    0  0.30100507539E+02 -0.20539181491E+02 -0.18035167640E+02  0.40659141681E+02  0.00000000000E+00 0.  1.
         11    1    3    3    0    0  0.56494896128E+00 -0.24808557094E+01  0.17724574623E+01  0.31008737634E+01  0.51100000000E-03 0. -1.
        -11    1    3    3    0    0 -0.98906288526E+01  0.43191991927E+01  0.16212088642E+02  0.19475929738E+02  0.51100000000E-03 0.  1.
         12    1    3    3    0    0 -0.20774827648E+02  0.18700838007E+02  0.50621535265E-01  0.27952054818E+02  0.00000000000E+00 0. -1.
</event>
<event>
 7    1  0.5601662E-013  0.5052886E+02  0.7816164E-02  0.1300439E+00
        -11   -1    0    0    0    0  0.00000000000E+00  0.00000000000E+00  0.45593999997E+02  0.45594000000E+02  0.51100000000E-03 0.  1.
         11   -1    0    0    0    0 -0.00000000000E+00 -0.00000000000E+00 -0.45593999997E+02  0.45594000000E+02  0.51100000000E-03 0. -1.
    9900012    2    1    2    0    0 -0.26126827521E+02  0.59853391425E+00 -0.31147968222E+02  0.50528864698E+02  0.30000014735E+02 0.  0.
        -12    1    1    2    0    0  0.26126827521E+02 -0.59853391425E+00  0.31147968222E+02  0.40659135302E+02  0.00000000000E+00 0.  1.
         11    1    3    3    0    0 -0.98169802500E+01 -0.66175245303E+01 -0.55407377445E+01  0.13071515105E+02  0.51100000000E-03 0. -1.
        -11    1    3    3    0    0 -0.90473233963E+01 -0.54885089147E+01 -0.18206930496E+02  0.21058729997E+02  0.51100000000E-03 0.  1.
        -12    1    3    3    0    0 -0.72625238751E+01  0.12704567359E+02 -0.74002999815E+01  0.16398619595E+02  0.00000000000E+00 0.  1.
</event>
<event>
 7    1  0.5601662E-013  0.5052886E+02  0.7816164E-02  0.1300439E+00
        -11   -1    0    0    0    0  0.00000000000E+00  0.00000000000E+00  0.45593999997E+02  0.45594000000E+02  0.51100000000E-03 0.  1.
         11   -1    0    0    0    0 -0.00000000000E+00 -0.00000000000E+00 -0.45593999997E+02  0.45594000000E+02  0.51100000000E-03 0. -1.
    9900012    2    1    2    0    0  0.38230541110E+02  0.22327573333E+01 -0.13660391137E+02  0.50528858779E+02  0.29999996744E+02 0.  0.
        -12    1    1    2    0    0 -0.38230541110E+02 -0.22327573333E+01  0.13660391137E+02  0.40659141221E+02  0.00000000000E+00 0.  1.
         11    1    3    3    0    0  0.39840394595E+01 -0.89105916401E+01 -0.29939197224E+01  0.10209543053E+02  0.51100000000E-03 0. -1.
        -11    1    3    3    0    0  0.31735810428E+01  0.61741242829E+01  0.42260367567E+00  0.69548559600E+01  0.51100000000E-03 0.  1.
         12    1    3    3    0    0  0.31072920607E+02  0.49692246905E+01 -0.11089075090E+02  0.33364459765E+02  0.00000000000E+00 0. -1.
</event>
<event>
 7    1  0.5601662E-013  0.5052886E+02  0.7816164E-02  0.1300439E+00
        -11   -1    0    0    0    0  0.00000000000E+00  0.00000000000E+00  0.45593999997E+02  0.45594000000E+02  0.51100000000E-03 0.  1.
         11   -1    0    0    0    0 -0.00000000000E+00 -0.00000000000E+00 -0.45593999997E+02  0.45594000000E+02  0.51100000000E-03 0. -1.
    9900012    2    1    2    0    0  0.20620256781E+02 -0.18988446693E+02 -0.29451820252E+02  0.50528858178E+02  0.29999994918E+02 0.  0.
        -12    1    1    2    0    0 -0.20620256781E+02  0.18988446693E+02  0.29451820252E+02  0.40659141822E+02  0.00000000000E+00 0.  1.
         11    1    3    3    0    0  0.20054280138E+02 -0.70496171839E+01 -0.14182383676E+02  0.25554085022E+02  0.51100000000E-03 0. -1.
        -11    1    3    3    0    0  0.39507384712E+01 -0.11382081354E+02 -0.17229386954E+02  0.21024078708E+02  0.51100000000E-03 0.  1.
         12    1    3    3    0    0 -0.33847618283E+01 -0.55674815436E+00  0.19599503780E+01  0.39506944486E+01  0.00000000000E+00 0. -1.
</event>
<event>
 7    1  0.5601662E-013  0.5052886E+02  0.7816164E-02  0.1300439E+00
        -11   -1    0    0    0    0  0.00000000000E+00  0.00000000000E+00  0.45593999997E+02  0.45594000000E+02  0.51100000000E-03 0.  1.
         11   -1    0    0    0    0 -0.00000000000E+00 -0.00000000000E+00 -0.45593999997E+02  0.45594000000E+02  0.51100000000E-03 0. -1.
    9900012    2    1    2    0    0 -0.28612087727E+02  0.17002394752E+02 -0.23354493657E+02  0.50528863691E+02  0.30000011676E+02 0.  0.
        -12    1    1    2    0    0  0.28612087727E+02 -0.17002394752E+02  0.23354493657E+02  0.40659136309E+02  0.00000000000E+00 0.  1.
         11    1    3    3    0    0  0.23529492039E+00 -0.62762080675E-01 -0.23984254728E+00  0.34180036124E+00  0.51100000000E-03 0. -1.
        -11    1    3    3    0    0 -0.84830573753E+01 -0.83277626495E+01 -0.77683562440E+01  0.14200748296E+02  0.51100000000E-03 0.  1.
         12    1    3    3    0    0 -0.20364325272E+02  0.25392919482E+02 -0.15346294866E+02  0.35986315034E+02  0.00000000000E+00 0. -1.
</event>
<event>
 7    1  0.5601662E-013  0.5052886E+02  0.7816164E-02  0.1300439E+00
        -11   -1    0    0    0    0  0.00000000000E+00  0.00000000000E+00  0.45593999997E+02  0.45594000000E+02  0.51100000000E-03 0. -1.
         11   -1    0    0    0    0 -0.00000000000E+00 -0.00000000000E+00 -0.45593999997E+02  0.45594000000E+02  0.51100000000E-03 0.  1.
    9900012    2    1    2    0    0 -0.17080812762E+02 -0.11866073828E+02  0.34937202892E+02  0.50528855658E+02  0.29999987259E+02 0.  0.
        -12    1    1    2    0    0  0.17080812762E+02  0.11866073828E+02 -0.34937202892E+02  0.40659144342E+02  0.00000000000E+00 0.  1.
         11    1    3    3    0    0  0.21475421586E+01 -0.18900357370E+01  0.15856576618E+02  0.16112578773E+02  0.51100000000E-03 0. -1.
        -11    1    3    3    0    0 -0.30975366782E+01  0.31565126843E+01  0.11425776279E+02  0.12251802710E+02  0.51100000000E-03 0.  1.
         12    1    3    3    0    0 -0.16130818243E+02 -0.13132550776E+02  0.76548499946E+01  0.22164474176E+02  0.00000000000E+00 0. -1.
</event>
<event>
 7    1  0.5601662E-013  0.5052887E+02  0.7816164E-02  0.1300439E+00
        -11   -1    0    0    0    0  0.00000000000E+00  0.00000000000E+00  0.45593999997E+02  0.45594000000E+02  0.51100000000E-03 0.  1.
         11   -1    0    0    0    0 -0.00000000000E+00 -0.00000000000E+00 -0.45593999997E+02  0.45594000000E+02  0.51100000000E-03 0. -1.
    9900012    2    1    2    0    0  0.18660763505E+02 -0.31617836496E+02 -0.17471505362E+02  0.50528865984E+02  0.30000018646E+02 0.  0.
        -12    1    1    2    0    0 -0.18660763505E+02  0.31617836496E+02  0.17471505362E+02  0.40659134016E+02  0.00000000000E+00 0.  1.
         11    1    3    3    0    0 -0.14856665713E+01 -0.17446729290E+01 -0.30723466955E+01  0.38328061873E+01  0.51100000000E-03 0. -1.
        -11    1    3    3    0    0 -0.33606618816E+01 -0.44363651892E+01  0.45743643031E+01  0.72041788854E+01  0.51100000000E-03 0.  1.
         12    1    3    3    0    0  0.23507091958E+02 -0.25436798378E+02 -0.18973522970E+02  0.39491880912E+02  0.00000000000E+00 0. -1.
</event>
<event>
 7    1  0.5601662E-013  0.5052886E+02  0.7816164E-02  0.1300439E+00
        -11   -1    0    0    0    0  0.00000000000E+00  0.00000000000E+00  0.45593999997E+02  0.45594000000E+02  0.51100000000E-03 0.  1.
         11   -1    0    0    0    0 -0.00000000000E+00 -0.00000000000E+00 -0.45593999997E+02  0.45594000000E+02  0.51100000000E-03 0. -1.
    9900012    2    1    2    0    0  0.32791888980E+02 -0.15344236958E+02 -0.18504368967E+02  0.50528864968E+02  0.30000015556E+02 0.  0.
        -12    1    1    2    0    0 -0.32791888980E+02  0.15344236958E+02  0.18504368967E+02  0.40659135032E+02  0.00000000000E+00 0.  1.
         11    1    3    3    0    0  0.96575001047E+01 -0.22919371788E+01 -0.68592618263E+01  0.12065229271E+02  0.51100000000E-03 0. -1.
        -11    1    3    3    0    0  0.22384006959E+02  0.52356949418E+00 -0.36358611048E+01  0.22683416383E+02  0.51100000000E-03 0.  1.
        -12    1    3    3    0    0  0.75038191679E+00 -0.13575869273E+02 -0.80092460355E+01  0.15780219314E+02  0.00000000000E+00 0.  1.
</event>
<event>
 7    1  0.5601662E-013  0.5052885E+02  0.7816164E-02  0.1300439E+00
        -11   -1    0    0    0    0  0.00000000000E+00  0.00000000000E+00  0.45593999997E+02  0.45594000000E+02  0.51100000000E-03 0.  1.
         11   -1    0    0    0    0 -0.00000000000E+00 -0.00000000000E+00 -0.45593999997E+02  0.45594000000E+02  0.51100000000E-03 0. -1.
    9900012    2    1    2    0    0 -0.16432719307E+02  0.10634406500E+02 -0.35637641124E+02  0.50528851825E+02  0.29999975606E+02 0.  0.
        -12    1    1    2    0    0  0.16432719307E+02 -0.10634406500E+02  0.35637641124E+02  0.40659148175E+02  0.00000000000E+00 0.  1.
         11    1    3    3    0    0 -0.17126679021E+02  0.38028941429E+01 -0.65859013018E+01  0.18739243164E+02  0.51100000000E-03 0. -1.
        -11    1    3    3    0    0 -0.26276793097E+01 -0.16472336892E+01 -0.35662727363E+01  0.47261378389E+01  0.51100000000E-03 0.  1.
         12    1    3    3    0    0  0.33216390229E+01  0.84787460467E+01 -0.25485467086E+02  0.27063470822E+02  0.00000000000E+00 0. -1.
</event>
<event>
 7    1  0.5601662E-013  0.5052886E+02  0.7816164E-02  0.1300439E+00
        -11   -1    0    0    0    0  0.00000000000E+00  0.00000000000E+00  0.45593999997E+02  0.45594000000E+02  0.51100000000E-03 0.  1.
         11   -1    0    0    0    0 -0.00000000000E+00 -0.00000000000E+00 -0.45593999997E+02  0.45594000000E+02  0.51100000000E-03 0. -1.
    9900012    2    1    2    0    0  0.50343143725E+01 -0.39600942093E+02 -0.77192429391E+01  0.50528860223E+02  0.30000001133E+02 0.  0.
        -12    1    1    2    0    0 -0.50343143725E+01  0.39600942093E+02  0.77192429391E+01  0.40659139777E+02  0.00000000000E+00 0.  1.
         11    1    3    3    0    0 -0.42897143377E+00 -0.96869307372E+01 -0.44411751069E+01  0.10665115104E+02  0.51100000000E-03 0. -1.
        -11    1    3    3    0    0 -0.46831851415E+01 -0.27403586307E+02  0.25131068490E+01  0.27914234216E+02  0.51100000000E-03 0.  1.
        -12    1    3    3    0    0  0.10146470948E+02 -0.25104250489E+01 -0.57911746813E+01  0.11949510903E+02  0.00000000000E+00 0.  1.
</event>
<event>
 7    1  0.5601662E-013  0.5052888E+02  0.7816164E-02  0.1300439E+00
        -11   -1    0    0    0    0  0.00000000000E+00  0.00000000000E+00  0.45593999997E+02  0.45594000000E+02  0.51100000000E-03 0.  1.
         11   -1    0    0    0    0 -0.00000000000E+00 -0.00000000000E+00 -0.45593999997E+02  0.45594000000E+02  0.51100000000E-03 0. -1.
    9900012    2    1    2    0    0 -0.16066178757E+02  0.14385915626E+01 -0.37322547904E+02  0.50528877683E+02  0.30000054205E+02 0.  0.
        -12    1    1    2    0    0  0.16066178757E+02 -0.14385915626E+01  0.37322547904E+02  0.40659122317E+02  0.00000000000E+00 0.  1.
         11    1    3    3    0    0 -0.10708237720E+02 -0.86970692977E+01 -0.12740653643E+02  0.18778435104E+02  0.51100000000E-03 0. -1.
        -11    1    3    3    0    0 -0.82866075843E+01 -0.63686801061E+00 -0.67245866963E+01  0.10690815339E+02  0.51100000000E-03 0.  1.
        -12    1    3    3    0    0  0.29286665472E+01  0.10772528871E+02 -0.17857307564E+02  0.21059627239E+02  0.00000000000E+00 0.  1.
</event>
<event>
 7    1  0.5601662E-013  0.5052885E+02  0.7816164E-02  0.1300439E+00
        -11   -1    0    0    0    0  0.00000000000E+00  0.00000000000E+00  0.45593999997E+02  0.45594000000E+02  0.51100000000E-03 0. -1.
         11   -1    0    0    0    0 -0.00000000000E+00 -0.00000000000E+00 -0.45593999997E+02  0.45594000000E+02  0.51100000000E-03 0.  1.
    9900012    2    1    2    0    0 -0.29621176282E+01  0.38251080388E+02  0.13462796264E+02  0.50528853736E+02  0.29999981416E+02 0.  0.
        -12    1    1    2    0    0  0.29621176282E+01 -0.38251080388E+02 -0.13462796264E+02  0.40659146264E+02  0.00000000000E+00 0.  1.
         11    1    3    3    0    0 -0.92804155892E+00 -0.91196982899E-01  0.33298942757E+00  0.99018192508E+00  0.51100000000E-03 0. -1.
        -11    1    3    3    0    0  0.52097637776E+01  0.16046411622E-01 -0.43587098617E+01  0.67926613359E+01  0.51100000000E-03 0.  1.
         12    1    3    3    0    0 -0.72438398469E+01  0.38326230959E+02  0.17488516698E+02  0.42746010475E+02  0.00000000000E+00 0. -1.
</event>
<event>
 7    1  0.5601662E-013  0.5052886E+02  0.7816164E-02  0.1300439E+00
        -11   -1    0    0    0    0  0.00000000000E+00  0.00000000000E+00  0.45593999997E+02  0.45594000000E+02  0.51100000000E-03 0.  1.
         11   -1    0    0    0    0 -0.00000000000E+00 -0.00000000000E+00 -0.45593999997E+02  0.45594000000E+02  0.51100000000E-03 0. -1.
    9900012    2    1    2    0    0  0.60888189793E+01  0.33734604940E+02  0.21864780834E+02  0.50528856773E+02  0.29999990648E+02 0.  0.
        -12    1    1    2    0    0 -0.60888189793E+01 -0.33734604940E+02 -0.21864780834E+02  0.40659143227E+02  0.00000000000E+00 0.  1.
         11    1    3    3    0    0 -0.44178730463E+01  0.19421328607E+02  0.90337324794E+01  0.21870389340E+02  0.51100000000E-03 0. -1.
        -11    1    3    3    0    0 -0.52096198867E+01  0.37561427668E+01  0.51276365205E+01  0.82183577676E+01  0.51100000000E-03 0.  1.
         12    1    3    3    0    0  0.15716311912E+02  0.10557133566E+02  0.77034118342E+01  0.20440109665E+02  0.00000000000E+00 0. -1.
</event>
<event>
 7    1  0.5601662E-013  0.5052887E+02  0.7816164E-02  0.1300439E+00
        -11   -1    0    0    0    0  0.00000000000E+00  0.00000000000E+00  0.45593999997E+02  0.45594000000E+02  0.51100000000E-03 0. -1.
         11   -1    0    0    0    0 -0.00000000000E+00 -0.00000000000E+00 -0.45593999997E+02  0.45594000000E+02  0.51100000000E-03 0.  1.
    9900012    2    1    2    0    0  0.25140482367E+02  0.92366094157E-01  0.31954852597E+02  0.50528868311E+02  0.30000025720E+02 0.  0.
        -12    1    1    2    0    0 -0.25140482367E+02 -0.92366094157E-01 -0.31954852597E+02  0.40659131689E+02  0.00000000000E+00 0.  1.
         11    1    3    3    0    0  0.19373321784E+01  0.14110560173E+01  0.13561335588E+01  0.27538034687E+01  0.51100000000E-03 0. -1.
        -11    1    3    3    0    0  0.47227836887E+01  0.10838344582E+02  0.20031340688E+02  0.23260030290E+02  0.51100000000E-03 0.  1.
         12    1    3    3    0    0  0.18480366500E+02 -0.12157034505E+02  0.10567378350E+02  0.24515034553E+02  0.00000000000E+00 0. -1.
</event>
<event>
 7    1  0.5601662E-013  0.5052886E+02  0.7816164E-02  0.1300439E+00
        -11   -1    0    0    0    0  0.00000000000E+00  0.00000000000E+00  0.45593999997E+02  0.45594000000E+02  0.51100000000E-03 0. -1.
         11   -1    0    0    0    0 -0.00000000000E+00 -0.00000000000E+00 -0.45593999997E+02  0.45594000000E+02  0.51100000000E-03 0.  1.
    9900012    2    1    2    0    0  0.30206269732E+01  0.93992206998E+01  0.39442318877E+02  0.50528855205E+02  0.29999985881E+02 0.  0.
        -12    1    1    2    0    0 -0.30206269732E+01 -0.93992206998E+01 -0.39442318877E+02  0.40659144795E+02  0.00000000000E+00 0.  1.
         11    1    3    3    0    0 -0.55084183395E+01  0.77819142116E+01  0.12669176586E+02  0.15855878942E+02  0.51100000000E-03 0. -1.
        -11    1    3    3    0    0  0.42666272536E+01  0.50401289788E+01  0.28249057146E+02  0.29010622850E+02  0.51100000000E-03 0.  1.
        -12    1    3    3    0    0  0.42624180591E+01 -0.34228224906E+01 -0.14759148548E+01  0.56623534128E+01  0.00000000000E+00 0.  1.
</event>
<event>
 7    1  0.5601662E-013  0.5052886E+02  0.7816164E-02  0.1300439E+00
        -11   -1    0    0    0    0  0.00000000000E+00  0.00000000000E+00  0.45593999997E+02  0.45594000000E+02  0.51100000000E-03 0.  1.
         11   -1    0    0    0    0 -0.00000000000E+00 -0.00000000000E+00 -0.45593999997E+02  0.45594000000E+02  0.51100000000E-03 0. -1.
    9900012    2    1    2    0    0  0.25452402485E+02 -0.31494770731E+02  0.36633659679E+01  0.50528860488E+02  0.30000001940E+02 0.  0.
        -12    1    1    2    0    0 -0.25452402485E+02  0.31494770731E+02 -0.36633659679E+01  0.40659139512E+02  0.00000000000E+00 0.  1.
         11    1    3    3    0    0  0.11931697688E+02 -0.20700889041E+02 -0.60787682708E+01  0.24654485206E+02  0.51100000000E-03 0. -1.
        -11    1    3    3    0    0  0.29917270146E+01  0.36604389626E+01 -0.12417898735E+01  0.48878713444E+01  0.51100000000E-03 0.  1.
         12    1    3    3    0    0  0.10528977782E+02 -0.14454320652E+02  0.10983924112E+02  0.20986503938E+02  0.00000000000E+00 0. -1.
</event>
<event>
 7    1  0.5601662E-013  0.5052886E+02  0.7816164E-02  0.1300439E+00
        -11   -1    0    0    0    0  0.00000000000E+00  0.00000000000E+00  0.45593999997E+02  0.45594000000E+02  0.51100000000E-03 0.  1.
         11   -1    0    0    0    0 -0.00000000000E+00 -0.00000000000E+00 -0.45593999997E+02  0.45594000000E+02  0.51100000000E-03 0. -1.
    9900012    2    1    2    0    0  0.27990350582E+02  0.67379877194E+01 -0.28710719672E+02  0.50528860458E+02  0.30000001848E+02 0.  0.
        -12    1    1    2    0    0 -0.27990350582E+02 -0.67379877194E+01  0.28710719672E+02  0.40659139542E+02  0.00000000000E+00 0.  1.
         11    1    3    3    0    0  0.77940439235E+01  0.66356367677E+01 -0.83073805011E+01  0.13182995375E+02  0.51100000000E-03 0. -1.
        -11    1    3    3    0    0 -0.17528659858E+01 -0.36332943296E+01 -0.13417559471E+02  0.14010862546E+02  0.51100000000E-03 0.  1.
         12    1    3    3    0    0  0.21949172644E+02  0.37356452814E+01 -0.69857796998E+01  0.23335002538E+02  0.00000000000E+00 0. -1.
</event>
<event>
 7    1  0.5601662E-013  0.5052886E+02  0.7816164E-02  0.1300439E+00
        -11   -1    0    0    0    0  0.00000000000E+00  0.00000000000E+00  0.45593999997E+02  0.45594000000E+02  0.51100000000E-03 0. -1.
         11   -1    0    0    0    0 -0.00000000000E+00 -0.00000000000E+00 -0.45593999997E+02  0.45594000000E+02  0.51100000000E-03 0.  1.
    9900012    2    1    2    0    0  0.37938894644E+02 -0.73276755847E+01 -0.12653493860E+02  0.50528862489E+02  0.30000008021E+02 0.  0.
        -12    1    1    2    0    0 -0.37938894644E+02  0.73276755847E+01  0.12653493860E+02  0.40659137511E+02  0.00000000000E+00 0.  1.
         11    1    3    3    0    0  0.15053520514E+02 -0.72760118695E+01 -0.76279566642E+00  0.16737105069E+02  0.51100000000E-03 0. -1.
        -11    1    3    3    0    0  0.58430723499E+01 -0.10227599481E+02 -0.42275073396E+01  0.12514675553E+02  0.51100000000E-03 0.  1.
         12    1    3    3    0    0  0.17042301780E+02  0.10175935766E+02 -0.76631908541E+01  0.21277081867E+02  0.00000000000E+00 0. -1.
</event>
<event>
 7    1  0.5601662E-013  0.5052892E+02  0.7816164E-02  0.1300439E+00
        -11   -1    0    0    0    0  0.00000000000E+00  0.00000000000E+00  0.45593999997E+02  0.45594000000E+02  0.51100000000E-03 0. -1.
         11   -1    0    0    0    0 -0.00000000000E+00 -0.00000000000E+00 -0.45593999997E+02  0.45594000000E+02  0.51100000000E-03 0.  1.
    9900012    2    1    2    0    0  0.24936678445E+02 -0.29825604430E+02  0.11906131182E+02  0.50528922647E+02  0.30000190876E+02 0.  0.
        -12    1    1    2    0    0 -0.24936678445E+02  0.29825604430E+02 -0.11906131182E+02  0.40659077353E+02  0.00000000000E+00 0.  1.
         11    1    3    3    0    0 -0.40791338070E+01 -0.20657947355E+01  0.50207384911E+01  0.67907772576E+01  0.51100000000E-03 0. -1.
        -11    1    3    3    0    0  0.47579720210E+01 -0.57661803276E+01 -0.48992859111E+01  0.89381282169E+01  0.51100000000E-03 0.  1.
         12    1    3    3    0    0  0.24257840231E+02 -0.21993629367E+02  0.11784678602E+02  0.34800017172E+02  0.00000000000E+00 0. -1.
</event>
<event>
 7    1  0.5601662E-013  0.5052885E+02  0.7816164E-02  0.1300439E+00
        -11   -1    0    0    0    0  0.00000000000E+00  0.00000000000E+00  0.45593999997E+02  0.45594000000E+02  0.51100000000E-03 0.  1.
         11   -1    0    0    0    0 -0.00000000000E+00 -0.00000000000E+00 -0.45593999997E+02  0.45594000000E+02  0.51100000000E-03 0. -1.
    9900012    2    1    2    0    0  0.28124849362E+02  0.29115682077E+02  0.37994793847E+01  0.50528854189E+02  0.29999982794E+02 0.  0.
        -12    1    1    2    0    0 -0.28124849362E+02 -0.29115682077E+02 -0.37994793847E+01  0.40659145811E+02  0.00000000000E+00 0.  1.
         11    1    3    3    0    0  0.22736615963E+02  0.16064494607E+02  0.38827889023E+00  0.27841918992E+02  0.51100000000E-03 0. -1.
        -11    1    3    3    0    0  0.65100576878E+01 -0.12863980159E+01 -0.25634284230E+01  0.71138482198E+01  0.51100000000E-03 0.  1.
         12    1    3    3    0    0 -0.11218242885E+01  0.14337585486E+02  0.59746289174E+01  0.15573086978E+02  0.00000000000E+00 0. -1.
</event>
<event>
 7    1  0.5601662E-013  0.5052885E+02  0.7816164E-02  0.1300439E+00
        -11   -1    0    0    0    0  0.00000000000E+00  0.00000000000E+00  0.45593999997E+02  0.45594000000E+02  0.51100000000E-03 0. -1.
         11   -1    0    0    0    0 -0.00000000000E+00 -0.00000000000E+00 -0.45593999997E+02  0.45594000000E+02  0.51100000000E-03 0.  1.
    9900012    2    1    2    0    0 -0.11812679534E+02  0.24425798591E+02  0.30282125836E+02  0.50528853677E+02  0.29999981237E+02 0.  0.
        -12    1    1    2    0    0  0.11812679534E+02 -0.24425798591E+02 -0.30282125836E+02  0.40659146323E+02  0.00000000000E+00 0.  1.
         11    1    3    3    0    0 -0.15267875927E+02  0.43201577463E+01  0.21434532986E+02  0.26668539572E+02  0.51100000000E-03 0. -1.
        -11    1    3    3    0    0 -0.34257864138E+00  0.30458065561E+01 -0.16415382636E+01  0.34769161386E+01  0.51100000000E-03 0.  1.
        -12    1    3    3    0    0  0.37977750347E+01  0.17059834289E+02  0.10489131113E+02  0.20383397967E+02  0.00000000000E+00 0.  1.
</event>
<event>
 7    1  0.5601662E-013  0.5052885E+02  0.7816164E-02  0.1300439E+00
        -11   -1    0    0    0    0  0.00000000000E+00  0.00000000000E+00  0.45593999997E+02  0.45594000000E+02  0.51100000000E-03 0.  1.
         11   -1    0    0    0    0 -0.00000000000E+00 -0.00000000000E+00 -0.45593999997E+02  0.45594000000E+02  0.51100000000E-03 0. -1.
    9900012    2    1    2    0    0 -0.21633100139E+02 -0.33504975502E+02 -0.79115181292E+01  0.50528849442E+02  0.29999968363E+02 0.  0.
        -12    1    1    2    0    0  0.21633100139E+02  0.33504975502E+02  0.79115181292E+01  0.40659150558E+02  0.00000000000E+00 0.  1.
         11    1    3    3    0    0 -0.22816496062E+02 -0.16390866397E+02 -0.11553809461E+02  0.30376693486E+02  0.51100000000E-03 0. -1.
        -11    1    3    3    0    0 -0.41635796051E+01 -0.85208790888E+01  0.32446235296E+01  0.10023390528E+02  0.51100000000E-03 0.  1.
        -12    1    3    3    0    0  0.53469755281E+01 -0.85932300161E+01  0.39766780246E+00  0.10128765428E+02  0.00000000000E+00 0.  1.
</event>
<event>
 7    1  0.5601662E-013  0.5052893E+02  0.7816164E-02  0.1300439E+00
        -11   -1    0    0    0    0  0.00000000000E+00  0.00000000000E+00  0.45593999997E+02  0.45594000000E+02  0.51100000000E-03 0.  1.
         11   -1    0    0    0    0 -0.00000000000E+00 -0.00000000000E+00 -0.45593999997E+02  0.45594000000E+02  0.51100000000E-03 0. -1.
    9900012    2    1    2    0    0  0.20233306763E+02  0.60898520382E+01 -0.34737400507E+02  0.50528929740E+02  0.30000212436E+02 0.  0.
        -12    1    1    2    0    0 -0.20233306763E+02 -0.60898520382E+01  0.34737400507E+02  0.40659070260E+02  0.00000000000E+00 0.  1.
         11    1    3    3    0    0  0.72266983707E+01  0.55909826092E+01 -0.20895074652E+02  0.22805446736E+02  0.51100000000E-03 0. -1.
        -11    1    3    3    0    0  0.14512943448E+02  0.57502059825E+01 -0.15515826086E+02  0.22009799085E+02  0.51100000000E-03 0.  1.
        -12    1    3    3    0    0 -0.15063350552E+01 -0.52513365534E+01  0.16735002310E+01  0.57136839183E+01  0.00000000000E+00 0.  1.
</event>
<event>
 7    1  0.5601662E-013  0.5052885E+02  0.7816164E-02  0.1300439E+00
        -11   -1    0    0    0    0  0.00000000000E+00  0.00000000000E+00  0.45593999997E+02  0.45594000000E+02  0.51100000000E-03 0.  1.
         11   -1    0    0    0    0 -0.00000000000E+00 -0.00000000000E+00 -0.45593999997E+02  0.45594000000E+02  0.51100000000E-03 0. -1.
    9900012    2    1    2    0    0 -0.14965924378E+02  0.28997788645E+02 -0.24255217407E+02  0.50528853302E+02  0.29999980097E+02 0.  0.
        -12    1    1    2    0    0  0.14965924378E+02 -0.28997788645E+02  0.24255217407E+02  0.40659146698E+02  0.00000000000E+00 0.  1.
         11    1    3    3    0    0 -0.37790176600E+01  0.44929799300E+01 -0.16416781818E+02  0.17434981177E+02  0.51100000000E-03 0. -1.
        -11    1    3    3    0    0 -0.13666006212E+02  0.19368781028E+02 -0.11468880012E+02  0.26333336539E+02  0.51100000000E-03 0.  1.
        -12    1    3    3    0    0  0.24790994935E+01  0.51360276867E+01  0.36304444235E+01  0.67605355860E+01  0.00000000000E+00 0.  1.
</event>
<event>
 7    1  0.5601662E-013  0.5052885E+02  0.7816164E-02  0.1300439E+00
        -11   -1    0    0    0    0  0.00000000000E+00  0.00000000000E+00  0.45593999997E+02  0.45594000000E+02  0.51100000000E-03 0. -1.
         11   -1    0    0    0    0 -0.00000000000E+00 -0.00000000000E+00 -0.45593999997E+02  0.45594000000E+02  0.51100000000E-03 0.  1.
    9900012    2    1    2    0    0 -0.26923341786E+02 -0.10282277508E+02  0.28680569964E+02  0.50528847806E+02  0.29999963391E+02 0.  0.
        -12    1    1    2    0    0  0.26923341786E+02  0.10282277508E+02 -0.28680569964E+02  0.40659152194E+02  0.00000000000E+00 0.  1.
         11    1    3    3    0    0  0.15322692799E+01 -0.43293990013E+01  0.14657965201E+02  0.15360582312E+02  0.51100000000E-03 0. -1.
        -11    1    3    3    0    0 -0.56204368078E+00  0.29225134097E+01  0.14579485770E+01  0.33139994031E+01  0.51100000000E-03 0.  1.
         12    1    3    3    0    0 -0.27893567385E+02 -0.88753919167E+01  0.12564656185E+02  0.31854266091E+02  0.00000000000E+00 0. -1.
</event>
<event>
 7    1  0.5601662E-013  0.5052884E+02  0.7816164E-02  0.1300439E+00
        -11   -1    0    0    0    0  0.00000000000E+00  0.00000000000E+00  0.45593999997E+02  0.45594000000E+02  0.51100000000E-03 0.  1.
         11   -1    0    0    0    0 -0.00000000000E+00 -0.00000000000E+00 -0.45593999997E+02  0.45594000000E+02  0.51100000000E-03 0. -1.
    9900012    2    1    2    0    0 -0.46563451341E+01  0.26246644126E+02 -0.30701780111E+02  0.50528841377E+02  0.29999943850E+02 0.  0.
        -12    1    1    2    0    0  0.46563451341E+01 -0.26246644126E+02  0.30701780111E+02  0.40659158623E+02  0.00000000000E+00 0.  1.
         11    1    3    3    0    0 -0.47994190920E+01  0.88116252580E+01 -0.33678162912E+01  0.10584013895E+02  0.51100000000E-03 0. -1.
        -11    1    3    3    0    0  0.49489945563E+01  0.79231701938E+01  0.12628810286E+01  0.94267726074E+01  0.51100000000E-03 0.  1.
         12    1    3    3    0    0 -0.48059205984E+01  0.95118486745E+01 -0.28596844849E+02  0.30518054874E+02  0.00000000000E+00 0. -1.
</event>
<event>
 7    1  0.5601662E-013  0.5052885E+02  0.7816164E-02  0.1300439E+00
        -11   -1    0    0    0    0  0.00000000000E+00  0.00000000000E+00  0.45593999997E+02  0.45594000000E+02  0.51100000000E-03 0.  1.
         11   -1    0    0    0    0 -0.00000000000E+00 -0.00000000000E+00 -0.45593999997E+02  0.45594000000E+02  0.51100000000E-03 0. -1.
    9900012    2    1    2    0    0  0.17380386782E+02  0.35492163243E+02  0.95600552900E+01  0.50528853999E+02  0.29999982216E+02 0.  0.
        -12    1    1    2    0    0 -0.17380386782E+02 -0.35492163243E+02 -0.95600552900E+01  0.40659146001E+02  0.00000000000E+00 0.  1.
         11    1    3    3    0    0  0.96128934693E+01  0.10497637975E+01 -0.42439562882E+01  0.10560345171E+02  0.51100000000E-03 0. -1.
        -11    1    3    3    0    0  0.47432996914E-01  0.12216707811E+01 -0.20272515986E+01  0.23673780205E+01  0.51100000000E-03 0.  1.
        -12    1    3    3    0    0  0.77200603162E+01  0.33220728664E+02  0.15831263177E+02  0.37601130808E+02  0.00000000000E+00 0.  1.
</event>
<event>
 7    1  0.5601662E-013  0.5052886E+02  0.7816164E-02  0.1300439E+00
        -11   -1    0    0    0    0  0.00000000000E+00  0.00000000000E+00  0.45593999997E+02  0.45594000000E+02  0.51100000000E-03 0.  1.
         11   -1    0    0    0    0 -0.00000000000E+00 -0.00000000000E+00 -0.45593999997E+02  0.45594000000E+02  0.51100000000E-03 0. -1.
    9900012    2    1    2    0    0 -0.12982376593E+02 -0.27915180304E+02 -0.26558725112E+02  0.50528864827E+02  0.30000015130E+02 0.  0.
        -12    1    1    2    0    0  0.12982376593E+02  0.27915180304E+02  0.26558725112E+02  0.40659135173E+02  0.00000000000E+00 0.  1.
         11    1    3    3    0    0 -0.41219757985E+01 -0.47718114481E+00 -0.93671026133E+01  0.10245047484E+02  0.51100000000E-03 0. -1.
        -11    1    3    3    0    0 -0.11360589068E+02 -0.29437996699E+01 -0.43618090572E+01  0.12520156508E+02  0.51100000000E-03 0.  1.
         12    1    3    3    0    0  0.25001882734E+01 -0.24494199490E+02 -0.12829813441E+02  0.27763660835E+02  0.00000000000E+00 0. -1.
</event>
<event>
 7    1  0.5601662E-013  0.5052885E+02  0.7816164E-02  0.1300439E+00
        -11   -1    0    0    0    0  0.00000000000E+00  0.00000000000E+00  0.45593999997E+02  0.45594000000E+02  0.51100000000E-03 0. -1.
         11   -1    0    0    0    0 -0.00000000000E+00 -0.00000000000E+00 -0.45593999997E+02  0.45594000000E+02  0.51100000000E-03 0.  1.
    9900012    2    1    2    0    0 -0.72364505213E+01  0.28856655234E+02 -0.27714503605E+02  0.50528850016E+02  0.29999970107E+02 0.  0.
        -12    1    1    2    0    0  0.72364505213E+01 -0.28856655234E+02  0.27714503605E+02  0.40659149984E+02  0.00000000000E+00 0.  1.
         11    1    3    3    0    0 -0.48923585091E+01 -0.42968707661E+00  0.24204082560E+01  0.54752332509E+01  0.51100000000E-03 0.  1.
        -11    1    3    3    0    0  0.28833139090E+01  0.12985630727E+02 -0.41451573014E+01  0.13932782701E+02  0.51100000000E-03 0. -1.
        -12    1    3    3    0    0 -0.52274059212E+01  0.16300711583E+02 -0.25989754559E+02  0.31120834064E+02  0.00000000000E+00 0.  1.
</event>
<event>
 7    1  0.5601662E-013  0.5052886E+02  0.7816164E-02  0.1300439E+00
        -11   -1    0    0    0    0  0.00000000000E+00  0.00000000000E+00  0.45593999997E+02  0.45594000000E+02  0.51100000000E-03 0. -1.
         11   -1    0    0    0    0 -0.00000000000E+00 -0.00000000000E+00 -0.45593999997E+02  0.45594000000E+02  0.51100000000E-03 0.  1.
    9900012    2    1    2    0    0  0.31850056732E+02 -0.22952966653E+02 -0.10578319610E+02  0.50528860342E+02  0.30000001495E+02 0.  0.
        -12    1    1    2    0    0 -0.31850056732E+02  0.22952966653E+02  0.10578319610E+02  0.40659139658E+02  0.00000000000E+00 0.  1.
         11    1    3    3    0    0  0.19628183468E+02 -0.49302349591E+01 -0.73435597433E+00  0.20251224209E+02  0.51100000000E-03 0. -1.
        -11    1    3    3    0    0  0.14301950640E+02 -0.20622744605E+02 -0.98154057008E+01  0.26947830645E+02  0.51100000000E-03 0.  1.
         12    1    3    3    0    0 -0.20800773763E+01  0.26000129111E+01 -0.28557935101E-01  0.33298054875E+01  0.00000000000E+00 0. -1.
</event>
<event>
 7    1  0.5601662E-013  0.5052885E+02  0.7816164E-02  0.1300439E+00
        -11   -1    0    0    0    0  0.00000000000E+00  0.00000000000E+00  0.45593999997E+02  0.45594000000E+02  0.51100000000E-03 0.  1.
         11   -1    0    0    0    0 -0.00000000000E+00 -0.00000000000E+00 -0.45593999997E+02  0.45594000000E+02  0.51100000000E-03 0. -1.
    9900012    2    1    2    0    0 -0.12608429905E+02 -0.21695638889E+02 -0.31992074362E+02  0.50528854984E+02  0.29999985208E+02 0.  0.
        -12    1    1    2    0    0  0.12608429905E+02  0.21695638889E+02  0.31992074362E+02  0.40659145016E+02  0.00000000000E+00 0.  1.
         11    1    3    3    0    0 -0.21539331626E+01  0.49441880862E+00 -0.16854195298E+01  0.27793015813E+01  0.51100000000E-03 0. -1.
        -11    1    3    3    0    0  0.17227768802E+01 -0.86275500656E+01  0.33986203532E+01  0.94315004575E+01  0.51100000000E-03 0.  1.
         12    1    3    3    0    0 -0.12177273623E+02 -0.13562507632E+02 -0.33705275185E+02  0.38318052945E+02  0.00000000000E+00 0. -1.
</event>
<event>
 7    1  0.5601662E-013  0.5052886E+02  0.7816164E-02  0.1300439E+00
        -11   -1    0    0    0    0  0.00000000000E+00  0.00000000000E+00  0.45593999997E+02  0.45594000000E+02  0.51100000000E-03 0.  1.
         11   -1    0    0    0    0 -0.00000000000E+00 -0.00000000000E+00 -0.45593999997E+02  0.45594000000E+02  0.51100000000E-03 0. -1.
    9900012    2    1    2    0    0 -0.21928456952E+02 -0.13781249592E+02 -0.31343033163E+02  0.50528858439E+02  0.29999995711E+02 0.  0.
        -12    1    1    2    0    0  0.21928456952E+02  0.13781249592E+02  0.31343033163E+02  0.40659141561E+02  0.00000000000E+00 0.  1.
         11    1    3    3    0    0 -0.13510809529E+02  0.23611918033E+01 -0.25209738530E+02  0.28699270337E+02  0.51100000000E-03 0. -1.
        -11    1    3    3    0    0  0.97746416497E+00 -0.53584689549E+01  0.14561524732E+01  0.56381739970E+01  0.51100000000E-03 0.  1.
        -12    1    3    3    0    0 -0.93951115877E+01 -0.10783972441E+02 -0.75894471067E+01  0.16191414105E+02  0.00000000000E+00 0.  1.
</event>
<event>
 7    1  0.5601662E-013  0.5052885E+02  0.7816164E-02  0.1300439E+00
        -11   -1    0    0    0    0  0.00000000000E+00  0.00000000000E+00  0.45593999997E+02  0.45594000000E+02  0.51100000000E-03 0. -1.
         11   -1    0    0    0    0 -0.00000000000E+00 -0.00000000000E+00 -0.45593999997E+02  0.45594000000E+02  0.51100000000E-03 0.  1.
    9900012    2    1    2    0    0 -0.87647213292E+01 -0.38286896301E+02  0.10509988088E+02  0.50528848287E+02  0.29999964854E+02 0.  0.
        -12    1    1    2    0    0  0.87647213292E+01  0.38286896301E+02 -0.10509988088E+02  0.40659151713E+02  0.00000000000E+00 0.  1.
         11    1    3    3    0    0 -0.32225537796E+01 -0.22871179241E+01  0.45947903914E+01  0.60603514967E+01  0.51100000000E-03 0. -1.
        -11    1    3    3    0    0 -0.14087502463E+02 -0.16223367427E+02  0.77634298646E+01  0.22845704626E+02  0.51100000000E-03 0.  1.
        -12    1    3    3    0    0  0.85453349135E+01 -0.19776410951E+02 -0.18482321678E+01  0.21622792165E+02  0.00000000000E+00 0.  1.
</event>
<event>
 7    1  0.5601662E-013  0.5052885E+02  0.7816164E-02  0.1300439E+00
        -11   -1    0    0    0    0  0.00000000000E+00  0.00000000000E+00  0.45593999997E+02  0.45594000000E+02  0.51100000000E-03 0.  1.
         11   -1    0    0    0    0 -0.00000000000E+00 -0.00000000000E+00 -0.45593999997E+02  0.45594000000E+02  0.51100000000E-03 0. -1.
    9900012    2    1    2    0    0 -0.51781265740E+00  0.13072005269E+02 -0.38497024075E+02  0.50528852022E+02  0.29999976206E+02 0.  0.
        -12    1    1    2    0    0  0.51781265740E+00 -0.13072005269E+02  0.38497024075E+02  0.40659147978E+02  0.00000000000E+00 0.  1.
         11    1    3    3    0    0  0.30587448719E+01  0.17164779071E+00 -0.21803922329E+02  0.22018092841E+02  0.51100000000E-03 0. -1.
        -11    1    3    3    0    0 -0.94054497686E+00  0.86021380345E+01 -0.20461440324E+02  0.22216028988E+02  0.51100000000E-03 0.  1.
        -12    1    3    3    0    0 -0.26360125524E+01  0.42982194433E+01  0.37683385783E+01  0.62947301928E+01  0.00000000000E+00 0.  1.
</event>
<event>
 7    1  0.5601662E-013  0.5052886E+02  0.7816164E-02  0.1300439E+00
        -11   -1    0    0    0    0  0.00000000000E+00  0.00000000000E+00  0.45593999997E+02  0.45594000000E+02  0.51100000000E-03 0.  1.
         11   -1    0    0    0    0 -0.00000000000E+00 -0.00000000000E+00 -0.45593999997E+02  0.45594000000E+02  0.51100000000E-03 0. -1.
    9900012    2    1    2    0    0 -0.29208719043E+02  0.21339847492E+02 -0.18564133988E+02  0.50528862899E+02  0.30000009266E+02 0.  0.
        -12    1    1    2    0    0  0.29208719043E+02 -0.21339847492E+02  0.18564133988E+02  0.40659137101E+02  0.00000000000E+00 0.  1.
         11    1    3    3    0    0 -0.97516283181E+01  0.70517307560E+01 -0.52291118235E+00  0.12045521901E+02  0.51100000000E-03 0. -1.
        -11    1    3    3    0    0 -0.24768562472E+02  0.10343846294E+02 -0.11570927997E+02  0.29229492264E+02  0.51100000000E-03 0.  1.
        -12    1    3    3    0    0  0.53114717475E+01  0.39442704429E+01 -0.64702948094E+01  0.92538487329E+01  0.00000000000E+00 0.  1.
</event>
<event>
 7    1  0.5601662E-013  0.5052886E+02  0.7816164E-02  0.1300439E+00
        -11   -1    0    0    0    0  0.00000000000E+00  0.00000000000E+00  0.45593999997E+02  0.45594000000E+02  0.51100000000E-03 0.  1.
         11   -1    0    0    0    0 -0.00000000000E+00 -0.00000000000E+00 -0.45593999997E+02  0.45594000000E+02  0.51100000000E-03 0. -1.
    9900012    2    1    2    0    0  0.39892893977E+02 -0.33581111774E+01 -0.71024914545E+01  0.50528864674E+02  0.30000014664E+02 0.  0.
        -12    1    1    2    0    0 -0.39892893977E+02  0.33581111774E+01  0.71024914545E+01  0.40659135326E+02  0.00000000000E+00 0.  1.
         11    1    3    3    0    0  0.12742352394E+02  0.82892059394E+01 -0.25733900355E+01  0.15417548968E+02  0.51100000000E-03 0. -1.
        -11    1    3    3    0    0  0.11254668512E+02 -0.35410662626E+01  0.71401353680E+01  0.13790875495E+02  0.51100000000E-03 0.  1.
         12    1    3    3    0    0  0.15895873072E+02 -0.81062508542E+01 -0.11669236787E+02  0.21320440212E+02  0.00000000000E+00 0. -1.
</event>
<event>
 7    1  0.5601662E-013  0.5052885E+02  0.7816164E-02  0.1300439E+00
        -11   -1    0    0    0    0  0.00000000000E+00  0.00000000000E+00  0.45593999997E+02  0.45594000000E+02  0.51100000000E-03 0.  1.
         11   -1    0    0    0    0 -0.00000000000E+00 -0.00000000000E+00 -0.45593999997E+02  0.45594000000E+02  0.51100000000E-03 0. -1.
    9900012    2    1    2    0    0  0.25635631111E+02 -0.69419812796E+01 -0.30786196714E+02  0.50528848574E+02  0.29999965726E+02 0.  0.
        -12    1    1    2    0    0 -0.25635631111E+02  0.69419812796E+01  0.30786196714E+02  0.40659151426E+02  0.00000000000E+00 0.  1.
         11    1    3    3    0    0  0.12401304189E+02 -0.71300431704E+01 -0.13038638004E+02  0.19355514523E+02  0.51100000000E-03 0. -1.
        -11    1    3    3    0    0  0.28779350408E+01  0.17915992531E+01 -0.20140495419E+02  0.20423807039E+02  0.51100000000E-03 0.  1.
        -12    1    3    3    0    0  0.10356391882E+02 -0.16035373623E+01  0.23929367094E+01  0.10749527012E+02  0.00000000000E+00 0.  1.
</event>
<event>
 7    1  0.5601662E-013  0.5052886E+02  0.7816164E-02  0.1300439E+00
        -11   -1    0    0    0    0  0.00000000000E+00  0.00000000000E+00  0.45593999997E+02  0.45594000000E+02  0.51100000000E-03 0.  1.
         11   -1    0    0    0    0 -0.00000000000E+00 -0.00000000000E+00 -0.45593999997E+02  0.45594000000E+02  0.51100000000E-03 0. -1.
    9900012    2    1    2    0    0  0.34936733767E+02  0.20280436116E+02 -0.46145701296E+01  0.50528859419E+02  0.29999998689E+02 0.  0.
        -12    1    1    2    0    0 -0.34936733767E+02 -0.20280436116E+02  0.46145701296E+01  0.40659140581E+02  0.00000000000E+00 0.  1.
         11    1    3    3    0    0  0.17163198138E+02  0.69242206201E+01  0.24799528856E+01  0.18672717213E+02  0.51100000000E-03 0. -1.
        -11    1    3    3    0    0  0.24714374210E+01  0.13406065801E+02  0.24087165374E+01  0.13843139775E+02  0.51100000000E-03 0.  1.
         12    1    3    3    0    0  0.15302098207E+02 -0.49850305715E-01 -0.95032395527E+01  0.18013002432E+02  0.00000000000E+00 0. -1.
</event>
<event>
 7    1  0.5601662E-013  0.5052885E+02  0.7816164E-02  0.1300439E+00
        -11   -1    0    0    0    0  0.00000000000E+00  0.00000000000E+00  0.45593999997E+02  0.45594000000E+02  0.51100000000E-03 0. -1.
         11   -1    0    0    0    0 -0.00000000000E+00 -0.00000000000E+00 -0.45593999997E+02  0.45594000000E+02  0.51100000000E-03 0.  1.
    9900012    2    1    2    0    0  0.28529060696E+02  0.21568835854E+02  0.19340226345E+02  0.50528851714E+02  0.29999975268E+02 0.  0.
        -12    1    1    2    0    0 -0.28529060696E+02 -0.21568835854E+02 -0.19340226345E+02  0.40659148286E+02  0.00000000000E+00 0.  1.
         11    1    3    3    0    0  0.67461199651E+00 -0.53180249978E+01  0.33133812997E+01  0.63019827929E+01  0.51100000000E-03 0. -1.
        -11    1    3    3    0    0  0.10222142814E+01 -0.54852012831E+00 -0.16167181570E+01  0.19898678922E+01  0.51100000000E-03 0.  1.
         12    1    3    3    0    0  0.26832234418E+02  0.27435380980E+02  0.17643563203E+02  0.42237001028E+02  0.00000000000E+00 0. -1.
</event>
<event>
 7    1  0.5601662E-013  0.5052886E+02  0.7816164E-02  0.1300439E+00
        -11   -1    0    0    0    0  0.00000000000E+00  0.00000000000E+00  0.45593999997E+02  0.45594000000E+02  0.51100000000E-03 0.  1.
         11   -1    0    0    0    0 -0.00000000000E+00 -0.00000000000E+00 -0.45593999997E+02  0.45594000000E+02  0.51100000000E-03 0. -1.
    9900012    2    1    2    0    0 -0.67982741599E+01  0.86079227159E+01 -0.39151668509E+02  0.50528855739E+02  0.29999987503E+02 0.  0.
        -12    1    1    2    0    0  0.67982741599E+01 -0.86079227159E+01  0.39151668509E+02  0.40659144261E+02  0.00000000000E+00 0.  1.
         11    1    3    3    0    0  0.49176533366E+01  0.29760897142E+01 -0.19517737870E+02  0.20346560303E+02  0.51100000000E-03 0. -1.
        -11    1    3    3    0    0  0.32852993353E+01 -0.11653646045E+01  0.11440859507E+01  0.36688144280E+01  0.51100000000E-03 0.  1.
         12    1    3    3    0    0 -0.15001226832E+02  0.67971976062E+01 -0.20778016590E+02  0.26513481008E+02  0.00000000000E+00 0. -1.
</event>
<event>
 7    1  0.5601662E-013  0.5052886E+02  0.7816164E-02  0.1300439E+00
        -11   -1    0    0    0    0  0.00000000000E+00  0.00000000000E+00  0.45593999997E+02  0.45594000000E+02  0.51100000000E-03 0.  1.
         11   -1    0    0    0    0 -0.00000000000E+00 -0.00000000000E+00 -0.45593999997E+02  0.45594000000E+02  0.51100000000E-03 0. -1.
    9900012    2    1    2    0    0 -0.48514973250E+01  0.15218824641E+02 -0.37390055997E+02  0.50528856660E+02  0.29999990302E+02 0.  0.
        -12    1    1    2    0    0  0.48514973250E+01 -0.15218824641E+02  0.37390055997E+02  0.40659143340E+02  0.00000000000E+00 0.  1.
         11    1    3    3    0    0  0.13160600888E+00  0.18506741247E+01 -0.99270460494E+01  0.10098938478E+02  0.51100000000E-03 0. -1.
        -11    1    3    3    0    0 -0.20484760375E+01  0.17837303552E+02 -0.29642621845E+02  0.34656178124E+02  0.51100000000E-03 0.  1.
        -12    1    3    3    0    0 -0.29346272964E+01 -0.44691530355E+01  0.21796118976E+01  0.57737400572E+01  0.00000000000E+00 0.  1.
</event>
<event>
 7    1  0.5601662E-013  0.5052886E+02  0.7816164E-02  0.1300439E+00
        -11   -1    0    0    0    0  0.00000000000E+00  0.00000000000E+00  0.45593999997E+02  0.45594000000E+02  0.51100000000E-03 0.  1.
         11   -1    0    0    0    0 -0.00000000000E+00 -0.00000000000E+00 -0.45593999997E+02  0.45594000000E+02  0.51100000000E-03 0. -1.
    9900012    2    1    2    0    0  0.39311351089E+02  0.27814228701E+01 -0.10002338738E+02  0.50528863046E+02  0.30000009715E+02 0.  0.
        -12    1    1    2    0    0 -0.39311351089E+02 -0.27814228701E+01  0.10002338738E+02  0.40659136954E+02  0.00000000000E+00 0.  1.
         11    1    3    3    0    0 -0.42441502635E-01  0.59884108082E+00 -0.22430049604E+01  0.23219568116E+01  0.51100000000E-03 0. -1.
        -11    1    3    3    0    0  0.15493487791E+02 -0.12197926790E+02 -0.30998557232E+01  0.19961129419E+02  0.51100000000E-03 0.  1.
        -12    1    3    3    0    0  0.23860304800E+02  0.14380508580E+02 -0.46594780549E+01  0.28245776815E+02  0.00000000000E+00 0.  1.
</event>
<event>
 7    1  0.5601662E-013  0.5052886E+02  0.7816164E-02  0.1300439E+00
        -11   -1    0    0    0    0  0.00000000000E+00  0.00000000000E+00  0.45593999997E+02  0.45594000000E+02  0.51100000000E-03 0. -1.
         11   -1    0    0    0    0 -0.00000000000E+00 -0.00000000000E+00 -0.45593999997E+02  0.45594000000E+02  0.51100000000E-03 0.  1.
    9900012    2    1    2    0    0 -0.21863719379E+02 -0.11718435499E+02  0.32215245952E+02  0.50528855551E+02  0.29999986932E+02 0.  0.
        -12    1    1    2    0    0  0.21863719379E+02  0.11718435499E+02 -0.32215245952E+02  0.40659144449E+02  0.00000000000E+00 0.  1.
         11    1    3    3    0    0 -0.27838656372E+01 -0.20519196622E+01 -0.17773531610E+01  0.38883501265E+01  0.51100000000E-03 0. -1.
        -11    1    3    3    0    0 -0.18103690655E+02 -0.31064163646E+01  0.83916214267E+01  0.20194374177E+02  0.51100000000E-03 0.  1.
         12    1    3    3    0    0 -0.97616308599E+00 -0.65600994722E+01  0.25600977686E+02  0.26446131247E+02  0.00000000000E+00 0. -1.
</event>
<event>
 7    1  0.5601662E-013  0.5052885E+02  0.7816164E-02  0.1300439E+00
        -11   -1    0    0    0    0  0.00000000000E+00  0.00000000000E+00  0.45593999997E+02  0.45594000000E+02  0.51100000000E-03 0. -1.
         11   -1    0    0    0    0 -0.00000000000E+00 -0.00000000000E+00 -0.45593999997E+02  0.45594000000E+02  0.51100000000E-03 0.  1.
    9900012    2    1    2    0    0  0.24674743639E+01 -0.28331169290E+02  0.29058951401E+02  0.50528852940E+02  0.29999978997E+02 0.  0.
        -12    1    1    2    0    0 -0.24674743639E+01  0.28331169290E+02 -0.29058951401E+02  0.40659147060E+02  0.00000000000E+00 0.  1.
         11    1    3    3    0    0 -0.61305159039E+01  0.32176175837E+00  0.16441948504E+01  0.63553231896E+01  0.51100000000E-03 0. -1.
        -11    1    3    3    0    0 -0.42615871853E+01 -0.11352845767E+02  0.51229494235E+01  0.13164073966E+02  0.51100000000E-03 0.  1.
         12    1    3    3    0    0  0.12859577453E+02 -0.17300085282E+02  0.22291807127E+02  0.31009455784E+02  0.00000000000E+00 0. -1.
</event>
<event>
 7    1  0.5601662E-013  0.5052886E+02  0.7816164E-02  0.1300439E+00
        -11   -1    0    0    0    0  0.00000000000E+00  0.00000000000E+00  0.45593999997E+02  0.45594000000E+02  0.51100000000E-03 0.  1.
         11   -1    0    0    0    0 -0.00000000000E+00 -0.00000000000E+00 -0.45593999997E+02  0.45594000000E+02  0.51100000000E-03 0. -1.
    9900012    2    1    2    0    0  0.10312099467E+02  0.15499483880E+02 -0.36146812226E+02  0.50528862896E+02  0.30000009259E+02 0.  0.
        -12    1    1    2    0    0 -0.10312099467E+02 -0.15499483880E+02  0.36146812226E+02  0.40659137104E+02  0.00000000000E+00 0.  1.
         11    1    3    3    0    0  0.22704449705E+01  0.40181932193E+01 -0.14660349142E+02  0.15369666045E+02  0.51100000000E-03 0. -1.
        -11    1    3    3    0    0  0.27557187205E+00  0.13918543306E+02 -0.22995329107E+02  0.26880977449E+02  0.51100000000E-03 0.  1.
        -12    1    3    3    0    0  0.77660826250E+01 -0.24372526458E+01  0.15088660227E+01  0.82782194023E+01  0.00000000000E+00 0.  1.
</event>
<event>
 7    1  0.5601662E-013  0.5052882E+02  0.7816164E-02  0.1300439E+00
        -11   -1    0    0    0    0  0.00000000000E+00  0.00000000000E+00  0.45593999997E+02  0.45594000000E+02  0.51100000000E-03 0.  1.
         11   -1    0    0    0    0 -0.00000000000E+00 -0.00000000000E+00 -0.45593999997E+02  0.45594000000E+02  0.51100000000E-03 0. -1.
    9900012    2    1    2    0    0  0.84833042590E+01 -0.69458001334E+01 -0.39153008145E+02  0.50528823453E+02  0.29999889369E+02 0.  0.
        -12    1    1    2    0    0 -0.84833042590E+01  0.69458001334E+01  0.39153008145E+02  0.40659176547E+02  0.00000000000E+00 0.  1.
         11    1    3    3    0    0  0.42964340678E+01 -0.14163336975E+01  0.18334980575E+01  0.48812971872E+01  0.51100000000E-03 0. -1.
        -11    1    3    3    0    0  0.55371071756E+01  0.50348182745E+01 -0.78686265411E+01  0.10859292557E+02  0.51100000000E-03 0.  1.
         12    1    3    3    0    0 -0.13502369845E+01 -0.10564284710E+02 -0.33117879661E+02  0.34788233709E+02  0.00000000000E+00 0. -1.
</event>
<event>
 7    1  0.5601662E-013  0.5052886E+02  0.7816164E-02  0.1300439E+00
        -11   -1    0    0    0    0  0.00000000000E+00  0.00000000000E+00  0.45593999997E+02  0.45594000000E+02  0.51100000000E-03 0.  1.
         11   -1    0    0    0    0 -0.00000000000E+00 -0.00000000000E+00 -0.45593999997E+02  0.45594000000E+02  0.51100000000E-03 0. -1.
    9900012    2    1    2    0    0 -0.11392904246E+02 -0.34325694410E+02 -0.18577247557E+02  0.50528859691E+02  0.29999999516E+02 0.  0.
        -12    1    1    2    0    0  0.11392904246E+02  0.34325694410E+02  0.18577247557E+02  0.40659140309E+02  0.00000000000E+00 0.  1.
         11    1    3    3    0    0 -0.12475034249E+02 -0.15590750246E+02 -0.14657984533E+02  0.24770031966E+02  0.51100000000E-03 0. -1.
        -11    1    3    3    0    0 -0.47932551780E+01 -0.16874427886E+02 -0.69775905735E+01  0.18878781268E+02  0.51100000000E-03 0.  1.
         12    1    3    3    0    0  0.58753851808E+01 -0.18605162774E+01  0.30583275501E+01  0.68800464566E+01  0.00000000000E+00 0. -1.
</event>
<event>
 7    1  0.5601662E-013  0.5052886E+02  0.7816164E-02  0.1300439E+00
        -11   -1    0    0    0    0  0.00000000000E+00  0.00000000000E+00  0.45593999997E+02  0.45594000000E+02  0.51100000000E-03 0.  1.
         11   -1    0    0    0    0 -0.00000000000E+00 -0.00000000000E+00 -0.45593999997E+02  0.45594000000E+02  0.51100000000E-03 0. -1.
    9900012    2    1    2    0    0  0.18869965118E+02  0.32217847866E+02 -0.16096597412E+02  0.50528858925E+02  0.29999997189E+02 0.  0.
        -12    1    1    2    0    0 -0.18869965118E+02 -0.32217847866E+02  0.16096597412E+02  0.40659141075E+02  0.00000000000E+00 0.  1.
         11    1    3    3    0    0  0.17032990435E+02  0.25239050381E+02 -0.16199276411E+02  0.34489838848E+02  0.51100000000E-03 0. -1.
        -11    1    3    3    0    0  0.48733707945E+01  0.99638198912E+01 -0.20313217616E+01  0.11276245744E+02  0.51100000000E-03 0.  1.
        -12    1    3    3    0    0 -0.30363961109E+01 -0.29850224056E+01  0.21340007603E+01  0.47627743332E+01  0.00000000000E+00 0.  1.
</event>
<event>
 7    1  0.5601662E-013  0.5052886E+02  0.7816164E-02  0.1300439E+00
        -11   -1    0    0    0    0  0.00000000000E+00  0.00000000000E+00  0.45593999997E+02  0.45594000000E+02  0.51100000000E-03 0.  1.
         11   -1    0    0    0    0 -0.00000000000E+00 -0.00000000000E+00 -0.45593999997E+02  0.45594000000E+02  0.51100000000E-03 0. -1.
    9900012    2    1    2    0    0 -0.27276453793E+02 -0.55378341714E+01 -0.29639389220E+02  0.50528856721E+02  0.29999990490E+02 0.  0.
        -12    1    1    2    0    0  0.27276453793E+02  0.55378341714E+01  0.29639389220E+02  0.40659143279E+02  0.00000000000E+00 0.  1.
         11    1    3    3    0    0 -0.31056891542E+01  0.40875708251E+01 -0.40374416040E+01  0.65310393767E+01  0.51100000000E-03 0. -1.
        -11    1    3    3    0    0 -0.12902466875E+02  0.16498072385E+01  0.93508896617E+00  0.13041085347E+02  0.51100000000E-03 0.  1.
         12    1    3    3    0    0 -0.11268297764E+02 -0.11275212235E+02 -0.26537036582E+02  0.30956731998E+02  0.00000000000E+00 0. -1.
</event>
<event>
 7    1  0.5601662E-013  0.5052886E+02  0.7816164E-02  0.1300439E+00
        -11   -1    0    0    0    0  0.00000000000E+00  0.00000000000E+00  0.45593999997E+02  0.45594000000E+02  0.51100000000E-03 0. -1.
         11   -1    0    0    0    0 -0.00000000000E+00 -0.00000000000E+00 -0.45593999997E+02  0.45594000000E+02  0.51100000000E-03 0.  1.
    9900012    2    1    2    0    0  0.11462186379E+02 -0.85396126139E+01  0.38063882597E+02  0.50528857627E+02  0.29999993242E+02 0.  0.
        -12    1    1    2    0    0 -0.11462186379E+02  0.85396126139E+01 -0.38063882597E+02  0.40659142373E+02  0.00000000000E+00 0.  1.
         11    1    3    3    0    0  0.55942079637E+01  0.49064791207E+01  0.77868181894E+01  0.10770479928E+02  0.51100000000E-03 0. -1.
        -11    1    3    3    0    0 -0.29424403002E+01  0.43045927616E+01  0.29143646904E+01  0.59733571443E+01  0.51100000000E-03 0.  1.
         12    1    3    3    0    0  0.88104187158E+01 -0.17750684496E+02  0.27362699717E+02  0.33785020554E+02  0.00000000000E+00 0. -1.
</event>
<event>
 7    1  0.5601662E-013  0.5052893E+02  0.7816164E-02  0.1300439E+00
        -11   -1    0    0    0    0  0.00000000000E+00  0.00000000000E+00  0.45593999997E+02  0.45594000000E+02  0.51100000000E-03 0. -1.
         11   -1    0    0    0    0 -0.00000000000E+00 -0.00000000000E+00 -0.45593999997E+02  0.45594000000E+02  0.51100000000E-03 0.  1.
    9900012    2    1    2    0    0  0.16809353666E+02 -0.92680403945E+01  0.35842841979E+02  0.50528926418E+02  0.30000202340E+02 0.  0.
        -12    1    1    2    0    0 -0.16809353666E+02  0.92680403945E+01 -0.35842841979E+02  0.40659073582E+02  0.00000000000E+00 0.  1.
         11    1    3    3    0    0  0.74071370092E+01 -0.54145411452E+00 -0.96903382269E+00  0.74898516702E+01  0.51100000000E-03 0. -1.
        -11    1    3    3    0    0  0.18207367875E+01  0.48636530540E+01  0.34744784265E+01  0.62483761152E+01  0.51100000000E-03 0.  1.
         12    1    3    3    0    0  0.75814798693E+01 -0.13590239334E+02  0.33337397375E+02  0.36790698633E+02  0.00000000000E+00 0. -1.
</event>
<event>
 7    1  0.5601662E-013  0.5052886E+02  0.7816164E-02  0.1300439E+00
        -11   -1    0    0    0    0  0.00000000000E+00  0.00000000000E+00  0.45593999997E+02  0.45594000000E+02  0.51100000000E-03 0.  1.
         11   -1    0    0    0    0 -0.00000000000E+00 -0.00000000000E+00 -0.45593999997E+02  0.45594000000E+02  0.51100000000E-03 0. -1.
    9900012    2    1    2    0    0  0.40030593328E+02 -0.24621315714E+01 -0.66824289846E+01  0.50528863865E+02  0.30000012205E+02 0.  0.
        -12    1    1    2    0    0 -0.40030593328E+02  0.24621315714E+01  0.66824289846E+01  0.40659136135E+02  0.00000000000E+00 0.  1.
         11    1    3    3    0    0  0.84557652367E+01 -0.24037757174E+01 -0.52157724759E+01  0.10221662596E+02  0.51100000000E-03 0. -1.
        -11    1    3    3    0    0  0.15470204228E+02  0.53851675017E+01 -0.12002508672E+02  0.20307325342E+02  0.51100000000E-03 0.  1.
        -12    1    3    3    0    0  0.16104623864E+02 -0.54435233557E+01  0.10535852163E+02  0.19999875928E+02  0.00000000000E+00 0.  1.
</event>
<event>
 7    1  0.5601662E-013  0.5052886E+02  0.7816164E-02  0.1300439E+00
        -11   -1    0    0    0    0  0.00000000000E+00  0.00000000000E+00  0.45593999997E+02  0.45594000000E+02  0.51100000000E-03 0.  1.
         11   -1    0    0    0    0 -0.00000000000E+00 -0.00000000000E+00 -0.45593999997E+02  0.45594000000E+02  0.51100000000E-03 0. -1.
    9900012    2    1    2    0    0 -0.35931824081E+02  0.18790491140E+02 -0.29978398744E+01  0.50528861015E+02  0.30000003541E+02 0.  0.
        -12    1    1    2    0    0  0.35931824081E+02 -0.18790491140E+02  0.29978398744E+01  0.40659138985E+02  0.00000000000E+00 0.  1.
         11    1    3    3    0    0 -0.30541284818E+01 -0.10737852317E+01  0.19589003713E+01  0.37839141683E+01  0.51100000000E-03 0.  1.
        -11    1    3    3    0    0 -0.25865539586E+02  0.96242090752E+01  0.80688646464E+01  0.28753401804E+02  0.51100000000E-03 0. -1.
         12    1    3    3    0    0 -0.70121560136E+01  0.10240067297E+02 -0.13025604892E+02  0.17991545042E+02  0.00000000000E+00 0. -1.
</event>
<event>
 7    1  0.5601662E-013  0.5052886E+02  0.7816164E-02  0.1300439E+00
        -11   -1    0    0    0    0  0.00000000000E+00  0.00000000000E+00  0.45593999997E+02  0.45594000000E+02  0.51100000000E-03 0. -1.
         11   -1    0    0    0    0 -0.00000000000E+00 -0.00000000000E+00 -0.45593999997E+02  0.45594000000E+02  0.51100000000E-03 0.  1.
    9900012    2    1    2    0    0  0.22685160344E+02 -0.21648987332E+02  0.25881858446E+02  0.50528858975E+02  0.29999997339E+02 0.  0.
        -12    1    1    2    0    0 -0.22685160344E+02  0.21648987332E+02 -0.25881858446E+02  0.40659141025E+02  0.00000000000E+00 0.  1.
         11    1    3    3    0    0  0.43608768504E+01 -0.78486854933E+01  0.11696737766E+02  0.14745602243E+02  0.51100000000E-03 0. -1.
        -11    1    3    3    0    0  0.12885033722E+02  0.43327391684E+01  0.84336735902E+01  0.15997611485E+02  0.51100000000E-03 0.  1.
         12    1    3    3    0    0  0.54392497711E+01 -0.18133041007E+02  0.57514470902E+01  0.19785645247E+02  0.00000000000E+00 0. -1.
</event>
<event>
 7    1  0.5601662E-013  0.5052886E+02  0.7816164E-02  0.1300439E+00
        -11   -1    0    0    0    0  0.00000000000E+00  0.00000000000E+00  0.45593999997E+02  0.45594000000E+02  0.51100000000E-03 0.  1.
         11   -1    0    0    0    0 -0.00000000000E+00 -0.00000000000E+00 -0.45593999997E+02  0.45594000000E+02  0.51100000000E-03 0. -1.
    9900012    2    1    2    0    0 -0.20893550144E+02 -0.19915589481E+02 -0.28635543501E+02  0.50528862115E+02  0.30000006885E+02 0.  0.
        -12    1    1    2    0    0  0.20893550144E+02  0.19915589481E+02  0.28635543501E+02  0.40659137885E+02  0.00000000000E+00 0.  1.
         11    1    3    3    0    0  0.24882169973E+01  0.15141029811E+01 -0.65438049873E+00  0.29852882208E+01  0.51100000000E-03 0. -1.
        -11    1    3    3    0    0  0.82794400869E+00 -0.37429391208E+01  0.26661890958E+01  0.46694377712E+01  0.51100000000E-03 0.  1.
         12    1    3    3    0    0 -0.24209711150E+02 -0.17686753341E+02 -0.30647352098E+02  0.42874136123E+02  0.00000000000E+00 0. -1.
</event>
<event>
 7    1  0.5601662E-013  0.5052887E+02  0.7816164E-02  0.1300439E+00
        -11   -1    0    0    0    0  0.00000000000E+00  0.00000000000E+00  0.45593999997E+02  0.45594000000E+02  0.51100000000E-03 0.  1.
         11   -1    0    0    0    0 -0.00000000000E+00 -0.00000000000E+00 -0.45593999997E+02  0.45594000000E+02  0.51100000000E-03 0. -1.
    9900012    2    1    2    0    0 -0.47467660609E+01  0.61118951931E+01 -0.39915884197E+02  0.50528869880E+02  0.30000030486E+02 0.  0.
        -12    1    1    2    0    0  0.47467660609E+01 -0.61118951931E+01  0.39915884197E+02  0.40659130120E+02  0.00000000000E+00 0.  1.
         11    1    3    3    0    0 -0.35866927907E+01 -0.67521576147E+01 -0.92309781521E+01  0.11986115114E+02  0.51100000000E-03 0.  1.
        -11    1    3    3    0    0  0.38341712391E+01  0.82409654564E+01 -0.30401683362E+02  0.31731320998E+02  0.51100000000E-03 0. -1.
         12    1    3    3    0    0 -0.49942445093E+01  0.46230873514E+01 -0.28322268289E+00  0.68114337672E+01  0.00000000000E+00 0. -1.
</event>
<event>
 7    1  0.5601662E-013  0.5052886E+02  0.7816164E-02  0.1300439E+00
        -11   -1    0    0    0    0  0.00000000000E+00  0.00000000000E+00  0.45593999997E+02  0.45594000000E+02  0.51100000000E-03 0. -1.
         11   -1    0    0    0    0 -0.00000000000E+00 -0.00000000000E+00 -0.45593999997E+02  0.45594000000E+02  0.51100000000E-03 0.  1.
    9900012    2    1    2    0    0  0.78736117580E+01  0.21342153317E+02  0.33699916734E+02  0.50528860090E+02  0.30000000730E+02 0.  0.
        -12    1    1    2    0    0 -0.78736117580E+01 -0.21342153317E+02 -0.33699916734E+02  0.40659139910E+02  0.00000000000E+00 0.  1.
         11    1    3    3    0    0  0.48001544692E+01 -0.19723241206E+01  0.64890673369E+01  0.83090035822E+01  0.51100000000E-03 0. -1.
        -11    1    3    3    0    0  0.30626149296E+01 -0.19919564357E+01 -0.14988641522E+01  0.39489358892E+01  0.51100000000E-03 0.  1.
        -12    1    3    3    0    0  0.10842359219E-01  0.25306433873E+02  0.28709713549E+02  0.38270920619E+02  0.00000000000E+00 0.  1.
</event>
<event>
 7    1  0.5601662E-013  0.5052888E+02  0.7816164E-02  0.1300439E+00
        -11   -1    0    0    0    0  0.00000000000E+00  0.00000000000E+00  0.45593999997E+02  0.45594000000E+02  0.51100000000E-03 0. -1.
         11   -1    0    0    0    0 -0.00000000000E+00 -0.00000000000E+00 -0.45593999997E+02  0.45594000000E+02  0.51100000000E-03 0.  1.
    9900012    2    1    2    0    0  0.36260056473E+02 -0.17452582315E+02 -0.58120182558E+01  0.50528881944E+02  0.30000067156E+02 0.  0.
        -12    1    1    2    0    0 -0.36260056473E+02  0.17452582315E+02  0.58120182558E+01  0.40659118056E+02  0.00000000000E+00 0.  1.
         11    1    3    3    0    0  0.99449970668E+01 -0.72277513790E+00 -0.81709635162E+01  0.12891470653E+02  0.51100000000E-03 0. -1.
        -11    1    3    3    0    0  0.21727720597E+01  0.37884800160E+00 -0.64073830997E+01  0.67763576263E+01  0.51100000000E-03 0.  1.
         12    1    3    3    0    0  0.24142287347E+02 -0.17108655179E+02  0.87663283601E+01  0.30861053664E+02  0.00000000000E+00 0. -1.
</event>
<event>
 7    1  0.5601662E-013  0.5052889E+02  0.7816164E-02  0.1300439E+00
        -11   -1    0    0    0    0  0.00000000000E+00  0.00000000000E+00  0.45593999997E+02  0.45594000000E+02  0.51100000000E-03 0.  1.
         11   -1    0    0    0    0 -0.00000000000E+00 -0.00000000000E+00 -0.45593999997E+02  0.45594000000E+02  0.51100000000E-03 0. -1.
    9900012    2    1    2    0    0 -0.12143038216E+02  0.36670118352E+02 -0.12689052263E+02  0.50528892725E+02  0.30000099928E+02 0.  0.
        -12    1    1    2    0    0  0.12143038216E+02 -0.36670118352E+02  0.12689052263E+02  0.40659107275E+02  0.00000000000E+00 0.  1.
         11    1    3    3    0    0 -0.95047020263E+01  0.17026474591E+02 -0.79718443550E+01  0.21066335711E+02  0.51100000000E-03 0. -1.
        -11    1    3    3    0    0  0.55011657139E+01  0.15583287564E+02 -0.96276347034E+01  0.19125716346E+02  0.51100000000E-03 0.  1.
        -12    1    3    3    0    0 -0.81395019040E+01  0.40603561972E+01  0.49104267957E+01  0.10336840669E+02  0.00000000000E+00 0.  1.
</event>
<event>
 7    1  0.5601662E-013  0.5052886E+02  0.7816164E-02  0.1300439E+00
        -11   -1    0    0    0    0  0.00000000000E+00  0.00000000000E+00  0.45593999997E+02  0.45594000000E+02  0.51100000000E-03 0.  1.
         11   -1    0    0    0    0 -0.00000000000E+00 -0.00000000000E+00 -0.45593999997E+02  0.45594000000E+02  0.51100000000E-03 0. -1.
    9900012    2    1    2    0    0 -0.19090350428E+02 -0.70809454857E+01 -0.35193528778E+02  0.50528859130E+02  0.29999997812E+02 0.  0.
        -12    1    1    2    0    0  0.19090350428E+02  0.70809454857E+01  0.35193528778E+02  0.40659140870E+02  0.00000000000E+00 0.  1.
         11    1    3    3    0    0 -0.33239953976E+01 -0.48710138408E+01  0.38937599916E+01  0.70666178879E+01  0.51100000000E-03 0.  1.
        -11    1    3    3    0    0  0.13072233748E+01 -0.13888425613E+01 -0.41749065652E+01  0.45899413614E+01  0.51100000000E-03 0. -1.
         12    1    3    3    0    0 -0.17073578405E+02 -0.82108908359E+00 -0.34912382204E+02  0.38872299881E+02  0.00000000000E+00 0. -1.
</event>
<event>
 7    1  0.5601662E-013  0.5052883E+02  0.7816164E-02  0.1300439E+00
        -11   -1    0    0    0    0  0.00000000000E+00  0.00000000000E+00  0.45593999997E+02  0.45594000000E+02  0.51100000000E-03 0.  1.
         11   -1    0    0    0    0 -0.00000000000E+00 -0.00000000000E+00 -0.45593999997E+02  0.45594000000E+02  0.51100000000E-03 0. -1.
    9900012    2    1    2    0    0  0.37425540603E+02 -0.15847752660E+02 -0.11601446138E+01  0.50528827735E+02  0.29999902383E+02 0.  0.
        -12    1    1    2    0    0 -0.37425540603E+02  0.15847752660E+02  0.11601446138E+01  0.40659172265E+02  0.00000000000E+00 0.  1.
         11    1    3    3    0    0  0.19401929480E+02 -0.65979933654E+01 -0.44549482979E+01  0.20971765510E+02  0.51100000000E-03 0. -1.
        -11    1    3    3    0    0  0.15736058688E+02 -0.14665326236E+02  0.69849047125E+01  0.22616017128E+02  0.51100000000E-03 0.  1.
         12    1    3    3    0    0  0.22875524351E+01  0.54155669417E+01 -0.36901010284E+01  0.69410450974E+01  0.00000000000E+00 0. -1.
</event>
<event>
 7    1  0.5601662E-013  0.5052886E+02  0.7816164E-02  0.1300439E+00
        -11   -1    0    0    0    0  0.00000000000E+00  0.00000000000E+00  0.45593999997E+02  0.45594000000E+02  0.51100000000E-03 0. -1.
         11   -1    0    0    0    0 -0.00000000000E+00 -0.00000000000E+00 -0.45593999997E+02  0.45594000000E+02  0.51100000000E-03 0.  1.
    9900012    2    1    2    0    0  0.21063772112E+01 -0.33750467316E+02  0.22575089899E+02  0.50528861384E+02  0.30000004663E+02 0.  0.
        -12    1    1    2    0    0 -0.21063772112E+01  0.33750467316E+02 -0.22575089899E+02  0.40659138616E+02  0.00000000000E+00 0.  1.
         11    1    3    3    0    0  0.58284994959E+01 -0.10989735881E+02  0.16329543290E+02  0.20528021956E+02  0.51100000000E-03 0. -1.
        -11    1    3    3    0    0 -0.19782218470E+01 -0.53555669515E+01  0.10541907412E+02  0.11988630914E+02  0.51100000000E-03 0.  1.
        -12    1    3    3    0    0 -0.17439004377E+01 -0.17405164484E+02 -0.42963608016E+01  0.18012208515E+02  0.00000000000E+00 0.  1.
</event>
<event>
 7    1  0.5601662E-013  0.5052886E+02  0.7816164E-02  0.1300439E+00
        -11   -1    0    0    0    0  0.00000000000E+00  0.00000000000E+00  0.45593999997E+02  0.45594000000E+02  0.51100000000E-03 0. -1.
         11   -1    0    0    0    0 -0.00000000000E+00 -0.00000000000E+00 -0.45593999997E+02  0.45594000000E+02  0.51100000000E-03 0.  1.
    9900012    2    1    2    0    0  0.13716125788E+02  0.34978637024E+02  0.15541190939E+02  0.50528858710E+02  0.29999996534E+02 0.  0.
        -12    1    1    2    0    0 -0.13716125788E+02 -0.34978637024E+02 -0.15541190939E+02  0.40659141290E+02  0.00000000000E+00 0.  1.
         11    1    3    3    0    0  0.11637229931E+02  0.24975584004E+02  0.21327891157E+01  0.27636094270E+02  0.51100000000E-03 0. -1.
        -11    1    3    3    0    0  0.57244227634E+01  0.40615889183E+01 -0.80212705813E+00  0.70646251559E+01  0.51100000000E-03 0.  1.
        -12    1    3    3    0    0 -0.36455269068E+01  0.59414641014E+01  0.14210528882E+02  0.15828139284E+02  0.00000000000E+00 0.  1.
</event>
<event>
 7    1  0.5601662E-013  0.5052886E+02  0.7816164E-02  0.1300439E+00
        -11   -1    0    0    0    0  0.00000000000E+00  0.00000000000E+00  0.45593999997E+02  0.45594000000E+02  0.51100000000E-03 0.  1.
         11   -1    0    0    0    0 -0.00000000000E+00 -0.00000000000E+00 -0.45593999997E+02  0.45594000000E+02  0.51100000000E-03 0. -1.
    9900012    2    1    2    0    0 -0.39335609336E+02 -0.10287528102E+02 -0.20513691390E+00  0.50528862314E+02  0.30000007488E+02 0.  0.
        -12    1    1    2    0    0  0.39335609336E+02  0.10287528102E+02  0.20513691390E+00  0.40659137686E+02  0.00000000000E+00 0.  1.
         11    1    3    3    0    0 -0.12810400358E+02  0.50557248465E+01 -0.20485867276E+01  0.13923484438E+02  0.51100000000E-03 0.  1.
        -11    1    3    3    0    0 -0.13824515746E+02  0.66432753073E-01 -0.61047831270E+01  0.15112578410E+02  0.51100000000E-03 0. -1.
        -12    1    3    3    0    0 -0.12700693232E+02 -0.15409685701E+02  0.79482329407E+01  0.21492799465E+02  0.00000000000E+00 0.  1.
</event>
<event>
 7    1  0.5601662E-013  0.5052885E+02  0.7816164E-02  0.1300439E+00
        -11   -1    0    0    0    0  0.00000000000E+00  0.00000000000E+00  0.45593999997E+02  0.45594000000E+02  0.51100000000E-03 0.  1.
         11   -1    0    0    0    0 -0.00000000000E+00 -0.00000000000E+00 -0.45593999997E+02  0.45594000000E+02  0.51100000000E-03 0. -1.
    9900012    2    1    2    0    0 -0.83513986026E+00  0.62946977253E+01 -0.40160248164E+02  0.50528853297E+02  0.29999980081E+02 0.  0.
        -12    1    1    2    0    0  0.83513986026E+00 -0.62946977253E+01  0.40160248164E+02  0.40659146703E+02  0.00000000000E+00 0.  1.
         11    1    3    3    0    0  0.56532277968E+01 -0.35533133749E+01 -0.69060496022E+01  0.96061720697E+01  0.51100000000E-03 0. -1.
        -11    1    3    3    0    0 -0.28540101465E+01 -0.40397771373E+01 -0.27421188350E+00  0.49538233370E+01  0.51100000000E-03 0.  1.
         12    1    3    3    0    0 -0.36343575106E+01  0.13887788238E+02 -0.32979986678E+02  0.35968857890E+02  0.00000000000E+00 0. -1.
</event>
<event>
 7    1  0.5601662E-013  0.5052881E+02  0.7816164E-02  0.1300439E+00
        -11   -1    0    0    0    0  0.00000000000E+00  0.00000000000E+00  0.45593999997E+02  0.45594000000E+02  0.51100000000E-03 0.  1.
         11   -1    0    0    0    0 -0.00000000000E+00 -0.00000000000E+00 -0.45593999997E+02  0.45594000000E+02  0.51100000000E-03 0. -1.
    9900012    2    1    2    0    0 -0.24518783618E+01 -0.79916191293E+01 -0.39790597978E+02  0.50528814429E+02  0.29999861939E+02 0.  0.
        -12    1    1    2    0    0  0.24518783618E+01  0.79916191293E+01  0.39790597978E+02  0.40659185571E+02  0.00000000000E+00 0.  1.
         11    1    3    3    0    0 -0.53612066409E-02  0.67451016890E+01 -0.21781223221E+02  0.22801712892E+02  0.51100000000E-03 0. -1.
        -11    1    3    3    0    0  0.39236229691E+01 -0.94758521756E+01 -0.31559454680E+01  0.10730637619E+02  0.51100000000E-03 0.  1.
        -12    1    3    3    0    0 -0.63701401243E+01 -0.52608686427E+01 -0.14853429289E+02  0.16996463918E+02  0.00000000000E+00 0.  1.
</event>
<event>
 7    1  0.5601662E-013  0.5052887E+02  0.7816164E-02  0.1300439E+00
        -11   -1    0    0    0    0  0.00000000000E+00  0.00000000000E+00  0.45593999997E+02  0.45594000000E+02  0.51100000000E-03 0. -1.
         11   -1    0    0    0    0 -0.00000000000E+00 -0.00000000000E+00 -0.45593999997E+02  0.45594000000E+02  0.51100000000E-03 0.  1.
    9900012    2    1    2    0    0  0.39358672248E+02 -0.44900405969E+01  0.91596674954E+01  0.50528867517E+02  0.30000023303E+02 0.  0.
        -12    1    1    2    0    0 -0.39358672248E+02  0.44900405969E+01 -0.91596674954E+01  0.40659132483E+02  0.00000000000E+00 0.  1.
         11    1    3    3    0    0  0.72943699438E+01  0.80993547214E-01 -0.28774507692E+00  0.73004924712E+01  0.51100000000E-03 0. -1.
        -11    1    3    3    0    0  0.18844393642E+02  0.91806190139E+01 -0.18754365873E+01  0.21045479321E+02  0.51100000000E-03 0.  1.
         12    1    3    3    0    0  0.13219908662E+02 -0.13751653158E+02  0.11322849160E+02  0.22182895724E+02  0.00000000000E+00 0. -1.
</event>
<event>
 7    1  0.5601662E-013  0.5052886E+02  0.7816164E-02  0.1300439E+00
        -11   -1    0    0    0    0  0.00000000000E+00  0.00000000000E+00  0.45593999997E+02  0.45594000000E+02  0.51100000000E-03 0.  1.
         11   -1    0    0    0    0 -0.00000000000E+00 -0.00000000000E+00 -0.45593999997E+02  0.45594000000E+02  0.51100000000E-03 0. -1.
    9900012    2    1    2    0    0  0.10309085095E+01  0.60712908825E+01 -0.40190077163E+02  0.50528860219E+02  0.30000001123E+02 0.  0.
        -12    1    1    2    0    0 -0.10309085095E+01 -0.60712908825E+01  0.40190077163E+02  0.40659139781E+02  0.00000000000E+00 0.  1.
         11    1    3    3    0    0  0.64335161457E+00  0.48873914773E+01 -0.54519737754E+01  0.73501370777E+01  0.51100000000E-03 0. -1.
        -11    1    3    3    0    0 -0.24142232870E+00  0.91413936740E+01 -0.33947226556E+02  0.35157325753E+02  0.51100000000E-03 0.  1.
        -12    1    3    3    0    0  0.62897922365E+00 -0.79574942688E+01 -0.79087683190E+00  0.80213973885E+01  0.00000000000E+00 0.  1.
</event>
<event>
 7    1  0.5601662E-013  0.5052888E+02  0.7816164E-02  0.1300439E+00
        -11   -1    0    0    0    0  0.00000000000E+00  0.00000000000E+00  0.45593999997E+02  0.45594000000E+02  0.51100000000E-03 0.  1.
         11   -1    0    0    0    0 -0.00000000000E+00 -0.00000000000E+00 -0.45593999997E+02  0.45594000000E+02  0.51100000000E-03 0. -1.
    9900012    2    1    2    0    0 -0.10021487869E+02 -0.23945069446E+02 -0.31294850033E+02  0.50528877918E+02  0.30000054919E+02 0.  0.
        -12    1    1    2    0    0  0.10021487869E+02  0.23945069446E+02  0.31294850033E+02  0.40659122082E+02  0.00000000000E+00 0.  1.
         11    1    3    3    0    0 -0.89066911681E-01  0.28781457550E+00  0.91962780285E+00  0.96772191332E+00  0.51100000000E-03 0.  1.
        -11    1    3    3    0    0 -0.82041303726E+01 -0.14945702998E+01  0.18752579219E+01  0.85474024174E+01  0.51100000000E-03 0. -1.
         12    1    3    3    0    0 -0.17282905846E+01 -0.22738313722E+02 -0.34089735758E+02  0.41013753587E+02  0.00000000000E+00 0. -1.
</event>
<event>
 7    1  0.5601662E-013  0.5052885E+02  0.7816164E-02  0.1300439E+00
        -11   -1    0    0    0    0  0.00000000000E+00  0.00000000000E+00  0.45593999997E+02  0.45594000000E+02  0.51100000000E-03 0. -1.
         11   -1    0    0    0    0 -0.00000000000E+00 -0.00000000000E+00 -0.45593999997E+02  0.45594000000E+02  0.51100000000E-03 0.  1.
    9900012    2    1    2    0    0 -0.60349302421E+01  0.29649159418E+02  0.27160139968E+02  0.50528852932E+02  0.29999978972E+02 0.  0.
        -12    1    1    2    0    0  0.60349302421E+01 -0.29649159418E+02 -0.27160139968E+02  0.40659147068E+02  0.00000000000E+00 0.  1.
         11    1    3    3    0    0 -0.92046981962E+00  0.18984567003E+02  0.33719569319E+01  0.19303656203E+02  0.51100000000E-03 0. -1.
        -11    1    3    3    0    0 -0.29435370352E-01  0.11554035856E+02  0.66602642728E+01  0.13336256275E+02  0.51100000000E-03 0.  1.
        -12    1    3    3    0    0 -0.50850250521E+01 -0.88944344066E+00  0.17127918763E+02  0.17888940454E+02  0.00000000000E+00 0.  1.
</event>
<event>
 7    1  0.5601662E-013  0.5052886E+02  0.7816164E-02  0.1300439E+00
        -11   -1    0    0    0    0  0.00000000000E+00  0.00000000000E+00  0.45593999997E+02  0.45594000000E+02  0.51100000000E-03 0. -1.
         11   -1    0    0    0    0 -0.00000000000E+00 -0.00000000000E+00 -0.45593999997E+02  0.45594000000E+02  0.51100000000E-03 0.  1.
    9900012    2    1    2    0    0  0.66311289174E+01 -0.39789620203E+02 -0.50970332644E+01  0.50528862100E+02  0.30000006840E+02 0.  0.
        -12    1    1    2    0    0 -0.66311289174E+01  0.39789620203E+02  0.50970332644E+01  0.40659137900E+02  0.00000000000E+00 0.  1.
         11    1    3    3    0    0  0.27348619405E+01 -0.24247710258E+02  0.37249553536E+00  0.24404296256E+02  0.51100000000E-03 0. -1.
        -11    1    3    3    0    0  0.53989514889E+01 -0.15894627405E+02  0.33952106741E+01  0.17126450692E+02  0.51100000000E-03 0.  1.
        -12    1    3    3    0    0 -0.15026845120E+01  0.35271745960E+00 -0.88647394739E+01  0.89981151520E+01  0.00000000000E+00 0.  1.
</event>
<event>
 7    1  0.5601662E-013  0.5052886E+02  0.7816164E-02  0.1300439E+00
        -11   -1    0    0    0    0  0.00000000000E+00  0.00000000000E+00  0.45593999997E+02  0.45594000000E+02  0.51100000000E-03 0.  1.
         11   -1    0    0    0    0 -0.00000000000E+00 -0.00000000000E+00 -0.45593999997E+02  0.45594000000E+02  0.51100000000E-03 0. -1.
    9900012    2    1    2    0    0 -0.39255242540E+02 -0.31124369861E+01 -0.10124458282E+02  0.50528856055E+02  0.29999988464E+02 0.  0.
        -12    1    1    2    0    0  0.39255242540E+02  0.31124369861E+01  0.10124458282E+02  0.40659143945E+02  0.00000000000E+00 0.  1.
         11    1    3    3    0    0 -0.31025192319E+02 -0.13636235087E+02 -0.33262031579E+00  0.33891298327E+02  0.51100000000E-03 0. -1.
        -11    1    3    3    0    0 -0.10126440891E+01  0.12969823004E+01 -0.61476901373E+00  0.17565740350E+01  0.51100000000E-03 0.  1.
         12    1    3    3    0    0 -0.72174061316E+01  0.92268158009E+01 -0.91770689526E+01  0.14880983692E+02  0.00000000000E+00 0. -1.
</event>
<event>
 7    1  0.5601662E-013  0.5052885E+02  0.7816164E-02  0.1300439E+00
        -11   -1    0    0    0    0  0.00000000000E+00  0.00000000000E+00  0.45593999997E+02  0.45594000000E+02  0.51100000000E-03 0.  1.
         11   -1    0    0    0    0 -0.00000000000E+00 -0.00000000000E+00 -0.45593999997E+02  0.45594000000E+02  0.51100000000E-03 0. -1.
    9900012    2    1    2    0    0 -0.25548238280E+02  0.30882823252E+01 -0.31478819948E+02  0.50528854999E+02  0.29999985253E+02 0.  0.
        -12    1    1    2    0    0  0.25548238280E+02 -0.30882823252E+01  0.31478819948E+02  0.40659145001E+02  0.00000000000E+00 0.  1.
         11    1    3    3    0    0 -0.39121150077E+01 -0.37700951620E+01 -0.16929540222E+02  0.17779977327E+02  0.51100000000E-03 0. -1.
        -11    1    3    3    0    0 -0.29040940213E+01  0.59786102043E+00 -0.12552217889E+02  0.12897649944E+02  0.51100000000E-03 0.  1.
        -12    1    3    3    0    0 -0.18732029251E+02  0.62605164667E+01 -0.19970618368E+01  0.19851227727E+02  0.00000000000E+00 0.  1.
</event>
<event>
 7    1  0.5601662E-013  0.5052884E+02  0.7816164E-02  0.1300439E+00
        -11   -1    0    0    0    0  0.00000000000E+00  0.00000000000E+00  0.45593999997E+02  0.45594000000E+02  0.51100000000E-03 0. -1.
         11   -1    0    0    0    0 -0.00000000000E+00 -0.00000000000E+00 -0.45593999997E+02  0.45594000000E+02  0.51100000000E-03 0.  1.
    9900012    2    1    2    0    0 -0.74321189287E+01 -0.35070015304E+02  0.19183984930E+02  0.50528835683E+02  0.29999926542E+02 0.  0.
        -12    1    1    2    0    0  0.74321189287E+01  0.35070015304E+02 -0.19183984930E+02  0.40659164317E+02  0.00000000000E+00 0.  1.
         11    1    3    3    0    0  0.33794470198E+01 -0.92842235228E+01  0.79325164934E+01  0.12670528275E+02  0.51100000000E-03 0.  1.
        -11    1    3    3    0    0 -0.10880018459E+02 -0.83018240107E+00  0.56250737286E+01  0.12276215182E+02  0.51100000000E-03 0. -1.
         12    1    3    3    0    0  0.68452510126E-01 -0.24955609380E+02  0.56263947083E+01  0.25582092226E+02  0.00000000000E+00 0. -1.
</event>
<event>
 7    1  0.5601662E-013  0.5052886E+02  0.7816164E-02  0.1300439E+00
        -11   -1    0    0    0    0  0.00000000000E+00  0.00000000000E+00  0.45593999997E+02  0.45594000000E+02  0.51100000000E-03 0. -1.
         11   -1    0    0    0    0 -0.00000000000E+00 -0.00000000000E+00 -0.45593999997E+02  0.45594000000E+02  0.51100000000E-03 0.  1.
    9900012    2    1    2    0    0  0.13447083057E+02 -0.14787690473E+02  0.35407139415E+02  0.50528863834E+02  0.30000012109E+02 0.  0.
        -12    1    1    2    0    0 -0.13447083057E+02  0.14787690473E+02 -0.35407139415E+02  0.40659136166E+02  0.00000000000E+00 0.  1.
         11    1    3    3    0    0  0.85795539178E+01 -0.11081788188E+02  0.15349408209E+02  0.20785069341E+02  0.51100000000E-03 0. -1.
        -11    1    3    3    0    0 -0.26235912698E+01 -0.82990809643E+01  0.18992964617E+02  0.20892359398E+02  0.51100000000E-03 0.  1.
        -12    1    3    3    0    0  0.74911204090E+01  0.45931786789E+01  0.10647665890E+01  0.88514350954E+01  0.00000000000E+00 0.  1.
</event>
<event>
 7    1  0.5601662E-013  0.5052886E+02  0.7816164E-02  0.1300439E+00
        -11   -1    0    0    0    0  0.00000000000E+00  0.00000000000E+00  0.45593999997E+02  0.45594000000E+02  0.51100000000E-03 0.  1.
         11   -1    0    0    0    0 -0.00000000000E+00 -0.00000000000E+00 -0.45593999997E+02  0.45594000000E+02  0.51100000000E-03 0. -1.
    9900012    2    1    2    0    0  0.39496847275E+02 -0.90025652061E+01 -0.34811343886E+01  0.50528863000E+02  0.30000009573E+02 0.  0.
        -12    1    1    2    0    0 -0.39496847275E+02  0.90025652061E+01  0.34811343886E+01  0.40659137000E+02  0.00000000000E+00 0.  1.
         11    1    3    3    0    0  0.17337141286E+02 -0.15702694144E+02 -0.19625033816E+01  0.23473442251E+02  0.51100000000E-03 0. -1.
        -11    1    3    3    0    0  0.11289467540E+02 -0.10751205938E+01 -0.61626134399E+01  0.12906810849E+02  0.51100000000E-03 0.  1.
         12    1    3    3    0    0  0.10870238450E+02  0.77752495318E+01  0.46439824329E+01  0.14148609899E+02  0.00000000000E+00 0. -1.
</event>
<event>
 7    1  0.5601662E-013  0.5052885E+02  0.7816164E-02  0.1300439E+00
        -11   -1    0    0    0    0  0.00000000000E+00  0.00000000000E+00  0.45593999997E+02  0.45594000000E+02  0.51100000000E-03 0. -1.
         11   -1    0    0    0    0 -0.00000000000E+00 -0.00000000000E+00 -0.45593999997E+02  0.45594000000E+02  0.51100000000E-03 0.  1.
    9900012    2    1    2    0    0 -0.27805440504E+02 -0.20278763783E+02  0.21651695341E+02  0.50528847361E+02  0.29999962038E+02 0.  0.
        -12    1    1    2    0    0  0.27805440504E+02  0.20278763783E+02 -0.21651695341E+02  0.40659152639E+02  0.00000000000E+00 0.  1.
         11    1    3    3    0    0 -0.79927236428E+01 -0.12587753781E+02  0.69019192350E+01  0.16430814523E+02  0.51100000000E-03 0. -1.
        -11    1    3    3    0    0 -0.95119835318E+01 -0.13614267405E+01 -0.50831566783E+01  0.10870593156E+02  0.51100000000E-03 0.  1.
        -12    1    3    3    0    0 -0.10300733330E+02 -0.63295832616E+01  0.19832932784E+02  0.23227439683E+02  0.00000000000E+00 0.  1.
</event>
<event>
 7    1  0.5601662E-013  0.5052886E+02  0.7816164E-02  0.1300439E+00
        -11   -1    0    0    0    0  0.00000000000E+00  0.00000000000E+00  0.45593999997E+02  0.45594000000E+02  0.51100000000E-03 0.  1.
         11   -1    0    0    0    0 -0.00000000000E+00 -0.00000000000E+00 -0.45593999997E+02  0.45594000000E+02  0.51100000000E-03 0. -1.
    9900012    2    1    2    0    0 -0.11160878395E+02  0.37323846517E+02 -0.11641777721E+02  0.50528859406E+02  0.29999998649E+02 0.  0.
        -12    1    1    2    0    0  0.11160878395E+02 -0.37323846517E+02  0.11641777721E+02  0.40659140594E+02  0.00000000000E+00 0.  1.
         11    1    3    3    0    0  0.25721819962E+01  0.11160681042E+01  0.50980469652E+01  0.58182309472E+01  0.51100000000E-03 0. -1.
        -11    1    3    3    0    0 -0.10370485589E+01 -0.37678253464E+00 -0.36815134266E+01  0.38433027676E+01  0.51100000000E-03 0.  1.
         12    1    3    3    0    0 -0.12696011832E+02  0.36584560947E+02 -0.13058311260E+02  0.40867325691E+02  0.00000000000E+00 0. -1.
</event>
<event>
 7    1  0.5601662E-013  0.5052890E+02  0.7816164E-02  0.1300439E+00
        -11   -1    0    0    0    0  0.00000000000E+00  0.00000000000E+00  0.45593999997E+02  0.45594000000E+02  0.51100000000E-03 0. -1.
         11   -1    0    0    0    0 -0.00000000000E+00 -0.00000000000E+00 -0.45593999997E+02  0.45594000000E+02  0.51100000000E-03 0.  1.
    9900012    2    1    2    0    0  0.15342370385E+02  0.37644376113E+02 -0.82148794972E+00  0.50528902317E+02  0.30000129082E+02 0.  0.
        -12    1    1    2    0    0 -0.15342370385E+02 -0.37644376113E+02  0.82148794972E+00  0.40659097683E+02  0.00000000000E+00 0.  1.
         11    1    3    3    0    0  0.91850764800E+01  0.26679304067E+02 -0.69807390792E+00  0.28224779944E+02  0.51100000000E-03 0. -1.
        -11    1    3    3    0    0  0.68007349604E+01  0.15393950638E+02  0.26535935888E+01  0.17037173223E+02  0.51100000000E-03 0.  1.
        -12    1    3    3    0    0 -0.64344105538E+00 -0.44288785913E+01 -0.27770076306E+01  0.52669491500E+01  0.00000000000E+00 0.  1.
</event>
<event>
 7    1  0.5601662E-013  0.5052884E+02  0.7816164E-02  0.1300439E+00
        -11   -1    0    0    0    0  0.00000000000E+00  0.00000000000E+00  0.45593999997E+02  0.45594000000E+02  0.51100000000E-03 0. -1.
         11   -1    0    0    0    0 -0.00000000000E+00 -0.00000000000E+00 -0.45593999997E+02  0.45594000000E+02  0.51100000000E-03 0.  1.
    9900012    2    1    2    0    0 -0.54342896894E+01 -0.41627091859E+01  0.40078763833E+02  0.50528844050E+02  0.29999951975E+02 0.  0.
        -12    1    1    2    0    0  0.54342896894E+01  0.41627091859E+01 -0.40078763833E+02  0.40659155950E+02  0.00000000000E+00 0.  1.
         11    1    3    3    0    0 -0.93078882926E+01  0.58295996404E+01  0.21185001654E+02  0.23862634217E+02  0.51100000000E-03 0. -1.
        -11    1    3    3    0    0 -0.35060731083E+01 -0.36641897302E+01 -0.37378433429E+00  0.50851302844E+01  0.51100000000E-03 0.  1.
         12    1    3    3    0    0  0.73796717115E+01 -0.63281190962E+01  0.19267546512E+02  0.21581079548E+02  0.00000000000E+00 0. -1.
</event>
<event>
 7    1  0.5601662E-013  0.5052887E+02  0.7816164E-02  0.1300439E+00
        -11   -1    0    0    0    0  0.00000000000E+00  0.00000000000E+00  0.45593999997E+02  0.45594000000E+02  0.51100000000E-03 0. -1.
         11   -1    0    0    0    0 -0.00000000000E+00 -0.00000000000E+00 -0.45593999997E+02  0.45594000000E+02  0.51100000000E-03 0.  1.
    9900012    2    1    2    0    0 -0.42805016676E+01  0.12169253690E+02  0.38558417388E+02  0.50528868414E+02  0.30000026030E+02 0.  0.
        -12    1    1    2    0    0  0.42805016676E+01 -0.12169253690E+02 -0.38558417388E+02  0.40659131586E+02  0.00000000000E+00 0.  1.
         11    1    3    3    0    0 -0.55023428485E+00 -0.59162539854E+01  0.13010478380E+01  0.60825607047E+01  0.51100000000E-03 0. -1.
        -11    1    3    3    0    0 -0.47197773832E+01 -0.10988342272E+01  0.98455866096E+01  0.10973573308E+02  0.51100000000E-03 0.  1.
        -12    1    3    3    0    0  0.98951000046E+00  0.19184341902E+02  0.27411782941E+02  0.33472734400E+02  0.00000000000E+00 0.  1.
</event>
<event>
 7    1  0.5601662E-013  0.5052886E+02  0.7816164E-02  0.1300439E+00
        -11   -1    0    0    0    0  0.00000000000E+00  0.00000000000E+00  0.45593999997E+02  0.45594000000E+02  0.51100000000E-03 0.  1.
         11   -1    0    0    0    0 -0.00000000000E+00 -0.00000000000E+00 -0.45593999997E+02  0.45594000000E+02  0.51100000000E-03 0. -1.
    9900012    2    1    2    0    0 -0.30612814326E+02 -0.26256232982E+02  0.51605885366E+01  0.50528857788E+02  0.29999993733E+02 0.  0.
        -12    1    1    2    0    0  0.30612814326E+02  0.26256232982E+02 -0.51605885366E+01  0.40659142212E+02  0.00000000000E+00 0.  1.
         11    1    3    3    0    0 -0.90741544867E+01 -0.41108975337E+01 -0.15802322825E+01  0.10086470766E+02  0.51100000000E-03 0. -1.
        -11    1    3    3    0    0 -0.12579652649E+02 -0.13310429020E+01 -0.64738698505E+01  0.14210219107E+02  0.51100000000E-03 0.  1.
        -12    1    3    3    0    0 -0.89590071901E+01 -0.20814292546E+02  0.13214690670E+02  0.26232167915E+02  0.00000000000E+00 0.  1.
</event>
<event>
 7    1  0.5601662E-013  0.5052885E+02  0.7816164E-02  0.1300439E+00
        -11   -1    0    0    0    0  0.00000000000E+00  0.00000000000E+00  0.45593999997E+02  0.45594000000E+02  0.51100000000E-03 0.  1.
         11   -1    0    0    0    0 -0.00000000000E+00 -0.00000000000E+00 -0.45593999997E+02  0.45594000000E+02  0.51100000000E-03 0. -1.
    9900012    2    1    2    0    0  0.29297293266E+02  0.19500855286E+02 -0.20360534223E+02  0.50528854615E+02  0.29999984086E+02 0.  0.
        -12    1    1    2    0    0 -0.29297293266E+02 -0.19500855286E+02  0.20360534223E+02  0.40659145385E+02  0.00000000000E+00 0.  1.
         11    1    3    3    0    0  0.67758270762E+01 -0.67583728905E-01 -0.10511854166E+02  0.12506617384E+02  0.51100000000E-03 0. -1.
        -11    1    3    3    0    0  0.10053686136E+02  0.45998094496E+00 -0.11334388408E+02  0.15157722396E+02  0.51100000000E-03 0.  1.
        -12    1    3    3    0    0  0.12467780054E+02  0.19108458070E+02  0.14857083510E+01  0.22864514834E+02  0.00000000000E+00 0.  1.
</event>
<event>
 7    1  0.5601662E-013  0.5052886E+02  0.7816164E-02  0.1300439E+00
        -11   -1    0    0    0    0  0.00000000000E+00  0.00000000000E+00  0.45593999997E+02  0.45594000000E+02  0.51100000000E-03 0.  1.
         11   -1    0    0    0    0 -0.00000000000E+00 -0.00000000000E+00 -0.45593999997E+02  0.45594000000E+02  0.51100000000E-03 0. -1.
    9900012    2    1    2    0    0  0.91491261965E+01  0.35136476144E+02 -0.18299929776E+02  0.50528857168E+02  0.29999991849E+02 0.  0.
        -12    1    1    2    0    0 -0.91491261965E+01 -0.35136476144E+02  0.18299929776E+02  0.40659142832E+02  0.00000000000E+00 0.  1.
         11    1    3    3    0    0  0.11443077158E+02  0.94966081715E+01 -0.75825548182E+01  0.16692055578E+02  0.51100000000E-03 0. -1.
        -11    1    3    3    0    0  0.10511517665E+01  0.20542794658E+02  0.10365612669E+01  0.20595771214E+02  0.51100000000E-03 0.  1.
         12    1    3    3    0    0 -0.33451027278E+01  0.50970733149E+01 -0.11753936225E+02  0.13241030376E+02  0.00000000000E+00 0. -1.
</event>
<event>
 7    1  0.5601662E-013  0.5052886E+02  0.7816164E-02  0.1300439E+00
        -11   -1    0    0    0    0  0.00000000000E+00  0.00000000000E+00  0.45593999997E+02  0.45594000000E+02  0.51100000000E-03 0.  1.
         11   -1    0    0    0    0 -0.00000000000E+00 -0.00000000000E+00 -0.45593999997E+02  0.45594000000E+02  0.51100000000E-03 0. -1.
    9900012    2    1    2    0    0 -0.15614494163E+02  0.30934136826E+02 -0.21270452973E+02  0.50528863034E+02  0.30000009678E+02 0.  0.
        -12    1    1    2    0    0  0.15614494163E+02 -0.30934136826E+02  0.21270452973E+02  0.40659136966E+02  0.00000000000E+00 0.  1.
         11    1    3    3    0    0  0.25890984423E+01  0.82524034630E+01 -0.59787568131E+01  0.10514329601E+02  0.51100000000E-03 0. -1.
        -11    1    3    3    0    0  0.24018500650E+01  0.97106832806E+01 -0.11715476600E+02  0.15405149974E+02  0.51100000000E-03 0.  1.
         12    1    3    3    0    0 -0.20605442670E+02  0.12971050082E+02 -0.35762195606E+01  0.24609383459E+02  0.00000000000E+00 0. -1.
</event>
<event>
 7    1  0.5601662E-013  0.5052886E+02  0.7816164E-02  0.1300439E+00
        -11   -1    0    0    0    0  0.00000000000E+00  0.00000000000E+00  0.45593999997E+02  0.45594000000E+02  0.51100000000E-03 0.  1.
         11   -1    0    0    0    0 -0.00000000000E+00 -0.00000000000E+00 -0.45593999997E+02  0.45594000000E+02  0.51100000000E-03 0. -1.
    9900012    2    1    2    0    0  0.98412225141E+01 -0.20937155547E+02 -0.33435781932E+02  0.50528860112E+02  0.30000000797E+02 0.  0.
        -12    1    1    2    0    0 -0.98412225141E+01  0.20937155547E+02  0.33435781932E+02  0.40659139888E+02  0.00000000000E+00 0.  1.
         11    1    3    3    0    0 -0.34662274432E+01 -0.77764342902E+01 -0.27746133232E+01  0.89546715357E+01  0.51100000000E-03 0. -1.
        -11    1    3    3    0    0  0.11016075591E+02 -0.18911276163E+02 -0.24020689813E+02  0.32495904771E+02  0.51100000000E-03 0.  1.
        -12    1    3    3    0    0  0.22913743662E+01  0.57505549057E+01 -0.66404787959E+01  0.90782838053E+01  0.00000000000E+00 0.  1.
</event>
<event>
 7    1  0.5601662E-013  0.5052886E+02  0.7816164E-02  0.1300439E+00
        -11   -1    0    0    0    0  0.00000000000E+00  0.00000000000E+00  0.45593999997E+02  0.45594000000E+02  0.51100000000E-03 0. -1.
         11   -1    0    0    0    0 -0.00000000000E+00 -0.00000000000E+00 -0.45593999997E+02  0.45594000000E+02  0.51100000000E-03 0.  1.
    9900012    2    1    2    0    0 -0.29921165824E+02  0.27491149843E+02  0.14582208840E+01  0.50528857214E+02  0.29999991988E+02 0.  0.
        -12    1    1    2    0    0  0.29921165824E+02 -0.27491149843E+02 -0.14582208840E+01  0.40659142786E+02  0.00000000000E+00 0.  1.
         11    1    3    3    0    0 -0.11465209517E+02 -0.11740731196E+00  0.43199257191E+01  0.12252614913E+02  0.51100000000E-03 0. -1.
        -11    1    3    3    0    0 -0.48689760753E+01  0.25672268815E+01  0.62845281670E+01  0.83542130943E+01  0.51100000000E-03 0.  1.
        -12    1    3    3    0    0 -0.13586980232E+02  0.25041330274E+02 -0.91462330021E+01  0.29922029206E+02  0.00000000000E+00 0.  1.
</event>
<event>
 7    1  0.5601662E-013  0.5052885E+02  0.7816164E-02  0.1300439E+00
        -11   -1    0    0    0    0  0.00000000000E+00  0.00000000000E+00  0.45593999997E+02  0.45594000000E+02  0.51100000000E-03 0.  1.
         11   -1    0    0    0    0 -0.00000000000E+00 -0.00000000000E+00 -0.45593999997E+02  0.45594000000E+02  0.51100000000E-03 0. -1.
    9900012    2    1    2    0    0  0.39311633784E+02  0.93555921108E+01  0.44982718288E+01  0.50528854608E+02  0.29999984068E+02 0.  0.
        -12    1    1    2    0    0 -0.39311633784E+02 -0.93555921108E+01 -0.44982718288E+01  0.40659145392E+02  0.00000000000E+00 0.  1.
         11    1    3    3    0    0  0.14198574137E+02 -0.94470708609E+00 -0.81181274224E+01  0.16382795003E+02  0.51100000000E-03 0. -1.
        -11    1    3    3    0    0  0.28642194697E+01  0.28940731204E+00 -0.37796806364E+01  0.47511573050E+01  0.51100000000E-03 0.  1.
        -12    1    3    3    0    0  0.22248840177E+02  0.10010891885E+02  0.16396079888E+02  0.29394902300E+02  0.00000000000E+00 0.  1.
</event>
<event>
 7    1  0.5601662E-013  0.5052886E+02  0.7816164E-02  0.1300439E+00
        -11   -1    0    0    0    0  0.00000000000E+00  0.00000000000E+00  0.45593999997E+02  0.45594000000E+02  0.51100000000E-03 0. -1.
         11   -1    0    0    0    0 -0.00000000000E+00 -0.00000000000E+00 -0.45593999997E+02  0.45594000000E+02  0.51100000000E-03 0.  1.
    9900012    2    1    2    0    0 -0.29836654355E+02 -0.27333382111E+02 -0.39782231319E+01  0.50528856133E+02  0.29999988701E+02 0.  0.
        -12    1    1    2    0    0  0.29836654355E+02  0.27333382111E+02  0.39782231319E+01  0.40659143867E+02  0.00000000000E+00 0.  1.
         11    1    3    3    0    0 -0.83248200992E+00  0.51186465597E+00 -0.27007391720E+01  0.28721114288E+01  0.51100000000E-03 0. -1.
        -11    1    3    3    0    0 -0.15895614419E+02  0.59174272716E+00 -0.34218626990E+01  0.16270521252E+02  0.51100000000E-03 0.  1.
         12    1    3    3    0    0 -0.13108557926E+02 -0.28436989494E+02  0.21443787392E+01  0.31386223452E+02  0.00000000000E+00 0. -1.
</event>
<event>
 7    1  0.5601662E-013  0.5052886E+02  0.7816164E-02  0.1300439E+00
        -11   -1    0    0    0    0  0.00000000000E+00  0.00000000000E+00  0.45593999997E+02  0.45594000000E+02  0.51100000000E-03 0.  1.
         11   -1    0    0    0    0 -0.00000000000E+00 -0.00000000000E+00 -0.45593999997E+02  0.45594000000E+02  0.51100000000E-03 0. -1.
    9900012    2    1    2    0    0 -0.21609729692E+02 -0.28355992065E+02 -0.19547971540E+02  0.50528857182E+02  0.29999991891E+02 0.  0.
        -12    1    1    2    0    0  0.21609729692E+02  0.28355992065E+02  0.19547971540E+02  0.40659142818E+02  0.00000000000E+00 0.  1.
         11    1    3    3    0    0 -0.85682386274E+01 -0.88342607072E+01 -0.12979467155E+02  0.17886459776E+02  0.51100000000E-03 0. -1.
        -11    1    3    3    0    0 -0.15002550179E+02 -0.77788121506E+01 -0.10744450568E+02  0.20025724671E+02  0.51100000000E-03 0.  1.
         12    1    3    3    0    0  0.19610591145E+01 -0.11742919208E+02  0.41759461835E+01  0.12616672735E+02  0.00000000000E+00 0. -1.
</event>
<event>
 7    1  0.5601662E-013  0.5052887E+02  0.7816164E-02  0.1300439E+00
        -11   -1    0    0    0    0  0.00000000000E+00  0.00000000000E+00  0.45593999997E+02  0.45594000000E+02  0.51100000000E-03 0.  1.
         11   -1    0    0    0    0 -0.00000000000E+00 -0.00000000000E+00 -0.45593999997E+02  0.45594000000E+02  0.51100000000E-03 0. -1.
    9900012    2    1    2    0    0 -0.93810524355E+01  0.31671493580E+02  0.23708172021E+02  0.50528867312E+02  0.30000022682E+02 0.  0.
        -12    1    1    2    0    0  0.93810524355E+01 -0.31671493580E+02 -0.23708172021E+02  0.40659132688E+02  0.00000000000E+00 0.  1.
         11    1    3    3    0    0 -0.21826363089E+01  0.23638029783E+01 -0.49198120908E+00  0.32547675106E+01  0.51100000000E-03 0. -1.
        -11    1    3    3    0    0 -0.62411389948E+01  0.25802423702E+02  0.41157652501E+01  0.26863663352E+02  0.51100000000E-03 0.  1.
        -12    1    3    3    0    0 -0.95727713180E+00  0.35052668998E+01  0.20084387980E+02  0.20410436449E+02  0.00000000000E+00 0.  1.
</event>
<event>
 7    1  0.5601662E-013  0.5052885E+02  0.7816164E-02  0.1300439E+00
        -11   -1    0    0    0    0  0.00000000000E+00  0.00000000000E+00  0.45593999997E+02  0.45594000000E+02  0.51100000000E-03 0.  1.
         11   -1    0    0    0    0 -0.00000000000E+00 -0.00000000000E+00 -0.45593999997E+02  0.45594000000E+02  0.51100000000E-03 0. -1.
    9900012    2    1    2    0    0 -0.18130381144E+02  0.22826491443E+02 -0.28344432926E+02  0.50528852076E+02  0.29999976370E+02 0.  0.
        -12    1    1    2    0    0  0.18130381144E+02 -0.22826491443E+02  0.28344432926E+02  0.40659147924E+02  0.00000000000E+00 0.  1.
         11    1    3    3    0    0 -0.36278336977E+01  0.23848177907E+01 -0.17326430737E+02  0.17862075343E+02  0.51100000000E-03 0. -1.
        -11    1    3    3    0    0  0.25026373517E+01  0.10530527004E+02 -0.59095645665E+01  0.12331996850E+02  0.51100000000E-03 0.  1.
         12    1    3    3    0    0 -0.17005184798E+02  0.99111466490E+01 -0.51084376225E+01  0.20334779882E+02  0.00000000000E+00 0. -1.
</event>
<event>
 7    1  0.5601662E-013  0.5052887E+02  0.7816164E-02  0.1300439E+00
        -11   -1    0    0    0    0  0.00000000000E+00  0.00000000000E+00  0.45593999997E+02  0.45594000000E+02  0.51100000000E-03 0.  1.
         11   -1    0    0    0    0 -0.00000000000E+00 -0.00000000000E+00 -0.45593999997E+02  0.45594000000E+02  0.51100000000E-03 0. -1.
    9900012    2    1    2    0    0 -0.24096332127E+02 -0.32057538797E+02 -0.66967030849E+01  0.50528870055E+02  0.30000031018E+02 0.  0.
        -12    1    1    2    0    0  0.24096332127E+02  0.32057538797E+02  0.66967030849E+01  0.40659129945E+02  0.00000000000E+00 0.  1.
         11    1    3    3    0    0 -0.73420809073E+01 -0.19428177207E+02 -0.11555635983E+02  0.23767476619E+02  0.51100000000E-03 0. -1.
        -11    1    3    3    0    0 -0.23670466701E+01 -0.97688351563E+01  0.65471310102E+01  0.11995748204E+02  0.51100000000E-03 0.  1.
        -12    1    3    3    0    0 -0.14387204550E+02 -0.28605264342E+01 -0.16881981120E+01  0.14765645231E+02  0.00000000000E+00 0.  1.
</event>
<event>
 7    1  0.5601662E-013  0.5052886E+02  0.7816164E-02  0.1300439E+00
        -11   -1    0    0    0    0  0.00000000000E+00  0.00000000000E+00  0.45593999997E+02  0.45594000000E+02  0.51100000000E-03 0.  1.
         11   -1    0    0    0    0 -0.00000000000E+00 -0.00000000000E+00 -0.45593999997E+02  0.45594000000E+02  0.51100000000E-03 0. -1.
    9900012    2    1    2    0    0 -0.11542737627E+02  0.49165040812E+01 -0.38675041954E+02  0.50528859891E+02  0.30000000124E+02 0.  0.
        -12    1    1    2    0    0  0.11542737627E+02 -0.49165040812E+01  0.38675041954E+02  0.40659140109E+02  0.00000000000E+00 0.  1.
         11    1    3    3    0    0  0.20453755511E+00  0.50876308007E-01 -0.18012324163E+02  0.18013557284E+02  0.51100000000E-03 0. -1.
        -11    1    3    3    0    0  0.53789039154E+01 -0.31079228642E+01 -0.52967745889E+01  0.81637989421E+01  0.51100000000E-03 0.  1.
         12    1    3    3    0    0 -0.17126179097E+02  0.79735506373E+01 -0.15365943201E+02  0.24351503664E+02  0.00000000000E+00 0. -1.
</event>
<event>
 7    1  0.5601662E-013  0.5052883E+02  0.7816164E-02  0.1300439E+00
        -11   -1    0    0    0    0  0.00000000000E+00  0.00000000000E+00  0.45593999997E+02  0.45594000000E+02  0.51100000000E-03 0. -1.
         11   -1    0    0    0    0 -0.00000000000E+00 -0.00000000000E+00 -0.45593999997E+02  0.45594000000E+02  0.51100000000E-03 0.  1.
    9900012    2    1    2    0    0 -0.37615839401E+01 -0.32932646383E+02  0.23546966247E+02  0.50528827222E+02  0.29999900825E+02 0.  0.
        -12    1    1    2    0    0  0.37615839401E+01  0.32932646383E+02 -0.23546966247E+02  0.40659172778E+02  0.00000000000E+00 0.  1.
         11    1    3    3    0    0 -0.94693346987E+00 -0.50244845345E+01  0.94831765912E+01  0.10773707178E+02  0.51100000000E-03 0. -1.
        -11    1    3    3    0    0 -0.12526733465E+02 -0.94205166514E+01  0.96630987079E+01  0.18413056839E+02  0.51100000000E-03 0.  1.
        -12    1    3    3    0    0  0.97120829944E+01 -0.18487645197E+02  0.44006909474E+01  0.21342063205E+02  0.00000000000E+00 0.  1.
</event>
<event>
 7    1  0.5601662E-013  0.5052886E+02  0.7816164E-02  0.1300439E+00
        -11   -1    0    0    0    0  0.00000000000E+00  0.00000000000E+00  0.45593999997E+02  0.45594000000E+02  0.51100000000E-03 0.  1.
         11   -1    0    0    0    0 -0.00000000000E+00 -0.00000000000E+00 -0.45593999997E+02  0.45594000000E+02  0.51100000000E-03 0. -1.
    9900012    2    1    2    0    0  0.79177569993E+01  0.12189241499E+02 -0.37972320751E+02  0.50528860469E+02  0.30000001881E+02 0.  0.
        -12    1    1    2    0    0 -0.79177569993E+01 -0.12189241499E+02  0.37972320751E+02  0.40659139531E+02  0.00000000000E+00 0.  1.
         11    1    3    3    0    0 -0.71282220937E+01 -0.15361844257E+01 -0.22024672344E+00  0.72951985366E+01  0.51100000000E-03 0.  1.
        -11    1    3    3    0    0  0.37110129083E+01  0.60177860353E+01 -0.16418208896E+02  0.17875764296E+02  0.51100000000E-03 0. -1.
        -12    1    3    3    0    0  0.11334966185E+02  0.77076398894E+01 -0.21333865131E+02  0.25357897636E+02  0.00000000000E+00 0.  1.
</event>
<event>
 7    1  0.5601662E-013  0.5052886E+02  0.7816164E-02  0.1300439E+00
        -11   -1    0    0    0    0  0.00000000000E+00  0.00000000000E+00  0.45593999997E+02  0.45594000000E+02  0.51100000000E-03 0.  1.
         11   -1    0    0    0    0 -0.00000000000E+00 -0.00000000000E+00 -0.45593999997E+02  0.45594000000E+02  0.51100000000E-03 0. -1.
    9900012    2    1    2    0    0  0.20211863619E+02  0.32300363025E+02 -0.14189183072E+02  0.50528858362E+02  0.29999995476E+02 0.  0.
        -12    1    1    2    0    0 -0.20211863619E+02 -0.32300363025E+02  0.14189183072E+02  0.40659141638E+02  0.00000000000E+00 0.  1.
         11    1    3    3    0    0  0.81749134356E+00  0.27668098292E+00 -0.42838153898E+01  0.43698877581E+01  0.51100000000E-03 0. -1.
        -11    1    3    3    0    0  0.11328834641E+02  0.16752056017E+00  0.13799692436E+01  0.11413801857E+02  0.51100000000E-03 0.  1.
        -12    1    3    3    0    0  0.80655376343E+01  0.31856161482E+02 -0.11285336926E+02  0.34745168747E+02  0.00000000000E+00 0.  1.
</event>
<event>
 7    1  0.5601662E-013  0.5052886E+02  0.7816164E-02  0.1300439E+00
        -11   -1    0    0    0    0  0.00000000000E+00  0.00000000000E+00  0.45593999997E+02  0.45594000000E+02  0.51100000000E-03 0. -1.
         11   -1    0    0    0    0 -0.00000000000E+00 -0.00000000000E+00 -0.45593999997E+02  0.45594000000E+02  0.51100000000E-03 0.  1.
    9900012    2    1    2    0    0  0.33345376637E+02 -0.17148038859E+02 -0.15722485231E+02  0.50528856851E+02  0.29999990884E+02 0.  0.
        -12    1    1    2    0    0 -0.33345376637E+02  0.17148038859E+02  0.15722485231E+02  0.40659143149E+02  0.00000000000E+00 0.  1.
         11    1    3    3    0    0  0.16139621582E+02 -0.19799009321E+02 -0.37596017471E+01  0.25819038721E+02  0.51100000000E-03 0.  1.
        -11    1    3    3    0    0  0.47488472993E-01 -0.18792214647E+01  0.15242196699E+01  0.24201186606E+01  0.51100000000E-03 0. -1.
        -12    1    3    3    0    0  0.17158266582E+02  0.45301919261E+01 -0.13487103154E+02  0.22289699470E+02  0.00000000000E+00 0.  1.
</event>
<event>
 7    1  0.5601662E-013  0.5052886E+02  0.7816164E-02  0.1300439E+00
        -11   -1    0    0    0    0  0.00000000000E+00  0.00000000000E+00  0.45593999997E+02  0.45594000000E+02  0.51100000000E-03 0.  1.
         11   -1    0    0    0    0 -0.00000000000E+00 -0.00000000000E+00 -0.45593999997E+02  0.45594000000E+02  0.51100000000E-03 0. -1.
    9900012    2    1    2    0    0  0.33255639849E+01  0.38767996826E+02 -0.11796117720E+02  0.50528863918E+02  0.30000012365E+02 0.  0.
        -12    1    1    2    0    0 -0.33255639849E+01 -0.38767996826E+02  0.11796117720E+02  0.40659136082E+02  0.00000000000E+00 0.  1.
         11    1    3    3    0    0  0.17271961987E+01  0.14178365931E+02 -0.67541061211E+00  0.14299141476E+02  0.51100000000E-03 0. -1.
        -11    1    3    3    0    0  0.28114013090E+01  0.29367741437E+02 -0.10194972990E+02  0.31213870137E+02  0.51100000000E-03 0.  1.
        -12    1    3    3    0    0 -0.12130335228E+01 -0.47781105426E+01 -0.92573411739E+00  0.50158523046E+01  0.00000000000E+00 0.  1.
</event>
<event>
 7    1  0.5601662E-013  0.5052886E+02  0.7816164E-02  0.1300439E+00
        -11   -1    0    0    0    0  0.00000000000E+00  0.00000000000E+00  0.45593999997E+02  0.45594000000E+02  0.51100000000E-03 0.  1.
         11   -1    0    0    0    0 -0.00000000000E+00 -0.00000000000E+00 -0.45593999997E+02  0.45594000000E+02  0.51100000000E-03 0. -1.
    9900012    2    1    2    0    0 -0.34370675422E+02  0.21156120245E+02 -0.49235264489E+01  0.50528857542E+02  0.29999992984E+02 0.  0.
        -12    1    1    2    0    0  0.34370675422E+02 -0.21156120245E+02  0.49235264489E+01  0.40659142458E+02  0.00000000000E+00 0.  1.
         11    1    3    3    0    0 -0.43141906934E+01  0.51289952833E+01 -0.51007044038E+01  0.84223523811E+01  0.51100000000E-03 0. -1.
        -11    1    3    3    0    0 -0.24047083366E+02  0.90441032152E+01 -0.10718623840E+02  0.27837868429E+02  0.51100000000E-03 0.  1.
        -12    1    3    3    0    0 -0.60094013618E+01  0.69830217460E+01  0.10895801794E+02  0.14268636732E+02  0.00000000000E+00 0.  1.
</event>
<event>
 7    1  0.5601662E-013  0.5052882E+02  0.7816164E-02  0.1300439E+00
        -11   -1    0    0    0    0  0.00000000000E+00  0.00000000000E+00  0.45593999997E+02  0.45594000000E+02  0.51100000000E-03 0.  1.
         11   -1    0    0    0    0 -0.00000000000E+00 -0.00000000000E+00 -0.45593999997E+02  0.45594000000E+02  0.51100000000E-03 0. -1.
    9900012    2    1    2    0    0 -0.67642028420E+01 -0.32948616593E+02 -0.22843013982E+02  0.50528818217E+02  0.29999873451E+02 0.  0.
        -12    1    1    2    0    0  0.67642028420E+01  0.32948616593E+02  0.22843013982E+02  0.40659181783E+02  0.00000000000E+00 0.  1.
         11    1    3    3    0    0  0.37483669320E+01 -0.22411353636E+02 -0.15498958552E+02  0.27505213013E+02  0.51100000000E-03 0. -1.
        -11    1    3    3    0    0 -0.18457615923E+01 -0.12707314657E+02 -0.50619876431E+01  0.13802405617E+02  0.51100000000E-03 0.  1.
        -12    1    3    3    0    0 -0.86668081817E+01  0.21700516994E+01 -0.22820677864E+01  0.92211995867E+01  0.00000000000E+00 0.  1.
</event>
<event>
 7    1  0.5601662E-013  0.5052886E+02  0.7816164E-02  0.1300439E+00
        -11   -1    0    0    0    0  0.00000000000E+00  0.00000000000E+00  0.45593999997E+02  0.45594000000E+02  0.51100000000E-03 0.  1.
         11   -1    0    0    0    0 -0.00000000000E+00 -0.00000000000E+00 -0.45593999997E+02  0.45594000000E+02  0.51100000000E-03 0. -1.
    9900012    2    1    2    0    0 -0.18077785505E+02 -0.17060838574E+02 -0.32175880289E+02  0.50528858175E+02  0.29999994908E+02 0.  0.
        -12    1    1    2    0    0  0.18077785505E+02  0.17060838574E+02  0.32175880289E+02  0.40659141825E+02  0.00000000000E+00 0.  1.
         11    1    3    3    0    0  0.17059218133E+01 -0.87374947051E+01 -0.22066371675E+01  0.91718717176E+01  0.51100000000E-03 0. -1.
        -11    1    3    3    0    0 -0.95013665399E+00 -0.52710195909E+01  0.52950800298E+00  0.53820800974E+01  0.51100000000E-03 0.  1.
         12    1    3    3    0    0 -0.18833570664E+02 -0.30523242777E+01 -0.30498751124E+02  0.35974906360E+02  0.00000000000E+00 0. -1.
</event>
<event>
 7    1  0.5601662E-013  0.5052889E+02  0.7816164E-02  0.1300439E+00
        -11   -1    0    0    0    0  0.00000000000E+00  0.00000000000E+00  0.45593999997E+02  0.45594000000E+02  0.51100000000E-03 0. -1.
         11   -1    0    0    0    0 -0.00000000000E+00 -0.00000000000E+00 -0.45593999997E+02  0.45594000000E+02  0.51100000000E-03 0.  1.
    9900012    2    1    2    0    0  0.36886250511E+02 -0.17104369768E+02 -0.92780969148E-01  0.50528886013E+02  0.30000079524E+02 0.  0.
        -12    1    1    2    0    0 -0.36886250511E+02  0.17104369768E+02  0.92780969148E-01  0.40659113987E+02  0.00000000000E+00 0.  1.
         11    1    3    3    0    0  0.10266064575E+01 -0.60994293922E+01 -0.44572059358E+01  0.76238864593E+01  0.51100000000E-03 0. -1.
        -11    1    3    3    0    0  0.41416133906E+01  0.55159317396E+01  0.12145133555E+01  0.70038209133E+01  0.51100000000E-03 0.  1.
         12    1    3    3    0    0  0.31718030663E+02 -0.16520872116E+02  0.31499116112E+01  0.35901178640E+02  0.00000000000E+00 0. -1.
</event>
<event>
 7    1  0.5601662E-013  0.5052887E+02  0.7816164E-02  0.1300439E+00
        -11   -1    0    0    0    0  0.00000000000E+00  0.00000000000E+00  0.45593999997E+02  0.45594000000E+02  0.51100000000E-03 0.  1.
         11   -1    0    0    0    0 -0.00000000000E+00 -0.00000000000E+00 -0.45593999997E+02  0.45594000000E+02  0.51100000000E-03 0. -1.
    9900012    2    1    2    0    0  0.19558840356E+02  0.11362635388E+02 -0.33786202556E+02  0.50528865697E+02  0.30000017774E+02 0.  0.
        -12    1    1    2    0    0 -0.19558840356E+02 -0.11362635388E+02  0.33786202556E+02  0.40659134303E+02  0.00000000000E+00 0.  1.
         11    1    3    3    0    0  0.23686760148E+00 -0.66420029212E+00 -0.54124368069E+01  0.54581810834E+01  0.51100000000E-03 0. -1.
        -11    1    3    3    0    0  0.22917952608E+01 -0.69809801716E+01 -0.13921915364E+02  0.15741859399E+02  0.51100000000E-03 0.  1.
         12    1    3    3    0    0  0.17030177494E+02  0.19007815852E+02 -0.14451850385E+02  0.29328825215E+02  0.00000000000E+00 0. -1.
</event>
<event>
 7    1  0.5601662E-013  0.5052886E+02  0.7816164E-02  0.1300439E+00
        -11   -1    0    0    0    0  0.00000000000E+00  0.00000000000E+00  0.45593999997E+02  0.45594000000E+02  0.51100000000E-03 0.  1.
         11   -1    0    0    0    0 -0.00000000000E+00 -0.00000000000E+00 -0.45593999997E+02  0.45594000000E+02  0.51100000000E-03 0. -1.
    9900012    2    1    2    0    0 -0.23412607854E+02  0.15968928445E+01 -0.33203397293E+02  0.50528857546E+02  0.29999992996E+02 0.  0.
        -12    1    1    2    0    0  0.23412607854E+02 -0.15968928445E+01  0.33203397293E+02  0.40659142454E+02  0.00000000000E+00 0.  1.
         11    1    3    3    0    0 -0.18694373603E+01  0.53384484738E+01 -0.10827144502E+02  0.12215600127E+02  0.51100000000E-03 0. -1.
        -11    1    3    3    0    0  0.91374902878E+00  0.60736205698E+01 -0.72963515950E+01  0.95373240992E+01  0.51100000000E-03 0.  1.
         12    1    3    3    0    0 -0.22456919523E+02 -0.98151761991E+01 -0.15079901197E+02  0.28775933319E+02  0.00000000000E+00 0. -1.
</event>
<event>
 7    1  0.5601662E-013  0.5052886E+02  0.7816164E-02  0.1300439E+00
        -11   -1    0    0    0    0  0.00000000000E+00  0.00000000000E+00  0.45593999997E+02  0.45594000000E+02  0.51100000000E-03 0.  1.
         11   -1    0    0    0    0 -0.00000000000E+00 -0.00000000000E+00 -0.45593999997E+02  0.45594000000E+02  0.51100000000E-03 0. -1.
    9900012    2    1    2    0    0 -0.42746631548E+01  0.34819210503E+02 -0.20555179450E+02  0.50528861207E+02  0.30000004125E+02 0.  0.
        -12    1    1    2    0    0  0.42746631548E+01 -0.34819210503E+02  0.20555179450E+02  0.40659138793E+02  0.00000000000E+00 0.  1.
         11    1    3    3    0    0 -0.17004963121E+01 -0.21791915804E+00 -0.82246563857E+01  0.84014373408E+01  0.51100000000E-03 0. -1.
        -11    1    3    3    0    0  0.44826444896E+01  0.52312400982E+01 -0.89751662667E+01  0.11314308833E+02  0.51100000000E-03 0.  1.
        -12    1    3    3    0    0 -0.70568113322E+01  0.29805889563E+02 -0.33553567980E+01  0.30813115034E+02  0.00000000000E+00 0.  1.
</event>
<event>
 7    1  0.5601662E-013  0.5052885E+02  0.7816164E-02  0.1300439E+00
        -11   -1    0    0    0    0  0.00000000000E+00  0.00000000000E+00  0.45593999997E+02  0.45594000000E+02  0.51100000000E-03 0.  1.
         11   -1    0    0    0    0 -0.00000000000E+00 -0.00000000000E+00 -0.45593999997E+02  0.45594000000E+02  0.51100000000E-03 0. -1.
    9900012    2    1    2    0    0  0.13375965503E+02 -0.29523387850E+02 -0.24548305978E+02  0.50528853308E+02  0.29999980116E+02 0.  0.
        -12    1    1    2    0    0 -0.13375965503E+02  0.29523387850E+02  0.24548305978E+02  0.40659146692E+02  0.00000000000E+00 0.  1.
         11    1    3    3    0    0  0.53529953306E+01 -0.15151277906E+02 -0.11738462310E+02  0.19899931629E+02  0.51100000000E-03 0. -1.
        -11    1    3    3    0    0  0.88388630109E+01 -0.19130640186E+02 -0.14424982879E+02  0.25537952630E+02  0.51100000000E-03 0.  1.
        -12    1    3    3    0    0 -0.81589283875E+00  0.47585302416E+01  0.16151392102E+01  0.50909690485E+01  0.00000000000E+00 0.  1.
</event>
<event>
 7    1  0.5601662E-013  0.5052886E+02  0.7816164E-02  0.1300439E+00
        -11   -1    0    0    0    0  0.00000000000E+00  0.00000000000E+00  0.45593999997E+02  0.45594000000E+02  0.51100000000E-03 0.  1.
         11   -1    0    0    0    0 -0.00000000000E+00 -0.00000000000E+00 -0.45593999997E+02  0.45594000000E+02  0.51100000000E-03 0. -1.
    9900012    2    1    2    0    0 -0.74845243924E+01  0.39886758067E+02 -0.24887691343E+01  0.50528861466E+02  0.30000004913E+02 0.  0.
        -12    1    1    2    0    0  0.74845243924E+01 -0.39886758067E+02  0.24887691343E+01  0.40659138534E+02  0.00000000000E+00 0.  1.
         11    1    3    3    0    0 -0.11009200220E+02  0.53458101978E+01  0.38459465846E+00  0.12244512627E+02  0.51100000000E-03 0. -1.
        -11    1    3    3    0    0  0.27069601919E+01  0.58532854970E+01  0.54055496348E+01  0.84147817384E+01  0.51100000000E-03 0.  1.
         12    1    3    3    0    0  0.81771563567E+00  0.28687662373E+02 -0.82789134275E+01  0.29869567101E+02  0.00000000000E+00 0. -1.
</event>
<event>
 7    1  0.5601662E-013  0.5052886E+02  0.7816164E-02  0.1300439E+00
        -11   -1    0    0    0    0  0.00000000000E+00  0.00000000000E+00  0.45593999997E+02  0.45594000000E+02  0.51100000000E-03 0. -1.
         11   -1    0    0    0    0 -0.00000000000E+00 -0.00000000000E+00 -0.45593999997E+02  0.45594000000E+02  0.51100000000E-03 0.  1.
    9900012    2    1    2    0    0  0.35550441737E+02  0.17455692595E+02 -0.91994655670E+01  0.50528864761E+02  0.30000014927E+02 0.  0.
        -12    1    1    2    0    0 -0.35550441737E+02 -0.17455692595E+02  0.91994655670E+01  0.40659135239E+02  0.00000000000E+00 0.  1.
         11    1    3    3    0    0  0.56615283544E+01 -0.22689446159E+00 -0.32490707798E+01  0.65315270495E+01  0.51100000000E-03 0.  1.
        -11    1    3    3    0    0  0.33613706534E+02  0.11548857569E+02 -0.82016901121E+01  0.36476363567E+02  0.51100000000E-03 0. -1.
         12    1    3    3    0    0 -0.37247931512E+01  0.61337294875E+01  0.22512953248E+01  0.75209741446E+01  0.00000000000E+00 0. -1.
</event>
<event>
 7    1  0.5601662E-013  0.5052886E+02  0.7816164E-02  0.1300439E+00
        -11   -1    0    0    0    0  0.00000000000E+00  0.00000000000E+00  0.45593999997E+02  0.45594000000E+02  0.51100000000E-03 0. -1.
         11   -1    0    0    0    0 -0.00000000000E+00 -0.00000000000E+00 -0.45593999997E+02  0.45594000000E+02  0.51100000000E-03 0.  1.
    9900012    2    1    2    0    0 -0.86481435177E+00 -0.29001244464E+01  0.40546356097E+02  0.50528860580E+02  0.30000002219E+02 0.  0.
        -12    1    1    2    0    0  0.86481435177E+00  0.29001244464E+01 -0.40546356097E+02  0.40659139420E+02  0.00000000000E+00 0.  1.
         11    1    3    3    0    0  0.86979553303E+01 -0.31201769451E+01  0.34117339721E+01  0.98503735998E+01  0.51100000000E-03 0. -1.
        -11    1    3    3    0    0  0.24981440324E+01  0.20567079835E+00  0.12101054157E+01  0.27834114791E+01  0.51100000000E-03 0.  1.
        -12    1    3    3    0    0 -0.12060913715E+02  0.14381700398E-01  0.35924516709E+02  0.37895075501E+02  0.00000000000E+00 0.  1.
</event>
<event>
 7    1  0.5601662E-013  0.5052885E+02  0.7816164E-02  0.1300439E+00
        -11   -1    0    0    0    0  0.00000000000E+00  0.00000000000E+00  0.45593999997E+02  0.45594000000E+02  0.51100000000E-03 0.  1.
         11   -1    0    0    0    0 -0.00000000000E+00 -0.00000000000E+00 -0.45593999997E+02  0.45594000000E+02  0.51100000000E-03 0. -1.
    9900012    2    1    2    0    0 -0.31826901287E+02 -0.24420144669E+02 -0.66235203108E+01  0.50528854257E+02  0.29999983001E+02 0.  0.
        -12    1    1    2    0    0  0.31826901287E+02  0.24420144669E+02  0.66235203108E+01  0.40659145743E+02  0.00000000000E+00 0.  1.
         11    1    3    3    0    0 -0.10160541639E+02 -0.14101354815E+02  0.47015299098E+01  0.18005254726E+02  0.51100000000E-03 0. -1.
        -11    1    3    3    0    0 -0.11414988337E+00 -0.31356815425E+00  0.41525355615E+01  0.41659221109E+01  0.51100000000E-03 0.  1.
         12    1    3    3    0    0 -0.21552209765E+02 -0.10005221700E+02 -0.15477585782E+02  0.28357677420E+02  0.00000000000E+00 0. -1.
</event>
<event>
 7    1  0.5601662E-013  0.5052886E+02  0.7816164E-02  0.1300439E+00
        -11   -1    0    0    0    0  0.00000000000E+00  0.00000000000E+00  0.45593999997E+02  0.45594000000E+02  0.51100000000E-03 0.  1.
         11   -1    0    0    0    0 -0.00000000000E+00 -0.00000000000E+00 -0.45593999997E+02  0.45594000000E+02  0.51100000000E-03 0. -1.
    9900012    2    1    2    0    0  0.12531029344E+01 -0.24486905693E+02 -0.32434348242E+02  0.50528858798E+02  0.29999996803E+02 0.  0.
        -12    1    1    2    0    0 -0.12531029344E+01  0.24486905693E+02  0.32434348242E+02  0.40659141202E+02  0.00000000000E+00 0.  1.
         11    1    3    3    0    0  0.25631198749E+01 -0.21906195749E+02 -0.26678509315E+02  0.34614936880E+02  0.51100000000E-03 0. -1.
        -11    1    3    3    0    0  0.14783417670E+01 -0.83059073095E+01 -0.37954455089E+01  0.92508917131E+01  0.51100000000E-03 0.  1.
        -12    1    3    3    0    0 -0.27883587075E+01  0.57251973654E+01 -0.19603934178E+01  0.66630302046E+01  0.00000000000E+00 0.  1.
</event>
<event>
 7    1  0.5601662E-013  0.5052883E+02  0.7816164E-02  0.1300439E+00
        -11   -1    0    0    0    0  0.00000000000E+00  0.00000000000E+00  0.45593999997E+02  0.45594000000E+02  0.51100000000E-03 0.  1.
         11   -1    0    0    0    0 -0.00000000000E+00 -0.00000000000E+00 -0.45593999997E+02  0.45594000000E+02  0.51100000000E-03 0. -1.
    9900012    2    1    2    0    0 -0.75986899956E+01  0.39021940697E+02 -0.85273808802E+01  0.50528829201E+02  0.29999906838E+02 0.  0.
        -12    1    1    2    0    0  0.75986899956E+01 -0.39021940697E+02  0.85273808802E+01  0.40659170799E+02  0.00000000000E+00 0.  1.
         11    1    3    3    0    0  0.58235560310E+01  0.28127794471E+01  0.45280707924E+01  0.78948691203E+01  0.51100000000E-03 0. -1.
        -11    1    3    3    0    0 -0.87462470890E+01  0.16151015656E+02 -0.22513563151E+00  0.18368528280E+02  0.51100000000E-03 0.  1.
         12    1    3    3    0    0 -0.46759989377E+01  0.20058145594E+02 -0.12830316041E+02  0.24265431800E+02  0.00000000000E+00 0. -1.
</event>
<event>
 7    1  0.5601662E-013  0.5052886E+02  0.7816164E-02  0.1300439E+00
        -11   -1    0    0    0    0  0.00000000000E+00  0.00000000000E+00  0.45593999997E+02  0.45594000000E+02  0.51100000000E-03 0.  1.
         11   -1    0    0    0    0 -0.00000000000E+00 -0.00000000000E+00 -0.45593999997E+02  0.45594000000E+02  0.51100000000E-03 0. -1.
    9900012    2    1    2    0    0  0.22908290780E+02 -0.33473625527E+02 -0.28092875998E+01  0.50528862169E+02  0.30000007048E+02 0.  0.
        -12    1    1    2    0    0 -0.22908290780E+02  0.33473625527E+02  0.28092875998E+01  0.40659137831E+02  0.00000000000E+00 0.  1.
         11    1    3    3    0    0 -0.35276294924E+00 -0.12671065655E+01 -0.55028990470E+01  0.56579058785E+01  0.51100000000E-03 0. -1.
        -11    1    3    3    0    0  0.14336301235E+01 -0.14015765849E+02  0.76443791945E+01  0.16029145991E+02  0.51100000000E-03 0.  1.
        -12    1    3    3    0    0  0.21827423606E+02 -0.18190753112E+02 -0.49507677473E+01  0.28841810300E+02  0.00000000000E+00 0.  1.
</event>
<event>
 7    1  0.5601662E-013  0.5052886E+02  0.7816164E-02  0.1300439E+00
        -11   -1    0    0    0    0  0.00000000000E+00  0.00000000000E+00  0.45593999997E+02  0.45594000000E+02  0.51100000000E-03 0.  1.
         11   -1    0    0    0    0 -0.00000000000E+00 -0.00000000000E+00 -0.45593999997E+02  0.45594000000E+02  0.51100000000E-03 0. -1.
    9900012    2    1    2    0    0  0.40064782207E+02 -0.19477086694E+01 -0.66471863172E+01  0.50528862918E+02  0.30000009324E+02 0.  0.
        -12    1    1    2    0    0 -0.40064782207E+02  0.19477086694E+01  0.66471863172E+01  0.40659137082E+02  0.00000000000E+00 0.  1.
         11    1    3    3    0    0  0.13321723648E-01 -0.35386834026E+01 -0.17129971814E+01  0.39315159032E+01  0.51100000000E-03 0. -1.
        -11    1    3    3    0    0  0.88811952243E+01  0.30303665739E+01 -0.11364621911E+02  0.14738160727E+02  0.51100000000E-03 0.  1.
         12    1    3    3    0    0  0.31170265259E+02 -0.14393918407E+01  0.64304327752E+01  0.31859186287E+02  0.00000000000E+00 0. -1.
</event>
<event>
 7    1  0.5601662E-013  0.5052887E+02  0.7816164E-02  0.1300439E+00
        -11   -1    0    0    0    0  0.00000000000E+00  0.00000000000E+00  0.45593999997E+02  0.45594000000E+02  0.51100000000E-03 0. -1.
         11   -1    0    0    0    0 -0.00000000000E+00 -0.00000000000E+00 -0.45593999997E+02  0.45594000000E+02  0.51100000000E-03 0.  1.
    9900012    2    1    2    0    0 -0.29241026885E+01  0.19590564858E+01  0.40506502744E+02  0.50528867651E+02  0.30000023711E+02 0.  0.
        -12    1    1    2    0    0  0.29241026885E+01 -0.19590564858E+01 -0.40506502744E+02  0.40659132349E+02  0.00000000000E+00 0.  1.
         11    1    3    3    0    0 -0.56029617686E+01  0.58833808198E+01  0.10550238271E+02  0.13315963288E+02  0.51100000000E-03 0. -1.
        -11    1    3    3    0    0 -0.80396845549E+01 -0.14307557967E+00  0.21764980262E+02  0.23202830957E+02  0.51100000000E-03 0.  1.
         12    1    3    3    0    0  0.10718543635E+02 -0.37812487543E+01  0.81912842110E+01  0.14010073405E+02  0.00000000000E+00 0. -1.
</event>
<event>
 7    1  0.5601662E-013  0.5052886E+02  0.7816164E-02  0.1300439E+00
        -11   -1    0    0    0    0  0.00000000000E+00  0.00000000000E+00  0.45593999997E+02  0.45594000000E+02  0.51100000000E-03 0.  1.
         11   -1    0    0    0    0 -0.00000000000E+00 -0.00000000000E+00 -0.45593999997E+02  0.45594000000E+02  0.51100000000E-03 0. -1.
    9900012    2    1    2    0    0 -0.17559595540E+02 -0.21030541136E+02 -0.30042346741E+02  0.50528860146E+02  0.30000000899E+02 0.  0.
        -12    1    1    2    0    0  0.17559595540E+02  0.21030541136E+02  0.30042346741E+02  0.40659139854E+02  0.00000000000E+00 0.  1.
         11    1    3    3    0    0 -0.23853191173E+01 -0.78533272868E+01  0.29086782249E+01  0.87077497692E+01  0.51100000000E-03 0. -1.
        -11    1    3    3    0    0  0.12209372168E+01  0.39933857810E+00  0.10817695283E+01  0.16794000598E+01  0.51100000000E-03 0.  1.
         12    1    3    3    0    0 -0.16395213640E+02 -0.13576552428E+02 -0.34032794494E+02  0.40141710317E+02  0.00000000000E+00 0. -1.
</event>
<event>
 7    1  0.5601662E-013  0.5052887E+02  0.7816164E-02  0.1300439E+00
        -11   -1    0    0    0    0  0.00000000000E+00  0.00000000000E+00  0.45593999997E+02  0.45594000000E+02  0.51100000000E-03 0.  1.
         11   -1    0    0    0    0 -0.00000000000E+00 -0.00000000000E+00 -0.45593999997E+02  0.45594000000E+02  0.51100000000E-03 0. -1.
    9900012    2    1    2    0    0 -0.13213791370E+01  0.27628646327E+01 -0.40543625065E+02  0.50528868218E+02  0.30000025436E+02 0.  0.
        -12    1    1    2    0    0  0.13213791370E+01 -0.27628646327E+01  0.40543625065E+02  0.40659131782E+02  0.00000000000E+00 0.  1.
         11    1    3    3    0    0  0.86599948880E+00 -0.47186245136E+01 -0.17676962305E+02  0.18316396179E+02  0.51100000000E-03 0. -1.
        -11    1    3    3    0    0 -0.19620844829E+01 -0.72108751789E+01 -0.46241965064E+01  0.87880424416E+01  0.51100000000E-03 0.  1.
        -12    1    3    3    0    0 -0.22529414292E+00  0.14692364325E+02 -0.18242466254E+02  0.23424429597E+02  0.00000000000E+00 0.  1.
</event>
<event>
 7    1  0.5601662E-013  0.5052884E+02  0.7816164E-02  0.1300439E+00
        -11   -1    0    0    0    0  0.00000000000E+00  0.00000000000E+00  0.45593999997E+02  0.45594000000E+02  0.51100000000E-03 0.  1.
         11   -1    0    0    0    0 -0.00000000000E+00 -0.00000000000E+00 -0.45593999997E+02  0.45594000000E+02  0.51100000000E-03 0. -1.
    9900012    2    1    2    0    0  0.25033437789E+02 -0.26955971135E+02 -0.17316755494E+02  0.50528838570E+02  0.29999935316E+02 0.  0.
        -12    1    1    2    0    0 -0.25033437789E+02  0.26955971135E+02  0.17316755494E+02  0.40659161430E+02  0.00000000000E+00 0.  1.
         11    1    3    3    0    0  0.11738475695E+02 -0.14208779420E+02 -0.18530982617E+01  0.18523368961E+02  0.51100000000E-03 0. -1.
        -11    1    3    3    0    0  0.85279880412E+01 -0.89862414618E+01  0.28493156237E+01  0.12712109008E+02  0.51100000000E-03 0.  1.
         12    1    3    3    0    0  0.47669740530E+01 -0.37609502535E+01 -0.18312972856E+02  0.19293360601E+02  0.00000000000E+00 0. -1.
</event>
<event>
 7    1  0.5601662E-013  0.5052886E+02  0.7816164E-02  0.1300439E+00
        -11   -1    0    0    0    0  0.00000000000E+00  0.00000000000E+00  0.45593999997E+02  0.45594000000E+02  0.51100000000E-03 0. -1.
         11   -1    0    0    0    0 -0.00000000000E+00 -0.00000000000E+00 -0.45593999997E+02  0.45594000000E+02  0.51100000000E-03 0.  1.
    9900012    2    1    2    0    0  0.33427063501E+01 -0.10413174461E+02  0.39160666981E+02  0.50528859250E+02  0.29999998176E+02 0.  0.
        -12    1    1    2    0    0 -0.33427063501E+01  0.10413174461E+02 -0.39160666981E+02  0.40659140750E+02  0.00000000000E+00 0.  1.
         11    1    3    3    0    0  0.13966399007E+01 -0.12549743665E+02  0.64738565942E+01  0.14190048926E+02  0.51100000000E-03 0. -1.
        -11    1    3    3    0    0 -0.46931203642E+01 -0.39991612767E+00  0.26502051927E+02  0.26917356265E+02  0.51100000000E-03 0.  1.
         12    1    3    3    0    0  0.66391868135E+01  0.25364853312E+01  0.61847584599E+01  0.94214540590E+01  0.00000000000E+00 0. -1.
</event>
<event>
 7    1  0.5601662E-013  0.5052885E+02  0.7816164E-02  0.1300439E+00
        -11   -1    0    0    0    0  0.00000000000E+00  0.00000000000E+00  0.45593999997E+02  0.45594000000E+02  0.51100000000E-03 0. -1.
         11   -1    0    0    0    0 -0.00000000000E+00 -0.00000000000E+00 -0.45593999997E+02  0.45594000000E+02  0.51100000000E-03 0.  1.
    9900012    2    1    2    0    0  0.19401726240E+02  0.18003549633E+02  0.30864411748E+02  0.50528847365E+02  0.29999962049E+02 0.  0.
        -12    1    1    2    0    0 -0.19401726240E+02 -0.18003549633E+02 -0.30864411748E+02  0.40659152635E+02  0.00000000000E+00 0.  1.
         11    1    3    3    0    0  0.20414307124E+02  0.18101706974E+02  0.16609649570E+02  0.31942075540E+02  0.51100000000E-03 0. -1.
        -11    1    3    3    0    0  0.29640824624E+01  0.47786911132E+01  0.63165404906E+01  0.84569709489E+01  0.51100000000E-03 0.  1.
        -12    1    3    3    0    0 -0.39766633466E+01 -0.48768484539E+01  0.79382216874E+01  0.10129800875E+02  0.00000000000E+00 0.  1.
</event>
<event>
 7    1  0.5601662E-013  0.5052886E+02  0.7816164E-02  0.1300439E+00
        -11   -1    0    0    0    0  0.00000000000E+00  0.00000000000E+00  0.45593999997E+02  0.45594000000E+02  0.51100000000E-03 0. -1.
         11   -1    0    0    0    0 -0.00000000000E+00 -0.00000000000E+00 -0.45593999997E+02  0.45594000000E+02  0.51100000000E-03 0.  1.
    9900012    2    1    2    0    0  0.58585340393E+01 -0.54315037229E+01  0.39866549749E+02  0.50528862741E+02  0.30000008786E+02 0.  0.
        -12    1    1    2    0    0 -0.58585340393E+01  0.54315037229E+01 -0.39866549749E+02  0.40659137259E+02  0.00000000000E+00 0.  1.
         11    1    3    3    0    0  0.87829934095E+01  0.82964535862E+01  0.22424649852E+02  0.25472279768E+02  0.51100000000E-03 0. -1.
        -11    1    3    3    0    0 -0.49084995217E+00  0.17765943149E+01  0.39547950169E+01  0.43632126836E+01  0.51100000000E-03 0.  1.
        -12    1    3    3    0    0 -0.24336094180E+01 -0.15504551624E+02  0.13487104880E+02  0.20693370289E+02  0.00000000000E+00 0.  1.
</event>
<event>
 7    1  0.5601662E-013  0.5052883E+02  0.7816164E-02  0.1300439E+00
        -11   -1    0    0    0    0  0.00000000000E+00  0.00000000000E+00  0.45593999997E+02  0.45594000000E+02  0.51100000000E-03 0. -1.
         11   -1    0    0    0    0 -0.00000000000E+00 -0.00000000000E+00 -0.45593999997E+02  0.45594000000E+02  0.51100000000E-03 0.  1.
    9900012    2    1    2    0    0 -0.30152712765E+02  0.12380046330E+02  0.24304655925E+02  0.50528832106E+02  0.29999915669E+02 0.  0.
        -12    1    1    2    0    0  0.30152712765E+02 -0.12380046330E+02 -0.24304655925E+02  0.40659167894E+02  0.00000000000E+00 0.  1.
         11    1    3    3    0    0 -0.21203529911E+02  0.12245637219E+02  0.82734631624E+01  0.25845608999E+02  0.51100000000E-03 0. -1.
        -11    1    3    3    0    0 -0.18776739368E+01 -0.72587794897E+00  0.17326257520E+02  0.17442813939E+02  0.51100000000E-03 0.  1.
         12    1    3    3    0    0 -0.70715089172E+01  0.86028705957E+00 -0.12950647566E+01  0.72404091676E+01  0.00000000000E+00 0. -1.
</event>
<event>
 7    1  0.5601662E-013  0.5052885E+02  0.7816164E-02  0.1300439E+00
        -11   -1    0    0    0    0  0.00000000000E+00  0.00000000000E+00  0.45593999997E+02  0.45594000000E+02  0.51100000000E-03 0. -1.
         11   -1    0    0    0    0 -0.00000000000E+00 -0.00000000000E+00 -0.45593999997E+02  0.45594000000E+02  0.51100000000E-03 0.  1.
    9900012    2    1    2    0    0  0.31299550052E+02 -0.24881450796E+02 -0.73768702141E+01  0.50528848001E+02  0.29999963983E+02 0.  0.
        -12    1    1    2    0    0 -0.31299550052E+02  0.24881450796E+02  0.73768702141E+01  0.40659151999E+02  0.00000000000E+00 0.  1.
         11    1    3    3    0    0  0.12625690449E+02 -0.68970623411E+01 -0.48986052219E+01  0.15197824240E+02  0.51100000000E-03 0. -1.
        -11    1    3    3    0    0  0.14133424490E+02 -0.70385642203E+01 -0.12240084796E+02  0.19977856495E+02  0.51100000000E-03 0.  1.
         12    1    3    3    0    0  0.45404351127E+01 -0.10945824235E+02  0.97618198035E+01  0.15353167265E+02  0.00000000000E+00 0. -1.
</event>
<event>
 7    1  0.5601662E-013  0.5052885E+02  0.7816164E-02  0.1300439E+00
        -11   -1    0    0    0    0  0.00000000000E+00  0.00000000000E+00  0.45593999997E+02  0.45594000000E+02  0.51100000000E-03 0.  1.
         11   -1    0    0    0    0 -0.00000000000E+00 -0.00000000000E+00 -0.45593999997E+02  0.45594000000E+02  0.51100000000E-03 0. -1.
    9900012    2    1    2    0    0  0.38396496201E+02  0.69659031539E+00 -0.13356272981E+02  0.50528853593E+02  0.29999980981E+02 0.  0.
        -12    1    1    2    0    0 -0.38396496201E+02 -0.69659031539E+00  0.13356272981E+02  0.40659146407E+02  0.00000000000E+00 0.  1.
         11    1    3    3    0    0  0.33647880987E+02  0.39452492735E+01 -0.18062617175E+02  0.38392747052E+02  0.51100000000E-03 0. -1.
        -11    1    3    3    0    0  0.34824076697E+00  0.27290331814E+01 -0.83280648664E+00  0.28744496242E+01  0.51100000000E-03 0.  1.
        -12    1    3    3    0    0  0.44003744473E+01 -0.59776921395E+01  0.55391506799E+01  0.92616569169E+01  0.00000000000E+00 0.  1.
</event>
<event>
 7    1  0.5601662E-013  0.5052886E+02  0.7816164E-02  0.1300439E+00
        -11   -1    0    0    0    0  0.00000000000E+00  0.00000000000E+00  0.45593999997E+02  0.45594000000E+02  0.51100000000E-03 0. -1.
         11   -1    0    0    0    0 -0.00000000000E+00 -0.00000000000E+00 -0.45593999997E+02  0.45594000000E+02  0.51100000000E-03 0.  1.
    9900012    2    1    2    0    0 -0.29171675053E+02  0.21614648697E+02 -0.18302622030E+02  0.50528860353E+02  0.30000001529E+02 0.  0.
        -12    1    1    2    0    0  0.29171675053E+02 -0.21614648697E+02  0.18302622030E+02  0.40659139647E+02  0.00000000000E+00 0.  1.
         11    1    3    3    0    0 -0.19308236508E+01  0.50643656653E+01  0.17814822544E+01  0.57052220680E+01  0.51100000000E-03 0. -1.
        -11    1    3    3    0    0 -0.18780992563E+02  0.19581762608E+02 -0.54865346710E+01  0.27681639609E+02  0.51100000000E-03 0.  1.
        -12    1    3    3    0    0 -0.84598588387E+01 -0.30314795767E+01 -0.14597569613E+02  0.17141998676E+02  0.00000000000E+00 0.  1.
</event>
<event>
 7    1  0.5601662E-013  0.5052887E+02  0.7816164E-02  0.1300439E+00
        -11   -1    0    0    0    0  0.00000000000E+00  0.00000000000E+00  0.45593999997E+02  0.45594000000E+02  0.51100000000E-03 0. -1.
         11   -1    0    0    0    0 -0.00000000000E+00 -0.00000000000E+00 -0.45593999997E+02  0.45594000000E+02  0.51100000000E-03 0.  1.
    9900012    2    1    2    0    0 -0.11190459286E+02  0.38931724699E+02  0.35013418825E+01  0.50528868651E+02  0.30000026752E+02 0.  0.
        -12    1    1    2    0    0  0.11190459286E+02 -0.38931724699E+02 -0.35013418825E+01  0.40659131349E+02  0.00000000000E+00 0.  1.
         11    1    3    3    0    0 -0.88229415106E+01  0.11386426891E+02  0.54490973051E+01  0.15400898544E+02  0.51100000000E-03 0. -1.
        -11    1    3    3    0    0 -0.73340855944E+01  0.23646887465E+01  0.41436149536E+01  0.87492919439E+01  0.51100000000E-03 0.  1.
        -12    1    3    3    0    0  0.49665678190E+01  0.25180609061E+02 -0.60913703762E+01  0.26378678164E+02  0.00000000000E+00 0.  1.
</event>
<event>
 7    1  0.5601662E-013  0.5052886E+02  0.7816164E-02  0.1300439E+00
        -11   -1    0    0    0    0  0.00000000000E+00  0.00000000000E+00  0.45593999997E+02  0.45594000000E+02  0.51100000000E-03 0. -1.
         11   -1    0    0    0    0 -0.00000000000E+00 -0.00000000000E+00 -0.45593999997E+02  0.45594000000E+02  0.51100000000E-03 0.  1.
    9900012    2    1    2    0    0 -0.16941133335E+02 -0.34572245801E+02  0.13073778764E+02  0.50528857491E+02  0.29999992829E+02 0.  0.
        -12    1    1    2    0    0  0.16941133335E+02  0.34572245801E+02 -0.13073778764E+02  0.40659142509E+02  0.00000000000E+00 0.  1.
         11    1    3    3    0    0 -0.27941239302E+01 -0.21002420005E+02  0.11095114077E+01  0.21216498071E+02  0.51100000000E-03 0. -1.
        -11    1    3    3    0    0 -0.67156041936E+01 -0.10762048343E+02 -0.23879138251E+01  0.12908259252E+02  0.51100000000E-03 0.  1.
         12    1    3    3    0    0 -0.74314052114E+01 -0.28077774536E+01  0.14352181181E+02  0.16404100168E+02  0.00000000000E+00 0. -1.
</event>
<event>
 7    1  0.5601662E-013  0.5052886E+02  0.7816164E-02  0.1300439E+00
        -11   -1    0    0    0    0  0.00000000000E+00  0.00000000000E+00  0.45593999997E+02  0.45594000000E+02  0.51100000000E-03 0.  1.
         11   -1    0    0    0    0 -0.00000000000E+00 -0.00000000000E+00 -0.45593999997E+02  0.45594000000E+02  0.51100000000E-03 0. -1.
    9900012    2    1    2    0    0  0.27201209303E+02  0.27307134028E+02 -0.12945290756E+02  0.50528857004E+02  0.29999991351E+02 0.  0.
        -12    1    1    2    0    0 -0.27201209303E+02 -0.27307134028E+02  0.12945290756E+02  0.40659142996E+02  0.00000000000E+00 0.  1.
         11    1    3    3    0    0  0.12821278279E+02  0.22845460475E+02 -0.43171573253E+01  0.26550670211E+02  0.51100000000E-03 0. -1.
        -11    1    3    3    0    0  0.21861160928E+01 -0.47585863621E+01 -0.67988288913E+01  0.85818018091E+01  0.51100000000E-03 0.  1.
         12    1    3    3    0    0  0.12193814932E+02  0.92202599147E+01 -0.18293045391E+01  0.15396384984E+02  0.00000000000E+00 0. -1.
</event>
<event>
 7    1  0.5601662E-013  0.5052883E+02  0.7816164E-02  0.1300439E+00
        -11   -1    0    0    0    0  0.00000000000E+00  0.00000000000E+00  0.45593999997E+02  0.45594000000E+02  0.51100000000E-03 0.  1.
         11   -1    0    0    0    0 -0.00000000000E+00 -0.00000000000E+00 -0.45593999997E+02  0.45594000000E+02  0.51100000000E-03 0. -1.
    9900012    2    1    2    0    0  0.22466039681E+02  0.17249769220E+01 -0.33844789793E+02  0.50528827843E+02  0.29999902713E+02 0.  0.
        -12    1    1    2    0    0 -0.22466039681E+02 -0.17249769220E+01  0.33844789793E+02  0.40659172157E+02  0.00000000000E+00 0.  1.
         11    1    3    3    0    0  0.53251101615E+01  0.42172198439E+01 -0.28867814410E+01  0.73807349765E+01  0.51100000000E-03 0. -1.
        -11    1    3    3    0    0  0.94679019033E+01  0.82432447304E+01 -0.40704185141E+01  0.13196990463E+02  0.51100000000E-03 0.  1.
         12    1    3    3    0    0  0.76730276164E+01 -0.10735487652E+02 -0.26887589838E+02  0.29951102404E+02  0.00000000000E+00 0. -1.
</event>
<event>
 7    1  0.5601662E-013  0.5052886E+02  0.7816164E-02  0.1300439E+00
        -11   -1    0    0    0    0  0.00000000000E+00  0.00000000000E+00  0.45593999997E+02  0.45594000000E+02  0.51100000000E-03 0.  1.
         11   -1    0    0    0    0 -0.00000000000E+00 -0.00000000000E+00 -0.45593999997E+02  0.45594000000E+02  0.51100000000E-03 0. -1.
    9900012    2    1    2    0    0 -0.81949340355E+01 -0.24543426625E+02 -0.31362857090E+02  0.50528861554E+02  0.30000005179E+02 0.  0.
        -12    1    1    2    0    0  0.81949340355E+01  0.24543426625E+02  0.31362857090E+02  0.40659138446E+02  0.00000000000E+00 0.  1.
         11    1    3    3    0    0  0.32331245143E+01 -0.23318737601E+01 -0.41971932770E+01  0.57885370366E+01  0.51100000000E-03 0. -1.
        -11    1    3    3    0    0 -0.16643911036E+02 -0.17942356911E+02 -0.28810745673E+02  0.37802209097E+02  0.51100000000E-03 0.  1.
         12    1    3    3    0    0  0.52158524867E+01 -0.42691959536E+01  0.16450818608E+01  0.69381154200E+01  0.00000000000E+00 0. -1.
</event>
<event>
 7    1  0.5601662E-013  0.5052886E+02  0.7816164E-02  0.1300439E+00
        -11   -1    0    0    0    0  0.00000000000E+00  0.00000000000E+00  0.45593999997E+02  0.45594000000E+02  0.51100000000E-03 0.  1.
         11   -1    0    0    0    0 -0.00000000000E+00 -0.00000000000E+00 -0.45593999997E+02  0.45594000000E+02  0.51100000000E-03 0. -1.
    9900012    2    1    2    0    0  0.33030734886E+01  0.36391389125E+02 -0.17830375929E+02  0.50528858314E+02  0.29999995330E+02 0.  0.
        -12    1    1    2    0    0 -0.33030734886E+01 -0.36391389125E+02  0.17830375929E+02  0.40659141686E+02  0.00000000000E+00 0.  1.
         11    1    3    3    0    0 -0.17011684486E+00 -0.79397260122E+00 -0.22733633619E+00  0.84321664077E+00  0.51100000000E-03 0. -1.
        -11    1    3    3    0    0  0.13865963338E+02  0.20464592880E+02 -0.16977447698E+02  0.29988301580E+02  0.51100000000E-03 0.  1.
        -12    1    3    3    0    0 -0.10392773005E+02  0.16720768846E+02 -0.62559189480E+00  0.19697340093E+02  0.00000000000E+00 0.  1.
</event>
<event>
 7    1  0.5601662E-013  0.5052885E+02  0.7816164E-02  0.1300439E+00
        -11   -1    0    0    0    0  0.00000000000E+00  0.00000000000E+00  0.45593999997E+02  0.45594000000E+02  0.51100000000E-03 0.  1.
         11   -1    0    0    0    0 -0.00000000000E+00 -0.00000000000E+00 -0.45593999997E+02  0.45594000000E+02  0.51100000000E-03 0. -1.
    9900012    2    1    2    0    0 -0.33643452300E+02  0.22643240173E+02  0.29271276423E+01  0.50528852389E+02  0.29999977321E+02 0.  0.
        -12    1    1    2    0    0  0.33643452300E+02 -0.22643240173E+02 -0.29271276423E+01  0.40659147611E+02  0.00000000000E+00 0.  1.
         11    1    3    3    0    0 -0.13129005063E+02  0.53697745448E+01  0.23743195860E+01  0.14382025113E+02  0.51100000000E-03 0. -1.
        -11    1    3    3    0    0 -0.17804791475E+02 -0.63502712415E+00 -0.16903725746E+01  0.17896123005E+02  0.51100000000E-03 0.  1.
        -12    1    3    3    0    0 -0.27096557625E+01  0.17908492753E+02  0.22431806309E+01  0.18250704270E+02  0.00000000000E+00 0.  1.
</event>
<event>
 7    1  0.5601662E-013  0.5052886E+02  0.7816164E-02  0.1300439E+00
        -11   -1    0    0    0    0  0.00000000000E+00  0.00000000000E+00  0.45593999997E+02  0.45594000000E+02  0.51100000000E-03 0.  1.
         11   -1    0    0    0    0 -0.00000000000E+00 -0.00000000000E+00 -0.45593999997E+02  0.45594000000E+02  0.51100000000E-03 0. -1.
    9900012    2    1    2    0    0 -0.10964520578E+02  0.37992699978E+01 -0.38968071893E+02  0.50528858456E+02  0.29999995763E+02 0.  0.
        -12    1    1    2    0    0  0.10964520578E+02 -0.37992699978E+01  0.38968071893E+02  0.40659141544E+02  0.00000000000E+00 0.  1.
         11    1    3    3    0    0 -0.78040298048E+01  0.80334917599E+00 -0.19505249445E+02  0.21023867562E+02  0.51100000000E-03 0. -1.
        -11    1    3    3    0    0 -0.11475702773E+02  0.62611206958E+01 -0.13321705952E+02  0.18664437742E+02  0.51100000000E-03 0.  1.
        -12    1    3    3    0    0  0.83152119997E+01 -0.32651998739E+01 -0.61411164961E+01  0.10840553152E+02  0.00000000000E+00 0.  1.
</event>
<event>
 7    1  0.5601662E-013  0.5052888E+02  0.7816164E-02  0.1300439E+00
        -11   -1    0    0    0    0  0.00000000000E+00  0.00000000000E+00  0.45593999997E+02  0.45594000000E+02  0.51100000000E-03 0. -1.
         11   -1    0    0    0    0 -0.00000000000E+00 -0.00000000000E+00 -0.45593999997E+02  0.45594000000E+02  0.51100000000E-03 0.  1.
    9900012    2    1    2    0    0 -0.27277523714E+02 -0.29409560789E+02  0.66466778459E+01  0.50528881808E+02  0.30000066745E+02 0.  0.
        -12    1    1    2    0    0  0.27277523714E+02  0.29409560789E+02 -0.66466778459E+01  0.40659118192E+02  0.00000000000E+00 0.  1.
         11    1    3    3    0    0 -0.12011502818E+02 -0.62629897465E+01 -0.11743990293E+01  0.13597075195E+02  0.51100000000E-03 0. -1.
        -11    1    3    3    0    0 -0.50154618282E+01  0.18091555980E+01 -0.47748652419E+01  0.71573207045E+01  0.51100000000E-03 0.  1.
         12    1    3    3    0    0 -0.10250559068E+02 -0.24955726640E+02  0.12595942117E+02  0.29774485909E+02  0.00000000000E+00 0. -1.
</event>
<event>
 7    1  0.5601662E-013  0.5052885E+02  0.7816164E-02  0.1300439E+00
        -11   -1    0    0    0    0  0.00000000000E+00  0.00000000000E+00  0.45593999997E+02  0.45594000000E+02  0.51100000000E-03 0. -1.
         11   -1    0    0    0    0 -0.00000000000E+00 -0.00000000000E+00 -0.45593999997E+02  0.45594000000E+02  0.51100000000E-03 0.  1.
    9900012    2    1    2    0    0 -0.68511875617E+01  0.30134768294E+02  0.26422020695E+02  0.50528853320E+02  0.29999980152E+02 0.  0.
        -12    1    1    2    0    0  0.68511875617E+01 -0.30134768294E+02 -0.26422020695E+02  0.40659146680E+02  0.00000000000E+00 0.  1.
         11    1    3    3    0    0  0.11422717280E+01  0.55990053485E+01  0.46856107739E+01  0.73897627958E+01  0.51100000000E-03 0. -1.
        -11    1    3    3    0    0 -0.10803666789E+01  0.20225084120E+02  0.35377931560E+00  0.20257008167E+02  0.51100000000E-03 0.  1.
        -12    1    3    3    0    0 -0.69130926107E+01  0.43106788252E+01  0.21382630606E+02  0.22882082357E+02  0.00000000000E+00 0.  1.
</event>
<event>
 7    1  0.5601662E-013  0.5052886E+02  0.7816164E-02  0.1300439E+00
        -11   -1    0    0    0    0  0.00000000000E+00  0.00000000000E+00  0.45593999997E+02  0.45594000000E+02  0.51100000000E-03 0.  1.
         11   -1    0    0    0    0 -0.00000000000E+00 -0.00000000000E+00 -0.45593999997E+02  0.45594000000E+02  0.51100000000E-03 0. -1.
    9900012    2    1    2    0    0 -0.18753272176E+02  0.16306945346E+02 -0.32180174518E+02  0.50528864300E+02  0.30000013527E+02 0.  0.
        -12    1    1    2    0    0  0.18753272176E+02 -0.16306945346E+02  0.32180174518E+02  0.40659135700E+02  0.00000000000E+00 0.  1.
         11    1    3    3    0    0 -0.11701541262E+00  0.40793693804E+01 -0.69257890273E+01  0.80387499687E+01  0.51100000000E-03 0. -1.
        -11    1    3    3    0    0 -0.28451986122E+01  0.16951889300E+02 -0.92679822838E+01  0.19528369155E+02  0.51100000000E-03 0.  1.
         12    1    3    3    0    0 -0.15791058151E+02 -0.47243133349E+01 -0.15986403207E+02  0.22961745176E+02  0.00000000000E+00 0. -1.
</event>
<event>
 7    1  0.5601662E-013  0.5052887E+02  0.7816164E-02  0.1300439E+00
        -11   -1    0    0    0    0  0.00000000000E+00  0.00000000000E+00  0.45593999997E+02  0.45594000000E+02  0.51100000000E-03 0.  1.
         11   -1    0    0    0    0 -0.00000000000E+00 -0.00000000000E+00 -0.45593999997E+02  0.45594000000E+02  0.51100000000E-03 0. -1.
    9900012    2    1    2    0    0 -0.36975022884E+01  0.18773842975E+02 -0.35875291508E+02  0.50528865184E+02  0.30000016213E+02 0.  0.
        -12    1    1    2    0    0  0.36975022884E+01 -0.18773842975E+02  0.35875291508E+02  0.40659134816E+02  0.00000000000E+00 0.  1.
         11    1    3    3    0    0 -0.56152001880E+01  0.75220336785E+01 -0.15252749785E+02  0.17909713568E+02  0.51100000000E-03 0. -1.
        -11    1    3    3    0    0 -0.11209819732E+01  0.22755077624E+01 -0.22762871055E+02  0.22903773381E+02  0.51100000000E-03 0.  1.
        -12    1    3    3    0    0  0.30386798728E+01  0.89763015342E+01  0.21403293323E+01  0.97153782352E+01  0.00000000000E+00 0.  1.
</event>
<event>
 7    1  0.5601662E-013  0.5052885E+02  0.7816164E-02  0.1300439E+00
        -11   -1    0    0    0    0  0.00000000000E+00  0.00000000000E+00  0.45593999997E+02  0.45594000000E+02  0.51100000000E-03 0.  1.
         11   -1    0    0    0    0 -0.00000000000E+00 -0.00000000000E+00 -0.45593999997E+02  0.45594000000E+02  0.51100000000E-03 0. -1.
    9900012    2    1    2    0    0  0.34801717260E+02  0.13029723198E+02  0.16499495801E+02  0.50528848847E+02  0.29999966554E+02 0.  0.
        -12    1    1    2    0    0 -0.34801717260E+02 -0.13029723198E+02 -0.16499495801E+02  0.40659151153E+02  0.00000000000E+00 0.  1.
         11    1    3    3    0    0  0.50755387899E+01 -0.27818161144E+01 -0.43850448444E+01  0.72614195204E+01  0.51100000000E-03 0. -1.
        -11    1    3    3    0    0  0.81087847563E+01  0.11441734596E+02  0.18703843216E+01  0.14147933367E+02  0.51100000000E-03 0.  1.
        -12    1    3    3    0    0  0.21617393713E+02  0.43698047166E+01  0.19014156323E+02  0.29119495959E+02  0.00000000000E+00 0.  1.
</event>
<event>
 7    1  0.5601662E-013  0.5052887E+02  0.7816164E-02  0.1300439E+00
        -11   -1    0    0    0    0  0.00000000000E+00  0.00000000000E+00  0.45593999997E+02  0.45594000000E+02  0.51100000000E-03 0. -1.
         11   -1    0    0    0    0 -0.00000000000E+00 -0.00000000000E+00 -0.45593999997E+02  0.45594000000E+02  0.51100000000E-03 0.  1.
    9900012    2    1    2    0    0  0.35768886177E+02 -0.13451455773E+02 -0.13885610551E+02  0.50528867433E+02  0.30000023049E+02 0.  0.
        -12    1    1    2    0    0 -0.35768886177E+02  0.13451455773E+02  0.13885610551E+02  0.40659132567E+02  0.00000000000E+00 0.  1.
         11    1    3    3    0    0  0.87476852452E+01 -0.75958601109E+01 -0.13856960007E+02  0.18061960826E+02  0.51100000000E-03 0. -1.
        -11    1    3    3    0    0  0.93290231895E+01 -0.15113779967E+01 -0.81890380781E+01  0.12505010277E+02  0.51100000000E-03 0.  1.
         12    1    3    3    0    0  0.17692177742E+02 -0.43442176655E+01  0.81603875341E+01  0.19961896330E+02  0.00000000000E+00 0. -1.
</event>
<event>
 7    1  0.5601662E-013  0.5052885E+02  0.7816164E-02  0.1300439E+00
        -11   -1    0    0    0    0  0.00000000000E+00  0.00000000000E+00  0.45593999997E+02  0.45594000000E+02  0.51100000000E-03 0.  1.
         11   -1    0    0    0    0 -0.00000000000E+00 -0.00000000000E+00 -0.45593999997E+02  0.45594000000E+02  0.51100000000E-03 0. -1.
    9900012    2    1    2    0    0 -0.21242842386E+02 -0.85406225296E+01 -0.33600084412E+02  0.50528852710E+02  0.29999978298E+02 0.  0.
        -12    1    1    2    0    0  0.21242842386E+02  0.85406225296E+01  0.33600084412E+02  0.40659147290E+02  0.00000000000E+00 0.  1.
         11    1    3    3    0    0 -0.75826651882E+01 -0.12616421606E+02 -0.33381033518E+01  0.15093503230E+02  0.51100000000E-03 0. -1.
        -11    1    3    3    0    0 -0.24411672461E+01 -0.31569120232E+00  0.39774954615E+00  0.24934240356E+01  0.51100000000E-03 0.  1.
        -12    1    3    3    0    0 -0.11219009951E+02  0.43914902787E+01 -0.30659730607E+02  0.32941925445E+02  0.00000000000E+00 0.  1.
</event>
<event>
 7    1  0.5601662E-013  0.5052886E+02  0.7816164E-02  0.1300439E+00
        -11   -1    0    0    0    0  0.00000000000E+00  0.00000000000E+00  0.45593999997E+02  0.45594000000E+02  0.51100000000E-03 0.  1.
         11   -1    0    0    0    0 -0.00000000000E+00 -0.00000000000E+00 -0.45593999997E+02  0.45594000000E+02  0.51100000000E-03 0. -1.
    9900012    2    1    2    0    0  0.20467702322E+02  0.79186668582E+01 -0.34227675970E+02  0.50528856803E+02  0.29999990740E+02 0.  0.
        -12    1    1    2    0    0 -0.20467702322E+02 -0.79186668582E+01  0.34227675970E+02  0.40659143197E+02  0.00000000000E+00 0.  1.
         11    1    3    3    0    0 -0.10530085323E+01  0.17271037301E+00  0.12828618592E+01  0.16686493499E+01  0.51100000000E-03 0. -1.
        -11    1    3    3    0    0 -0.36778624206E+01 -0.42442906455E+01 -0.68545013021E+01  0.88614255868E+01  0.51100000000E-03 0.  1.
         12    1    3    3    0    0  0.25198573275E+02  0.11990247131E+02 -0.28656036527E+02  0.39998781867E+02  0.00000000000E+00 0. -1.
</event>
<event>
 7    1  0.5601662E-013  0.5052886E+02  0.7816164E-02  0.1300439E+00
        -11   -1    0    0    0    0  0.00000000000E+00  0.00000000000E+00  0.45593999997E+02  0.45594000000E+02  0.51100000000E-03 0.  1.
         11   -1    0    0    0    0 -0.00000000000E+00 -0.00000000000E+00 -0.45593999997E+02  0.45594000000E+02  0.51100000000E-03 0. -1.
    9900012    2    1    2    0    0  0.24125610301E+02 -0.21274384044E+02 -0.24870091763E+02  0.50528856463E+02  0.29999989704E+02 0.  0.
        -12    1    1    2    0    0 -0.24125610301E+02  0.21274384044E+02  0.24870091763E+02  0.40659143537E+02  0.00000000000E+00 0.  1.
         11    1    3    3    0    0  0.18393499958E+02 -0.18323834718E+02 -0.58386291502E+01  0.26611526639E+02  0.51100000000E-03 0. -1.
        -11    1    3    3    0    0  0.78499482031E+01  0.15635380870E+01 -0.61176428121E+01  0.10074318437E+02  0.51100000000E-03 0.  1.
        -12    1    3    3    0    0 -0.21178378599E+01 -0.45140874133E+01 -0.12913819801E+02  0.13843011386E+02  0.00000000000E+00 0.  1.
</event>
<event>
 7    1  0.5601662E-013  0.5052878E+02  0.7816164E-02  0.1300439E+00
        -11   -1    0    0    0    0  0.00000000000E+00  0.00000000000E+00  0.45593999997E+02  0.45594000000E+02  0.51100000000E-03 0. -1.
         11   -1    0    0    0    0 -0.00000000000E+00 -0.00000000000E+00 -0.45593999997E+02  0.45594000000E+02  0.51100000000E-03 0.  1.
    9900012    2    1    2    0    0 -0.13929052542E+01  0.39843425349E+02 -0.79833058294E+01  0.50528783326E+02  0.29999767397E+02 0.  0.
        -12    1    1    2    0    0  0.13929052542E+01 -0.39843425349E+02  0.79833058294E+01  0.40659216674E+02  0.00000000000E+00 0.  1.
         11    1    3    3    0    0 -0.65704424300E+00  0.24814170049E+02  0.33855904300E+00  0.24825176028E+02  0.51100000000E-03 0. -1.
        -11    1    3    3    0    0  0.31850003923E+01  0.14087787008E+02  0.20382398484E+01  0.14586445497E+02  0.51100000000E-03 0.  1.
        -12    1    3    3    0    0 -0.39208614035E+01  0.94146829191E+00 -0.10360104721E+02  0.11117161801E+02  0.00000000000E+00 0.  1.
</event>
<event>
 7    1  0.5601662E-013  0.5052886E+02  0.7816164E-02  0.1300439E+00
        -11   -1    0    0    0    0  0.00000000000E+00  0.00000000000E+00  0.45593999997E+02  0.45594000000E+02  0.51100000000E-03 0. -1.
         11   -1    0    0    0    0 -0.00000000000E+00 -0.00000000000E+00 -0.45593999997E+02  0.45594000000E+02  0.51100000000E-03 0.  1.
    9900012    2    1    2    0    0  0.36114248510E+02  0.16447371048E+02  0.88549639156E+01  0.50528863932E+02  0.30000012407E+02 0.  0.
        -12    1    1    2    0    0 -0.36114248510E+02 -0.16447371048E+02 -0.88549639156E+01  0.40659136068E+02  0.00000000000E+00 0.  1.
         11    1    3    3    0    0  0.17794261561E+01  0.78154811915E+01 -0.39787375754E+00  0.80253602716E+01  0.51100000000E-03 0.  1.
        -11    1    3    3    0    0  0.10591489781E+02  0.13263899506E+02  0.12359324313E+01  0.17018760681E+02  0.51100000000E-03 0. -1.
        -12    1    3    3    0    0  0.23743332573E+02 -0.46320096489E+01  0.80169052418E+01  0.25484742979E+02  0.00000000000E+00 0.  1.
</event>
<event>
 7    1  0.5601662E-013  0.5052887E+02  0.7816164E-02  0.1300439E+00
        -11   -1    0    0    0    0  0.00000000000E+00  0.00000000000E+00  0.45593999997E+02  0.45594000000E+02  0.51100000000E-03 0. -1.
         11   -1    0    0    0    0 -0.00000000000E+00 -0.00000000000E+00 -0.45593999997E+02  0.45594000000E+02  0.51100000000E-03 0.  1.
    9900012    2    1    2    0    0  0.23129414876E+02  0.46867158199E+01  0.33109363262E+02  0.50528867283E+02  0.30000022593E+02 0.  0.
        -12    1    1    2    0    0 -0.23129414876E+02 -0.46867158199E+01 -0.33109363262E+02  0.40659132717E+02  0.00000000000E+00 0.  1.
         11    1    3    3    0    0  0.18455431870E+01 -0.60519292340E+00  0.49343047065E+01  0.53027965572E+01  0.51100000000E-03 0. -1.
        -11    1    3    3    0    0  0.19632832081E+02  0.89074137212E+00  0.33213044502E+01  0.19931697851E+02  0.51100000000E-03 0.  1.
        -12    1    3    3    0    0  0.16510396084E+01  0.44011673711E+01  0.24853754105E+02  0.25294372875E+02  0.00000000000E+00 0.  1.
</event>
<event>
 7    1  0.5601662E-013  0.5052887E+02  0.7816164E-02  0.1300439E+00
        -11   -1    0    0    0    0  0.00000000000E+00  0.00000000000E+00  0.45593999997E+02  0.45594000000E+02  0.51100000000E-03 0. -1.
         11   -1    0    0    0    0 -0.00000000000E+00 -0.00000000000E+00 -0.45593999997E+02  0.45594000000E+02  0.51100000000E-03 0.  1.
    9900012    2    1    2    0    0 -0.31896073866E+01 -0.12082931575E+02  0.38691003869E+02  0.50528872967E+02  0.30000039869E+02 0.  0.
        -12    1    1    2    0    0  0.31896073866E+01  0.12082931575E+02 -0.38691003869E+02  0.40659127033E+02  0.00000000000E+00 0.  1.
         11    1    3    3    0    0 -0.42043388751E+01  0.10603906808E+01  0.11362250349E+02  0.12161481284E+02  0.51100000000E-03 0. -1.
        -11    1    3    3    0    0 -0.75913814903E+01  0.98703454759E+00  0.16672930138E+01  0.78347416285E+01  0.51100000000E-03 0.  1.
         12    1    3    3    0    0  0.86061129789E+01 -0.14130356803E+02  0.25661460506E+02  0.30532650054E+02  0.00000000000E+00 0. -1.
</event>
<event>
 7    1  0.5601662E-013  0.5052883E+02  0.7816164E-02  0.1300439E+00
        -11   -1    0    0    0    0  0.00000000000E+00  0.00000000000E+00  0.45593999997E+02  0.45594000000E+02  0.51100000000E-03 0.  1.
         11   -1    0    0    0    0 -0.00000000000E+00 -0.00000000000E+00 -0.45593999997E+02  0.45594000000E+02  0.51100000000E-03 0. -1.
    9900012    2    1    2    0    0 -0.33281870518E+02 -0.36413196688E-01 -0.23355589513E+02  0.50528833843E+02  0.29999920949E+02 0.  0.
        -12    1    1    2    0    0  0.33281870518E+02  0.36413196688E-01  0.23355589513E+02  0.40659166157E+02  0.00000000000E+00 0.  1.
         11    1    3    3    0    0 -0.16883782875E+02 -0.28424134019E+01 -0.10142780166E+02  0.19900186629E+02  0.51100000000E-03 0. -1.
        -11    1    3    3    0    0 -0.10874380417E+02 -0.86179937533E+01 -0.11090828545E+02  0.17763120330E+02  0.51100000000E-03 0.  1.
         12    1    3    3    0    0 -0.55237072252E+01  0.11423993959E+02 -0.21219808027E+01  0.12865526884E+02  0.00000000000E+00 0. -1.
</event>
<event>
 7    1  0.5601662E-013  0.5052886E+02  0.7816164E-02  0.1300439E+00
        -11   -1    0    0    0    0  0.00000000000E+00  0.00000000000E+00  0.45593999997E+02  0.45594000000E+02  0.51100000000E-03 0.  1.
         11   -1    0    0    0    0 -0.00000000000E+00 -0.00000000000E+00 -0.45593999997E+02  0.45594000000E+02  0.51100000000E-03 0. -1.
    9900012    2    1    2    0    0  0.82663013876E+00  0.31091170815E+01 -0.40531665546E+02  0.50528857875E+02  0.29999993997E+02 0.  0.
        -12    1    1    2    0    0 -0.82663013876E+00 -0.31091170815E+01  0.40531665546E+02  0.40659142125E+02  0.00000000000E+00 0.  1.
         11    1    3    3    0    0  0.28754967589E+01 -0.67808696200E+01 -0.20508424686E+01  0.76455627332E+01  0.51100000000E-03 0. -1.
        -11    1    3    3    0    0 -0.82399668815E-01 -0.10071857208E+00  0.15613436831E+01  0.15667572543E+01  0.51100000000E-03 0.  1.
         12    1    3    3    0    0 -0.19664669513E+01  0.99907052736E+01 -0.40042166760E+02  0.41316537887E+02  0.00000000000E+00 0. -1.
</event>
<event>
 7    1  0.5601662E-013  0.5052886E+02  0.7816164E-02  0.1300439E+00
        -11   -1    0    0    0    0  0.00000000000E+00  0.00000000000E+00  0.45593999997E+02  0.45594000000E+02  0.51100000000E-03 0.  1.
         11   -1    0    0    0    0 -0.00000000000E+00 -0.00000000000E+00 -0.45593999997E+02  0.45594000000E+02  0.51100000000E-03 0. -1.
    9900012    2    1    2    0    0  0.34277769842E+02  0.17380577969E+02 -0.13270854622E+02  0.50528861073E+02  0.30000003717E+02 0.  0.
        -12    1    1    2    0    0 -0.34277769842E+02 -0.17380577969E+02  0.13270854622E+02  0.40659138927E+02  0.00000000000E+00 0.  1.
         11    1    3    3    0    0  0.17052525772E+02  0.51788001213E+01 -0.12653350254E+02  0.21856712443E+02  0.51100000000E-03 0. -1.
        -11    1    3    3    0    0  0.12193353854E+02  0.23250132308E-02 -0.69499973375E+01  0.14034968716E+02  0.51100000000E-03 0.  1.
         12    1    3    3    0    0  0.50318902168E+01  0.12199452834E+02  0.63324929701E+01  0.14637179914E+02  0.00000000000E+00 0. -1.
</event>
<event>
 7    1  0.5601662E-013  0.5052886E+02  0.7816164E-02  0.1300439E+00
        -11   -1    0    0    0    0  0.00000000000E+00  0.00000000000E+00  0.45593999997E+02  0.45594000000E+02  0.51100000000E-03 0.  1.
         11   -1    0    0    0    0 -0.00000000000E+00 -0.00000000000E+00 -0.45593999997E+02  0.45594000000E+02  0.51100000000E-03 0. -1.
    9900012    2    1    2    0    0 -0.23470321337E+02 -0.26930400011E+01 -0.33091643774E+02  0.50528864056E+02  0.30000012783E+02 0.  0.
        -12    1    1    2    0    0  0.23470321337E+02  0.26930400011E+01  0.33091643774E+02  0.40659135944E+02  0.00000000000E+00 0.  1.
         11    1    3    3    0    0 -0.13617094602E+02 -0.32137993821E+01 -0.21665299934E+02  0.25790288741E+02  0.51100000000E-03 0. -1.
        -11    1    3    3    0    0 -0.11087542580E+02 -0.35069894141E+01 -0.15162062513E+02  0.19108132172E+02  0.51100000000E-03 0.  1.
        -12    1    3    3    0    0  0.12343158445E+01  0.40277487951E+01  0.37357186739E+01  0.56304431416E+01  0.00000000000E+00 0.  1.
</event>
<event>
 7    1  0.5601662E-013  0.5052886E+02  0.7816164E-02  0.1300439E+00
        -11   -1    0    0    0    0  0.00000000000E+00  0.00000000000E+00  0.45593999997E+02  0.45594000000E+02  0.51100000000E-03 0. -1.
         11   -1    0    0    0    0 -0.00000000000E+00 -0.00000000000E+00 -0.45593999997E+02  0.45594000000E+02  0.51100000000E-03 0.  1.
    9900012    2    1    2    0    0  0.36157837777E+01 -0.35999059594E+02  0.18551535553E+02  0.50528860125E+02  0.30000000837E+02 0.  0.
        -12    1    1    2    0    0 -0.36157837777E+01  0.35999059594E+02 -0.18551535553E+02  0.40659139875E+02  0.00000000000E+00 0.  1.
         11    1    3    3    0    0  0.76503571733E+01 -0.14243346613E+02  0.13964678929E+02  0.21363827969E+02  0.51100000000E-03 0. -1.
        -11    1    3    3    0    0  0.37088736605E+01 -0.76405906122E+00  0.56087364891E+01  0.67673817200E+01  0.51100000000E-03 0.  1.
        -12    1    3    3    0    0 -0.77434470562E+01 -0.20991653920E+02 -0.10218798660E+01  0.22397650437E+02  0.00000000000E+00 0.  1.
</event>
<event>
 7    1  0.5601662E-013  0.5052886E+02  0.7816164E-02  0.1300439E+00
        -11   -1    0    0    0    0  0.00000000000E+00  0.00000000000E+00  0.45593999997E+02  0.45594000000E+02  0.51100000000E-03 0.  1.
         11   -1    0    0    0    0 -0.00000000000E+00 -0.00000000000E+00 -0.45593999997E+02  0.45594000000E+02  0.51100000000E-03 0. -1.
    9900012    2    1    2    0    0 -0.30112984608E+02  0.19933292765E+02 -0.18682544279E+02  0.50528862489E+02  0.30000008021E+02 0.  0.
        -12    1    1    2    0    0  0.30112984608E+02 -0.19933292765E+02  0.18682544279E+02  0.40659137511E+02  0.00000000000E+00 0.  1.
         11    1    3    3    0    0 -0.37411774774E+01 -0.19163165087E+01 -0.57424860589E+00  0.42424567884E+01  0.51100000000E-03 0. -1.
        -11    1    3    3    0    0 -0.22875823698E+02  0.10611234865E+02 -0.64266797126E+00  0.25225277751E+02  0.51100000000E-03 0.  1.
         12    1    3    3    0    0 -0.34959834324E+01  0.11238374408E+02 -0.17465627702E+02  0.21061127950E+02  0.00000000000E+00 0. -1.
</event>
<event>
 7    1  0.5601662E-013  0.5052885E+02  0.7816164E-02  0.1300439E+00
        -11   -1    0    0    0    0  0.00000000000E+00  0.00000000000E+00  0.45593999997E+02  0.45594000000E+02  0.51100000000E-03 0.  1.
         11   -1    0    0    0    0 -0.00000000000E+00 -0.00000000000E+00 -0.45593999997E+02  0.45594000000E+02  0.51100000000E-03 0. -1.
    9900012    2    1    2    0    0  0.54247378519E+01 -0.11235801288E+02 -0.38697485321E+02  0.50528851196E+02  0.29999973695E+02 0.  0.
        -12    1    1    2    0    0 -0.54247378519E+01  0.11235801288E+02  0.38697485321E+02  0.40659148804E+02  0.00000000000E+00 0.  1.
         11    1    3    3    0    0  0.56728480395E+01 -0.96116596697E+01 -0.16324178930E+02  0.19774833109E+02  0.51100000000E-03 0. -1.
        -11    1    3    3    0    0 -0.10126045081E+02 -0.35085437905E+01 -0.88316142028E+01  0.13886831107E+02  0.51100000000E-03 0.  1.
         12    1    3    3    0    0  0.98779348933E+01  0.18844021725E+01 -0.13541692188E+02  0.16867186980E+02  0.00000000000E+00 0. -1.
</event>
<event>
 7    1  0.5601662E-013  0.5052886E+02  0.7816164E-02  0.1300439E+00
        -11   -1    0    0    0    0  0.00000000000E+00  0.00000000000E+00  0.45593999997E+02  0.45594000000E+02  0.51100000000E-03 0.  1.
         11   -1    0    0    0    0 -0.00000000000E+00 -0.00000000000E+00 -0.45593999997E+02  0.45594000000E+02  0.51100000000E-03 0. -1.
    9900012    2    1    2    0    0 -0.83028072237E+01  0.37458588149E+02 -0.13456707052E+02  0.50528863283E+02  0.30000010436E+02 0.  0.
        -12    1    1    2    0    0  0.83028072237E+01 -0.37458588149E+02  0.13456707052E+02  0.40659136717E+02  0.00000000000E+00 0.  1.
         11    1    3    3    0    0  0.60130735799E+01  0.10075198326E+02 -0.77562675931E+00  0.11758753008E+02  0.51100000000E-03 0. -1.
        -11    1    3    3    0    0 -0.27247622308E+01 -0.22792013576E+01 -0.47840924786E+01  0.59587439237E+01  0.51100000000E-03 0.  1.
         12    1    3    3    0    0 -0.11591118573E+02  0.29662591181E+02 -0.78969878136E+01  0.32811366351E+02  0.00000000000E+00 0. -1.
</event>
<event>
 7    1  0.5601662E-013  0.5052885E+02  0.7816164E-02  0.1300439E+00
        -11   -1    0    0    0    0  0.00000000000E+00  0.00000000000E+00  0.45593999997E+02  0.45594000000E+02  0.51100000000E-03 0. -1.
         11   -1    0    0    0    0 -0.00000000000E+00 -0.00000000000E+00 -0.45593999997E+02  0.45594000000E+02  0.51100000000E-03 0.  1.
    9900012    2    1    2    0    0 -0.17327792173E+02 -0.60827465418E+01  0.36275532990E+02  0.50528849975E+02  0.29999969983E+02 0.  0.
        -12    1    1    2    0    0  0.17327792173E+02  0.60827465418E+01 -0.36275532990E+02  0.40659150025E+02  0.00000000000E+00 0.  1.
         11    1    3    3    0    0 -0.26234597509E+01  0.48084271797E+01 -0.17256950912E+01  0.57429554078E+01  0.51100000000E-03 0. -1.
        -11    1    3    3    0    0 -0.41133209932E+01 -0.16850818593E+00  0.23500758582E+00  0.41234734665E+01  0.51100000000E-03 0.  1.
         12    1    3    3    0    0 -0.10591011429E+02 -0.10722665536E+02  0.37766220495E+02  0.40662421101E+02  0.00000000000E+00 0. -1.
</event>
<event>
 7    1  0.5601662E-013  0.5052886E+02  0.7816164E-02  0.1300439E+00
        -11   -1    0    0    0    0  0.00000000000E+00  0.00000000000E+00  0.45593999997E+02  0.45594000000E+02  0.51100000000E-03 0.  1.
         11   -1    0    0    0    0 -0.00000000000E+00 -0.00000000000E+00 -0.45593999997E+02  0.45594000000E+02  0.51100000000E-03 0. -1.
    9900012    2    1    2    0    0 -0.34639013700E+02 -0.41824262112E+01 -0.20876098283E+02  0.50528862790E+02  0.30000008938E+02 0.  0.
        -12    1    1    2    0    0  0.34639013700E+02  0.41824262112E+01  0.20876098283E+02  0.40659137210E+02  0.00000000000E+00 0.  1.
         11    1    3    3    0    0 -0.16103823598E+02 -0.14040177601E+02 -0.11401888200E+02  0.24216993544E+02  0.51100000000E-03 0.  1.
        -11    1    3    3    0    0 -0.94803625748E+01 -0.18221245890E+01 -0.49934785663E+01  0.10868865673E+02  0.51100000000E-03 0. -1.
         12    1    3    3    0    0 -0.90548275276E+01  0.11679875979E+02 -0.44807315167E+01  0.15443003573E+02  0.00000000000E+00 0. -1.
</event>
<event>
 7    1  0.5601662E-013  0.5052885E+02  0.7816164E-02  0.1300439E+00
        -11   -1    0    0    0    0  0.00000000000E+00  0.00000000000E+00  0.45593999997E+02  0.45594000000E+02  0.51100000000E-03 0.  1.
         11   -1    0    0    0    0 -0.00000000000E+00 -0.00000000000E+00 -0.45593999997E+02  0.45594000000E+02  0.51100000000E-03 0. -1.
    9900012    2    1    2    0    0  0.40537597964E+02  0.17756092150E+01 -0.25916942049E+01  0.50528849546E+02  0.29999968680E+02 0.  0.
        -12    1    1    2    0    0 -0.40537597964E+02 -0.17756092150E+01  0.25916942049E+01  0.40659150454E+02  0.00000000000E+00 0.  1.
         11    1    3    3    0    0  0.15349014829E+02  0.41951605949E+01 -0.19407112287E+01  0.16029909201E+02  0.51100000000E-03 0.  1.
        -11    1    3    3    0    0  0.20276159726E+02  0.43150492607E+01 -0.90913283063E+01  0.22636133813E+02  0.51100000000E-03 0. -1.
         12    1    3    3    0    0  0.49124234087E+01 -0.67346006406E+01  0.84403453301E+01  0.11862806532E+02  0.00000000000E+00 0. -1.
</event>
<event>
 7    1  0.5601662E-013  0.5052885E+02  0.7816164E-02  0.1300439E+00
        -11   -1    0    0    0    0  0.00000000000E+00  0.00000000000E+00  0.45593999997E+02  0.45594000000E+02  0.51100000000E-03 0.  1.
         11   -1    0    0    0    0 -0.00000000000E+00 -0.00000000000E+00 -0.45593999997E+02  0.45594000000E+02  0.51100000000E-03 0. -1.
    9900012    2    1    2    0    0 -0.44110533383E+01 -0.35013110455E+02 -0.20193831981E+02  0.50528854099E+02  0.29999982520E+02 0.  0.
        -12    1    1    2    0    0  0.44110533383E+01  0.35013110455E+02  0.20193831981E+02  0.40659145901E+02  0.00000000000E+00 0.  1.
         11    1    3    3    0    0 -0.68466738564E+01 -0.26468124812E+02 -0.94555529296E+01  0.28928291609E+02  0.51100000000E-03 0. -1.
        -11    1    3    3    0    0  0.65658929248E+01 -0.91040896415E+01 -0.13210775082E+01  0.11302240669E+02  0.51100000000E-03 0.  1.
         12    1    3    3    0    0 -0.41302724068E+01  0.55910399784E+00 -0.94172015428E+01  0.10298321821E+02  0.00000000000E+00 0. -1.
</event>
<event>
 7    1  0.5601662E-013  0.5052886E+02  0.7816164E-02  0.1300439E+00
        -11   -1    0    0    0    0  0.00000000000E+00  0.00000000000E+00  0.45593999997E+02  0.45594000000E+02  0.51100000000E-03 0. -1.
         11   -1    0    0    0    0 -0.00000000000E+00 -0.00000000000E+00 -0.45593999997E+02  0.45594000000E+02  0.51100000000E-03 0.  1.
    9900012    2    1    2    0    0 -0.12325428626E+02  0.37310202829E+02  0.10449790968E+02  0.50528861332E+02  0.30000004504E+02 0.  0.
        -12    1    1    2    0    0  0.12325428626E+02 -0.37310202829E+02 -0.10449790968E+02  0.40659138668E+02  0.00000000000E+00 0.  1.
         11    1    3    3    0    0 -0.20113892637E+01  0.15720237293E+01  0.17739500405E+01  0.31086724470E+01  0.51100000000E-03 0. -1.
        -11    1    3    3    0    0 -0.72762914174E+01  0.30440795264E+01 -0.74407195551E+01  0.10843207307E+02  0.51100000000E-03 0.  1.
         12    1    3    3    0    0 -0.30377479449E+01  0.32694099574E+02  0.16116560483E+02  0.36576981577E+02  0.00000000000E+00 0. -1.
</event>
<event>
 7    1  0.5601662E-013  0.5052885E+02  0.7816164E-02  0.1300439E+00
        -11   -1    0    0    0    0  0.00000000000E+00  0.00000000000E+00  0.45593999997E+02  0.45594000000E+02  0.51100000000E-03 0.  1.
         11   -1    0    0    0    0 -0.00000000000E+00 -0.00000000000E+00 -0.45593999997E+02  0.45594000000E+02  0.51100000000E-03 0. -1.
    9900012    2    1    2    0    0  0.23536900569E+02  0.20816956528E+02 -0.25803785546E+02  0.50528847082E+02  0.29999961191E+02 0.  0.
        -12    1    1    2    0    0 -0.23536900569E+02 -0.20816956528E+02  0.25803785546E+02  0.40659152918E+02  0.00000000000E+00 0.  1.
         11    1    3    3    0    0  0.21973964034E+02  0.72639232652E+01 -0.13791875220E+02  0.26941334394E+02  0.51100000000E-03 0. -1.
        -11    1    3    3    0    0  0.68820491386E+01  0.47283094294E+01 -0.84392320804E+00  0.83923606363E+01  0.51100000000E-03 0.  1.
         12    1    3    3    0    0 -0.53191126036E+01  0.88247238333E+01 -0.11167987118E+02  0.15195152052E+02  0.00000000000E+00 0. -1.
</event>
<event>
 7    1  0.5601662E-013  0.5052885E+02  0.7816164E-02  0.1300439E+00
        -11   -1    0    0    0    0  0.00000000000E+00  0.00000000000E+00  0.45593999997E+02  0.45594000000E+02  0.51100000000E-03 0. -1.
         11   -1    0    0    0    0 -0.00000000000E+00 -0.00000000000E+00 -0.45593999997E+02  0.45594000000E+02  0.51100000000E-03 0.  1.
    9900012    2    1    2    0    0  0.24558546678E+02 -0.12884800940E+00  0.32404126239E+02  0.50528853254E+02  0.29999979952E+02 0.  0.
        -12    1    1    2    0    0 -0.24558546678E+02  0.12884800940E+00 -0.32404126239E+02  0.40659146746E+02  0.00000000000E+00 0.  1.
         11    1    3    3    0    0  0.13110906708E+02 -0.88274407094E+00  0.10612199392E+02  0.16890644985E+02  0.51100000000E-03 0. -1.
        -11    1    3    3    0    0  0.29268976403E+01  0.10374349270E+01 -0.47978530859E+01  0.57151024068E+01  0.51100000000E-03 0.  1.
         12    1    3    3    0    0  0.85207423304E+01 -0.28353886551E+00  0.26589779933E+02  0.27923105863E+02  0.00000000000E+00 0. -1.
</event>
<event>
 7    1  0.5601662E-013  0.5052886E+02  0.7816164E-02  0.1300439E+00
        -11   -1    0    0    0    0  0.00000000000E+00  0.00000000000E+00  0.45593999997E+02  0.45594000000E+02  0.51100000000E-03 0. -1.
         11   -1    0    0    0    0 -0.00000000000E+00 -0.00000000000E+00 -0.45593999997E+02  0.45594000000E+02  0.51100000000E-03 0.  1.
    9900012    2    1    2    0    0 -0.18433349222E+02 -0.36191890415E+02  0.18773374410E+01  0.50528859685E+02  0.29999999498E+02 0.  0.
        -12    1    1    2    0    0  0.18433349222E+02  0.36191890415E+02 -0.18773374410E+01  0.40659140315E+02  0.00000000000E+00 0.  1.
         11    1    3    3    0    0 -0.17487161367E+02 -0.35010888022E+02  0.27045156058E+01  0.39228529130E+02  0.51100000000E-03 0. -1.
        -11    1    3    3    0    0  0.10368125296E+01 -0.28080853752E+01 -0.53329313303E+01  0.61155932281E+01  0.51100000000E-03 0.  1.
        -12    1    3    3    0    0 -0.19830003840E+01  0.16270829828E+01  0.45057531656E+01  0.51847373265E+01  0.00000000000E+00 0.  1.
</event>
<event>
 7    1  0.5601662E-013  0.5052887E+02  0.7816164E-02  0.1300439E+00
        -11   -1    0    0    0    0  0.00000000000E+00  0.00000000000E+00  0.45593999997E+02  0.45594000000E+02  0.51100000000E-03 0.  1.
         11   -1    0    0    0    0 -0.00000000000E+00 -0.00000000000E+00 -0.45593999997E+02  0.45594000000E+02  0.51100000000E-03 0. -1.
    9900012    2    1    2    0    0  0.27103669382E+02 -0.12129381132E+02 -0.27774705955E+02  0.50528867306E+02  0.30000022662E+02 0.  0.
        -12    1    1    2    0    0 -0.27103669382E+02  0.12129381132E+02  0.27774705955E+02  0.40659132694E+02  0.00000000000E+00 0.  1.
         11    1    3    3    0    0  0.12338755740E+02  0.58031251342E+01 -0.11555960891E+02  0.17873482787E+02  0.51100000000E-03 0. -1.
        -11    1    3    3    0    0  0.35121528707E+00  0.27362441220E+01 -0.34172233787E+01  0.43917877857E+01  0.51100000000E-03 0.  1.
         12    1    3    3    0    0  0.14413698355E+02 -0.20668750389E+02 -0.12801521684E+02  0.28263596733E+02  0.00000000000E+00 0. -1.
</event>
<event>
 7    1  0.5601662E-013  0.5052885E+02  0.7816164E-02  0.1300439E+00
        -11   -1    0    0    0    0  0.00000000000E+00  0.00000000000E+00  0.45593999997E+02  0.45594000000E+02  0.51100000000E-03 0. -1.
         11   -1    0    0    0    0 -0.00000000000E+00 -0.00000000000E+00 -0.45593999997E+02  0.45594000000E+02  0.51100000000E-03 0.  1.
    9900012    2    1    2    0    0  0.15354671617E+02 -0.33817372422E+02  0.16546468742E+02  0.50528852864E+02  0.29999978766E+02 0.  0.
        -12    1    1    2    0    0 -0.15354671617E+02  0.33817372422E+02 -0.16546468742E+02  0.40659147136E+02  0.00000000000E+00 0.  1.
         11    1    3    3    0    0  0.38389625616E+01 -0.48622585148E+01  0.28916028733E+01  0.68367067257E+01  0.51100000000E-03 0. -1.
        -11    1    3    3    0    0  0.98386213142E+01 -0.36450712364E+01 -0.55563998972E+01  0.11872598442E+02  0.51100000000E-03 0.  1.
        -12    1    3    3    0    0  0.16770877408E+01 -0.25310042671E+02  0.19211265766E+02  0.31819547697E+02  0.00000000000E+00 0.  1.
</event>
<event>
 7    1  0.5601662E-013  0.5052885E+02  0.7816164E-02  0.1300439E+00
        -11   -1    0    0    0    0  0.00000000000E+00  0.00000000000E+00  0.45593999997E+02  0.45594000000E+02  0.51100000000E-03 0.  1.
         11   -1    0    0    0    0 -0.00000000000E+00 -0.00000000000E+00 -0.45593999997E+02  0.45594000000E+02  0.51100000000E-03 0. -1.
    9900012    2    1    2    0    0  0.70208544489E+01 -0.51856967192E+01 -0.39711236660E+02  0.50528853862E+02  0.29999981798E+02 0.  0.
        -12    1    1    2    0    0 -0.70208544489E+01  0.51856967192E+01  0.39711236660E+02  0.40659146138E+02  0.00000000000E+00 0.  1.
         11    1    3    3    0    0  0.62010802659E+01  0.44813409915E+01 -0.14340790217E+01  0.77841117957E+01  0.51100000000E-03 0. -1.
        -11    1    3    3    0    0 -0.16890079462E+01  0.13106779032E+01  0.63962316138E+00  0.22315336560E+01  0.51100000000E-03 0.  1.
         12    1    3    3    0    0  0.25087821291E+01 -0.10977715614E+02 -0.38916780799E+02  0.40513208410E+02  0.00000000000E+00 0. -1.
</event>
<event>
 7    1  0.5601662E-013  0.5052885E+02  0.7816164E-02  0.1300439E+00
        -11   -1    0    0    0    0  0.00000000000E+00  0.00000000000E+00  0.45593999997E+02  0.45594000000E+02  0.51100000000E-03 0. -1.
         11   -1    0    0    0    0 -0.00000000000E+00 -0.00000000000E+00 -0.45593999997E+02  0.45594000000E+02  0.51100000000E-03 0.  1.
    9900012    2    1    2    0    0 -0.22186194543E+02  0.31388306067E+02  0.13255706022E+02  0.50528846932E+02  0.29999960734E+02 0.  0.
        -12    1    1    2    0    0  0.22186194543E+02 -0.31388306067E+02 -0.13255706022E+02  0.40659153068E+02  0.00000000000E+00 0.  1.
         11    1    3    3    0    0 -0.11636759100E+02  0.55119181954E+01  0.32284352600E+01  0.13274720300E+02  0.51100000000E-03 0. -1.
        -11    1    3    3    0    0 -0.16206625877E+02  0.10100489488E+02  0.46704726025E+01  0.19659296142E+02  0.51100000000E-03 0.  1.
        -12    1    3    3    0    0  0.56571904346E+01  0.15775898384E+02  0.53567981599E+01  0.17594830490E+02  0.00000000000E+00 0.  1.
</event>
<event>
 7    1  0.5601662E-013  0.5052886E+02  0.7816164E-02  0.1300439E+00
        -11   -1    0    0    0    0  0.00000000000E+00  0.00000000000E+00  0.45593999997E+02  0.45594000000E+02  0.51100000000E-03 0.  1.
         11   -1    0    0    0    0 -0.00000000000E+00 -0.00000000000E+00 -0.45593999997E+02  0.45594000000E+02  0.51100000000E-03 0. -1.
    9900012    2    1    2    0    0  0.37227506429E+02  0.89934327309E+01 -0.13652724113E+02  0.50528856589E+02  0.29999990088E+02 0.  0.
        -12    1    1    2    0    0 -0.37227506429E+02 -0.89934327309E+01  0.13652724113E+02  0.40659143411E+02  0.00000000000E+00 0.  1.
         11    1    3    3    0    0  0.26240641736E+02  0.71239953464E+01 -0.53914314743E+01  0.27719850685E+02  0.51100000000E-03 0. -1.
        -11    1    3    3    0    0  0.13837901960E+02  0.42486266578E+01 -0.82715817612E+00  0.14499053419E+02  0.51100000000E-03 0.  1.
         12    1    3    3    0    0 -0.28510372669E+01 -0.23791892734E+01 -0.74341344623E+01  0.83099524848E+01  0.00000000000E+00 0. -1.
</event>
<event>
 7    1  0.5601662E-013  0.5052886E+02  0.7816164E-02  0.1300439E+00
        -11   -1    0    0    0    0  0.00000000000E+00  0.00000000000E+00  0.45593999997E+02  0.45594000000E+02  0.51100000000E-03 0.  1.
         11   -1    0    0    0    0 -0.00000000000E+00 -0.00000000000E+00 -0.45593999997E+02  0.45594000000E+02  0.51100000000E-03 0. -1.
    9900012    2    1    2    0    0 -0.36507747148E+02 -0.40911644334E+01 -0.17424481667E+02  0.50528858474E+02  0.29999995818E+02 0.  0.
        -12    1    1    2    0    0  0.36507747148E+02  0.40911644334E+01  0.17424481667E+02  0.40659141526E+02  0.00000000000E+00 0.  1.
         11    1    3    3    0    0 -0.11485230027E+02  0.12114175592E+00 -0.10348205101E+02  0.15459965497E+02  0.51100000000E-03 0. -1.
        -11    1    3    3    0    0 -0.45630147315E+01  0.64978681523E+01  0.46161053526E+01  0.91843248447E+01  0.51100000000E-03 0.  1.
         12    1    3    3    0    0 -0.20459502390E+02 -0.10710174342E+02 -0.11692381919E+02  0.25884568132E+02  0.00000000000E+00 0. -1.
</event>
<event>
 7    1  0.5601662E-013  0.5052886E+02  0.7816164E-02  0.1300439E+00
        -11   -1    0    0    0    0  0.00000000000E+00  0.00000000000E+00  0.45593999997E+02  0.45594000000E+02  0.51100000000E-03 0.  1.
         11   -1    0    0    0    0 -0.00000000000E+00 -0.00000000000E+00 -0.45593999997E+02  0.45594000000E+02  0.51100000000E-03 0. -1.
    9900012    2    1    2    0    0 -0.34983130286E+02  0.82248686652E+01 -0.19018355628E+02  0.50528859331E+02  0.29999998422E+02 0.  0.
        -12    1    1    2    0    0  0.34983130286E+02 -0.82248686652E+01  0.19018355628E+02  0.40659140669E+02  0.00000000000E+00 0.  1.
         11    1    3    3    0    0 -0.17624533979E+02 -0.56783217081E+01 -0.77712214713E+01  0.20081320146E+02  0.51100000000E-03 0. -1.
        -11    1    3    3    0    0  0.53484265039E+00 -0.33007119593E+01 -0.23153045722E+01  0.40671109675E+01  0.51100000000E-03 0.  1.
        -12    1    3    3    0    0 -0.17893438957E+02  0.17203902333E+02 -0.89318295847E+01  0.26380428217E+02  0.00000000000E+00 0.  1.
</event>
<event>
 7    1  0.5601662E-013  0.5052886E+02  0.7816164E-02  0.1300439E+00
        -11   -1    0    0    0    0  0.00000000000E+00  0.00000000000E+00  0.45593999997E+02  0.45594000000E+02  0.51100000000E-03 0.  1.
         11   -1    0    0    0    0 -0.00000000000E+00 -0.00000000000E+00 -0.45593999997E+02  0.45594000000E+02  0.51100000000E-03 0. -1.
    9900012    2    1    2    0    0  0.20052093921E+02 -0.88390922446E+01 -0.34248351708E+02  0.50528860597E+02  0.30000002270E+02 0.  0.
        -12    1    1    2    0    0 -0.20052093921E+02  0.88390922446E+01  0.34248351708E+02  0.40659139403E+02  0.00000000000E+00 0.  1.
         11    1    3    3    0    0  0.68825475898E+01  0.13088484007E+01 -0.57358059105E+01  0.90543920373E+01  0.51100000000E-03 0. -1.
        -11    1    3    3    0    0  0.13681663466E+02  0.33717524955E+01 -0.22768698474E+02  0.26776300352E+02  0.51100000000E-03 0.  1.
        -12    1    3    3    0    0 -0.51211713464E+00 -0.13519693141E+02 -0.57438473231E+01  0.14698168207E+02  0.00000000000E+00 0.  1.
</event>
<event>
 7    1  0.5601662E-013  0.5052887E+02  0.7816164E-02  0.1300439E+00
        -11   -1    0    0    0    0  0.00000000000E+00  0.00000000000E+00  0.45593999997E+02  0.45594000000E+02  0.51100000000E-03 0.  1.
         11   -1    0    0    0    0 -0.00000000000E+00 -0.00000000000E+00 -0.45593999997E+02  0.45594000000E+02  0.51100000000E-03 0. -1.
    9900012    2    1    2    0    0 -0.27929445444E+02 -0.25328290132E+02 -0.15218048647E+02  0.50528865621E+02  0.30000017541E+02 0.  0.
        -12    1    1    2    0    0  0.27929445444E+02  0.25328290132E+02  0.15218048647E+02  0.40659134379E+02  0.00000000000E+00 0.  1.
         11    1    3    3    0    0  0.85278809496E+00 -0.10857020429E+02 -0.11047204588E+02  0.15512668036E+02  0.51100000000E-03 0. -1.
        -11    1    3    3    0    0 -0.46372744239E+01 -0.67464941254E+01  0.29214790116E+01  0.86922112803E+01  0.51100000000E-03 0.  1.
        -12    1    3    3    0    0 -0.24144959115E+02 -0.77247755778E+01 -0.70923230702E+01  0.26323986304E+02  0.00000000000E+00 0.  1.
</event>
<event>
 7    1  0.5601662E-013  0.5052887E+02  0.7816164E-02  0.1300439E+00
        -11   -1    0    0    0    0  0.00000000000E+00  0.00000000000E+00  0.45593999997E+02  0.45594000000E+02  0.51100000000E-03 0. -1.
         11   -1    0    0    0    0 -0.00000000000E+00 -0.00000000000E+00 -0.45593999997E+02  0.45594000000E+02  0.51100000000E-03 0.  1.
    9900012    2    1    2    0    0 -0.72224432411E+01 -0.35889510464E+02 -0.17690219116E+02  0.50528874332E+02  0.30000044019E+02 0.  0.
        -12    1    1    2    0    0  0.72224432411E+01  0.35889510464E+02  0.17690219116E+02  0.40659125668E+02  0.00000000000E+00 0.  1.
         11    1    3    3    0    0  0.19372380841E+01 -0.33878760660E+01 -0.12226243982E+00  0.39045542638E+01  0.51100000000E-03 0.  1.
        -11    1    3    3    0    0  0.48603065817E+01 -0.18850298095E+02 -0.18739680122E+02  0.27020953530E+02  0.51100000000E-03 0. -1.
         12    1    3    3    0    0 -0.14019987907E+02 -0.13651336303E+02  0.11717234462E+01  0.19603366538E+02  0.00000000000E+00 0. -1.
</event>
<event>
 7    1  0.5601662E-013  0.5052894E+02  0.7816164E-02  0.1300438E+00
        -11   -1    0    0    0    0  0.00000000000E+00  0.00000000000E+00  0.45593999997E+02  0.45594000000E+02  0.51100000000E-03 0.  1.
         11   -1    0    0    0    0 -0.00000000000E+00 -0.00000000000E+00 -0.45593999997E+02  0.45594000000E+02  0.51100000000E-03 0. -1.
    9900012    2    1    2    0    0 -0.26520559882E+02 -0.29282296893E+02 -0.96107148224E+01  0.50528943848E+02  0.30000255319E+02 0.  0.
        -12    1    1    2    0    0  0.26520559882E+02  0.29282296893E+02  0.96107148224E+01  0.40659056152E+02  0.00000000000E+00 0.  1.
         11    1    3    3    0    0 -0.24716969482E+02 -0.15926022749E+02  0.11344864803E+01  0.29425394489E+02  0.51100000000E-03 0. -1.
        -11    1    3    3    0    0 -0.71733124140E+00 -0.10191584564E+02 -0.39332180791E+00  0.10224366110E+02  0.51100000000E-03 0.  1.
        -12    1    3    3    0    0 -0.10862591586E+01 -0.31646895798E+01 -0.10351879495E+02  0.10879183249E+02  0.00000000000E+00 0.  1.
</event>
<event>
 7    1  0.5601662E-013  0.5052886E+02  0.7816164E-02  0.1300439E+00
        -11   -1    0    0    0    0  0.00000000000E+00  0.00000000000E+00  0.45593999997E+02  0.45594000000E+02  0.51100000000E-03 0.  1.
         11   -1    0    0    0    0 -0.00000000000E+00 -0.00000000000E+00 -0.45593999997E+02  0.45594000000E+02  0.51100000000E-03 0. -1.
    9900012    2    1    2    0    0  0.25149561501E+02 -0.31941932082E+02  0.61482008149E+00  0.50528862373E+02  0.30000007668E+02 0.  0.
        -12    1    1    2    0    0 -0.25149561501E+02  0.31941932082E+02 -0.61482008149E+00  0.40659137627E+02  0.00000000000E+00 0.  1.
         11    1    3    3    0    0  0.18335050930E+01  0.46662105660E+01 -0.10435729887E+01  0.51209673711E+01  0.51100000000E-03 0.  1.
        -11    1    3    3    0    0  0.29150952573E+01 -0.28046891437E+00 -0.20564832709E+01  0.35784866739E+01  0.51100000000E-03 0. -1.
         12    1    3    3    0    0  0.20400961151E+02 -0.36327673734E+02  0.37148763411E+01  0.41829408328E+02  0.00000000000E+00 0. -1.
</event>
<event>
 7    1  0.5601662E-013  0.5052887E+02  0.7816164E-02  0.1300439E+00
        -11   -1    0    0    0    0  0.00000000000E+00  0.00000000000E+00  0.45593999997E+02  0.45594000000E+02  0.51100000000E-03 0. -1.
         11   -1    0    0    0    0 -0.00000000000E+00 -0.00000000000E+00 -0.45593999997E+02  0.45594000000E+02  0.51100000000E-03 0.  1.
    9900012    2    1    2    0    0  0.19303983541E+02  0.23374504218E+02  0.27095264838E+02  0.50528873047E+02  0.30000040113E+02 0.  0.
        -12    1    1    2    0    0 -0.19303983541E+02 -0.23374504218E+02 -0.27095264838E+02  0.40659126953E+02  0.00000000000E+00 0.  1.
         11    1    3    3    0    0  0.78453718114E+01 -0.11146422582E+01  0.91899243166E+01  0.12134537298E+02  0.51100000000E-03 0. -1.
        -11    1    3    3    0    0  0.13616194769E+02  0.11648875300E+02  0.17964928530E+02  0.25373917969E+02  0.51100000000E-03 0.  1.
        -12    1    3    3    0    0 -0.21575830397E+01  0.12840271176E+02 -0.59588008804E-01  0.13020417780E+02  0.00000000000E+00 0.  1.
</event>
<event>
 7    1  0.5601662E-013  0.5052885E+02  0.7816164E-02  0.1300439E+00
        -11   -1    0    0    0    0  0.00000000000E+00  0.00000000000E+00  0.45593999997E+02  0.45594000000E+02  0.51100000000E-03 0. -1.
         11   -1    0    0    0    0 -0.00000000000E+00 -0.00000000000E+00 -0.45593999997E+02  0.45594000000E+02  0.51100000000E-03 0.  1.
    9900012    2    1    2    0    0  0.19208196030E+02  0.35123169959E+02 -0.71115766767E+01  0.50528851146E+02  0.29999973544E+02 0.  0.
        -12    1    1    2    0    0 -0.19208196030E+02 -0.35123169959E+02  0.71115766767E+01  0.40659148854E+02  0.00000000000E+00 0.  1.
         11    1    3    3    0    0  0.51878845979E+00  0.59033749932E+01 -0.28270965420E+01  0.65659312284E+01  0.51100000000E-03 0. -1.
        -11    1    3    3    0    0  0.15134722828E+02  0.78398713463E+01 -0.12122257984E+02  0.20915844633E+02  0.51100000000E-03 0.  1.
         12    1    3    3    0    0  0.35546847419E+01  0.21379923619E+02  0.78377778493E+01  0.23047075285E+02  0.00000000000E+00 0. -1.
</event>
<event>
 7    1  0.5601662E-013  0.5052884E+02  0.7816164E-02  0.1300439E+00
        -11   -1    0    0    0    0  0.00000000000E+00  0.00000000000E+00  0.45593999997E+02  0.45594000000E+02  0.51100000000E-03 0. -1.
         11   -1    0    0    0    0 -0.00000000000E+00 -0.00000000000E+00 -0.45593999997E+02  0.45594000000E+02  0.51100000000E-03 0.  1.
    9900012    2    1    2    0    0  0.14324232020E+02  0.38040413329E+02  0.95418537116E+00  0.50528841882E+02  0.29999945384E+02 0.  0.
        -12    1    1    2    0    0 -0.14324232020E+02 -0.38040413329E+02 -0.95418537116E+00  0.40659158118E+02  0.00000000000E+00 0.  1.
         11    1    3    3    0    0 -0.14508403414E+01  0.15510049429E+02  0.10651454130E+01  0.15614131612E+02  0.51100000000E-03 0.  1.
        -11    1    3    3    0    0  0.25542079252E-01  0.17609594723E+02 -0.37814247041E+01  0.18011042495E+02  0.51100000000E-03 0. -1.
        -12    1    3    3    0    0  0.15749530282E+02  0.49207691763E+01  0.36704646623E+01  0.16903667774E+02  0.00000000000E+00 0.  1.
</event>
<event>
 7    1  0.5601662E-013  0.5052886E+02  0.7816164E-02  0.1300439E+00
        -11   -1    0    0    0    0  0.00000000000E+00  0.00000000000E+00  0.45593999997E+02  0.45594000000E+02  0.51100000000E-03 0.  1.
         11   -1    0    0    0    0 -0.00000000000E+00 -0.00000000000E+00 -0.45593999997E+02  0.45594000000E+02  0.51100000000E-03 0. -1.
    9900012    2    1    2    0    0  0.16775337019E+02 -0.36945238095E+02  0.26082208494E+01  0.50528863684E+02  0.30000011653E+02 0.  0.
        -12    1    1    2    0    0 -0.16775337019E+02  0.36945238095E+02 -0.26082208494E+01  0.40659136316E+02  0.00000000000E+00 0.  1.
         11    1    3    3    0    0  0.72715058388E+00 -0.60217110529E+01  0.55590776647E+00  0.60908772506E+01  0.51100000000E-03 0.  1.
        -11    1    3    3    0    0  0.12394505428E+02 -0.15955929058E+02  0.14302517048E+02  0.24754341661E+02  0.51100000000E-03 0. -1.
         12    1    3    3    0    0  0.36536810073E+01 -0.14967597984E+02 -0.12250203965E+02  0.19683644772E+02  0.00000000000E+00 0. -1.
</event>
<event>
 7    1  0.5601662E-013  0.5052886E+02  0.7816164E-02  0.1300439E+00
        -11   -1    0    0    0    0  0.00000000000E+00  0.00000000000E+00  0.45593999997E+02  0.45594000000E+02  0.51100000000E-03 0. -1.
         11   -1    0    0    0    0 -0.00000000000E+00 -0.00000000000E+00 -0.45593999997E+02  0.45594000000E+02  0.51100000000E-03 0.  1.
    9900012    2    1    2    0    0 -0.19796788910E+02  0.26598693564E+02 -0.23532151936E+02  0.50528861726E+02  0.30000005703E+02 0.  0.
        -12    1    1    2    0    0  0.19796788910E+02 -0.26598693564E+02  0.23532151936E+02  0.40659138274E+02  0.00000000000E+00 0.  1.
         11    1    3    3    0    0 -0.20716873663E+01  0.60402848419E+01  0.70957283424E+00  0.64249843100E+01  0.51100000000E-03 0. -1.
        -11    1    3    3    0    0 -0.80661211155E+01  0.14658375672E+02  0.66680270710E+00  0.16744399461E+02  0.51100000000E-03 0.  1.
        -12    1    3    3    0    0 -0.96589804285E+01  0.59000330496E+01 -0.24908527477E+02  0.27359477955E+02  0.00000000000E+00 0.  1.
</event>
<event>
 7    1  0.5601662E-013  0.5052886E+02  0.7816164E-02  0.1300439E+00
        -11   -1    0    0    0    0  0.00000000000E+00  0.00000000000E+00  0.45593999997E+02  0.45594000000E+02  0.51100000000E-03 0. -1.
         11   -1    0    0    0    0 -0.00000000000E+00 -0.00000000000E+00 -0.45593999997E+02  0.45594000000E+02  0.51100000000E-03 0.  1.
    9900012    2    1    2    0    0  0.10643686676E+02 -0.26301623969E+02  0.29122189541E+02  0.50528863104E+02  0.30000009890E+02 0.  0.
        -12    1    1    2    0    0 -0.10643686676E+02  0.26301623969E+02 -0.29122189541E+02  0.40659136896E+02  0.00000000000E+00 0.  1.
         11    1    3    3    0    0  0.14037982923E+00 -0.55645352834E+00  0.62926252474E+01  0.63187403642E+01  0.51100000000E-03 0. -1.
        -11    1    3    3    0    0  0.40685876878E+01  0.35279850263E+01 -0.15179702724E+01  0.55950261955E+01  0.51100000000E-03 0.  1.
         12    1    3    3    0    0  0.64347191589E+01 -0.29273155467E+02  0.24347534566E+02  0.38615096544E+02  0.00000000000E+00 0. -1.
</event>
<event>
 7    1  0.5601662E-013  0.5052886E+02  0.7816164E-02  0.1300439E+00
        -11   -1    0    0    0    0  0.00000000000E+00  0.00000000000E+00  0.45593999997E+02  0.45594000000E+02  0.51100000000E-03 0.  1.
         11   -1    0    0    0    0 -0.00000000000E+00 -0.00000000000E+00 -0.45593999997E+02  0.45594000000E+02  0.51100000000E-03 0. -1.
    9900012    2    1    2    0    0  0.16275321444E+02  0.22895239689E+02 -0.29395368865E+02  0.50528858356E+02  0.29999995458E+02 0.  0.
        -12    1    1    2    0    0 -0.16275321444E+02 -0.22895239689E+02  0.29395368865E+02  0.40659141644E+02  0.00000000000E+00 0.  1.
         11    1    3    3    0    0  0.57366082508E+01  0.31033137826E+01 -0.43486942432E+01  0.78390288007E+01  0.51100000000E-03 0. -1.
        -11    1    3    3    0    0  0.61673207537E+01  0.18280449687E+01  0.44896466278E+01  0.78443942271E+01  0.51100000000E-03 0.  1.
         12    1    3    3    0    0  0.43713924397E+01  0.17963880938E+02 -0.29536321250E+02  0.34845435328E+02  0.00000000000E+00 0. -1.
</event>
<event>
 7    1  0.5601662E-013  0.5052885E+02  0.7816164E-02  0.1300439E+00
        -11   -1    0    0    0    0  0.00000000000E+00  0.00000000000E+00  0.45593999997E+02  0.45594000000E+02  0.51100000000E-03 0.  1.
         11   -1    0    0    0    0 -0.00000000000E+00 -0.00000000000E+00 -0.45593999997E+02  0.45594000000E+02  0.51100000000E-03 0. -1.
    9900012    2    1    2    0    0  0.16536261533E+02  0.21025588447E+02 -0.30620954533E+02  0.50528853777E+02  0.29999981541E+02 0.  0.
        -12    1    1    2    0    0 -0.16536261533E+02 -0.21025588447E+02  0.30620954533E+02  0.40659146223E+02  0.00000000000E+00 0.  1.
         11    1    3    3    0    0 -0.23711770133E+01  0.85930608887E+01 -0.10005190811E+02  0.13400261911E+02  0.51100000000E-03 0. -1.
        -11    1    3    3    0    0 -0.36446745384E+01  0.40773942123E+01 -0.26289698013E-01  0.54689567069E+01  0.51100000000E-03 0.  1.
         12    1    3    3    0    0  0.22552113084E+02  0.83551333465E+01 -0.20589474025E+02  0.31659635159E+02  0.00000000000E+00 0. -1.
</event>
<event>
 7    1  0.5601662E-013  0.5052889E+02  0.7816164E-02  0.1300439E+00
        -11   -1    0    0    0    0  0.00000000000E+00  0.00000000000E+00  0.45593999997E+02  0.45594000000E+02  0.51100000000E-03 0.  1.
         11   -1    0    0    0    0 -0.00000000000E+00 -0.00000000000E+00 -0.45593999997E+02  0.45594000000E+02  0.51100000000E-03 0. -1.
    9900012    2    1    2    0    0 -0.25401080084E+02 -0.21205405815E+02 -0.23627936170E+02  0.50528886964E+02  0.30000082415E+02 0.  0.
        -12    1    1    2    0    0  0.25401080084E+02  0.21205405815E+02  0.23627936170E+02  0.40659113036E+02  0.00000000000E+00 0.  1.
         11    1    3    3    0    0 -0.23619424614E+02 -0.13319199822E+02 -0.25274977774E+01  0.27233555557E+02  0.51100000000E-03 0.  1.
        -11    1    3    3    0    0  0.19413898474E+01 -0.39015053401E+01 -0.81101004225E+01  0.92067620574E+01  0.51100000000E-03 0. -1.
        -12    1    3    3    0    0 -0.37230453176E+01 -0.39847006532E+01 -0.12990337970E+02  0.14088569349E+02  0.00000000000E+00 0.  1.
</event>
<event>
 7    1  0.5601662E-013  0.5052887E+02  0.7816164E-02  0.1300439E+00
        -11   -1    0    0    0    0  0.00000000000E+00  0.00000000000E+00  0.45593999997E+02  0.45594000000E+02  0.51100000000E-03 0. -1.
         11   -1    0    0    0    0 -0.00000000000E+00 -0.00000000000E+00 -0.45593999997E+02  0.45594000000E+02  0.51100000000E-03 0.  1.
    9900012    2    1    2    0    0  0.16556821343E+02 -0.34333884078E+02 -0.14149943026E+02  0.50528870441E+02  0.30000032192E+02 0.  0.
        -12    1    1    2    0    0 -0.16556821343E+02  0.34333884078E+02  0.14149943026E+02  0.40659129559E+02  0.00000000000E+00 0.  1.
         11    1    3    3    0    0  0.18808590289E+02 -0.14570467340E+02 -0.14748270302E+02  0.27992375110E+02  0.51100000000E-03 0. -1.
        -11    1    3    3    0    0  0.23461660073E+01 -0.13606370726E+02 -0.28754175301E+01  0.14103398367E+02  0.51100000000E-03 0.  1.
        -12    1    3    3    0    0 -0.45979349530E+01 -0.61570460118E+01  0.34737448056E+01  0.84330969636E+01  0.00000000000E+00 0.  1.
</event>
<event>
 7    1  0.5601662E-013  0.5052888E+02  0.7816164E-02  0.1300439E+00
        -11   -1    0    0    0    0  0.00000000000E+00  0.00000000000E+00  0.45593999997E+02  0.45594000000E+02  0.51100000000E-03 0.  1.
         11   -1    0    0    0    0 -0.00000000000E+00 -0.00000000000E+00 -0.45593999997E+02  0.45594000000E+02  0.51100000000E-03 0. -1.
    9900012    2    1    2    0    0  0.84161028174E+01 -0.20647553837E+02 -0.34000168802E+02  0.50528883622E+02  0.30000072257E+02 0.  0.
        -12    1    1    2    0    0 -0.84161028174E+01  0.20647553837E+02  0.34000168802E+02  0.40659116378E+02  0.00000000000E+00 0.  1.
         11    1    3    3    0    0  0.14486664063E+02 -0.11105376777E+02 -0.23224593170E+02  0.29539373000E+02  0.51100000000E-03 0. -1.
        -11    1    3    3    0    0 -0.51621331184E+01 -0.84395406487E+01 -0.14184258794E+02  0.17293543954E+02  0.51100000000E-03 0.  1.
        -12    1    3    3    0    0 -0.90842812774E+00 -0.11026364111E+01  0.34086831614E+01  0.36959666682E+01  0.00000000000E+00 0.  1.
</event>
<event>
 7    1  0.5601662E-013  0.5052885E+02  0.7816164E-02  0.1300439E+00
        -11   -1    0    0    0    0  0.00000000000E+00  0.00000000000E+00  0.45593999997E+02  0.45594000000E+02  0.51100000000E-03 0. -1.
         11   -1    0    0    0    0 -0.00000000000E+00 -0.00000000000E+00 -0.45593999997E+02  0.45594000000E+02  0.51100000000E-03 0.  1.
    9900012    2    1    2    0    0  0.46769909803E+01  0.76597695957E+01  0.39656275468E+02  0.50528849752E+02  0.29999969306E+02 0.  0.
        -12    1    1    2    0    0 -0.46769909803E+01 -0.76597695957E+01 -0.39656275468E+02  0.40659150248E+02  0.00000000000E+00 0.  1.
         11    1    3    3    0    0  0.55389376139E+01 -0.35663622288E+00  0.41622040223E+01  0.69376481512E+01  0.51100000000E-03 0. -1.
        -11    1    3    3    0    0  0.96669126956E+01 -0.23887704048E+01  0.18837543223E+02  0.21307474277E+02  0.51100000000E-03 0.  1.
        -12    1    3    3    0    0 -0.10528859329E+02  0.10405176223E+02  0.16656528223E+02  0.22283727324E+02  0.00000000000E+00 0.  1.
</event>
<event>
 7    1  0.5601662E-013  0.5052886E+02  0.7816164E-02  0.1300439E+00
        -11   -1    0    0    0    0  0.00000000000E+00  0.00000000000E+00  0.45593999997E+02  0.45594000000E+02  0.51100000000E-03 0.  1.
         11   -1    0    0    0    0 -0.00000000000E+00 -0.00000000000E+00 -0.45593999997E+02  0.45594000000E+02  0.51100000000E-03 0. -1.
    9900012    2    1    2    0    0  0.50769710798E+01  0.17593458841E+02 -0.36302349492E+02  0.50528855789E+02  0.29999987656E+02 0.  0.
        -12    1    1    2    0    0 -0.50769710798E+01 -0.17593458841E+02  0.36302349492E+02  0.40659144211E+02  0.00000000000E+00 0.  1.
         11    1    3    3    0    0 -0.16107645496E+01  0.79003012551E+01 -0.29340295228E+02  0.30427984598E+02  0.51100000000E-03 0. -1.
        -11    1    3    3    0    0  0.37275799957E+01  0.10943451536E+02 -0.10288362874E+02  0.15475929537E+02  0.51100000000E-03 0.  1.
        -12    1    3    3    0    0  0.29601556336E+01 -0.12502939503E+01  0.33263086099E+01  0.46249416543E+01  0.00000000000E+00 0.  1.
</event>
<event>
 7    1  0.5601662E-013  0.5052886E+02  0.7816164E-02  0.1300439E+00
        -11   -1    0    0    0    0  0.00000000000E+00  0.00000000000E+00  0.45593999997E+02  0.45594000000E+02  0.51100000000E-03 0.  1.
         11   -1    0    0    0    0 -0.00000000000E+00 -0.00000000000E+00 -0.45593999997E+02  0.45594000000E+02  0.51100000000E-03 0. -1.
    9900012    2    1    2    0    0  0.29460385486E+02  0.26992027242E+02  0.75287225946E+01  0.50528861894E+02  0.30000006213E+02 0.  0.
        -12    1    1    2    0    0 -0.29460385486E+02 -0.26992027242E+02 -0.75287225946E+01  0.40659138106E+02  0.00000000000E+00 0.  1.
         11    1    3    3    0    0  0.17553549524E+02  0.17175699843E+02  0.51049951887E+01  0.25083714679E+02  0.51100000000E-03 0. -1.
        -11    1    3    3    0    0  0.65040198352E+01  0.94221786055E+00  0.10430623939E+02  0.12328339894E+02  0.51100000000E-03 0.  1.
        -12    1    3    3    0    0  0.54028161267E+01  0.88741095387E+01 -0.80068965332E+01  0.13116807321E+02  0.00000000000E+00 0.  1.
</event>
<event>
 7    1  0.5601662E-013  0.5052891E+02  0.7816164E-02  0.1300439E+00
        -11   -1    0    0    0    0  0.00000000000E+00  0.00000000000E+00  0.45593999997E+02  0.45594000000E+02  0.51100000000E-03 0. -1.
         11   -1    0    0    0    0 -0.00000000000E+00 -0.00000000000E+00 -0.45593999997E+02  0.45594000000E+02  0.51100000000E-03 0.  1.
    9900012    2    1    2    0    0  0.47555833245E+01 -0.23533166998E+02  0.32813651630E+02  0.50528914238E+02  0.30000165317E+02 0.  0.
        -12    1    1    2    0    0 -0.47555833245E+01  0.23533166998E+02 -0.32813651630E+02  0.40659085762E+02  0.00000000000E+00 0.  1.
         11    1    3    3    0    0 -0.33739760705E+01 -0.49646158357E+01  0.13074943214E+02  0.14386982492E+02  0.51100000000E-03 0. -1.
        -11    1    3    3    0    0  0.10917773250E+02 -0.16836852585E+01  0.15282232991E+01  0.11152041764E+02  0.51100000000E-03 0.  1.
         12    1    3    3    0    0 -0.27882138555E+01 -0.16884865904E+02  0.18210485117E+02  0.24989889982E+02  0.00000000000E+00 0. -1.
</event>
<event>
 7    1  0.5601662E-013  0.5052885E+02  0.7816164E-02  0.1300439E+00
        -11   -1    0    0    0    0  0.00000000000E+00  0.00000000000E+00  0.45593999997E+02  0.45594000000E+02  0.51100000000E-03 0.  1.
         11   -1    0    0    0    0 -0.00000000000E+00 -0.00000000000E+00 -0.45593999997E+02  0.45594000000E+02  0.51100000000E-03 0. -1.
    9900012    2    1    2    0    0 -0.39840931167E+02  0.64943743957E+01  0.48671754074E+01  0.50528854762E+02  0.29999984533E+02 0.  0.
        -12    1    1    2    0    0  0.39840931167E+02 -0.64943743957E+01 -0.48671754074E+01  0.40659145238E+02  0.00000000000E+00 0.  1.
         11    1    3    3    0    0 -0.31678120857E+00 -0.10118512931E+01 -0.25166927650E+01  0.27309222084E+01  0.51100000000E-03 0. -1.
        -11    1    3    3    0    0 -0.14681506160E+01  0.26419901184E+01 -0.63625594552E+01  0.70439861654E+01  0.51100000000E-03 0.  1.
         12    1    3    3    0    0 -0.38055999343E+02  0.48642355704E+01  0.13746427628E+02  0.40753946388E+02  0.00000000000E+00 0. -1.
</event>
<event>
 7    1  0.5601662E-013  0.5052886E+02  0.7816164E-02  0.1300439E+00
        -11   -1    0    0    0    0  0.00000000000E+00  0.00000000000E+00  0.45593999997E+02  0.45594000000E+02  0.51100000000E-03 0.  1.
         11   -1    0    0    0    0 -0.00000000000E+00 -0.00000000000E+00 -0.45593999997E+02  0.45594000000E+02  0.51100000000E-03 0. -1.
    9900012    2    1    2    0    0 -0.18011353477E+02 -0.25823382764E+01 -0.36360528154E+02  0.50528864093E+02  0.30000012897E+02 0.  0.
        -12    1    1    2    0    0  0.18011353477E+02  0.25823382764E+01  0.36360528154E+02  0.40659135907E+02  0.00000000000E+00 0.  1.
         11    1    3    3    0    0 -0.14061521478E+02  0.10624174408E+02 -0.99242733673E+01  0.20225989970E+02  0.51100000000E-03 0. -1.
        -11    1    3    3    0    0  0.86936655289E+00 -0.80945638765E+00 -0.83288236845E+00  0.14507622643E+01  0.51100000000E-03 0.  1.
         12    1    3    3    0    0 -0.48191985515E+01 -0.12397056297E+02 -0.25603372419E+02  0.28852111859E+02  0.00000000000E+00 0. -1.
</event>
<event>
 7    1  0.5601662E-013  0.5052887E+02  0.7816164E-02  0.1300439E+00
        -11   -1    0    0    0    0  0.00000000000E+00  0.00000000000E+00  0.45593999997E+02  0.45594000000E+02  0.51100000000E-03 0.  1.
         11   -1    0    0    0    0 -0.00000000000E+00 -0.00000000000E+00 -0.45593999997E+02  0.45594000000E+02  0.51100000000E-03 0. -1.
    9900012    2    1    2    0    0  0.27078352428E+02 -0.16357005961E+02 -0.25541655011E+02  0.50528868739E+02  0.30000027019E+02 0.  0.
        -12    1    1    2    0    0 -0.27078352428E+02  0.16357005961E+02  0.25541655011E+02  0.40659131261E+02  0.00000000000E+00 0.  1.
         11    1    3    3    0    0  0.81541206735E+01 -0.14277411794E+02 -0.60278072913E+01  0.17511956843E+02  0.51100000000E-03 0. -1.
        -11    1    3    3    0    0  0.65285479195E+01 -0.27948921271E+01  0.26763208126E+01  0.75892063678E+01  0.51100000000E-03 0.  1.
         12    1    3    3    0    0  0.12395683835E+02  0.71529796005E+00 -0.22190168532E+02  0.25427705528E+02  0.00000000000E+00 0. -1.
</event>
<event>
 7    1  0.5601662E-013  0.5052884E+02  0.7816164E-02  0.1300439E+00
        -11   -1    0    0    0    0  0.00000000000E+00  0.00000000000E+00  0.45593999997E+02  0.45594000000E+02  0.51100000000E-03 0.  1.
         11   -1    0    0    0    0 -0.00000000000E+00 -0.00000000000E+00 -0.45593999997E+02  0.45594000000E+02  0.51100000000E-03 0. -1.
    9900012    2    1    2    0    0 -0.23689721849E+02 -0.24772974858E+02 -0.21869257536E+02  0.50528835845E+02  0.29999927036E+02 0.  0.
        -12    1    1    2    0    0  0.23689721849E+02  0.24772974858E+02  0.21869257536E+02  0.40659164155E+02  0.00000000000E+00 0.  1.
         11    1    3    3    0    0 -0.13021483836E+02 -0.68731670962E+00 -0.12555343451E+01  0.13099916500E+02  0.51100000000E-03 0.  1.
        -11    1    3    3    0    0 -0.58463888177E+01 -0.32928838312E+01  0.13036821446E+01  0.68354175827E+01  0.51100000000E-03 0. -1.
        -12    1    3    3    0    0 -0.48218491945E+01 -0.20792774317E+02 -0.21917405335E+02  0.30593501763E+02  0.00000000000E+00 0.  1.
</event>
<event>
 7    1  0.5601662E-013  0.5052887E+02  0.7816164E-02  0.1300439E+00
        -11   -1    0    0    0    0  0.00000000000E+00  0.00000000000E+00  0.45593999997E+02  0.45594000000E+02  0.51100000000E-03 0.  1.
         11   -1    0    0    0    0 -0.00000000000E+00 -0.00000000000E+00 -0.45593999997E+02  0.45594000000E+02  0.51100000000E-03 0. -1.
    9900012    2    1    2    0    0 -0.25921331451E+02 -0.39849723288E+01 -0.31070401099E+02  0.50528865072E+02  0.30000015871E+02 0.  0.
        -12    1    1    2    0    0  0.25921331451E+02  0.39849723288E+01  0.31070401099E+02  0.40659134928E+02  0.00000000000E+00 0.  1.
         11    1    3    3    0    0 -0.98658077037E+01 -0.66665848461E+01 -0.19027719284E+02  0.22446193810E+02  0.51100000000E-03 0. -1.
        -11    1    3    3    0    0 -0.98955811802E+01  0.33757797616E+01 -0.17126442185E+02  0.20065727948E+02  0.51100000000E-03 0.  1.
        -12    1    3    3    0    0 -0.61599425675E+01 -0.69416724432E+00  0.50837603698E+01  0.80169433137E+01  0.00000000000E+00 0.  1.
</event>
<event>
 7    1  0.5601662E-013  0.5052883E+02  0.7816164E-02  0.1300439E+00
        -11   -1    0    0    0    0  0.00000000000E+00  0.00000000000E+00  0.45593999997E+02  0.45594000000E+02  0.51100000000E-03 0.  1.
         11   -1    0    0    0    0 -0.00000000000E+00 -0.00000000000E+00 -0.45593999997E+02  0.45594000000E+02  0.51100000000E-03 0. -1.
    9900012    2    1    2    0    0  0.29216051381E+02 -0.49993986469E+01 -0.27831576297E+02  0.50528827796E+02  0.29999902570E+02 0.  0.
        -12    1    1    2    0    0 -0.29216051381E+02  0.49993986469E+01  0.27831576297E+02  0.40659172204E+02  0.00000000000E+00 0.  1.
         11    1    3    3    0    0  0.18027209211E+02 -0.42683133560E+01 -0.25448412408E+02  0.31477300793E+02  0.51100000000E-03 0. -1.
        -11    1    3    3    0    0  0.66729154719E+01 -0.78951740096E+01 -0.22622518548E+01  0.10582029921E+02  0.51100000000E-03 0.  1.
        -12    1    3    3    0    0  0.45159266981E+01  0.71640887187E+01 -0.12091203380E+00  0.84694970826E+01  0.00000000000E+00 0.  1.
</event>
<event>
 7    1  0.5601662E-013  0.5052886E+02  0.7816164E-02  0.1300439E+00
        -11   -1    0    0    0    0  0.00000000000E+00  0.00000000000E+00  0.45593999997E+02  0.45594000000E+02  0.51100000000E-03 0. -1.
         11   -1    0    0    0    0 -0.00000000000E+00 -0.00000000000E+00 -0.45593999997E+02  0.45594000000E+02  0.51100000000E-03 0.  1.
    9900012    2    1    2    0    0 -0.23795519312E+02 -0.26380489052E+02  0.19773940060E+02  0.50528860223E+02  0.30000001133E+02 0.  0.
        -12    1    1    2    0    0  0.23795519312E+02  0.26380489052E+02 -0.19773940060E+02  0.40659139777E+02  0.00000000000E+00 0.  1.
         11    1    3    3    0    0 -0.20680062160E+01  0.19761631190E+01  0.78509578994E+01  0.83558010138E+01  0.51100000000E-03 0. -1.
        -11    1    3    3    0    0  0.34937577006E+01 -0.48208983303E+01  0.18949572693E+01  0.62480610509E+01  0.51100000000E-03 0.  1.
         12    1    3    3    0    0 -0.25221270797E+02 -0.23535753840E+02  0.10028024891E+02  0.35924998158E+02  0.00000000000E+00 0. -1.
</event>
<event>
 7    1  0.5601662E-013  0.5052889E+02  0.7816164E-02  0.1300439E+00
        -11   -1    0    0    0    0  0.00000000000E+00  0.00000000000E+00  0.45593999997E+02  0.45594000000E+02  0.51100000000E-03 0.  1.
         11   -1    0    0    0    0 -0.00000000000E+00 -0.00000000000E+00 -0.45593999997E+02  0.45594000000E+02  0.51100000000E-03 0. -1.
    9900012    2    1    2    0    0 -0.22607040864E+02 -0.79520176264E+00 -0.33785395918E+02  0.50528885157E+02  0.30000076922E+02 0.  0.
        -12    1    1    2    0    0  0.22607040864E+02  0.79520176264E+00  0.33785395918E+02  0.40659114843E+02  0.00000000000E+00 0.  1.
         11    1    3    3    0    0 -0.14625084162E+02 -0.41989530261E+01 -0.28676350079E+02  0.32463169090E+02  0.51100000000E-03 0. -1.
        -11    1    3    3    0    0 -0.41106761426E+01 -0.49594285723E+01 -0.60051128721E+01  0.88065300193E+01  0.51100000000E-03 0.  1.
         12    1    3    3    0    0 -0.38712805600E+01  0.83631798358E+01  0.89606703253E+00  0.92591860477E+01  0.00000000000E+00 0. -1.
</event>
<event>
 7    1  0.5601662E-013  0.5052884E+02  0.7816164E-02  0.1300439E+00
        -11   -1    0    0    0    0  0.00000000000E+00  0.00000000000E+00  0.45593999997E+02  0.45594000000E+02  0.51100000000E-03 0.  1.
         11   -1    0    0    0    0 -0.00000000000E+00 -0.00000000000E+00 -0.45593999997E+02  0.45594000000E+02  0.51100000000E-03 0. -1.
    9900012    2    1    2    0    0 -0.30980814408E+02 -0.83950553718E+01 -0.24957545637E+02  0.50528844816E+02  0.29999954302E+02 0.  0.
        -12    1    1    2    0    0  0.30980814408E+02  0.83950553718E+01  0.24957545637E+02  0.40659155184E+02  0.00000000000E+00 0.  1.
         11    1    3    3    0    0 -0.46475277054E+01 -0.76895298228E+01 -0.34255982881E+01  0.96157738410E+01  0.51100000000E-03 0. -1.
        -11    1    3    3    0    0 -0.79256770138E-01 -0.43108493656E+01  0.26306835741E+01  0.50507623401E+01  0.51100000000E-03 0.  1.
         12    1    3    3    0    0 -0.26254029932E+02  0.36053238166E+01 -0.24162630923E+02  0.35862308635E+02  0.00000000000E+00 0. -1.
</event>
<event>
 7    1  0.5601662E-013  0.5052885E+02  0.7816164E-02  0.1300439E+00
        -11   -1    0    0    0    0  0.00000000000E+00  0.00000000000E+00  0.45593999997E+02  0.45594000000E+02  0.51100000000E-03 0.  1.
         11   -1    0    0    0    0 -0.00000000000E+00 -0.00000000000E+00 -0.45593999997E+02  0.45594000000E+02  0.51100000000E-03 0. -1.
    9900012    2    1    2    0    0  0.24924451320E+02 -0.10279992308E+02 -0.30434518084E+02  0.50528850888E+02  0.29999972760E+02 0.  0.
        -12    1    1    2    0    0 -0.24924451320E+02  0.10279992308E+02  0.30434518084E+02  0.40659149112E+02  0.00000000000E+00 0.  1.
         11    1    3    3    0    0  0.43324442856E+00  0.59837160393E+01 -0.84225142835E+01  0.10340759425E+02  0.51100000000E-03 0. -1.
        -11    1    3    3    0    0  0.20284257610E+01 -0.60637669339E+01  0.97553624657E+00  0.64680330647E+01  0.51100000000E-03 0.  1.
         12    1    3    3    0    0  0.22462781131E+02 -0.10199941414E+02 -0.22987540047E+02  0.33720058398E+02  0.00000000000E+00 0. -1.
</event>
<event>
 7    1  0.5601662E-013  0.5052899E+02  0.7816164E-02  0.1300438E+00
        -11   -1    0    0    0    0  0.00000000000E+00  0.00000000000E+00  0.45593999997E+02  0.45594000000E+02  0.51100000000E-03 0.  1.
         11   -1    0    0    0    0 -0.00000000000E+00 -0.00000000000E+00 -0.45593999997E+02  0.45594000000E+02  0.51100000000E-03 0. -1.
    9900012    2    1    2    0    0 -0.33516821608E+02  0.21186579648E+02 -0.89948137077E+01  0.50528989172E+02  0.30000393084E+02 0.  0.
        -12    1    1    2    0    0  0.33516821608E+02 -0.21186579648E+02  0.89948137077E+01  0.40659010828E+02  0.00000000000E+00 0.  1.
         11    1    3    3    0    0 -0.40845688039E+00  0.39938412918E+01 -0.42315098801E+01  0.58329479180E+01  0.51100000000E-03 0. -1.
        -11    1    3    3    0    0 -0.12085857253E+01  0.43798440221E+01 -0.89776013803E+01  0.10061860659E+02  0.51100000000E-03 0.  1.
        -12    1    3    3    0    0 -0.31899779002E+02  0.12812894334E+02  0.42142975527E+01  0.34634180595E+02  0.00000000000E+00 0.  1.
</event>
<event>
 7    1  0.5601662E-013  0.5052885E+02  0.7816164E-02  0.1300439E+00
        -11   -1    0    0    0    0  0.00000000000E+00  0.00000000000E+00  0.45593999997E+02  0.45594000000E+02  0.51100000000E-03 0.  1.
         11   -1    0    0    0    0 -0.00000000000E+00 -0.00000000000E+00 -0.45593999997E+02  0.45594000000E+02  0.51100000000E-03 0. -1.
    9900012    2    1    2    0    0  0.92058073924E+00  0.98107441821E+01 -0.39447028608E+02  0.50528852981E+02  0.29999979121E+02 0.  0.
        -12    1    1    2    0    0 -0.92058073924E+00 -0.98107441821E+01  0.39447028608E+02  0.40659147019E+02  0.00000000000E+00 0.  1.
         11    1    3    3    0    0  0.11621861976E+02  0.96372113825E+01 -0.12441982078E+02  0.19563906494E+02  0.51100000000E-03 0. -1.
        -11    1    3    3    0    0 -0.27949565615E+01 -0.31530246801E+01 -0.22725872882E+01  0.47872748049E+01  0.51100000000E-03 0.  1.
        -12    1    3    3    0    0 -0.79063246753E+01  0.33265574797E+01 -0.24732459242E+02  0.26177671682E+02  0.00000000000E+00 0.  1.
</event>
<event>
 7    1  0.5601662E-013  0.5052886E+02  0.7816164E-02  0.1300439E+00
        -11   -1    0    0    0    0  0.00000000000E+00  0.00000000000E+00  0.45593999997E+02  0.45594000000E+02  0.51100000000E-03 0.  1.
         11   -1    0    0    0    0 -0.00000000000E+00 -0.00000000000E+00 -0.45593999997E+02  0.45594000000E+02  0.51100000000E-03 0. -1.
    9900012    2    1    2    0    0 -0.17073807257E+02 -0.80360651133E+01 -0.36014888507E+02  0.50528862885E+02  0.30000009224E+02 0.  0.
        -12    1    1    2    0    0  0.17073807257E+02  0.80360651133E+01  0.36014888507E+02  0.40659137115E+02  0.00000000000E+00 0.  1.
         11    1    3    3    0    0 -0.62652066749E+01  0.30717433475E+01 -0.51885912968E+00  0.69969734121E+01  0.51100000000E-03 0. -1.
        -11    1    3    3    0    0 -0.56466702989E+01 -0.32252151794E+01  0.30668877573E+00  0.65100657972E+01  0.51100000000E-03 0.  1.
         12    1    3    3    0    0 -0.51619302837E+01 -0.78825932814E+01 -0.35802718153E+02  0.37021823675E+02  0.00000000000E+00 0. -1.
</event>
<event>
 7    1  0.5601662E-013  0.5052886E+02  0.7816164E-02  0.1300439E+00
        -11   -1    0    0    0    0  0.00000000000E+00  0.00000000000E+00  0.45593999997E+02  0.45594000000E+02  0.51100000000E-03 0.  1.
         11   -1    0    0    0    0 -0.00000000000E+00 -0.00000000000E+00 -0.45593999997E+02  0.45594000000E+02  0.51100000000E-03 0. -1.
    9900012    2    1    2    0    0 -0.49776505736E+01 -0.14903907402E+02 -0.37500161541E+02  0.50528861093E+02  0.30000003777E+02 0.  0.
        -12    1    1    2    0    0  0.49776505736E+01  0.14903907402E+02  0.37500161541E+02  0.40659138907E+02  0.00000000000E+00 0.  1.
         11    1    3    3    0    0 -0.11884200984E+02 -0.81419278779E+01 -0.22774173300E+02  0.26947879181E+02  0.51100000000E-03 0. -1.
        -11    1    3    3    0    0  0.38584828267E+01 -0.45969587673E+00 -0.16000201935E+02  0.16465286886E+02  0.51100000000E-03 0.  1.
        -12    1    3    3    0    0  0.30480675835E+01 -0.63022836469E+01  0.12742136936E+01  0.71156950256E+01  0.00000000000E+00 0.  1.
</event>
<event>
 7    1  0.5601662E-013  0.5052890E+02  0.7816164E-02  0.1300439E+00
        -11   -1    0    0    0    0  0.00000000000E+00  0.00000000000E+00  0.45593999997E+02  0.45594000000E+02  0.51100000000E-03 0.  1.
         11   -1    0    0    0    0 -0.00000000000E+00 -0.00000000000E+00 -0.45593999997E+02  0.45594000000E+02  0.51100000000E-03 0. -1.
    9900012    2    1    2    0    0 -0.31936318914E+02  0.24227646129E+02  0.68011094115E+01  0.50528900257E+02  0.30000122819E+02 0.  0.
        -12    1    1    2    0    0  0.31936318914E+02 -0.24227646129E+02 -0.68011094115E+01  0.40659099743E+02  0.00000000000E+00 0.  1.
         11    1    3    3    0    0  0.36803060511E+01  0.85792215873E+01  0.32178616853E+01  0.98743268004E+01  0.51100000000E-03 0. -1.
        -11    1    3    3    0    0 -0.40213049716E+01 -0.16489393080E+01  0.14080413057E+01  0.45686403990E+01  0.51100000000E-03 0.  1.
         12    1    3    3    0    0 -0.31595319993E+02  0.17297363850E+02  0.21752064205E+01  0.36085933057E+02  0.00000000000E+00 0. -1.
</event>
<event>
 7    1  0.5601662E-013  0.5052886E+02  0.7816164E-02  0.1300439E+00
        -11   -1    0    0    0    0  0.00000000000E+00  0.00000000000E+00  0.45593999997E+02  0.45594000000E+02  0.51100000000E-03 0.  1.
         11   -1    0    0    0    0 -0.00000000000E+00 -0.00000000000E+00 -0.45593999997E+02  0.45594000000E+02  0.51100000000E-03 0. -1.
    9900012    2    1    2    0    0  0.59576008882E+01 -0.16442293016E+02 -0.36705911490E+02  0.50528856548E+02  0.29999989962E+02 0.  0.
        -12    1    1    2    0    0 -0.59576008882E+01  0.16442293016E+02  0.36705911490E+02  0.40659143452E+02  0.00000000000E+00 0.  1.
         11    1    3    3    0    0  0.33584388954E+01 -0.40606132626E+01 -0.23907277598E+01  0.57864731370E+01  0.51100000000E-03 0. -1.
        -11    1    3    3    0    0  0.31677790390E+01 -0.20202458758E+02 -0.21153222296E+02  0.29421641315E+02  0.51100000000E-03 0.  1.
        -12    1    3    3    0    0 -0.56861704626E+00  0.78207790041E+01 -0.13161961434E+02  0.15320742096E+02  0.00000000000E+00 0.  1.
</event>
<event>
 7    1  0.5601662E-013  0.5052885E+02  0.7816164E-02  0.1300439E+00
        -11   -1    0    0    0    0  0.00000000000E+00  0.00000000000E+00  0.45593999997E+02  0.45594000000E+02  0.51100000000E-03 0.  1.
         11   -1    0    0    0    0 -0.00000000000E+00 -0.00000000000E+00 -0.45593999997E+02  0.45594000000E+02  0.51100000000E-03 0. -1.
    9900012    2    1    2    0    0  0.22017826494E+02  0.32776428988E+02 -0.96998828618E+01  0.50528847177E+02  0.29999961480E+02 0.  0.
        -12    1    1    2    0    0 -0.22017826494E+02 -0.32776428988E+02  0.96998828618E+01  0.40659152823E+02  0.00000000000E+00 0.  1.
         11    1    3    3    0    0 -0.51348262995E+00  0.18742869679E+01 -0.87721637038E+01  0.89848468188E+01  0.51100000000E-03 0. -1.
        -11    1    3    3    0    0  0.10078297764E+02  0.62010046603E+01 -0.62372345015E+01  0.13376383633E+02  0.51100000000E-03 0.  1.
         12    1    3    3    0    0  0.12453011359E+02  0.24701137360E+02  0.53095153435E+01  0.28167616725E+02  0.00000000000E+00 0. -1.
</event>
<event>
 7    1  0.5601662E-013  0.5052887E+02  0.7816164E-02  0.1300439E+00
        -11   -1    0    0    0    0  0.00000000000E+00  0.00000000000E+00  0.45593999997E+02  0.45594000000E+02  0.51100000000E-03 0. -1.
         11   -1    0    0    0    0 -0.00000000000E+00 -0.00000000000E+00 -0.45593999997E+02  0.45594000000E+02  0.51100000000E-03 0.  1.
    9900012    2    1    2    0    0  0.40215681836E+01 -0.21869667326E+02  0.34039820945E+02  0.50528871018E+02  0.30000033947E+02 0.  0.
        -12    1    1    2    0    0 -0.40215681836E+01  0.21869667326E+02 -0.34039820945E+02  0.40659128982E+02  0.00000000000E+00 0.  1.
         11    1    3    3    0    0  0.58186642606E+01 -0.26737923563E+02  0.18896204955E+02  0.33254172253E+02  0.51100000000E-03 0. -1.
        -11    1    3    3    0    0  0.13505882935E+01  0.38376571728E+01  0.42274050153E+01  0.58670823021E+01  0.51100000000E-03 0.  1.
        -12    1    3    3    0    0 -0.31476843705E+01  0.10305990650E+01  0.10916210975E+02  0.11407616463E+02  0.00000000000E+00 0.  1.
</event>
<event>
 7    1  0.5601662E-013  0.5052886E+02  0.7816164E-02  0.1300439E+00
        -11   -1    0    0    0    0  0.00000000000E+00  0.00000000000E+00  0.45593999997E+02  0.45594000000E+02  0.51100000000E-03 0.  1.
         11   -1    0    0    0    0 -0.00000000000E+00 -0.00000000000E+00 -0.45593999997E+02  0.45594000000E+02  0.51100000000E-03 0. -1.
    9900012    2    1    2    0    0  0.38065624218E+02 -0.11509938786E+02  0.84672812579E+01  0.50528864620E+02  0.30000014499E+02 0.  0.
        -12    1    1    2    0    0 -0.38065624218E+02  0.11509938786E+02 -0.84672812579E+01  0.40659135380E+02  0.00000000000E+00 0.  1.
         11    1    3    3    0    0  0.12984053471E+02  0.21737158967E+01 -0.96248160464E+01  0.16307905124E+02  0.51100000000E-03 0. -1.
        -11    1    3    3    0    0  0.37755986919E+00 -0.11199660668E+01  0.11837618389E+00  0.11878083295E+01  0.51100000000E-03 0.  1.
        -12    1    3    3    0    0  0.24704010877E+02 -0.12563688615E+02  0.17973721120E+02  0.33033151166E+02  0.00000000000E+00 0.  1.
</event>
<event>
 7    1  0.5601662E-013  0.5052886E+02  0.7816164E-02  0.1300439E+00
        -11   -1    0    0    0    0  0.00000000000E+00  0.00000000000E+00  0.45593999997E+02  0.45594000000E+02  0.51100000000E-03 0.  1.
         11   -1    0    0    0    0 -0.00000000000E+00 -0.00000000000E+00 -0.45593999997E+02  0.45594000000E+02  0.51100000000E-03 0. -1.
    9900012    2    1    2    0    0  0.14520653709E+02 -0.28158987621E+02 -0.25483089213E+02  0.50528858300E+02  0.29999995288E+02 0.  0.
        -12    1    1    2    0    0 -0.14520653709E+02  0.28158987621E+02  0.25483089213E+02  0.40659141700E+02  0.00000000000E+00 0.  1.
         11    1    3    3    0    0  0.25404712904E+01 -0.25474269269E+02 -0.87854496108E+01  0.27066150711E+02  0.51100000000E-03 0. -1.
        -11    1    3    3    0    0  0.15695205250E+00 -0.27682779185E+01  0.26568309086E+00  0.27854235489E+01  0.51100000000E-03 0.  1.
         12    1    3    3    0    0  0.11823230366E+02  0.83559566658E-01 -0.16963322693E+02  0.20677284040E+02  0.00000000000E+00 0. -1.
</event>
<event>
 7    1  0.5601662E-013  0.5052884E+02  0.7816164E-02  0.1300439E+00
        -11   -1    0    0    0    0  0.00000000000E+00  0.00000000000E+00  0.45593999997E+02  0.45594000000E+02  0.51100000000E-03 0.  1.
         11   -1    0    0    0    0 -0.00000000000E+00 -0.00000000000E+00 -0.45593999997E+02  0.45594000000E+02  0.51100000000E-03 0. -1.
    9900012    2    1    2    0    0 -0.23888642435E+02 -0.26424223917E+01 -0.32795084020E+02  0.50528841507E+02  0.29999944245E+02 0.  0.
        -12    1    1    2    0    0  0.23888642435E+02  0.26424223917E+01  0.32795084020E+02  0.40659158493E+02  0.00000000000E+00 0.  1.
         11    1    3    3    0    0  0.85347103645E+00 -0.46446870862E+01  0.25419175857E+00  0.47292858499E+01  0.51100000000E-03 0.  1.
        -11    1    3    3    0    0 -0.70851165685E+01  0.55069522505E+01 -0.24058930591E+02  0.25677958278E+02  0.51100000000E-03 0. -1.
         12    1    3    3    0    0 -0.17656996903E+02 -0.35046875560E+01 -0.89903451875E+01  0.20121597379E+02  0.00000000000E+00 0. -1.
</event>
<event>
 7    1  0.5601662E-013  0.5052886E+02  0.7816164E-02  0.1300439E+00
        -11   -1    0    0    0    0  0.00000000000E+00  0.00000000000E+00  0.45593999997E+02  0.45594000000E+02  0.51100000000E-03 0.  1.
         11   -1    0    0    0    0 -0.00000000000E+00 -0.00000000000E+00 -0.45593999997E+02  0.45594000000E+02  0.51100000000E-03 0. -1.
    9900012    2    1    2    0    0  0.17570378571E+02  0.32026691101E+02 -0.17853249023E+02  0.50528860232E+02  0.30000001160E+02 0.  0.
        -12    1    1    2    0    0 -0.17570378571E+02 -0.32026691101E+02  0.17853249023E+02  0.40659139768E+02  0.00000000000E+00 0.  1.
         11    1    3    3    0    0  0.76003355212E+01  0.13483653887E+02 -0.12419597730E+02  0.19844909428E+02  0.51100000000E-03 0. -1.
        -11    1    3    3    0    0  0.10678585032E+02  0.16329069020E+02 -0.12549327109E+02  0.23198195717E+02  0.51100000000E-03 0.  1.
        -12    1    3    3    0    0 -0.70854198249E+00  0.22139681937E+01  0.71156758157E+01  0.74857550867E+01  0.00000000000E+00 0.  1.
</event>
<event>
 7    1  0.5601662E-013  0.5052886E+02  0.7816164E-02  0.1300439E+00
        -11   -1    0    0    0    0  0.00000000000E+00  0.00000000000E+00  0.45593999997E+02  0.45594000000E+02  0.51100000000E-03 0. -1.
         11   -1    0    0    0    0 -0.00000000000E+00 -0.00000000000E+00 -0.45593999997E+02  0.45594000000E+02  0.51100000000E-03 0.  1.
    9900012    2    1    2    0    0  0.28169155904E+02  0.57978115238E+01  0.28741079165E+02  0.50528860875E+02  0.30000003115E+02 0.  0.
        -12    1    1    2    0    0 -0.28169155904E+02 -0.57978115238E+01 -0.28741079165E+02  0.40659139125E+02  0.00000000000E+00 0.  1.
         11    1    3    3    0    0  0.36350778874E+01 -0.33255823659E+00  0.58233683372E+01  0.68728455009E+01  0.51100000000E-03 0. -1.
        -11    1    3    3    0    0 -0.57634086281E+01 -0.13626258487E+01  0.30884173560E+01  0.66792177869E+01  0.51100000000E-03 0.  1.
        -12    1    3    3    0    0  0.30297486645E+02  0.74929956091E+01  0.19829293472E+02  0.36976797587E+02  0.00000000000E+00 0.  1.
</event>
<event>
 7    1  0.5601662E-013  0.5052885E+02  0.7816164E-02  0.1300439E+00
        -11   -1    0    0    0    0  0.00000000000E+00  0.00000000000E+00  0.45593999997E+02  0.45594000000E+02  0.51100000000E-03 0.  1.
         11   -1    0    0    0    0 -0.00000000000E+00 -0.00000000000E+00 -0.45593999997E+02  0.45594000000E+02  0.51100000000E-03 0. -1.
    9900012    2    1    2    0    0  0.32966506922E+02 -0.15636828550E+02 -0.17940608266E+02  0.50528850836E+02  0.29999972602E+02 0.  0.
        -12    1    1    2    0    0 -0.32966506922E+02  0.15636828550E+02  0.17940608266E+02  0.40659149164E+02  0.00000000000E+00 0.  1.
         11    1    3    3    0    0  0.15697114813E+02  0.31376677915E+01 -0.67585450159E+01  0.17375911591E+02  0.51100000000E-03 0. -1.
        -11    1    3    3    0    0  0.15197297397E+02 -0.32411230798E+01 -0.56262159348E+01  0.16526252842E+02  0.51100000000E-03 0.  1.
        -12    1    3    3    0    0  0.20720947126E+01 -0.15533373262E+02 -0.55558473157E+01  0.16626686404E+02  0.00000000000E+00 0.  1.
</event>
<event>
 7    1  0.5601662E-013  0.5052886E+02  0.7816164E-02  0.1300439E+00
        -11   -1    0    0    0    0  0.00000000000E+00  0.00000000000E+00  0.45593999997E+02  0.45594000000E+02  0.51100000000E-03 0.  1.
         11   -1    0    0    0    0 -0.00000000000E+00 -0.00000000000E+00 -0.45593999997E+02  0.45594000000E+02  0.51100000000E-03 0. -1.
    9900012    2    1    2    0    0  0.31385374719E+02 -0.58641640268E+01 -0.25174108976E+02  0.50528856764E+02  0.29999990619E+02 0.  0.
        -12    1    1    2    0    0 -0.31385374719E+02  0.58641640268E+01  0.25174108976E+02  0.40659143236E+02  0.00000000000E+00 0.  1.
         11    1    3    3    0    0  0.24917067274E+02  0.44195833854E+01 -0.45639848026E+01  0.25714255120E+02  0.51100000000E-03 0. -1.
        -11    1    3    3    0    0 -0.84104539821E+00 -0.13832453874E+00 -0.19495580949E+00  0.87435637394E+00  0.51100000000E-03 0.  1.
         12    1    3    3    0    0  0.73093528433E+01 -0.10145422873E+02 -0.20415168364E+02  0.23940245270E+02  0.00000000000E+00 0. -1.
</event>
<event>
 7    1  0.5601662E-013  0.5052886E+02  0.7816164E-02  0.1300439E+00
        -11   -1    0    0    0    0  0.00000000000E+00  0.00000000000E+00  0.45593999997E+02  0.45594000000E+02  0.51100000000E-03 0. -1.
         11   -1    0    0    0    0 -0.00000000000E+00 -0.00000000000E+00 -0.45593999997E+02  0.45594000000E+02  0.51100000000E-03 0.  1.
    9900012    2    1    2    0    0 -0.12698015112E+02  0.11302461365E+02  0.36934811319E+02  0.50528861939E+02  0.30000006351E+02 0.  0.
        -12    1    1    2    0    0  0.12698015112E+02 -0.11302461365E+02 -0.36934811319E+02  0.40659138061E+02  0.00000000000E+00 0.  1.
         11    1    3    3    0    0 -0.49474930832E+00 -0.24386150786E+01 -0.16393292757E+01  0.29797686344E+01  0.51100000000E-03 0. -1.
        -11    1    3    3    0    0 -0.19837801519E+01 -0.16472496601E+01 -0.18033810652E+01  0.31465852382E+01  0.51100000000E-03 0.  1.
        -12    1    3    3    0    0 -0.10219485651E+02  0.15388326104E+02  0.40377521660E+02  0.44402508067E+02  0.00000000000E+00 0.  1.
</event>
<event>
 7    1  0.5601662E-013  0.5052888E+02  0.7816164E-02  0.1300439E+00
        -11   -1    0    0    0    0  0.00000000000E+00  0.00000000000E+00  0.45593999997E+02  0.45594000000E+02  0.51100000000E-03 0.  1.
         11   -1    0    0    0    0 -0.00000000000E+00 -0.00000000000E+00 -0.45593999997E+02  0.45594000000E+02  0.51100000000E-03 0. -1.
    9900012    2    1    2    0    0  0.16461020080E+02  0.37074477132E+02 -0.27715732710E+01  0.50528884724E+02  0.30000075606E+02 0.  0.
        -12    1    1    2    0    0 -0.16461020080E+02 -0.37074477132E+02  0.27715732710E+01  0.40659115276E+02  0.00000000000E+00 0.  1.
         11    1    3    3    0    0  0.12020594651E+02  0.10175185944E+02  0.15594328688E+01  0.15825957661E+02  0.51100000000E-03 0. -1.
        -11    1    3    3    0    0  0.12513406255E+02  0.12612374816E+02 -0.43557047286E+01  0.18292881089E+02  0.51100000000E-03 0.  1.
        -12    1    3    3    0    0 -0.80729808260E+01  0.14286916372E+02  0.24698588742E-01  0.16410045973E+02  0.00000000000E+00 0.  1.
</event>
<event>
 7    1  0.5601662E-013  0.5052888E+02  0.7816164E-02  0.1300439E+00
        -11   -1    0    0    0    0  0.00000000000E+00  0.00000000000E+00  0.45593999997E+02  0.45594000000E+02  0.51100000000E-03 0.  1.
         11   -1    0    0    0    0 -0.00000000000E+00 -0.00000000000E+00 -0.45593999997E+02  0.45594000000E+02  0.51100000000E-03 0. -1.
    9900012    2    1    2    0    0  0.25385258058E+02  0.30495872868E+02 -0.88743930180E+01  0.50528875070E+02  0.30000046261E+02 0.  0.
        -12    1    1    2    0    0 -0.25385258058E+02 -0.30495872868E+02  0.88743930180E+01  0.40659124930E+02  0.00000000000E+00 0.  1.
         11    1    3    3    0    0  0.22702090467E+02  0.84541848213E+01 -0.45133944934E+01  0.24642014582E+02  0.51100000000E-03 0. -1.
        -11    1    3    3    0    0 -0.19494500588E+01 -0.65042977911E+00 -0.15135624391E+01  0.25523099238E+01  0.51100000000E-03 0.  1.
        -12    1    3    3    0    0  0.46326176497E+01  0.22692117826E+02 -0.28474360855E+01  0.23334550563E+02  0.00000000000E+00 0.  1.
</event>
<event>
 7    1  0.5601662E-013  0.5052886E+02  0.7816164E-02  0.1300439E+00
        -11   -1    0    0    0    0  0.00000000000E+00  0.00000000000E+00  0.45593999997E+02  0.45594000000E+02  0.51100000000E-03 0.  1.
         11   -1    0    0    0    0 -0.00000000000E+00 -0.00000000000E+00 -0.45593999997E+02  0.45594000000E+02  0.51100000000E-03 0. -1.
    9900012    2    1    2    0    0 -0.73714667063E+01  0.22330511760E+02 -0.33168892835E+02  0.50528859223E+02  0.29999998093E+02 0.  0.
        -12    1    1    2    0    0  0.73714667063E+01 -0.22330511760E+02  0.33168892835E+02  0.40659140777E+02  0.00000000000E+00 0.  1.
         11    1    3    3    0    0  0.68265459226E+00  0.32563535298E+01 -0.98852912269E+01  0.10430188805E+02  0.51100000000E-03 0. -1.
        -11    1    3    3    0    0 -0.11212584582E+02  0.21274273082E+02 -0.25977964916E+02  0.35400161153E+02  0.51100000000E-03 0.  1.
        -12    1    3    3    0    0  0.31584632837E+01 -0.22001148523E+01  0.26943633083E+01  0.46985092651E+01  0.00000000000E+00 0.  1.
</event>
<event>
 7    1  0.5601662E-013  0.5052888E+02  0.7816164E-02  0.1300439E+00
        -11   -1    0    0    0    0  0.00000000000E+00  0.00000000000E+00  0.45593999997E+02  0.45594000000E+02  0.51100000000E-03 0. -1.
         11   -1    0    0    0    0 -0.00000000000E+00 -0.00000000000E+00 -0.45593999997E+02  0.45594000000E+02  0.51100000000E-03 0.  1.
    9900012    2    1    2    0    0 -0.24380899492E+02  0.27312202771E+02  0.17685566814E+02  0.50528881050E+02  0.30000064439E+02 0.  0.
        -12    1    1    2    0    0  0.24380899492E+02 -0.27312202771E+02 -0.17685566814E+02  0.40659118950E+02  0.00000000000E+00 0.  1.
         11    1    3    3    0    0 -0.86906472857E+01  0.80835380319E+01 -0.43082988375E+01  0.12626653416E+02  0.51100000000E-03 0.  1.
        -11    1    3    3    0    0 -0.15228024730E+02  0.17978679126E+02  0.96079346869E+01  0.25444803978E+02  0.51100000000E-03 0. -1.
         12    1    3    3    0    0 -0.46222747712E+00  0.12499856129E+01  0.12385930964E+02  0.12457423655E+02  0.00000000000E+00 0. -1.
</event>
<event>
 7    1  0.5601662E-013  0.5052884E+02  0.7816164E-02  0.1300439E+00
        -11   -1    0    0    0    0  0.00000000000E+00  0.00000000000E+00  0.45593999997E+02  0.45594000000E+02  0.51100000000E-03 0.  1.
         11   -1    0    0    0    0 -0.00000000000E+00 -0.00000000000E+00 -0.45593999997E+02  0.45594000000E+02  0.51100000000E-03 0. -1.
    9900012    2    1    2    0    0  0.29696315799E+02 -0.27619874931E+02  0.29048722071E+01  0.50528844256E+02  0.29999952602E+02 0.  0.
        -12    1    1    2    0    0 -0.29696315799E+02  0.27619874931E+02 -0.29048722071E+01  0.40659155744E+02  0.00000000000E+00 0.  1.
         11    1    3    3    0    0  0.20613105713E+02 -0.25133864422E+02 -0.32539205760E+01  0.32668015968E+02  0.51100000000E-03 0. -1.
        -11    1    3    3    0    0  0.89473310946E+01 -0.41417064798E+01 -0.15451745366E+01  0.99797811043E+01  0.51100000000E-03 0.  1.
        -12    1    3    3    0    0  0.13587899107E+00  0.16556959709E+01  0.77039673196E+01  0.78810471836E+01  0.00000000000E+00 0.  1.
</event>
<event>
 7    1  0.5601662E-013  0.5052888E+02  0.7816164E-02  0.1300439E+00
        -11   -1    0    0    0    0  0.00000000000E+00  0.00000000000E+00  0.45593999997E+02  0.45594000000E+02  0.51100000000E-03 0.  1.
         11   -1    0    0    0    0 -0.00000000000E+00 -0.00000000000E+00 -0.45593999997E+02  0.45594000000E+02  0.51100000000E-03 0. -1.
    9900012    2    1    2    0    0 -0.36922482785E+02 -0.16114782904E+02  0.54961997257E+01  0.50528878336E+02  0.30000056190E+02 0.  0.
        -12    1    1    2    0    0  0.36922482785E+02  0.16114782904E+02 -0.54961997257E+01  0.40659121664E+02  0.00000000000E+00 0.  1.
         11    1    3    3    0    0 -0.12543088979E+02 -0.90317426145E+01 -0.81129763524E+00  0.15477714944E+02  0.51100000000E-03 0. -1.
        -11    1    3    3    0    0 -0.27937128724E+02 -0.80773613086E+01  0.90425405402E+01  0.30454793822E+02  0.51100000000E-03 0.  1.
        -12    1    3    3    0    0  0.35577349175E+01  0.99432101892E+00 -0.27350431792E+01  0.45963695700E+01  0.00000000000E+00 0.  1.
</event>
<event>
 7    1  0.5601662E-013  0.5052888E+02  0.7816164E-02  0.1300439E+00
        -11   -1    0    0    0    0  0.00000000000E+00  0.00000000000E+00  0.45593999997E+02  0.45594000000E+02  0.51100000000E-03 0.  1.
         11   -1    0    0    0    0 -0.00000000000E+00 -0.00000000000E+00 -0.45593999997E+02  0.45594000000E+02  0.51100000000E-03 0. -1.
    9900012    2    1    2    0    0 -0.15432712432E+02 -0.29995423726E+02 -0.22699554402E+02  0.50528882602E+02  0.30000069158E+02 0.  0.
        -12    1    1    2    0    0  0.15432712432E+02  0.29995423726E+02  0.22699554402E+02  0.40659117398E+02  0.00000000000E+00 0.  1.
         11    1    3    3    0    0  0.23499621999E+01 -0.97679995739E+01  0.20158304514E+01  0.10246936649E+02  0.51100000000E-03 0. -1.
        -11    1    3    3    0    0  0.22233999585E+01  0.11688658344E+01 -0.17771243876E+01  0.30769995230E+01  0.51100000000E-03 0.  1.
         12    1    3    3    0    0 -0.20006074590E+02 -0.21396289986E+02 -0.22938260466E+02  0.37204946430E+02  0.00000000000E+00 0. -1.
</event>
<event>
 7    1  0.5601662E-013  0.5052886E+02  0.7816164E-02  0.1300439E+00
        -11   -1    0    0    0    0  0.00000000000E+00  0.00000000000E+00  0.45593999997E+02  0.45594000000E+02  0.51100000000E-03 0.  1.
         11   -1    0    0    0    0 -0.00000000000E+00 -0.00000000000E+00 -0.45593999997E+02  0.45594000000E+02  0.51100000000E-03 0. -1.
    9900012    2    1    2    0    0 -0.17992370914E+02  0.84801153356E+01 -0.35461643419E+02  0.50528856856E+02  0.29999990900E+02 0.  0.
        -12    1    1    2    0    0  0.17992370914E+02 -0.84801153356E+01  0.35461643419E+02  0.40659143144E+02  0.00000000000E+00 0.  1.
         11    1    3    3    0    0 -0.64555450569E+00 -0.54955710902E+01 -0.31371500955E+01  0.63607981582E+01  0.51100000000E-03 0. -1.
        -11    1    3    3    0    0 -0.95047128311E+01  0.71923887559E+01 -0.19566500267E+01  0.12078845210E+02  0.51100000000E-03 0.  1.
         12    1    3    3    0    0 -0.78421035776E+01  0.67832976699E+01 -0.30367843297E+02  0.32089213488E+02  0.00000000000E+00 0. -1.
</event>
<event>
 7    1  0.5601662E-013  0.5052885E+02  0.7816164E-02  0.1300439E+00
        -11   -1    0    0    0    0  0.00000000000E+00  0.00000000000E+00  0.45593999997E+02  0.45594000000E+02  0.51100000000E-03 0. -1.
         11   -1    0    0    0    0 -0.00000000000E+00 -0.00000000000E+00 -0.45593999997E+02  0.45594000000E+02  0.51100000000E-03 0.  1.
    9900012    2    1    2    0    0 -0.14289121067E+02 -0.36704357239E+02  0.10088490157E+02  0.50528850294E+02  0.29999970953E+02 0.  0.
        -12    1    1    2    0    0  0.14289121067E+02  0.36704357239E+02 -0.10088490157E+02  0.40659149706E+02  0.00000000000E+00 0.  1.
         11    1    3    3    0    0 -0.81473592561E-01 -0.48579780228E+01  0.35399568274E+01  0.60114792703E+01  0.51100000000E-03 0. -1.
        -11    1    3    3    0    0 -0.59256710331E+01 -0.32281514864E+02 -0.16410977155E+01  0.32861877321E+02  0.51100000000E-03 0.  1.
        -12    1    3    3    0    0 -0.82819764412E+01  0.43513564739E+00  0.81896310448E+01  0.11655493703E+02  0.00000000000E+00 0.  1.
</event>
<event>
 7    1  0.5601662E-013  0.5052886E+02  0.7816164E-02  0.1300439E+00
        -11   -1    0    0    0    0  0.00000000000E+00  0.00000000000E+00  0.45593999997E+02  0.45594000000E+02  0.51100000000E-03 0.  1.
         11   -1    0    0    0    0 -0.00000000000E+00 -0.00000000000E+00 -0.45593999997E+02  0.45594000000E+02  0.51100000000E-03 0. -1.
    9900012    2    1    2    0    0  0.15458013078E+02 -0.19526631670E+02 -0.32139169174E+02  0.50528859479E+02  0.29999998873E+02 0.  0.
        -12    1    1    2    0    0 -0.15458013078E+02  0.19526631670E+02  0.32139169174E+02  0.40659140521E+02  0.00000000000E+00 0.  1.
         11    1    3    3    0    0  0.28816158094E+01 -0.17113010667E+01 -0.58737621061E+01  0.67626431633E+01  0.51100000000E-03 0. -1.
        -11    1    3    3    0    0  0.12300331010E+02 -0.24077801632E+02 -0.15118290113E+02  0.30977433247E+02  0.51100000000E-03 0.  1.
        -12    1    3    3    0    0  0.27606625862E+00  0.62624710288E+01 -0.11147116955E+02  0.12788783069E+02  0.00000000000E+00 0.  1.
</event>
<event>
 7    1  0.5601662E-013  0.5052886E+02  0.7816164E-02  0.1300439E+00
        -11   -1    0    0    0    0  0.00000000000E+00  0.00000000000E+00  0.45593999997E+02  0.45594000000E+02  0.51100000000E-03 0. -1.
         11   -1    0    0    0    0 -0.00000000000E+00 -0.00000000000E+00 -0.45593999997E+02  0.45594000000E+02  0.51100000000E-03 0.  1.
    9900012    2    1    2    0    0  0.31539250923E+02 -0.14945780857E+02  0.20858206548E+02  0.50528862102E+02  0.30000006845E+02 0.  0.
        -12    1    1    2    0    0 -0.31539250923E+02  0.14945780857E+02 -0.20858206548E+02  0.40659137898E+02  0.00000000000E+00 0.  1.
         11    1    3    3    0    0  0.14558584112E+02 -0.36283024663E+01  0.87387999238E+01  0.17363282365E+02  0.51100000000E-03 0. -1.
        -11    1    3    3    0    0  0.18900494830E+02 -0.16096167037E+02  0.12866435706E+02  0.27961767937E+02  0.51100000000E-03 0.  1.
        -12    1    3    3    0    0 -0.19198280196E+01  0.47786886462E+01 -0.74702908114E+00  0.52038118000E+01  0.00000000000E+00 0.  1.
</event>
<event>
 7    1  0.5601662E-013  0.5052886E+02  0.7816164E-02  0.1300439E+00
        -11   -1    0    0    0    0  0.00000000000E+00  0.00000000000E+00  0.45593999997E+02  0.45594000000E+02  0.51100000000E-03 0.  1.
         11   -1    0    0    0    0 -0.00000000000E+00 -0.00000000000E+00 -0.45593999997E+02  0.45594000000E+02  0.51100000000E-03 0. -1.
    9900012    2    1    2    0    0 -0.32769842473E+02 -0.23802127486E+02 -0.35723466786E+01  0.50528861921E+02  0.30000006294E+02 0.  0.
        -12    1    1    2    0    0  0.32769842473E+02  0.23802127486E+02  0.35723466786E+01  0.40659138079E+02  0.00000000000E+00 0.  1.
         11    1    3    3    0    0 -0.63228214836E+00 -0.33885082668E+01 -0.82858472095E+01  0.89742427664E+01  0.51100000000E-03 0. -1.
        -11    1    3    3    0    0 -0.60939710381E+01 -0.45993066177E+01 -0.55108075563E+01  0.94158963758E+01  0.51100000000E-03 0.  1.
         12    1    3    3    0    0 -0.26043589287E+02 -0.15814312601E+02  0.10224308087E+02  0.32138722779E+02  0.00000000000E+00 0. -1.
</event>
<event>
 7    1  0.5601662E-013  0.5052885E+02  0.7816164E-02  0.1300439E+00
        -11   -1    0    0    0    0  0.00000000000E+00  0.00000000000E+00  0.45593999997E+02  0.45594000000E+02  0.51100000000E-03 0. -1.
         11   -1    0    0    0    0 -0.00000000000E+00 -0.00000000000E+00 -0.45593999997E+02  0.45594000000E+02  0.51100000000E-03 0.  1.
    9900012    2    1    2    0    0  0.29456181772E+02  0.19175850780E+02 -0.20439821537E+02  0.50528853401E+02  0.29999980398E+02 0.  0.
        -12    1    1    2    0    0 -0.29456181772E+02 -0.19175850780E+02  0.20439821537E+02  0.40659146599E+02  0.00000000000E+00 0.  1.
         11    1    3    3    0    0  0.15098786046E+02  0.22579112017E+01 -0.10042657072E+02  0.18273654927E+02  0.51100000000E-03 0. -1.
        -11    1    3    3    0    0  0.13046441943E+02 -0.40508621423E+00 -0.31225424894E+01  0.13421028800E+02  0.51100000000E-03 0.  1.
        -12    1    3    3    0    0  0.13109537836E+01  0.17323025793E+02 -0.72746219749E+01  0.18834169674E+02  0.00000000000E+00 0.  1.
</event>
<event>
 7    1  0.5601662E-013  0.5052885E+02  0.7816164E-02  0.1300439E+00
        -11   -1    0    0    0    0  0.00000000000E+00  0.00000000000E+00  0.45593999997E+02  0.45594000000E+02  0.51100000000E-03 0. -1.
         11   -1    0    0    0    0 -0.00000000000E+00 -0.00000000000E+00 -0.45593999997E+02  0.45594000000E+02  0.51100000000E-03 0.  1.
    9900012    2    1    2    0    0 -0.18634972864E+02  0.27634453964E+02  0.23286068291E+02  0.50528852985E+02  0.29999979134E+02 0.  0.
        -12    1    1    2    0    0  0.18634972864E+02 -0.27634453964E+02 -0.23286068291E+02  0.40659147015E+02  0.00000000000E+00 0.  1.
         11    1    3    3    0    0 -0.52968079619E+01  0.38406310580E+01  0.11727729037E+02  0.13429305646E+02  0.51100000000E-03 0. -1.
        -11    1    3    3    0    0  0.11926803513E+00 -0.17804666355E+01 -0.39268615716E+01  0.43132966937E+01  0.51100000000E-03 0.  1.
        -12    1    3    3    0    0 -0.13457432937E+02  0.25574289541E+02  0.15485200825E+02  0.32786250646E+02  0.00000000000E+00 0.  1.
</event>
<event>
 7    1  0.5601662E-013  0.5052883E+02  0.7816164E-02  0.1300439E+00
        -11   -1    0    0    0    0  0.00000000000E+00  0.00000000000E+00  0.45593999997E+02  0.45594000000E+02  0.51100000000E-03 0.  1.
         11   -1    0    0    0    0 -0.00000000000E+00 -0.00000000000E+00 -0.45593999997E+02  0.45594000000E+02  0.51100000000E-03 0. -1.
    9900012    2    1    2    0    0  0.29956851527E+02 -0.22653629781E+02 -0.15574594131E+02  0.50528832792E+02  0.29999917755E+02 0.  0.
        -12    1    1    2    0    0 -0.29956851527E+02  0.22653629781E+02  0.15574594131E+02  0.40659167208E+02  0.00000000000E+00 0.  1.
         11    1    3    3    0    0  0.31918905989E+01 -0.54858144142E+01  0.44729511933E+01  0.77646389498E+01  0.51100000000E-03 0.  1.
        -11    1    3    3    0    0  0.71956732051E+01 -0.14058373627E+02 -0.19214020073E+01  0.15909348442E+02  0.51100000000E-03 0. -1.
         12    1    3    3    0    0  0.19569287723E+02 -0.31094417402E+01 -0.18126143317E+02  0.26854845400E+02  0.00000000000E+00 0. -1.
</event>
<event>
 7    1  0.5601662E-013  0.5052885E+02  0.7816164E-02  0.1300439E+00
        -11   -1    0    0    0    0  0.00000000000E+00  0.00000000000E+00  0.45593999997E+02  0.45594000000E+02  0.51100000000E-03 0.  1.
         11   -1    0    0    0    0 -0.00000000000E+00 -0.00000000000E+00 -0.45593999997E+02  0.45594000000E+02  0.51100000000E-03 0. -1.
    9900012    2    1    2    0    0  0.10631847187E+02  0.33354135028E+02 -0.20679267082E+02  0.50528848692E+02  0.29999966083E+02 0.  0.
        -12    1    1    2    0    0 -0.10631847187E+02 -0.33354135028E+02  0.20679267082E+02  0.40659151308E+02  0.00000000000E+00 0.  1.
         11    1    3    3    0    0  0.12255337190E+02  0.22537018878E+02 -0.12021942914E+02  0.28330859875E+02  0.51100000000E-03 0. -1.
        -11    1    3    3    0    0  0.77975946557E+01  0.50966835312E+01 -0.50774320001E+01  0.10609381764E+02  0.51100000000E-03 0.  1.
         12    1    3    3    0    0 -0.94210846590E+01  0.57204326184E+01 -0.35798921683E+01  0.11588607053E+02  0.00000000000E+00 0. -1.
</event>
<event>
 7    1  0.5601662E-013  0.5052884E+02  0.7816164E-02  0.1300439E+00
        -11   -1    0    0    0    0  0.00000000000E+00  0.00000000000E+00  0.45593999997E+02  0.45594000000E+02  0.51100000000E-03 0.  1.
         11   -1    0    0    0    0 -0.00000000000E+00 -0.00000000000E+00 -0.45593999997E+02  0.45594000000E+02  0.51100000000E-03 0. -1.
    9900012    2    1    2    0    0 -0.11474392412E+02 -0.20798081808E+02 -0.32999168667E+02  0.50528843333E+02  0.29999949796E+02 0.  0.
        -12    1    1    2    0    0  0.11474392412E+02  0.20798081808E+02  0.32999168667E+02  0.40659156667E+02  0.00000000000E+00 0.  1.
         11    1    3    3    0    0 -0.99074014330E+01 -0.22606225390E+02 -0.23878053054E+02  0.34341803206E+02  0.51100000000E-03 0. -1.
        -11    1    3    3    0    0 -0.38116751989E+01 -0.42019114958E+00 -0.11568691829E+02  0.12187701150E+02  0.51100000000E-03 0.  1.
        -12    1    3    3    0    0  0.22446842195E+01  0.22283347312E+01  0.24475762166E+01  0.39993389773E+01  0.00000000000E+00 0.  1.
</event>
<event>
 7    1  0.5601662E-013  0.5052887E+02  0.7816164E-02  0.1300439E+00
        -11   -1    0    0    0    0  0.00000000000E+00  0.00000000000E+00  0.45593999997E+02  0.45594000000E+02  0.51100000000E-03 0.  1.
         11   -1    0    0    0    0 -0.00000000000E+00 -0.00000000000E+00 -0.45593999997E+02  0.45594000000E+02  0.51100000000E-03 0. -1.
    9900012    2    1    2    0    0  0.59959851148E+01  0.14035022174E+02 -0.37685949548E+02  0.50528874600E+02  0.30000044836E+02 0.  0.
        -12    1    1    2    0    0 -0.59959851148E+01 -0.14035022174E+02  0.37685949548E+02  0.40659125400E+02  0.00000000000E+00 0.  1.
         11    1    3    3    0    0  0.90010833949E+01 -0.29991668865E+01 -0.14001498697E+02  0.16913204023E+02  0.51100000000E-03 0. -1.
        -11    1    3    3    0    0  0.14593297745E-01 -0.21725404943E+01  0.83118723990E+00  0.23261594212E+01  0.51100000000E-03 0.  1.
         12    1    3    3    0    0 -0.30196915779E+01  0.19206729554E+02 -0.24515638091E+02  0.31289511156E+02  0.00000000000E+00 0. -1.
</event>
<event>
 7    1  0.5601662E-013  0.5052888E+02  0.7816164E-02  0.1300439E+00
        -11   -1    0    0    0    0  0.00000000000E+00  0.00000000000E+00  0.45593999997E+02  0.45594000000E+02  0.51100000000E-03 0.  1.
         11   -1    0    0    0    0 -0.00000000000E+00 -0.00000000000E+00 -0.45593999997E+02  0.45594000000E+02  0.51100000000E-03 0. -1.
    9900012    2    1    2    0    0  0.16255661618E+02  0.96911916093E+01 -0.35986082588E+02  0.50528882087E+02  0.30000067590E+02 0.  0.
        -12    1    1    2    0    0 -0.16255661618E+02 -0.96911916093E+01  0.35986082588E+02  0.40659117913E+02  0.00000000000E+00 0.  1.
         11    1    3    3    0    0 -0.47346322138E+01 -0.10719233362E+01 -0.38045462544E+01  0.61676846792E+01  0.51100000000E-03 0.  1.
        -11    1    3    3    0    0 -0.29329610543E+01  0.52002791686E+01 -0.64464453701E+01  0.87864567459E+01  0.51100000000E-03 0. -1.
        -12    1    3    3    0    0  0.23923254886E+02  0.55628357769E+01 -0.25735090964E+02  0.35574740662E+02  0.00000000000E+00 0.  1.
</event>
<event>
 7    1  0.5601662E-013  0.5052884E+02  0.7816164E-02  0.1300439E+00
        -11   -1    0    0    0    0  0.00000000000E+00  0.00000000000E+00  0.45593999997E+02  0.45594000000E+02  0.51100000000E-03 0.  1.
         11   -1    0    0    0    0 -0.00000000000E+00 -0.00000000000E+00 -0.45593999997E+02  0.45594000000E+02  0.51100000000E-03 0. -1.
    9900012    2    1    2    0    0 -0.61184287679E+01 -0.24130977155E+02 -0.32146979331E+02  0.50528837329E+02  0.29999931544E+02 0.  0.
        -12    1    1    2    0    0  0.61184287679E+01  0.24130977155E+02  0.32146979331E+02  0.40659162671E+02  0.00000000000E+00 0.  1.
         11    1    3    3    0    0  0.33782210425E+01 -0.40137343215E+01 -0.10862148201E+02  0.12062698886E+02  0.51100000000E-03 0. -1.
        -11    1    3    3    0    0  0.50335527707E+01 -0.21495150636E+01 -0.12675520377E+02  0.13806733343E+02  0.51100000000E-03 0.  1.
         12    1    3    3    0    0 -0.14530202581E+02 -0.17967727770E+02 -0.86093107529E+01  0.24659405100E+02  0.00000000000E+00 0. -1.
</event>
<event>
 7    1  0.5601662E-013  0.5052886E+02  0.7816164E-02  0.1300439E+00
        -11   -1    0    0    0    0  0.00000000000E+00  0.00000000000E+00  0.45593999997E+02  0.45594000000E+02  0.51100000000E-03 0.  1.
         11   -1    0    0    0    0 -0.00000000000E+00 -0.00000000000E+00 -0.45593999997E+02  0.45594000000E+02  0.51100000000E-03 0. -1.
    9900012    2    1    2    0    0 -0.50945106128E+01  0.89652792247E+01 -0.39329829020E+02  0.50528859322E+02  0.29999998394E+02 0.  0.
        -12    1    1    2    0    0  0.50945106128E+01 -0.89652792247E+01  0.39329829020E+02  0.40659140678E+02  0.00000000000E+00 0.  1.
         11    1    3    3    0    0  0.49007786287E+01 -0.32171078669E+01 -0.84281755022E+01  0.10266526031E+02  0.51100000000E-03 0. -1.
        -11    1    3    3    0    0  0.14425982459E+01 -0.46408900092E+01 -0.29283633461E+01  0.56739987596E+01  0.51100000000E-03 0.  1.
        -12    1    3    3    0    0 -0.11437887487E+02  0.16823277101E+02 -0.27973290172E+02  0.34588334531E+02  0.00000000000E+00 0.  1.
</event>
<event>
 7    1  0.5601662E-013  0.5052886E+02  0.7816164E-02  0.1300439E+00
        -11   -1    0    0    0    0  0.00000000000E+00  0.00000000000E+00  0.45593999997E+02  0.45594000000E+02  0.51100000000E-03 0.  1.
         11   -1    0    0    0    0 -0.00000000000E+00 -0.00000000000E+00 -0.45593999997E+02  0.45594000000E+02  0.51100000000E-03 0. -1.
    9900012    2    1    2    0    0 -0.26554904798E+02 -0.26039685202E+02 -0.16429782097E+02  0.50528856945E+02  0.29999991170E+02 0.  0.
        -12    1    1    2    0    0  0.26554904798E+02  0.26039685202E+02  0.16429782097E+02  0.40659143055E+02  0.00000000000E+00 0.  1.
         11    1    3    3    0    0 -0.11433392377E+02 -0.11068565219E+02 -0.15085593584E+02  0.21927396820E+02  0.51100000000E-03 0. -1.
        -11    1    3    3    0    0 -0.64956565592E+01 -0.85896663137E+01 -0.10091028757E+02  0.14758210703E+02  0.51100000000E-03 0.  1.
        -12    1    3    3    0    0 -0.86258558615E+01 -0.63814536689E+01  0.87468402450E+01  0.13843249421E+02  0.00000000000E+00 0.  1.
</event>
<event>
 7    1  0.5601662E-013  0.5052885E+02  0.7816164E-02  0.1300439E+00
        -11   -1    0    0    0    0  0.00000000000E+00  0.00000000000E+00  0.45593999997E+02  0.45594000000E+02  0.51100000000E-03 0. -1.
         11   -1    0    0    0    0 -0.00000000000E+00 -0.00000000000E+00 -0.45593999997E+02  0.45594000000E+02  0.51100000000E-03 0.  1.
    9900012    2    1    2    0    0 -0.14495232172E+02  0.36380271312E+02  0.10932998755E+02  0.50528851482E+02  0.29999974564E+02 0.  0.
        -12    1    1    2    0    0  0.14495232172E+02 -0.36380271312E+02 -0.10932998755E+02  0.40659148518E+02  0.00000000000E+00 0.  1.
         11    1    3    3    0    0 -0.10365172047E+02  0.12923568276E+02  0.10922986424E+02  0.19843564227E+02  0.51100000000E-03 0. -1.
        -11    1    3    3    0    0 -0.90973590063E+01  0.87801104164E+01  0.60989321485E+01  0.14037423319E+02  0.51100000000E-03 0.  1.
        -12    1    3    3    0    0  0.49672988818E+01  0.14676592620E+02 -0.60889198170E+01  0.16647863936E+02  0.00000000000E+00 0.  1.
</event>
<event>
 7    1  0.5601662E-013  0.5052886E+02  0.7816164E-02  0.1300439E+00
        -11   -1    0    0    0    0  0.00000000000E+00  0.00000000000E+00  0.45593999997E+02  0.45594000000E+02  0.51100000000E-03 0.  1.
         11   -1    0    0    0    0 -0.00000000000E+00 -0.00000000000E+00 -0.45593999997E+02  0.45594000000E+02  0.51100000000E-03 0. -1.
    9900012    2    1    2    0    0  0.14306731949E+02 -0.26554312460E+02 -0.27264475439E+02  0.50528859450E+02  0.29999998785E+02 0.  0.
        -12    1    1    2    0    0 -0.14306731949E+02  0.26554312460E+02  0.27264475439E+02  0.40659140550E+02  0.00000000000E+00 0.  1.
         11    1    3    3    0    0  0.41766731464E+01 -0.22738562445E+02 -0.22105825014E+02  0.31986783528E+02  0.51100000000E-03 0. -1.
        -11    1    3    3    0    0 -0.10604928039E+01  0.35196570707E+01 -0.34707717062E+01  0.50555798263E+01  0.51100000000E-03 0.  1.
         12    1    3    3    0    0  0.11190551607E+02 -0.73354070855E+01 -0.16878787183E+01  0.13486496096E+02  0.00000000000E+00 0. -1.
</event>
<event>
 7    1  0.5601662E-013  0.5052884E+02  0.7816164E-02  0.1300439E+00
        -11   -1    0    0    0    0  0.00000000000E+00  0.00000000000E+00  0.45593999997E+02  0.45594000000E+02  0.51100000000E-03 0. -1.
         11   -1    0    0    0    0 -0.00000000000E+00 -0.00000000000E+00 -0.45593999997E+02  0.45594000000E+02  0.51100000000E-03 0.  1.
    9900012    2    1    2    0    0  0.18429131782E+02 -0.28363683585E+02  0.22561814990E+02  0.50528844323E+02  0.29999952803E+02 0.  0.
        -12    1    1    2    0    0 -0.18429131782E+02  0.28363683585E+02 -0.22561814990E+02  0.40659155677E+02  0.00000000000E+00 0.  1.
         11    1    3    3    0    0 -0.35403265357E+01 -0.24045428298E+01 -0.23524912483E+01  0.48836414216E+01  0.51100000000E-03 0. -1.
        -11    1    3    3    0    0 -0.82841455436E+00 -0.78230664946E+01  0.95144039074E+00  0.79241327053E+01  0.51100000000E-03 0.  1.
         12    1    3    3    0    0  0.22797872872E+02 -0.18136074261E+02  0.23962865847E+02  0.37721070196E+02  0.00000000000E+00 0. -1.
</event>
<event>
 7    1  0.5601662E-013  0.5052887E+02  0.7816164E-02  0.1300439E+00
        -11   -1    0    0    0    0  0.00000000000E+00  0.00000000000E+00  0.45593999997E+02  0.45594000000E+02  0.51100000000E-03 0.  1.
         11   -1    0    0    0    0 -0.00000000000E+00 -0.00000000000E+00 -0.45593999997E+02  0.45594000000E+02  0.51100000000E-03 0. -1.
    9900012    2    1    2    0    0  0.15529404423E+02 -0.34633357680E+02 -0.14578523743E+02  0.50528865474E+02  0.30000017094E+02 0.  0.
        -12    1    1    2    0    0 -0.15529404423E+02  0.34633357680E+02  0.14578523743E+02  0.40659134526E+02  0.00000000000E+00 0.  1.
         11    1    3    3    0    0  0.14437928998E+02 -0.38770458804E+02 -0.95959992185E+01  0.42469818352E+02  0.51100000000E-03 0. -1.
        -11    1    3    3    0    0  0.21197675423E+01  0.14298386191E+01 -0.32901132082E+00  0.25780034175E+01  0.51100000000E-03 0.  1.
        -12    1    3    3    0    0 -0.10282921175E+01  0.27072625053E+01 -0.46535132033E+01  0.54810437039E+01  0.00000000000E+00 0.  1.
</event>
<event>
 7    1  0.5601662E-013  0.5052884E+02  0.7816164E-02  0.1300439E+00
        -11   -1    0    0    0    0  0.00000000000E+00  0.00000000000E+00  0.45593999997E+02  0.45594000000E+02  0.51100000000E-03 0.  1.
         11   -1    0    0    0    0 -0.00000000000E+00 -0.00000000000E+00 -0.45593999997E+02  0.45594000000E+02  0.51100000000E-03 0. -1.
    9900012    2    1    2    0    0  0.25256909616E+02 -0.25183963646E+02 -0.19519831730E+02  0.50528839420E+02  0.29999937901E+02 0.  0.
        -12    1    1    2    0    0 -0.25256909616E+02  0.25183963646E+02  0.19519831730E+02  0.40659160580E+02  0.00000000000E+00 0.  1.
         11    1    3    3    0    0  0.13911959487E+01 -0.25416399338E+01 -0.62812205733E+01  0.69173038008E+01  0.51100000000E-03 0. -1.
        -11    1    3    3    0    0  0.22034886221E+02 -0.60054456948E+01 -0.14120061935E+02  0.26851028623E+02  0.51100000000E-03 0.  1.
        -12    1    3    3    0    0  0.18308274461E+01 -0.16636878018E+02  0.88145077795E+00  0.16760506997E+02  0.00000000000E+00 0.  1.
</event>
<event>
 7    1  0.5601662E-013  0.5052885E+02  0.7816164E-02  0.1300439E+00
        -11   -1    0    0    0    0  0.00000000000E+00  0.00000000000E+00  0.45593999997E+02  0.45594000000E+02  0.51100000000E-03 0. -1.
         11   -1    0    0    0    0 -0.00000000000E+00 -0.00000000000E+00 -0.45593999997E+02  0.45594000000E+02  0.51100000000E-03 0.  1.
    9900012    2    1    2    0    0 -0.29874364908E+02 -0.27317235128E+02 -0.38022644719E+01  0.50528853073E+02  0.29999979402E+02 0.  0.
        -12    1    1    2    0    0  0.29874364908E+02  0.27317235128E+02  0.38022644719E+01  0.40659146927E+02  0.00000000000E+00 0.  1.
         11    1    3    3    0    0 -0.15704973903E+00 -0.58957052656E+01  0.36051500907E+00  0.59088050003E+01  0.51100000000E-03 0. -1.
        -11    1    3    3    0    0  0.28089154296E+01 -0.15809392751E+01 -0.56349457427E+01  0.64916861189E+01  0.51100000000E-03 0.  1.
        -12    1    3    3    0    0 -0.32526230598E+02 -0.19840590587E+02  0.14721662617E+01  0.38128361954E+02  0.00000000000E+00 0.  1.
</event>
<event>
 7    1  0.5601662E-013  0.5052886E+02  0.7816164E-02  0.1300439E+00
        -11   -1    0    0    0    0  0.00000000000E+00  0.00000000000E+00  0.45593999997E+02  0.45594000000E+02  0.51100000000E-03 0.  1.
         11   -1    0    0    0    0 -0.00000000000E+00 -0.00000000000E+00 -0.45593999997E+02  0.45594000000E+02  0.51100000000E-03 0. -1.
    9900012    2    1    2    0    0  0.13744305817E+02  0.97993336108E+01 -0.36989626872E+02  0.50528863539E+02  0.30000011214E+02 0.  0.
        -12    1    1    2    0    0 -0.13744305817E+02 -0.97993336108E+01  0.36989626872E+02  0.40659136461E+02  0.00000000000E+00 0.  1.
         11    1    3    3    0    0 -0.33309490587E+01 -0.11502859746E+01  0.21272081730E+01  0.41162354558E+01  0.51100000000E-03 0. -1.
        -11    1    3    3    0    0 -0.20060001987E+01 -0.11571305420E+01 -0.47070001317E+01  0.52458401033E+01  0.51100000000E-03 0.  1.
         12    1    3    3    0    0  0.19081255074E+02  0.12106750127E+02 -0.34409834913E+02  0.41166787980E+02  0.00000000000E+00 0. -1.
</event>
<event>
 7    1  0.5601662E-013  0.5052886E+02  0.7816164E-02  0.1300439E+00
        -11   -1    0    0    0    0  0.00000000000E+00  0.00000000000E+00  0.45593999997E+02  0.45594000000E+02  0.51100000000E-03 0. -1.
         11   -1    0    0    0    0 -0.00000000000E+00 -0.00000000000E+00 -0.45593999997E+02  0.45594000000E+02  0.51100000000E-03 0.  1.
    9900012    2    1    2    0    0 -0.29370037052E+02 -0.21914330588E+02  0.17616159129E+02  0.50528855592E+02  0.29999987058E+02 0.  0.
        -12    1    1    2    0    0  0.29370037052E+02  0.21914330588E+02 -0.17616159129E+02  0.40659144408E+02  0.00000000000E+00 0.  1.
         11    1    3    3    0    0 -0.98091504331E+01 -0.24765478081E+00  0.39927329413E+01  0.10593520742E+02  0.51100000000E-03 0. -1.
        -11    1    3    3    0    0 -0.17744957251E+02 -0.58606445686E+01 -0.45142799173E+00  0.18693165866E+02  0.51100000000E-03 0.  1.
         12    1    3    3    0    0 -0.18159293671E+01 -0.15806031238E+02  0.14074854179E+02  0.21242168984E+02  0.00000000000E+00 0. -1.
</event>
<event>
 7    1  0.5601662E-013  0.5052886E+02  0.7816164E-02  0.1300439E+00
        -11   -1    0    0    0    0  0.00000000000E+00  0.00000000000E+00  0.45593999997E+02  0.45594000000E+02  0.51100000000E-03 0. -1.
         11   -1    0    0    0    0 -0.00000000000E+00 -0.00000000000E+00 -0.45593999997E+02  0.45594000000E+02  0.51100000000E-03 0.  1.
    9900012    2    1    2    0    0  0.26448759957E+02  0.25362490028E+02  0.17617395289E+02  0.50528863014E+02  0.30000009617E+02 0.  0.
        -12    1    1    2    0    0 -0.26448759957E+02 -0.25362490028E+02 -0.17617395289E+02  0.40659136986E+02  0.00000000000E+00 0.  1.
         11    1    3    3    0    0  0.13050254204E+02  0.89936669423E-01  0.39113515985E+01  0.13624092446E+02  0.51100000000E-03 0. -1.
        -11    1    3    3    0    0  0.13861711864E+02  0.25178517562E+02  0.17122539935E+02  0.33455734583E+02  0.51100000000E-03 0.  1.
         12    1    3    3    0    0 -0.46320611119E+00  0.94035796732E-01 -0.34164962442E+01  0.34490359840E+01  0.00000000000E+00 0. -1.
</event>
<event>
 7    1  0.5601662E-013  0.5052888E+02  0.7816164E-02  0.1300439E+00
        -11   -1    0    0    0    0  0.00000000000E+00  0.00000000000E+00  0.45593999997E+02  0.45594000000E+02  0.51100000000E-03 0.  1.
         11   -1    0    0    0    0 -0.00000000000E+00 -0.00000000000E+00 -0.45593999997E+02  0.45594000000E+02  0.51100000000E-03 0. -1.
    9900012    2    1    2    0    0  0.36922128302E+02 -0.14530572096E+02 -0.88759968006E+01  0.50528875526E+02  0.30000047650E+02 0.  0.
        -12    1    1    2    0    0 -0.36922128302E+02  0.14530572096E+02  0.88759968006E+01  0.40659124474E+02  0.00000000000E+00 0.  1.
         11    1    3    3    0    0  0.61915402263E+01 -0.36189252158E+01  0.22045520435E+01  0.75027888191E+01  0.51100000000E-03 0. -1.
        -11    1    3    3    0    0  0.10223633305E+01 -0.28261526237E+01  0.67909818482E+01  0.74262911440E+01  0.51100000000E-03 0.  1.
         12    1    3    3    0    0  0.29708224745E+02 -0.80854942561E+01 -0.17871530692E+02  0.35599795563E+02  0.00000000000E+00 0. -1.
</event>
<event>
 7    1  0.5601662E-013  0.5052886E+02  0.7816164E-02  0.1300439E+00
        -11   -1    0    0    0    0  0.00000000000E+00  0.00000000000E+00  0.45593999997E+02  0.45594000000E+02  0.51100000000E-03 0. -1.
         11   -1    0    0    0    0 -0.00000000000E+00 -0.00000000000E+00 -0.45593999997E+02  0.45594000000E+02  0.51100000000E-03 0.  1.
    9900012    2    1    2    0    0 -0.21568944344E+02  0.18370242284E+02  0.29162995941E+02  0.50528862110E+02  0.30000006870E+02 0.  0.
        -12    1    1    2    0    0  0.21568944344E+02 -0.18370242284E+02 -0.29162995941E+02  0.40659137890E+02  0.00000000000E+00 0.  1.
         11    1    3    3    0    0 -0.58687102985E+01  0.35332212512E+00  0.26456141264E+01  0.64471599529E+01  0.51100000000E-03 0. -1.
        -11    1    3    3    0    0 -0.51809655422E+01 -0.45055888894E+01 -0.10679078716E+01  0.69486086861E+01  0.51100000000E-03 0.  1.
         12    1    3    3    0    0 -0.10519268503E+02  0.22522509049E+02  0.27585289686E+02  0.37133093471E+02  0.00000000000E+00 0. -1.
</event>
<event>
 7    1  0.5601662E-013  0.5052885E+02  0.7816164E-02  0.1300439E+00
        -11   -1    0    0    0    0  0.00000000000E+00  0.00000000000E+00  0.45593999997E+02  0.45594000000E+02  0.51100000000E-03 0.  1.
         11   -1    0    0    0    0 -0.00000000000E+00 -0.00000000000E+00 -0.45593999997E+02  0.45594000000E+02  0.51100000000E-03 0. -1.
    9900012    2    1    2    0    0  0.28250151621E+02 -0.16024032125E+02 -0.24460701748E+02  0.50528848482E+02  0.29999965445E+02 0.  0.
        -12    1    1    2    0    0 -0.28250151621E+02  0.16024032125E+02  0.24460701748E+02  0.40659151518E+02  0.00000000000E+00 0.  1.
         11    1    3    3    0    0  0.16710585812E+02 -0.81349039814E+01 -0.67524887021E+01  0.19774135756E+02  0.51100000000E-03 0. -1.
        -11    1    3    3    0    0  0.87112888541E+01  0.62497201491E+01 -0.72553943103E+01  0.12945512825E+02  0.51100000000E-03 0.  1.
        -12    1    3    3    0    0  0.28282769553E+01 -0.14138848293E+02 -0.10452818735E+02  0.17809199901E+02  0.00000000000E+00 0.  1.
</event>
<event>
 7    1  0.5601662E-013  0.5052888E+02  0.7816164E-02  0.1300439E+00
        -11   -1    0    0    0    0  0.00000000000E+00  0.00000000000E+00  0.45593999997E+02  0.45594000000E+02  0.51100000000E-03 0.  1.
         11   -1    0    0    0    0 -0.00000000000E+00 -0.00000000000E+00 -0.45593999997E+02  0.45594000000E+02  0.51100000000E-03 0. -1.
    9900012    2    1    2    0    0  0.89341682005E+01  0.36021211710E+02 -0.16607746314E+02  0.50528876889E+02  0.30000051792E+02 0.  0.
        -12    1    1    2    0    0 -0.89341682005E+01 -0.36021211710E+02  0.16607746314E+02  0.40659123111E+02  0.00000000000E+00 0.  1.
         11    1    3    3    0    0 -0.16945894913E+01  0.20887811432E+02 -0.65372600466E+01  0.21952404632E+02  0.51100000000E-03 0.  1.
        -11    1    3    3    0    0  0.89290974342E+01  0.17183947721E+02 -0.13952844940E+02  0.23868362375E+02  0.51100000000E-03 0. -1.
        -12    1    3    3    0    0  0.16996602576E+01 -0.20505474421E+01  0.38823586725E+01  0.47081098825E+01  0.00000000000E+00 0.  1.
</event>
<event>
 7    1  0.5601662E-013  0.5052886E+02  0.7816164E-02  0.1300439E+00
        -11   -1    0    0    0    0  0.00000000000E+00  0.00000000000E+00  0.45593999997E+02  0.45594000000E+02  0.51100000000E-03 0.  1.
         11   -1    0    0    0    0 -0.00000000000E+00 -0.00000000000E+00 -0.45593999997E+02  0.45594000000E+02  0.51100000000E-03 0. -1.
    9900012    2    1    2    0    0 -0.42271926162E+01 -0.23501951312E+02 -0.32908280936E+02  0.50528858014E+02  0.29999994419E+02 0.  0.
        -12    1    1    2    0    0  0.42271926162E+01  0.23501951312E+02  0.32908280936E+02  0.40659141986E+02  0.00000000000E+00 0.  1.
         11    1    3    3    0    0  0.82490306351E+01 -0.99780332130E+01 -0.21706322031E+02  0.25273940523E+02  0.51100000000E-03 0. -1.
        -11    1    3    3    0    0 -0.28705046713E+00 -0.62657827509E+01 -0.88919324358E+01  0.10881585094E+02  0.51100000000E-03 0.  1.
        -12    1    3    3    0    0 -0.12189172784E+02 -0.72581353481E+01 -0.23100264692E+01  0.14373332397E+02  0.00000000000E+00 0.  1.
</event>
<event>
 7    1  0.5601662E-013  0.5052886E+02  0.7816164E-02  0.1300439E+00
        -11   -1    0    0    0    0  0.00000000000E+00  0.00000000000E+00  0.45593999997E+02  0.45594000000E+02  0.51100000000E-03 0.  1.
         11   -1    0    0    0    0 -0.00000000000E+00 -0.00000000000E+00 -0.45593999997E+02  0.45594000000E+02  0.51100000000E-03 0. -1.
    9900012    2    1    2    0    0 -0.23844459710E+02  0.18834134586E+02 -0.27016348462E+02  0.50528856272E+02  0.29999989125E+02 0.  0.
        -12    1    1    2    0    0  0.23844459710E+02 -0.18834134586E+02  0.27016348462E+02  0.40659143728E+02  0.00000000000E+00 0.  1.
         11    1    3    3    0    0  0.32429136172E+01  0.26133838224E+01 -0.82444728568E+01  0.92367524964E+01  0.51100000000E-03 0. -1.
        -11    1    3    3    0    0 -0.63554567117E+00  0.92642687243E+01 -0.32193289524E+01  0.98282588723E+01  0.51100000000E-03 0.  1.
         12    1    3    3    0    0 -0.26451827656E+02  0.69564820391E+01 -0.15552546653E+02  0.31463844903E+02  0.00000000000E+00 0. -1.
</event>
<event>
 7    1  0.5601662E-013  0.5052886E+02  0.7816164E-02  0.1300439E+00
        -11   -1    0    0    0    0  0.00000000000E+00  0.00000000000E+00  0.45593999997E+02  0.45594000000E+02  0.51100000000E-03 0. -1.
         11   -1    0    0    0    0 -0.00000000000E+00 -0.00000000000E+00 -0.45593999997E+02  0.45594000000E+02  0.51100000000E-03 0.  1.
    9900012    2    1    2    0    0  0.50716508964E+01  0.39352358423E+02  0.88789521830E+01  0.50528861444E+02  0.30000004844E+02 0.  0.
        -12    1    1    2    0    0 -0.50716508964E+01 -0.39352358423E+02 -0.88789521830E+01  0.40659138556E+02  0.00000000000E+00 0.  1.
         11    1    3    3    0    0  0.92092910475E+00  0.47898541165E+00 -0.40039445842E+01  0.41363159859E+01  0.51100000000E-03 0. -1.
        -11    1    3    3    0    0  0.28779379409E+01  0.18333308970E+02 -0.49005057843E+01  0.19193949614E+02  0.51100000000E-03 0.  1.
         12    1    3    3    0    0  0.12727838508E+01  0.20540064042E+02  0.17783402552E+02  0.27198595844E+02  0.00000000000E+00 0. -1.
</event>
<event>
 7    1  0.5601662E-013  0.5052886E+02  0.7816164E-02  0.1300439E+00
        -11   -1    0    0    0    0  0.00000000000E+00  0.00000000000E+00  0.45593999997E+02  0.45594000000E+02  0.51100000000E-03 0.  1.
         11   -1    0    0    0    0 -0.00000000000E+00 -0.00000000000E+00 -0.45593999997E+02  0.45594000000E+02  0.51100000000E-03 0. -1.
    9900012    2    1    2    0    0 -0.28185154873E+02  0.25273101674E+02  0.14833506745E+02  0.50528861473E+02  0.30000004933E+02 0.  0.
        -12    1    1    2    0    0  0.28185154873E+02 -0.25273101674E+02 -0.14833506745E+02  0.40659138527E+02  0.00000000000E+00 0.  1.
         11    1    3    3    0    0 -0.88584803258E+01  0.18449505627E+00 -0.12159884713E+01  0.89434523721E+01  0.51100000000E-03 0. -1.
        -11    1    3    3    0    0 -0.21356987698E+00  0.18298135434E+01  0.10886610158E+02  0.11041381738E+02  0.51100000000E-03 0.  1.
         12    1    3    3    0    0 -0.19113104670E+02  0.23258793074E+02  0.51628850578E+01  0.30544027362E+02  0.00000000000E+00 0. -1.
</event>
<event>
 7    1  0.5601662E-013  0.5052886E+02  0.7816164E-02  0.1300439E+00
        -11   -1    0    0    0    0  0.00000000000E+00  0.00000000000E+00  0.45593999997E+02  0.45594000000E+02  0.51100000000E-03 0. -1.
         11   -1    0    0    0    0 -0.00000000000E+00 -0.00000000000E+00 -0.45593999997E+02  0.45594000000E+02  0.51100000000E-03 0.  1.
    9900012    2    1    2    0    0  0.16630381711E+02  0.10362471253E+02  0.35626042465E+02  0.50528864396E+02  0.30000013819E+02 0.  0.
        -12    1    1    2    0    0 -0.16630381711E+02 -0.10362471253E+02 -0.35626042465E+02  0.40659135604E+02  0.00000000000E+00 0.  1.
         11    1    3    3    0    0  0.11977066097E+02  0.24011701688E+00  0.18398502773E+01  0.12119934727E+02  0.51100000000E-03 0.  1.
        -11    1    3    3    0    0  0.21578958751E+00 -0.40536094924E+00 -0.13689745091E+01  0.14439439438E+01  0.51100000000E-03 0. -1.
         12    1    3    3    0    0  0.44375260267E+01  0.10527715185E+02  0.35155166696E+02  0.36964985726E+02  0.00000000000E+00 0. -1.
</event>
<event>
 7    1  0.5601662E-013  0.5052886E+02  0.7816164E-02  0.1300439E+00
        -11   -1    0    0    0    0  0.00000000000E+00  0.00000000000E+00  0.45593999997E+02  0.45594000000E+02  0.51100000000E-03 0.  1.
         11   -1    0    0    0    0 -0.00000000000E+00 -0.00000000000E+00 -0.45593999997E+02  0.45594000000E+02  0.51100000000E-03 0. -1.
    9900012    2    1    2    0    0  0.33693536889E+02 -0.11880284596E+02 -0.19410567899E+02  0.50528859130E+02  0.29999997810E+02 0.  0.
        -12    1    1    2    0    0 -0.33693536889E+02  0.11880284596E+02  0.19410567899E+02  0.40659140870E+02  0.00000000000E+00 0.  1.
         11    1    3    3    0    0 -0.35461545365E+01  0.17715535693E+01 -0.19711389106E+01  0.44270761132E+01  0.51100000000E-03 0. -1.
        -11    1    3    3    0    0  0.10345246679E+02  0.40245799170E+00  0.13035287830E+01  0.10434811394E+02  0.51100000000E-03 0.  1.
         12    1    3    3    0    0  0.26894444746E+02 -0.14054296157E+02 -0.18742957772E+02  0.35666971622E+02  0.00000000000E+00 0. -1.
</event>
<event>
 7    1  0.5601662E-013  0.5052888E+02  0.7816164E-02  0.1300439E+00
        -11   -1    0    0    0    0  0.00000000000E+00  0.00000000000E+00  0.45593999997E+02  0.45594000000E+02  0.51100000000E-03 0.  1.
         11   -1    0    0    0    0 -0.00000000000E+00 -0.00000000000E+00 -0.45593999997E+02  0.45594000000E+02  0.51100000000E-03 0. -1.
    9900012    2    1    2    0    0 -0.40334930953E+02  0.50772468306E+01 -0.69218374779E+00  0.50528877915E+02  0.30000054910E+02 0.  0.
        -12    1    1    2    0    0  0.40334930953E+02 -0.50772468306E+01  0.69218374779E+00  0.40659122085E+02  0.00000000000E+00 0.  1.
         11    1    3    3    0    0 -0.15863685466E+02  0.11837995593E+02 -0.42360081876E+01  0.20241996489E+02  0.51100000000E-03 0. -1.
        -11    1    3    3    0    0 -0.79998689847E+01  0.45471137903E+01  0.45841107471E+01  0.10280477576E+02  0.51100000000E-03 0.  1.
        -12    1    3    3    0    0 -0.16471376503E+02 -0.11307862553E+02 -0.10402863072E+01  0.20006403850E+02  0.00000000000E+00 0.  1.
</event>
<event>
 7    1  0.5601662E-013  0.5052886E+02  0.7816164E-02  0.1300439E+00
        -11   -1    0    0    0    0  0.00000000000E+00  0.00000000000E+00  0.45593999997E+02  0.45594000000E+02  0.51100000000E-03 0.  1.
         11   -1    0    0    0    0 -0.00000000000E+00 -0.00000000000E+00 -0.45593999997E+02  0.45594000000E+02  0.51100000000E-03 0. -1.
    9900012    2    1    2    0    0 -0.84666456582E+01  0.20448299592E+02 -0.34107900783E+02  0.50528856615E+02  0.29999990168E+02 0.  0.
        -12    1    1    2    0    0  0.84666456582E+01 -0.20448299592E+02  0.34107900783E+02  0.40659143385E+02  0.00000000000E+00 0.  1.
         11    1    3    3    0    0  0.74902322293E+01  0.55661618602E+01 -0.45390460289E+01  0.10377315444E+02  0.51100000000E-03 0. -1.
        -11    1    3    3    0    0 -0.73019220988E+01  0.16739234640E+02 -0.18772130227E+02  0.26189939216E+02  0.51100000000E-03 0.  1.
         12    1    3    3    0    0 -0.86549557888E+01 -0.18570969074E+01 -0.10796724528E+02  0.13961601955E+02  0.00000000000E+00 0. -1.
</event>
<event>
 7    1  0.5601662E-013  0.5052887E+02  0.7816164E-02  0.1300439E+00
        -11   -1    0    0    0    0  0.00000000000E+00  0.00000000000E+00  0.45593999997E+02  0.45594000000E+02  0.51100000000E-03 0. -1.
         11   -1    0    0    0    0 -0.00000000000E+00 -0.00000000000E+00 -0.45593999997E+02  0.45594000000E+02  0.51100000000E-03 0.  1.
    9900012    2    1    2    0    0 -0.38538722496E+02 -0.33568539159E+00  0.12954511297E+02  0.50528865980E+02  0.30000018633E+02 0.  0.
        -12    1    1    2    0    0  0.38538722496E+02  0.33568539159E+00 -0.12954511297E+02  0.40659134020E+02  0.00000000000E+00 0.  1.
         11    1    3    3    0    0 -0.14476508416E+02  0.79337934919E+00  0.69200850407E+00  0.14514738121E+02  0.51100000000E-03 0. -1.
        -11    1    3    3    0    0 -0.20308429940E+02 -0.69807877341E+01 -0.50038379031E+00  0.21480551860E+02  0.51100000000E-03 0.  1.
         12    1    3    3    0    0 -0.37537841402E+01  0.58517229934E+01  0.12762886583E+02  0.14533575998E+02  0.00000000000E+00 0. -1.
</event>
<event>
 7    1  0.5601662E-013  0.5052886E+02  0.7816164E-02  0.1300439E+00
        -11   -1    0    0    0    0  0.00000000000E+00  0.00000000000E+00  0.45593999997E+02  0.45594000000E+02  0.51100000000E-03 0. -1.
         11   -1    0    0    0    0 -0.00000000000E+00 -0.00000000000E+00 -0.45593999997E+02  0.45594000000E+02  0.51100000000E-03 0.  1.
    9900012    2    1    2    0    0  0.37245482892E+02 -0.14092687804E+02  0.82058494411E+01  0.50528858218E+02  0.29999995040E+02 0.  0.
        -12    1    1    2    0    0 -0.37245482892E+02  0.14092687804E+02 -0.82058494411E+01  0.40659141782E+02  0.00000000000E+00 0.  1.
         11    1    3    3    0    0 -0.28875666457E+01 -0.25643788736E+01  0.30335645463E+01  0.49108649195E+01  0.51100000000E-03 0.  1.
        -11    1    3    3    0    0  0.20037189110E+02 -0.13814753022E+02  0.69600913669E+01  0.25313617296E+02  0.51100000000E-03 0. -1.
         12    1    3    3    0    0  0.20095860427E+02  0.22864440918E+01 -0.17878064720E+01  0.20304376003E+02  0.00000000000E+00 0. -1.
</event>
<event>
 7    1  0.5601662E-013  0.5052887E+02  0.7816164E-02  0.1300439E+00
        -11   -1    0    0    0    0  0.00000000000E+00  0.00000000000E+00  0.45593999997E+02  0.45594000000E+02  0.51100000000E-03 0.  1.
         11   -1    0    0    0    0 -0.00000000000E+00 -0.00000000000E+00 -0.45593999997E+02  0.45594000000E+02  0.51100000000E-03 0. -1.
    9900012    2    1    2    0    0  0.35195654978E+02 -0.58236248500E+01 -0.19506829877E+02  0.50528866370E+02  0.30000019818E+02 0.  0.
        -12    1    1    2    0    0 -0.35195654978E+02  0.58236248500E+01  0.19506829877E+02  0.40659133630E+02  0.00000000000E+00 0.  1.
         11    1    3    3    0    0  0.28675102096E+02 -0.29648181422E+01 -0.92922372535E+01  0.30288567155E+02  0.51100000000E-03 0. -1.
        -11    1    3    3    0    0  0.43446000139E+01 -0.44285047522E+01  0.29042123905E+01  0.68499382108E+01  0.51100000000E-03 0.  1.
        -12    1    3    3    0    0  0.21759528672E+01  0.15696980443E+01 -0.13118805014E+02  0.13390361004E+02  0.00000000000E+00 0.  1.
</event>
<event>
 7    1  0.5601662E-013  0.5052886E+02  0.7816164E-02  0.1300439E+00
        -11   -1    0    0    0    0  0.00000000000E+00  0.00000000000E+00  0.45593999997E+02  0.45594000000E+02  0.51100000000E-03 0.  1.
         11   -1    0    0    0    0 -0.00000000000E+00 -0.00000000000E+00 -0.45593999997E+02  0.45594000000E+02  0.51100000000E-03 0. -1.
    9900012    2    1    2    0    0 -0.28622841054E+02  0.25198109667E+02 -0.14105090360E+02  0.50528864066E+02  0.30000012815E+02 0.  0.
        -12    1    1    2    0    0  0.28622841054E+02 -0.25198109667E+02  0.14105090360E+02  0.40659135934E+02  0.00000000000E+00 0.  1.
         11    1    3    3    0    0 -0.91568209280E+01  0.99793301242E+01 -0.98402241371E+01  0.16741099443E+02  0.51100000000E-03 0. -1.
        -11    1    3    3    0    0 -0.13576666247E+02  0.20823385037E+02 -0.57710089639E+01  0.25519478355E+02  0.51100000000E-03 0.  1.
        -12    1    3    3    0    0 -0.58893538791E+01 -0.56046054939E+01  0.15061427409E+01  0.82682862681E+01  0.00000000000E+00 0.  1.
</event>
<event>
 7    1  0.5601662E-013  0.5052888E+02  0.7816164E-02  0.1300439E+00
        -11   -1    0    0    0    0  0.00000000000E+00  0.00000000000E+00  0.45593999997E+02  0.45594000000E+02  0.51100000000E-03 0.  1.
         11   -1    0    0    0    0 -0.00000000000E+00 -0.00000000000E+00 -0.45593999997E+02  0.45594000000E+02  0.51100000000E-03 0. -1.
    9900012    2    1    2    0    0 -0.16729123339E+00  0.10005705707E+02 -0.39408402695E+02  0.50528876349E+02  0.30000050151E+02 0.  0.
        -12    1    1    2    0    0  0.16729123339E+00 -0.10005705707E+02  0.39408402695E+02  0.40659123651E+02  0.00000000000E+00 0.  1.
         11    1    3    3    0    0 -0.37994936474E+01  0.16672253129E+02 -0.14883120396E+02  0.22669526889E+02  0.51100000000E-03 0. -1.
        -11    1    3    3    0    0  0.59235485735E+01 -0.38511657926E+01 -0.69413862663E+01  0.99046831966E+01  0.51100000000E-03 0.  1.
        -12    1    3    3    0    0 -0.22913461595E+01 -0.28153816298E+01 -0.17583896032E+02  0.17954666263E+02  0.00000000000E+00 0.  1.
</event>
<event>
 7    1  0.5601662E-013  0.5052886E+02  0.7816164E-02  0.1300439E+00
        -11   -1    0    0    0    0  0.00000000000E+00  0.00000000000E+00  0.45593999997E+02  0.45594000000E+02  0.51100000000E-03 0.  1.
         11   -1    0    0    0    0 -0.00000000000E+00 -0.00000000000E+00 -0.45593999997E+02  0.45594000000E+02  0.51100000000E-03 0. -1.
    9900012    2    1    2    0    0 -0.14344098540E+02 -0.16050018299E+02 -0.34493615384E+02  0.50528858930E+02  0.29999997202E+02 0.  0.
        -12    1    1    2    0    0  0.14344098540E+02  0.16050018299E+02  0.34493615384E+02  0.40659141070E+02  0.00000000000E+00 0.  1.
         11    1    3    3    0    0 -0.56779063488E+01 -0.73380732700E+01 -0.40288250666E+01  0.10115204966E+02  0.51100000000E-03 0. -1.
        -11    1    3    3    0    0 -0.37381196650E+01 -0.13126468718E+02 -0.57180920763E+01  0.14797780134E+02  0.51100000000E-03 0.  1.
        -12    1    3    3    0    0 -0.49280725258E+01  0.44145236894E+01 -0.24746698241E+02  0.25615873830E+02  0.00000000000E+00 0.  1.
</event>
<event>
 7    1  0.5601662E-013  0.5052886E+02  0.7816164E-02  0.1300439E+00
        -11   -1    0    0    0    0  0.00000000000E+00  0.00000000000E+00  0.45593999997E+02  0.45594000000E+02  0.51100000000E-03 0.  1.
         11   -1    0    0    0    0 -0.00000000000E+00 -0.00000000000E+00 -0.45593999997E+02  0.45594000000E+02  0.51100000000E-03 0. -1.
    9900012    2    1    2    0    0  0.13104835928E+02  0.19655639118E+02 -0.33092066957E+02  0.50528858724E+02  0.29999996578E+02 0.  0.
        -12    1    1    2    0    0 -0.13104835928E+02 -0.19655639118E+02  0.33092066957E+02  0.40659141276E+02  0.00000000000E+00 0.  1.
         11    1    3    3    0    0  0.68738431394E+01  0.20870884718E+02 -0.18403811331E+02  0.28662585720E+02  0.51100000000E-03 0. -1.
        -11    1    3    3    0    0 -0.14909111845E+01  0.46730239388E+01 -0.98792586734E+01  0.11029946559E+02  0.51100000000E-03 0.  1.
        -12    1    3    3    0    0  0.77219039736E+01 -0.58882695387E+01 -0.48089969520E+01  0.10836326445E+02  0.00000000000E+00 0.  1.
</event>
<event>
 7    1  0.5601662E-013  0.5052884E+02  0.7816164E-02  0.1300439E+00
        -11   -1    0    0    0    0  0.00000000000E+00  0.00000000000E+00  0.45593999997E+02  0.45594000000E+02  0.51100000000E-03 0.  1.
         11   -1    0    0    0    0 -0.00000000000E+00 -0.00000000000E+00 -0.45593999997E+02  0.45594000000E+02  0.51100000000E-03 0. -1.
    9900012    2    1    2    0    0 -0.63695210534E+01  0.39665570821E+02  0.62640750386E+01  0.50528844290E+02  0.29999952703E+02 0.  0.
        -12    1    1    2    0    0  0.63695210534E+01 -0.39665570821E+02 -0.62640750386E+01  0.40659155710E+02  0.00000000000E+00 0.  1.
         11    1    3    3    0    0  0.28243919402E+01  0.16974565813E+02 -0.22252264169E+01  0.17351216304E+02  0.51100000000E-03 0.  1.
        -11    1    3    3    0    0  0.63347121040E+01  0.49457384976E+01 -0.22155050503E+00  0.80397755948E+01  0.51100000000E-03 0. -1.
        -12    1    3    3    0    0 -0.15528625098E+02  0.17745266510E+02  0.87108519605E+01  0.25137852391E+02  0.00000000000E+00 0.  1.
</event>
<event>
 7    1  0.5601662E-013  0.5052887E+02  0.7816164E-02  0.1300439E+00
        -11   -1    0    0    0    0  0.00000000000E+00  0.00000000000E+00  0.45593999997E+02  0.45594000000E+02  0.51100000000E-03 0. -1.
         11   -1    0    0    0    0 -0.00000000000E+00 -0.00000000000E+00 -0.45593999997E+02  0.45594000000E+02  0.51100000000E-03 0.  1.
    9900012    2    1    2    0    0  0.32209401952E+02  0.10203328206E+01  0.24792709639E+02  0.50528866901E+02  0.30000021431E+02 0.  0.
        -12    1    1    2    0    0 -0.32209401952E+02 -0.10203328206E+01 -0.24792709639E+02  0.40659133099E+02  0.00000000000E+00 0.  1.
         11    1    3    3    0    0 -0.14471639444E+00  0.35496949998E+01  0.46092709842E+01  0.58195065679E+01  0.51100000000E-03 0. -1.
        -11    1    3    3    0    0  0.76348307504E+01  0.96127149989E+01  0.75298723604E+01  0.14401177322E+02  0.51100000000E-03 0.  1.
         12    1    3    3    0    0  0.24719287596E+02 -0.12142077178E+02  0.12653566294E+02  0.30308183011E+02  0.00000000000E+00 0. -1.
</event>
<event>
 7    1  0.5601662E-013  0.5052886E+02  0.7816164E-02  0.1300439E+00
        -11   -1    0    0    0    0  0.00000000000E+00  0.00000000000E+00  0.45593999997E+02  0.45594000000E+02  0.51100000000E-03 0.  1.
         11   -1    0    0    0    0 -0.00000000000E+00 -0.00000000000E+00 -0.45593999997E+02  0.45594000000E+02  0.51100000000E-03 0. -1.
    9900012    2    1    2    0    0 -0.20534330033E+02 -0.34525381191E+02 -0.62852941084E+01  0.50528861072E+02  0.30000003715E+02 0.  0.
        -12    1    1    2    0    0  0.20534330033E+02  0.34525381191E+02  0.62852941084E+01  0.40659138928E+02  0.00000000000E+00 0.  1.
         11    1    3    3    0    0 -0.16370931988E+02 -0.84796332492E+01 -0.11186891120E+01  0.18470599876E+02  0.51100000000E-03 0.  1.
        -11    1    3    3    0    0 -0.38052559702E+01  0.14999112543E+01 -0.75381918255E+00  0.41590804742E+01  0.51100000000E-03 0. -1.
         12    1    3    3    0    0 -0.35814207494E+00 -0.27545659196E+02 -0.44127858139E+01  0.27899180722E+02  0.00000000000E+00 0. -1.
</event>
<event>
 7    1  0.5601662E-013  0.5052884E+02  0.7816164E-02  0.1300439E+00
        -11   -1    0    0    0    0  0.00000000000E+00  0.00000000000E+00  0.45593999997E+02  0.45594000000E+02  0.51100000000E-03 0.  1.
         11   -1    0    0    0    0 -0.00000000000E+00 -0.00000000000E+00 -0.45593999997E+02  0.45594000000E+02  0.51100000000E-03 0. -1.
    9900012    2    1    2    0    0  0.25906330414E+02 -0.23849327738E+02 -0.20328276980E+02  0.50528840712E+02  0.29999941827E+02 0.  0.
        -12    1    1    2    0    0 -0.25906330414E+02  0.23849327738E+02  0.20328276980E+02  0.40659159288E+02  0.00000000000E+00 0.  1.
         11    1    3    3    0    0 -0.37756960830E+01 -0.94602355426E+01 -0.18782755785E+01  0.10357598990E+02  0.51100000000E-03 0. -1.
        -11    1    3    3    0    0  0.36717866652E+00 -0.49852284754E+00  0.18181431517E+01  0.19206743565E+01  0.51100000000E-03 0.  1.
         12    1    3    3    0    0  0.29314847830E+02 -0.13890569348E+02 -0.20268144553E+02  0.38250567365E+02  0.00000000000E+00 0. -1.
</event>
<event>
 7    1  0.5601662E-013  0.5052886E+02  0.7816164E-02  0.1300439E+00
        -11   -1    0    0    0    0  0.00000000000E+00  0.00000000000E+00  0.45593999997E+02  0.45594000000E+02  0.51100000000E-03 0.  1.
         11   -1    0    0    0    0 -0.00000000000E+00 -0.00000000000E+00 -0.45593999997E+02  0.45594000000E+02  0.51100000000E-03 0. -1.
    9900012    2    1    2    0    0  0.21552235565E+02 -0.26809827612E+02 -0.21677184016E+02  0.50528855626E+02  0.29999987160E+02 0.  0.
        -12    1    1    2    0    0 -0.21552235565E+02  0.26809827612E+02  0.21677184016E+02  0.40659144374E+02  0.00000000000E+00 0.  1.
         11    1    3    3    0    0  0.16568509789E+02 -0.19088714103E+02 -0.84213046705E+01  0.26642314002E+02  0.51100000000E-03 0. -1.
        -11    1    3    3    0    0 -0.29085244272E+01 -0.80347788164E+01 -0.10456830611E+00  0.85456491716E+01  0.51100000000E-03 0.  1.
        -12    1    3    3    0    0  0.78922502029E+01  0.31366530816E+00 -0.13151311039E+02  0.15340892452E+02  0.00000000000E+00 0.  1.
</event>
<event>
 7    1  0.5601662E-013  0.5052886E+02  0.7816164E-02  0.1300439E+00
        -11   -1    0    0    0    0  0.00000000000E+00  0.00000000000E+00  0.45593999997E+02  0.45594000000E+02  0.51100000000E-03 0.  1.
         11   -1    0    0    0    0 -0.00000000000E+00 -0.00000000000E+00 -0.45593999997E+02  0.45594000000E+02  0.51100000000E-03 0. -1.
    9900012    2    1    2    0    0 -0.23608283888E+02  0.17501704782E+02 -0.28098136422E+02  0.50528855779E+02  0.29999987625E+02 0.  0.
        -12    1    1    2    0    0  0.23608283888E+02 -0.17501704782E+02  0.28098136422E+02  0.40659144221E+02  0.00000000000E+00 0.  1.
         11    1    3    3    0    0 -0.55140914883E+00 -0.19931475741E-01 -0.18230466222E+02  0.18238814332E+02  0.51100000000E-03 0. -1.
        -11    1    3    3    0    0 -0.36694274598E+01  0.84773039830E+01 -0.42699039143E+01  0.10176515140E+02  0.51100000000E-03 0.  1.
        -12    1    3    3    0    0 -0.19387447279E+02  0.90443322744E+01 -0.55977662859E+01  0.22113526306E+02  0.00000000000E+00 0.  1.
</event>
<event>
 7    1  0.5601662E-013  0.5052882E+02  0.7816164E-02  0.1300439E+00
        -11   -1    0    0    0    0  0.00000000000E+00  0.00000000000E+00  0.45593999997E+02  0.45594000000E+02  0.51100000000E-03 0. -1.
         11   -1    0    0    0    0 -0.00000000000E+00 -0.00000000000E+00 -0.45593999997E+02  0.45594000000E+02  0.51100000000E-03 0.  1.
    9900012    2    1    2    0    0  0.50510847379E+01  0.34751866723E+02  0.20493014005E+02  0.50528815050E+02  0.29999863827E+02 0.  0.
        -12    1    1    2    0    0 -0.50510847379E+01 -0.34751866723E+02 -0.20493014005E+02  0.40659184950E+02  0.00000000000E+00 0.  1.
         11    1    3    3    0    0 -0.30188337582E+01  0.38513335922E+01  0.27593855041E+01  0.56178586952E+01  0.51100000000E-03 0. -1.
        -11    1    3    3    0    0  0.12789416439E+02  0.32490230331E+02  0.11145779784E+02  0.36652594002E+02  0.51100000000E-03 0.  1.
         12    1    3    3    0    0 -0.47194979434E+01 -0.15896972005E+01  0.65878487176E+01  0.82583623530E+01  0.00000000000E+00 0. -1.
</event>
<event>
 7    1  0.5601662E-013  0.5052887E+02  0.7816164E-02  0.1300439E+00
        -11   -1    0    0    0    0  0.00000000000E+00  0.00000000000E+00  0.45593999997E+02  0.45594000000E+02  0.51100000000E-03 0.  1.
         11   -1    0    0    0    0 -0.00000000000E+00 -0.00000000000E+00 -0.45593999997E+02  0.45594000000E+02  0.51100000000E-03 0. -1.
    9900012    2    1    2    0    0  0.31299987931E+02  0.23744405039E+02  0.10472781229E+02  0.50528866194E+02  0.30000019284E+02 0.  0.
        -12    1    1    2    0    0 -0.31299987931E+02 -0.23744405039E+02 -0.10472781229E+02  0.40659133806E+02  0.00000000000E+00 0.  1.
         11    1    3    3    0    0  0.65824987942E+01  0.10429520533E+02  0.10620023306E+02  0.16275413488E+02  0.51100000000E-03 0. -1.
        -11    1    3    3    0    0  0.17896094837E+02  0.18449812535E+02  0.27569419014E+00  0.25704898376E+02  0.51100000000E-03 0.  1.
         12    1    3    3    0    0  0.68213942999E+01 -0.51349280283E+01 -0.42293626674E+00  0.85485543302E+01  0.00000000000E+00 0. -1.
</event>
<event>
 7    1  0.5601662E-013  0.5052886E+02  0.7816164E-02  0.1300439E+00
        -11   -1    0    0    0    0  0.00000000000E+00  0.00000000000E+00  0.45593999997E+02  0.45594000000E+02  0.51100000000E-03 0. -1.
         11   -1    0    0    0    0 -0.00000000000E+00 -0.00000000000E+00 -0.45593999997E+02  0.45594000000E+02  0.51100000000E-03 0.  1.
    9900012    2    1    2    0    0  0.10546117711E+02  0.23308107255E+02  0.31601854198E+02  0.50528860175E+02  0.30000000987E+02 0.  0.
        -12    1    1    2    0    0 -0.10546117711E+02 -0.23308107255E+02 -0.31601854198E+02  0.40659139825E+02  0.00000000000E+00 0.  1.
         11    1    3    3    0    0  0.50355002828E+01  0.14194379135E+02  0.27607868142E+02  0.31448863982E+02  0.51100000000E-03 0. -1.
        -11    1    3    3    0    0 -0.38249380729E+01 -0.17320848893E+01  0.19316961889E+01  0.46218740520E+01  0.51100000000E-03 0.  1.
         12    1    3    3    0    0  0.93355555014E+01  0.10845813009E+02  0.20622898668E+01  0.14458122141E+02  0.00000000000E+00 0. -1.
</event>
<event>
 7    1  0.5601662E-013  0.5052885E+02  0.7816164E-02  0.1300439E+00
        -11   -1    0    0    0    0  0.00000000000E+00  0.00000000000E+00  0.45593999997E+02  0.45594000000E+02  0.51100000000E-03 0.  1.
         11   -1    0    0    0    0 -0.00000000000E+00 -0.00000000000E+00 -0.45593999997E+02  0.45594000000E+02  0.51100000000E-03 0. -1.
    9900012    2    1    2    0    0  0.24182938829E+02  0.28677618559E+02 -0.15682662866E+02  0.50528852798E+02  0.29999978563E+02 0.  0.
        -12    1    1    2    0    0 -0.24182938829E+02 -0.28677618559E+02  0.15682662866E+02  0.40659147202E+02  0.00000000000E+00 0.  1.
         11    1    3    3    0    0  0.41336366826E+01 -0.67410293197E-01  0.12506098219E+01  0.43192038108E+01  0.51100000000E-03 0. -1.
        -11    1    3    3    0    0  0.33824373502E+00  0.12770173373E+02  0.39257401447E+01  0.13364249801E+02  0.51100000000E-03 0.  1.
         12    1    3    3    0    0  0.19711058412E+02  0.15974855480E+02 -0.20859012833E+02  0.32845399186E+02  0.00000000000E+00 0. -1.
</event>
<event>
 7    1  0.5601662E-013  0.5052887E+02  0.7816164E-02  0.1300439E+00
        -11   -1    0    0    0    0  0.00000000000E+00  0.00000000000E+00  0.45593999997E+02  0.45594000000E+02  0.51100000000E-03 0.  1.
         11   -1    0    0    0    0 -0.00000000000E+00 -0.00000000000E+00 -0.45593999997E+02  0.45594000000E+02  0.51100000000E-03 0. -1.
    9900012    2    1    2    0    0 -0.38904034732E+02 -0.35890003636E+01 -0.11258784464E+02  0.50528867328E+02  0.30000022729E+02 0.  0.
        -12    1    1    2    0    0  0.38904034732E+02  0.35890003636E+01  0.11258784464E+02  0.40659132672E+02  0.00000000000E+00 0.  1.
         11    1    3    3    0    0 -0.32612175543E+02 -0.56910487194E+01 -0.16660898642E+02  0.37061132915E+02  0.51100000000E-03 0. -1.
        -11    1    3    3    0    0 -0.51754392960E+00 -0.37422386965E+01  0.32281808254E+01  0.49692407753E+01  0.51100000000E-03 0.  1.
        -12    1    3    3    0    0 -0.57743152601E+01  0.58442870523E+01  0.21739333525E+01  0.84984936368E+01  0.00000000000E+00 0.  1.
</event>
<event>
 7    1  0.5601662E-013  0.5052888E+02  0.7816164E-02  0.1300439E+00
        -11   -1    0    0    0    0  0.00000000000E+00  0.00000000000E+00  0.45593999997E+02  0.45594000000E+02  0.51100000000E-03 0. -1.
         11   -1    0    0    0    0 -0.00000000000E+00 -0.00000000000E+00 -0.45593999997E+02  0.45594000000E+02  0.51100000000E-03 0.  1.
    9900012    2    1    2    0    0  0.23658453342E+02 -0.79222256255E+01  0.32104205960E+02  0.50528879083E+02  0.30000058461E+02 0.  0.
        -12    1    1    2    0    0 -0.23658453342E+02  0.79222256255E+01 -0.32104205960E+02  0.40659120917E+02  0.00000000000E+00 0.  1.
         11    1    3    3    0    0  0.16199517587E+02  0.42862202207E+01  0.16327476630E+02  0.23396207966E+02  0.51100000000E-03 0. -1.
        -11    1    3    3    0    0  0.12109257442E+02 -0.55625742045E+01  0.12842622572E+02  0.18507006845E+02  0.51100000000E-03 0.  1.
        -12    1    3    3    0    0 -0.46503216869E+01 -0.66458716417E+01  0.29341067586E+01  0.86256642724E+01  0.00000000000E+00 0.  1.
</event>
<event>
 7    1  0.5601662E-013  0.5052887E+02  0.7816164E-02  0.1300439E+00
        -11   -1    0    0    0    0  0.00000000000E+00  0.00000000000E+00  0.45593999997E+02  0.45594000000E+02  0.51100000000E-03 0.  1.
         11   -1    0    0    0    0 -0.00000000000E+00 -0.00000000000E+00 -0.45593999997E+02  0.45594000000E+02  0.51100000000E-03 0. -1.
    9900012    2    1    2    0    0  0.16725525331E+02  0.36319155941E+02 -0.73716311222E+01  0.50528865341E+02  0.30000016689E+02 0.  0.
        -12    1    1    2    0    0 -0.16725525331E+02 -0.36319155941E+02  0.73716311222E+01  0.40659134659E+02  0.00000000000E+00 0.  1.
         11    1    3    3    0    0  0.28123512427E+01  0.13796373700E+02 -0.56728508252E+01  0.15179936875E+02  0.51100000000E-03 0. -1.
        -11    1    3    3    0    0  0.19864291801E+02  0.21016303938E+02 -0.30002824059E+01  0.29073644676E+02  0.51100000000E-03 0.  1.
        -12    1    3    3    0    0 -0.59511177122E+01  0.15064783027E+01  0.13015021089E+01  0.62752837896E+01  0.00000000000E+00 0.  1.
</event>
<event>
 7    1  0.5601662E-013  0.5052885E+02  0.7816164E-02  0.1300439E+00
        -11   -1    0    0    0    0  0.00000000000E+00  0.00000000000E+00  0.45593999997E+02  0.45594000000E+02  0.51100000000E-03 0.  1.
         11   -1    0    0    0    0 -0.00000000000E+00 -0.00000000000E+00 -0.45593999997E+02  0.45594000000E+02  0.51100000000E-03 0. -1.
    9900012    2    1    2    0    0 -0.21486555747E+01 -0.40197721673E+02 -0.57178066811E+01  0.50528845291E+02  0.29999955745E+02 0.  0.
        -12    1    1    2    0    0  0.21486555747E+01  0.40197721673E+02  0.57178066811E+01  0.40659154709E+02  0.00000000000E+00 0.  1.
         11    1    3    3    0    0 -0.24661510281E+01 -0.69955878782E+01 -0.58931093509E+01  0.94735890104E+01  0.51100000000E-03 0. -1.
        -11    1    3    3    0    0  0.10641045208E+01 -0.27222853468E+01 -0.87999435944E+01  0.92726567642E+01  0.51100000000E-03 0.  1.
        -12    1    3    3    0    0 -0.74660906744E+00 -0.30479848448E+02  0.89752462642E+01  0.31782599516E+02  0.00000000000E+00 0.  1.
</event>
<event>
 7    1  0.5601662E-013  0.5052886E+02  0.7816164E-02  0.1300439E+00
        -11   -1    0    0    0    0  0.00000000000E+00  0.00000000000E+00  0.45593999997E+02  0.45594000000E+02  0.51100000000E-03 0.  1.
         11   -1    0    0    0    0 -0.00000000000E+00 -0.00000000000E+00 -0.45593999997E+02  0.45594000000E+02  0.51100000000E-03 0. -1.
    9900012    2    1    2    0    0 -0.19129497581E+02  0.16460018811E+02 -0.31879397600E+02  0.50528857261E+02  0.29999992130E+02 0.  0.
        -12    1    1    2    0    0  0.19129497581E+02 -0.16460018811E+02  0.31879397600E+02  0.40659142739E+02  0.00000000000E+00 0.  1.
         11    1    3    3    0    0 -0.98660809901E+01  0.15158354438E+02 -0.13777170418E+02  0.22735999832E+02  0.51100000000E-03 0. -1.
        -11    1    3    3    0    0 -0.87105491446E+01  0.88283135908E+01 -0.66360865065E+01  0.14065931595E+02  0.51100000000E-03 0.  1.
        -12    1    3    3    0    0 -0.55286744594E+00 -0.75266492174E+01 -0.11466140675E+02  0.13726925833E+02  0.00000000000E+00 0.  1.
</event>
<event>
 7    1  0.5601662E-013  0.5052884E+02  0.7816164E-02  0.1300439E+00
        -11   -1    0    0    0    0  0.00000000000E+00  0.00000000000E+00  0.45593999997E+02  0.45594000000E+02  0.51100000000E-03 0.  1.
         11   -1    0    0    0    0 -0.00000000000E+00 -0.00000000000E+00 -0.45593999997E+02  0.45594000000E+02  0.51100000000E-03 0. -1.
    9900012    2    1    2    0    0  0.33424552226E+02 -0.12273922468E+02 -0.19629498889E+02  0.50528842472E+02  0.29999947178E+02 0.  0.
        -12    1    1    2    0    0 -0.33424552226E+02  0.12273922468E+02  0.19629498889E+02  0.40659157528E+02  0.00000000000E+00 0.  1.
         11    1    3    3    0    0  0.99768117730E+01 -0.16770628301E+02 -0.17194567323E+02  0.26008534992E+02  0.51100000000E-03 0. -1.
        -11    1    3    3    0    0  0.37575040055E+00  0.98304953863E+00  0.27352545446E-01  0.10527692918E+01  0.51100000000E-03 0.  1.
        -12    1    3    3    0    0  0.23071990053E+02  0.35136562947E+01 -0.24622841110E+01  0.23467538188E+02  0.00000000000E+00 0.  1.
</event>
<event>
 7    1  0.5601662E-013  0.5052881E+02  0.7816164E-02  0.1300439E+00
        -11   -1    0    0    0    0  0.00000000000E+00  0.00000000000E+00  0.45593999997E+02  0.45594000000E+02  0.51100000000E-03 0.  1.
         11   -1    0    0    0    0 -0.00000000000E+00 -0.00000000000E+00 -0.45593999997E+02  0.45594000000E+02  0.51100000000E-03 0. -1.
    9900012    2    1    2    0    0  0.32906179161E+02 -0.16137835560E+01 -0.23827486590E+02  0.50528806187E+02  0.29999836885E+02 0.  0.
        -12    1    1    2    0    0 -0.32906179161E+02  0.16137835560E+01  0.23827486590E+02  0.40659193813E+02  0.00000000000E+00 0.  1.
         11    1    3    3    0    0  0.17251239376E+02  0.17757071442E+01 -0.11469196842E+02  0.20791846294E+02  0.51100000000E-03 0. -1.
        -11    1    3    3    0    0  0.13232007725E+02  0.75631559441E+00  0.30480848845E+01  0.13599590562E+02  0.51100000000E-03 0.  1.
        -12    1    3    3    0    0  0.24229320601E+01 -0.41458062946E+01 -0.15406374633E+02  0.16137369331E+02  0.00000000000E+00 0.  1.
</event>
<event>
 7    1  0.5601662E-013  0.5052887E+02  0.7816164E-02  0.1300439E+00
        -11   -1    0    0    0    0  0.00000000000E+00  0.00000000000E+00  0.45593999997E+02  0.45594000000E+02  0.51100000000E-03 0.  1.
         11   -1    0    0    0    0 -0.00000000000E+00 -0.00000000000E+00 -0.45593999997E+02  0.45594000000E+02  0.51100000000E-03 0. -1.
    9900012    2    1    2    0    0  0.15134504606E+02  0.12843134584E+02 -0.35484722526E+02  0.50528869803E+02  0.30000030254E+02 0.  0.
        -12    1    1    2    0    0 -0.15134504606E+02 -0.12843134584E+02  0.35484722526E+02  0.40659130197E+02  0.00000000000E+00 0.  1.
         11    1    3    3    0    0  0.11109404506E+02 -0.15593320421E+01 -0.19461309678E+02  0.22463146697E+02  0.51100000000E-03 0. -1.
        -11    1    3    3    0    0  0.33084998191E+00  0.10966719762E+02  0.30474750485E+00  0.10975940750E+02  0.51100000000E-03 0.  1.
         12    1    3    3    0    0  0.36942501185E+01  0.34357468634E+01 -0.16328160353E+02  0.17089782356E+02  0.00000000000E+00 0. -1.
</event>
<event>
 7    1  0.5601662E-013  0.5052887E+02  0.7816164E-02  0.1300439E+00
        -11   -1    0    0    0    0  0.00000000000E+00  0.00000000000E+00  0.45593999997E+02  0.45594000000E+02  0.51100000000E-03 0. -1.
         11   -1    0    0    0    0 -0.00000000000E+00 -0.00000000000E+00 -0.45593999997E+02  0.45594000000E+02  0.51100000000E-03 0.  1.
    9900012    2    1    2    0    0  0.11965785287E+02 -0.29834331298E+02  0.24897738255E+02  0.50528871729E+02  0.30000036107E+02 0.  0.
        -12    1    1    2    0    0 -0.11965785287E+02  0.29834331298E+02 -0.24897738255E+02  0.40659128271E+02  0.00000000000E+00 0.  1.
         11    1    3    3    0    0  0.37025407798E+01 -0.27442345318E+01  0.48215952965E+01  0.66698885190E+01  0.51100000000E-03 0. -1.
        -11    1    3    3    0    0  0.58435083103E+01 -0.11252843528E+02  0.24195724721E+02  0.27316774551E+02  0.51100000000E-03 0.  1.
        -12    1    3    3    0    0  0.24197361972E+01 -0.15837253238E+02 -0.41195817627E+01  0.16542208659E+02  0.00000000000E+00 0.  1.
</event>
<event>
 7    1  0.5601662E-013  0.5052885E+02  0.7816164E-02  0.1300439E+00
        -11   -1    0    0    0    0  0.00000000000E+00  0.00000000000E+00  0.45593999997E+02  0.45594000000E+02  0.51100000000E-03 0. -1.
         11   -1    0    0    0    0 -0.00000000000E+00 -0.00000000000E+00 -0.45593999997E+02  0.45594000000E+02  0.51100000000E-03 0.  1.
    9900012    2    1    2    0    0  0.39671125827E+02  0.61784578214E+01 -0.64183107870E+01  0.50528852459E+02  0.29999977535E+02 0.  0.
        -12    1    1    2    0    0 -0.39671125827E+02 -0.61784578214E+01  0.64183107870E+01  0.40659147541E+02  0.00000000000E+00 0.  1.
         11    1    3    3    0    0  0.87796763095E+01 -0.13421361999E+01  0.40423695855E+01  0.97583194151E+01  0.51100000000E-03 0. -1.
        -11    1    3    3    0    0  0.18600576100E+02 -0.68643551297E+01 -0.90580927686E+01  0.21797932184E+02  0.51100000000E-03 0.  1.
        -12    1    3    3    0    0  0.12290873417E+02  0.14384949151E+02 -0.14025876040E+01  0.18972600860E+02  0.00000000000E+00 0.  1.
</event>
<event>
 7    1  0.5601662E-013  0.5052886E+02  0.7816164E-02  0.1300439E+00
        -11   -1    0    0    0    0  0.00000000000E+00  0.00000000000E+00  0.45593999997E+02  0.45594000000E+02  0.51100000000E-03 0.  1.
         11   -1    0    0    0    0 -0.00000000000E+00 -0.00000000000E+00 -0.45593999997E+02  0.45594000000E+02  0.51100000000E-03 0. -1.
    9900012    2    1    2    0    0 -0.32690613370E+02 -0.31506013777E+01 -0.23970049871E+02  0.50528858564E+02  0.29999996090E+02 0.  0.
        -12    1    1    2    0    0  0.32690613370E+02  0.31506013777E+01  0.23970049871E+02  0.40659141436E+02  0.00000000000E+00 0.  1.
         11    1    3    3    0    0 -0.99996425391E+01 -0.14338148523E+02 -0.62302338596E+01  0.18557779183E+02  0.51100000000E-03 0. -1.
        -11    1    3    3    0    0 -0.37035310332E+01  0.10872704127E+01  0.33961014656E+00  0.38747431369E+01  0.51100000000E-03 0.  1.
        -12    1    3    3    0    0 -0.18987439797E+02  0.10100276733E+02 -0.18079426158E+02  0.28096336244E+02  0.00000000000E+00 0.  1.
</event>
<event>
 7    1  0.5601662E-013  0.5052885E+02  0.7816164E-02  0.1300439E+00
        -11   -1    0    0    0    0  0.00000000000E+00  0.00000000000E+00  0.45593999997E+02  0.45594000000E+02  0.51100000000E-03 0. -1.
         11   -1    0    0    0    0 -0.00000000000E+00 -0.00000000000E+00 -0.45593999997E+02  0.45594000000E+02  0.51100000000E-03 0.  1.
    9900012    2    1    2    0    0 -0.91884692673E+01  0.39498060923E+02  0.29396128433E+01  0.50528854561E+02  0.29999983924E+02 0.  0.
        -12    1    1    2    0    0  0.91884692673E+01 -0.39498060923E+02 -0.29396128433E+01  0.40659145439E+02  0.00000000000E+00 0.  1.
         11    1    3    3    0    0 -0.29534393069E+01  0.25532869681E+01  0.69255725130E+01  0.79501970400E+01  0.51100000000E-03 0. -1.
        -11    1    3    3    0    0  0.66346288438E+01  0.18061071124E+02  0.68788704115E+00  0.19253409539E+02  0.51100000000E-03 0.  1.
        -12    1    3    3    0    0 -0.12869658804E+02  0.18883702831E+02 -0.46738467108E+01  0.23325247982E+02  0.00000000000E+00 0.  1.
</event>
<event>
 7    1  0.5601662E-013  0.5052887E+02  0.7816164E-02  0.1300439E+00
        -11   -1    0    0    0    0  0.00000000000E+00  0.00000000000E+00  0.45593999997E+02  0.45594000000E+02  0.51100000000E-03 0. -1.
         11   -1    0    0    0    0 -0.00000000000E+00 -0.00000000000E+00 -0.45593999997E+02  0.45594000000E+02  0.51100000000E-03 0.  1.
    9900012    2    1    2    0    0 -0.14588803281E+02  0.37850085935E+02  0.27753957274E+01  0.50528868087E+02  0.30000025037E+02 0.  0.
        -12    1    1    2    0    0  0.14588803281E+02 -0.37850085935E+02 -0.27753957274E+01  0.40659131913E+02  0.00000000000E+00 0.  1.
         11    1    3    3    0    0 -0.54184320029E+01  0.74658573005E+01  0.33821764475E+01  0.98253523288E+01  0.51100000000E-03 0.  1.
        -11    1    3    3    0    0  0.27229971412E+01  0.15514444970E+02 -0.10806965929E+02  0.19102440394E+02  0.51100000000E-03 0. -1.
         12    1    3    3    0    0 -0.11893368420E+02  0.14869783664E+02  0.10200185208E+02  0.21601075364E+02  0.00000000000E+00 0. -1.
</event>
<event>
 7    1  0.5601662E-013  0.5052886E+02  0.7816164E-02  0.1300439E+00
        -11   -1    0    0    0    0  0.00000000000E+00  0.00000000000E+00  0.45593999997E+02  0.45594000000E+02  0.51100000000E-03 0. -1.
         11   -1    0    0    0    0 -0.00000000000E+00 -0.00000000000E+00 -0.45593999997E+02  0.45594000000E+02  0.51100000000E-03 0.  1.
    9900012    2    1    2    0    0  0.11442766488E+02  0.35511872594E+02  0.16159689452E+02  0.50528861258E+02  0.30000004281E+02 0.  0.
        -12    1    1    2    0    0 -0.11442766488E+02 -0.35511872594E+02 -0.16159689452E+02  0.40659138742E+02  0.00000000000E+00 0.  1.
         11    1    3    3    0    0  0.69764640866E+01  0.14235171968E+02  0.98826953998E+01  0.18680975369E+02  0.51100000000E-03 0. -1.
        -11    1    3    3    0    0  0.12155461352E+02  0.19843741741E+02  0.34193246720E+01  0.23520652807E+02  0.51100000000E-03 0.  1.
        -12    1    3    3    0    0 -0.76891589503E+01  0.14329588846E+01  0.28576693802E+01  0.83272330828E+01  0.00000000000E+00 0.  1.
</event>
<event>
 7    1  0.5601662E-013  0.5052886E+02  0.7816164E-02  0.1300439E+00
        -11   -1    0    0    0    0  0.00000000000E+00  0.00000000000E+00  0.45593999997E+02  0.45594000000E+02  0.51100000000E-03 0. -1.
         11   -1    0    0    0    0 -0.00000000000E+00 -0.00000000000E+00 -0.45593999997E+02  0.45594000000E+02  0.51100000000E-03 0.  1.
    9900012    2    1    2    0    0  0.21320977208E+02 -0.33216068776E+02 -0.97608760672E+01  0.50528855940E+02  0.29999988116E+02 0.  0.
        -12    1    1    2    0    0 -0.21320977208E+02  0.33216068776E+02  0.97608760672E+01  0.40659144060E+02  0.00000000000E+00 0.  1.
         11    1    3    3    0    0 -0.58000085770E+00 -0.57568468251E+01  0.51035717717E+00  0.58084551365E+01  0.51100000000E-03 0. -1.
        -11    1    3    3    0    0 -0.30445692477E+01 -0.69299235746E+01 -0.98351406140E+01  0.12410609728E+02  0.51100000000E-03 0.  1.
        -12    1    3    3    0    0  0.24945547314E+02 -0.20529298376E+02 -0.43609263045E+00  0.32309791076E+02  0.00000000000E+00 0.  1.
</event>
<event>
 7    1  0.5601662E-013  0.5052885E+02  0.7816164E-02  0.1300439E+00
        -11   -1    0    0    0    0  0.00000000000E+00  0.00000000000E+00  0.45593999997E+02  0.45594000000E+02  0.51100000000E-03 0.  1.
         11   -1    0    0    0    0 -0.00000000000E+00 -0.00000000000E+00 -0.45593999997E+02  0.45594000000E+02  0.51100000000E-03 0. -1.
    9900012    2    1    2    0    0  0.23319450640E+02 -0.12788124607E+02 -0.30754405287E+02  0.50528851538E+02  0.29999974735E+02 0.  0.
        -12    1    1    2    0    0 -0.23319450640E+02  0.12788124607E+02  0.30754405287E+02  0.40659148462E+02  0.00000000000E+00 0.  1.
         11    1    3    3    0    0  0.14803547838E+02  0.50633140694E+01 -0.13399412511E+02  0.20599185271E+02  0.51100000000E-03 0.  1.
        -11    1    3    3    0    0  0.35009688237E+01 -0.66470305480E+00 -0.99256375959E+01  0.10545942101E+02  0.51100000000E-03 0. -1.
        -12    1    3    3    0    0  0.50149339783E+01 -0.17186735622E+02 -0.74293551800E+01  0.19383724165E+02  0.00000000000E+00 0.  1.
</event>
<event>
 7    1  0.5601662E-013  0.5052896E+02  0.7816164E-02  0.1300438E+00
        -11   -1    0    0    0    0  0.00000000000E+00  0.00000000000E+00  0.45593999997E+02  0.45594000000E+02  0.51100000000E-03 0. -1.
         11   -1    0    0    0    0 -0.00000000000E+00 -0.00000000000E+00 -0.45593999997E+02  0.45594000000E+02  0.51100000000E-03 0.  1.
    9900012    2    1    2    0    0  0.18036563843E+02 -0.30479453530E+02  0.19971050642E+02  0.50528959351E+02  0.30000302441E+02 0.  0.
        -12    1    1    2    0    0 -0.18036563843E+02  0.30479453530E+02 -0.19971050642E+02  0.40659040649E+02  0.00000000000E+00 0.  1.
         11    1    3    3    0    0  0.32152786278E+01  0.92638770419E+00 -0.19965890460E+01  0.38964828901E+01  0.51100000000E-03 0. -1.
        -11    1    3    3    0    0  0.34850246709E+00 -0.45724675567E+01 -0.43770611319E+01  0.63393673139E+01  0.51100000000E-03 0.  1.
         12    1    3    3    0    0  0.14472782749E+02 -0.26833373678E+02  0.26344700820E+02  0.40293109147E+02  0.00000000000E+00 0. -1.
</event>
<event>
 7    1  0.5601662E-013  0.5052886E+02  0.7816164E-02  0.1300439E+00
        -11   -1    0    0    0    0  0.00000000000E+00  0.00000000000E+00  0.45593999997E+02  0.45594000000E+02  0.51100000000E-03 0.  1.
         11   -1    0    0    0    0 -0.00000000000E+00 -0.00000000000E+00 -0.45593999997E+02  0.45594000000E+02  0.51100000000E-03 0. -1.
    9900012    2    1    2    0    0 -0.32020438092E+02 -0.17685924072E+02 -0.17750084159E+02  0.50528857688E+02  0.29999993430E+02 0.  0.
        -12    1    1    2    0    0  0.32020438092E+02  0.17685924072E+02  0.17750084159E+02  0.40659142312E+02  0.00000000000E+00 0.  1.
         11    1    3    3    0    0 -0.14182208645E+02 -0.16290391503E+02 -0.41420538731E+01  0.21992464799E+02  0.51100000000E-03 0. -1.
        -11    1    3    3    0    0 -0.10290787351E+02  0.46004785322E+01  0.68906252586E+00  0.11293339384E+02  0.51100000000E-03 0.  1.
         12    1    3    3    0    0 -0.75474420957E+01 -0.59960111012E+01 -0.14297092812E+02  0.17243053505E+02  0.00000000000E+00 0. -1.
</event>
<event>
 7    1  0.5601662E-013  0.5052887E+02  0.7816164E-02  0.1300439E+00
        -11   -1    0    0    0    0  0.00000000000E+00  0.00000000000E+00  0.45593999997E+02  0.45594000000E+02  0.51100000000E-03 0. -1.
         11   -1    0    0    0    0 -0.00000000000E+00 -0.00000000000E+00 -0.45593999997E+02  0.45594000000E+02  0.51100000000E-03 0.  1.
    9900012    2    1    2    0    0 -0.17801444782E+02  0.80078706293E+01  0.35667180920E+02  0.50528865441E+02  0.30000016993E+02 0.  0.
        -12    1    1    2    0    0  0.17801444782E+02 -0.80078706293E+01 -0.35667180920E+02  0.40659134559E+02  0.00000000000E+00 0.  1.
         11    1    3    3    0    0  0.14676229592E+01  0.13414895162E+01  0.35036643280E+01  0.40285450546E+01  0.51100000000E-03 0. -1.
        -11    1    3    3    0    0 -0.10524928227E+00  0.12643904266E+02  0.17724697571E+02  0.21772558342E+02  0.51100000000E-03 0.  1.
         12    1    3    3    0    0 -0.19163818459E+02 -0.59775231531E+01  0.14438819021E+02  0.24727762044E+02  0.00000000000E+00 0. -1.
</event>
<event>
 7    1  0.5601662E-013  0.5052887E+02  0.7816164E-02  0.1300439E+00
        -11   -1    0    0    0    0  0.00000000000E+00  0.00000000000E+00  0.45593999997E+02  0.45594000000E+02  0.51100000000E-03 0.  1.
         11   -1    0    0    0    0 -0.00000000000E+00 -0.00000000000E+00 -0.45593999997E+02  0.45594000000E+02  0.51100000000E-03 0. -1.
    9900012    2    1    2    0    0  0.23221787693E+02  0.10036984120E+02 -0.31830370369E+02  0.50528868778E+02  0.30000027139E+02 0.  0.
        -12    1    1    2    0    0 -0.23221787693E+02 -0.10036984120E+02  0.31830370369E+02  0.40659131222E+02  0.00000000000E+00 0.  1.
         11    1    3    3    0    0  0.23997462655E+01  0.50582694176E+01 -0.13859181010E+02  0.14947299761E+02  0.51100000000E-03 0. -1.
        -11    1    3    3    0    0  0.92284316038E+01  0.12130226443E+02 -0.15498088789E+02  0.21736998408E+02  0.51100000000E-03 0.  1.
         12    1    3    3    0    0  0.11593609824E+02 -0.71515117402E+01 -0.24731005701E+01  0.13844570609E+02  0.00000000000E+00 0. -1.
</event>
<event>
 7    1  0.5601662E-013  0.5052894E+02  0.7816164E-02  0.1300438E+00
        -11   -1    0    0    0    0  0.00000000000E+00  0.00000000000E+00  0.45593999997E+02  0.45594000000E+02  0.51100000000E-03 0.  1.
         11   -1    0    0    0    0 -0.00000000000E+00 -0.00000000000E+00 -0.45593999997E+02  0.45594000000E+02  0.51100000000E-03 0. -1.
    9900012    2    1    2    0    0  0.73803429915E+01 -0.27127302351E+02 -0.29373437945E+02  0.50528943786E+02  0.30000255132E+02 0.  0.
        -12    1    1    2    0    0 -0.73803429915E+01  0.27127302351E+02  0.29373437945E+02  0.40659056214E+02  0.00000000000E+00 0.  1.
         11    1    3    3    0    0  0.11248550283E+02 -0.11882786665E+02 -0.17763700768E+02  0.24151181495E+02  0.51100000000E-03 0. -1.
        -11    1    3    3    0    0  0.69969993208E+01 -0.79490006165E+01 -0.48454667498E+01  0.11645735639E+02  0.51100000000E-03 0.  1.
        -12    1    3    3    0    0 -0.10865206612E+02 -0.72955150692E+01 -0.67642704270E+01  0.14732026652E+02  0.00000000000E+00 0.  1.
</event>
<event>
 7    1  0.5601662E-013  0.5052886E+02  0.7816164E-02  0.1300439E+00
        -11   -1    0    0    0    0  0.00000000000E+00  0.00000000000E+00  0.45593999997E+02  0.45594000000E+02  0.51100000000E-03 0.  1.
         11   -1    0    0    0    0 -0.00000000000E+00 -0.00000000000E+00 -0.45593999997E+02  0.45594000000E+02  0.51100000000E-03 0. -1.
    9900012    2    1    2    0    0  0.48307396421E+01  0.79074030558E+01 -0.39589173572E+02  0.50528859174E+02  0.29999997945E+02 0.  0.
        -12    1    1    2    0    0 -0.48307396421E+01 -0.79074030558E+01  0.39589173572E+02  0.40659140826E+02  0.00000000000E+00 0.  1.
         11    1    3    3    0    0  0.14275424254E+01  0.10274427309E+01 -0.28275979970E+02  0.28330629352E+02  0.51100000000E-03 0. -1.
        -11    1    3    3    0    0  0.38184076302E+01  0.29917474282E+01 -0.15634854374E+02  0.16370078224E+02  0.51100000000E-03 0.  1.
        -12    1    3    3    0    0 -0.41521041353E+00  0.38882128967E+01  0.43216607720E+01  0.58281515977E+01  0.00000000000E+00 0.  1.
</event>
<event>
 7    1  0.5601662E-013  0.5052886E+02  0.7816164E-02  0.1300439E+00
        -11   -1    0    0    0    0  0.00000000000E+00  0.00000000000E+00  0.45593999997E+02  0.45594000000E+02  0.51100000000E-03 0.  1.
         11   -1    0    0    0    0 -0.00000000000E+00 -0.00000000000E+00 -0.45593999997E+02  0.45594000000E+02  0.51100000000E-03 0. -1.
    9900012    2    1    2    0    0  0.11350391796E+02  0.13550482005E+02 -0.36615825569E+02  0.50528860331E+02  0.30000001463E+02 0.  0.
        -12    1    1    2    0    0 -0.11350391796E+02 -0.13550482005E+02  0.36615825569E+02  0.40659139669E+02  0.00000000000E+00 0.  1.
         11    1    3    3    0    0  0.19680725339E+01 -0.40886709738E+01 -0.58213778034E+00  0.45748687945E+01  0.51100000000E-03 0. -1.
        -11    1    3    3    0    0 -0.39763364085E+01  0.57726077175E+01 -0.22421261855E+02  0.23491428958E+02  0.51100000000E-03 0.  1.
         12    1    3    3    0    0  0.13358655671E+02  0.11866545262E+02 -0.13612425934E+02  0.22462562578E+02  0.00000000000E+00 0. -1.
</event>
<event>
 7    1  0.5601662E-013  0.5052886E+02  0.7816164E-02  0.1300439E+00
        -11   -1    0    0    0    0  0.00000000000E+00  0.00000000000E+00  0.45593999997E+02  0.45594000000E+02  0.51100000000E-03 0. -1.
         11   -1    0    0    0    0 -0.00000000000E+00 -0.00000000000E+00 -0.45593999997E+02  0.45594000000E+02  0.51100000000E-03 0.  1.
    9900012    2    1    2    0    0  0.10615144831E+01 -0.38883368195E+02  0.11837347017E+02  0.50528856876E+02  0.29999990961E+02 0.  0.
        -12    1    1    2    0    0 -0.10615144831E+01  0.38883368195E+02 -0.11837347017E+02  0.40659143124E+02  0.00000000000E+00 0.  1.
         11    1    3    3    0    0  0.46935873672E+01 -0.12858175724E+01  0.49964644677E+01  0.69747936630E+01  0.51100000000E-03 0. -1.
        -11    1    3    3    0    0 -0.90761955933E+01 -0.17510655515E+02  0.10622441408E+02  0.22401710755E+02  0.51100000000E-03 0.  1.
        -12    1    3    3    0    0  0.54441227093E+01 -0.20086895107E+02 -0.37815588593E+01  0.21152352458E+02  0.00000000000E+00 0.  1.
</event>
<event>
 7    1  0.5601662E-013  0.5052886E+02  0.7816164E-02  0.1300439E+00
        -11   -1    0    0    0    0  0.00000000000E+00  0.00000000000E+00  0.45593999997E+02  0.45594000000E+02  0.51100000000E-03 0.  1.
         11   -1    0    0    0    0 -0.00000000000E+00 -0.00000000000E+00 -0.45593999997E+02  0.45594000000E+02  0.51100000000E-03 0. -1.
    9900012    2    1    2    0    0  0.12750198773E+02 -0.45370895126E+01 -0.38340748739E+02  0.50528858791E+02  0.29999996780E+02 0.  0.
        -12    1    1    2    0    0 -0.12750198773E+02  0.45370895126E+01  0.38340748739E+02  0.40659141209E+02  0.00000000000E+00 0.  1.
         11    1    3    3    0    0  0.43955561031E+01  0.48749786621E+01 -0.26986467592E+01  0.70971138502E+01  0.51100000000E-03 0. -1.
        -11    1    3    3    0    0  0.20179272157E+01  0.17597443551E+01  0.22025604051E+01  0.34669876035E+01  0.51100000000E-03 0.  1.
         12    1    3    3    0    0  0.63367154539E+01 -0.11171812530E+02 -0.37844662385E+02  0.39964757337E+02  0.00000000000E+00 0. -1.
</event>
<event>
 7    1  0.5601662E-013  0.5052886E+02  0.7816164E-02  0.1300439E+00
        -11   -1    0    0    0    0  0.00000000000E+00  0.00000000000E+00  0.45593999997E+02  0.45594000000E+02  0.51100000000E-03 0. -1.
         11   -1    0    0    0    0 -0.00000000000E+00 -0.00000000000E+00 -0.45593999997E+02  0.45594000000E+02  0.51100000000E-03 0.  1.
    9900012    2    1    2    0    0  0.29609864644E+02 -0.11105974032E+02  0.25555411361E+02  0.50528858429E+02  0.29999995681E+02 0.  0.
        -12    1    1    2    0    0 -0.29609864644E+02  0.11105974032E+02 -0.25555411361E+02  0.40659141571E+02  0.00000000000E+00 0.  1.
         11    1    3    3    0    0  0.25683543660E+02 -0.84435090979E+01  0.22455532664E+02  0.35145244462E+02  0.51100000000E-03 0. -1.
        -11    1    3    3    0    0 -0.14026258712E+01 -0.23727276158E+01  0.77996778688E+01  0.82723739514E+01  0.51100000000E-03 0.  1.
        -12    1    3    3    0    0  0.53289468555E+01 -0.28973731805E+00 -0.46997991717E+01  0.71112400154E+01  0.00000000000E+00 0.  1.
</event>
<event>
 7    1  0.5601662E-013  0.5052886E+02  0.7816164E-02  0.1300439E+00
        -11   -1    0    0    0    0  0.00000000000E+00  0.00000000000E+00  0.45593999997E+02  0.45594000000E+02  0.51100000000E-03 0.  1.
         11   -1    0    0    0    0 -0.00000000000E+00 -0.00000000000E+00 -0.45593999997E+02  0.45594000000E+02  0.51100000000E-03 0. -1.
    9900012    2    1    2    0    0 -0.71027273988E+01 -0.50271198329E+01 -0.39717064206E+02  0.50528857615E+02  0.29999993206E+02 0.  0.
        -12    1    1    2    0    0  0.71027273988E+01  0.50271198329E+01  0.39717064206E+02  0.40659142385E+02  0.00000000000E+00 0.  1.
         11    1    3    3    0    0 -0.66744001353E+01 -0.24680941165E+01 -0.87229328775E+01  0.11257382643E+02  0.51100000000E-03 0. -1.
        -11    1    3    3    0    0 -0.64116927519E+01 -0.14949854230E+01  0.10405850994E+01  0.66654034364E+01  0.51100000000E-03 0.  1.
         12    1    3    3    0    0  0.59833654883E+01 -0.10640402935E+01 -0.32034716428E+02  0.32606071535E+02  0.00000000000E+00 0. -1.
</event>
<event>
 7    1  0.5601662E-013  0.5052891E+02  0.7816164E-02  0.1300439E+00
        -11   -1    0    0    0    0  0.00000000000E+00  0.00000000000E+00  0.45593999997E+02  0.45594000000E+02  0.51100000000E-03 0. -1.
         11   -1    0    0    0    0 -0.00000000000E+00 -0.00000000000E+00 -0.45593999997E+02  0.45594000000E+02  0.51100000000E-03 0.  1.
    9900012    2    1    2    0    0  0.37059546580E+02  0.16501258278E+02 -0.27313820226E+01  0.50528905504E+02  0.30000138769E+02 0.  0.
        -12    1    1    2    0    0 -0.37059546580E+02 -0.16501258278E+02  0.27313820226E+01  0.40659094496E+02  0.00000000000E+00 0.  1.
         11    1    3    3    0    0  0.83021514055E+01  0.68094775887E+01  0.67549462702E+01  0.12685582461E+02  0.51100000000E-03 0. -1.
        -11    1    3    3    0    0  0.22129587134E+02  0.16028042097E+02 -0.56417564275E+01  0.27900648309E+02  0.51100000000E-03 0.  1.
         12    1    3    3    0    0  0.66278080407E+01 -0.63362614076E+01 -0.38445718653E+01  0.99426747345E+01  0.00000000000E+00 0. -1.
</event>
<event>
 7    1  0.5601662E-013  0.5052886E+02  0.7816164E-02  0.1300439E+00
        -11   -1    0    0    0    0  0.00000000000E+00  0.00000000000E+00  0.45593999997E+02  0.45594000000E+02  0.51100000000E-03 0.  1.
         11   -1    0    0    0    0 -0.00000000000E+00 -0.00000000000E+00 -0.45593999997E+02  0.45594000000E+02  0.51100000000E-03 0. -1.
    9900012    2    1    2    0    0  0.27110438475E+02  0.24687387442E+01 -0.30200911155E+02  0.50528861053E+02  0.30000003657E+02 0.  0.
        -12    1    1    2    0    0 -0.27110438475E+02 -0.24687387442E+01  0.30200911155E+02  0.40659138947E+02  0.00000000000E+00 0.  1.
         11    1    3    3    0    0  0.23435283789E+01  0.12660827046E+01  0.17207770129E+01  0.31711456079E+01  0.51100000000E-03 0. -1.
        -11    1    3    3    0    0 -0.50419027834E+01  0.70127839917E+00 -0.58302440640E+01  0.77397881868E+01  0.51100000000E-03 0.  1.
        -12    1    3    3    0    0  0.29808812880E+02  0.50137764047E+00 -0.26091444104E+02  0.39617927258E+02  0.00000000000E+00 0.  1.
</event>
<event>
 7    1  0.5601662E-013  0.5052885E+02  0.7816164E-02  0.1300439E+00
        -11   -1    0    0    0    0  0.00000000000E+00  0.00000000000E+00  0.45593999997E+02  0.45594000000E+02  0.51100000000E-03 0. -1.
         11   -1    0    0    0    0 -0.00000000000E+00 -0.00000000000E+00 -0.45593999997E+02  0.45594000000E+02  0.51100000000E-03 0.  1.
    9900012    2    1    2    0    0 -0.31574629003E+02 -0.10163311289E+02 -0.23514166227E+02  0.50528854579E+02  0.29999983978E+02 0.  0.
        -12    1    1    2    0    0  0.31574629003E+02  0.10163311289E+02  0.23514166227E+02  0.40659145421E+02  0.00000000000E+00 0.  1.
         11    1    3    3    0    0 -0.18327873408E+02  0.47890157741E+01 -0.77939764445E+01  0.20483937240E+02  0.51100000000E-03 0. -1.
        -11    1    3    3    0    0 -0.10497128042E+02 -0.18224278117E+01 -0.19696078294E+01  0.10834680222E+02  0.51100000000E-03 0.  1.
        -12    1    3    3    0    0 -0.27496275522E+01 -0.13129899251E+02 -0.13750581953E+02  0.19210237117E+02  0.00000000000E+00 0.  1.
</event>
<event>
 7    1  0.5601662E-013  0.5052885E+02  0.7816164E-02  0.1300439E+00
        -11   -1    0    0    0    0  0.00000000000E+00  0.00000000000E+00  0.45593999997E+02  0.45594000000E+02  0.51100000000E-03 0. -1.
         11   -1    0    0    0    0 -0.00000000000E+00 -0.00000000000E+00 -0.45593999997E+02  0.45594000000E+02  0.51100000000E-03 0.  1.
    9900012    2    1    2    0    0 -0.10527807464E+02 -0.36780842143E+02  0.13765945603E+02  0.50528851741E+02  0.29999975353E+02 0.  0.
        -12    1    1    2    0    0  0.10527807464E+02  0.36780842143E+02 -0.13765945603E+02  0.40659148259E+02  0.00000000000E+00 0.  1.
         11    1    3    3    0    0 -0.14899758349E+02 -0.21484861958E+02  0.17344725630E+02  0.31375812334E+02  0.51100000000E-03 0. -1.
        -11    1    3    3    0    0  0.75171687379E+00 -0.12888531446E+02  0.86093121739E+00  0.12939108312E+02  0.51100000000E-03 0.  1.
        -12    1    3    3    0    0  0.36202340108E+01 -0.24074487391E+01 -0.44397112438E+01  0.62139310950E+01  0.00000000000E+00 0.  1.
</event>
<event>
 7    1  0.5601662E-013  0.5052886E+02  0.7816164E-02  0.1300439E+00
        -11   -1    0    0    0    0  0.00000000000E+00  0.00000000000E+00  0.45593999997E+02  0.45594000000E+02  0.51100000000E-03 0.  1.
         11   -1    0    0    0    0 -0.00000000000E+00 -0.00000000000E+00 -0.45593999997E+02  0.45594000000E+02  0.51100000000E-03 0. -1.
    9900012    2    1    2    0    0 -0.22590296168E+02  0.32994356013E+02 -0.73632042247E+01  0.50528858517E+02  0.29999995948E+02 0.  0.
        -12    1    1    2    0    0  0.22590296168E+02 -0.32994356013E+02  0.73632042247E+01  0.40659141483E+02  0.00000000000E+00 0.  1.
         11    1    3    3    0    0 -0.43363556169E+01  0.71038705810E+01 -0.30000108182E+01  0.88469781529E+01  0.51100000000E-03 0. -1.
        -11    1    3    3    0    0 -0.35499906572E+01  0.42187189609E+01 -0.12987373285E+02  0.14109283768E+02  0.51100000000E-03 0.  1.
        -12    1    3    3    0    0 -0.14703949894E+02  0.21671766472E+02  0.86241798786E+01  0.27572596596E+02  0.00000000000E+00 0.  1.
</event>
<event>
 7    1  0.5601662E-013  0.5052888E+02  0.7816164E-02  0.1300439E+00
        -11   -1    0    0    0    0  0.00000000000E+00  0.00000000000E+00  0.45593999997E+02  0.45594000000E+02  0.51100000000E-03 0.  1.
         11   -1    0    0    0    0 -0.00000000000E+00 -0.00000000000E+00 -0.45593999997E+02  0.45594000000E+02  0.51100000000E-03 0. -1.
    9900012    2    1    2    0    0 -0.40560184649E+01 -0.13209999327E+02 -0.38238841344E+02  0.50528876112E+02  0.30000049430E+02 0.  0.
        -12    1    1    2    0    0  0.40560184649E+01  0.13209999327E+02  0.38238841344E+02  0.40659123888E+02  0.00000000000E+00 0.  1.
         11    1    3    3    0    0 -0.16116062508E+01  0.53441683955E+01 -0.86401522284E+01  0.10286381353E+02  0.51100000000E-03 0. -1.
        -11    1    3    3    0    0 -0.10258370631E+02 -0.59057945914E+01 -0.17222430138E+02  0.20897958702E+02  0.51100000000E-03 0.  1.
         12    1    3    3    0    0  0.78139584173E+01 -0.12648373131E+02 -0.12376258978E+02  0.19344536058E+02  0.00000000000E+00 0. -1.
</event>
<event>
 7    1  0.5601662E-013  0.5052886E+02  0.7816164E-02  0.1300439E+00
        -11   -1    0    0    0    0  0.00000000000E+00  0.00000000000E+00  0.45593999997E+02  0.45594000000E+02  0.51100000000E-03 0.  1.
         11   -1    0    0    0    0 -0.00000000000E+00 -0.00000000000E+00 -0.45593999997E+02  0.45594000000E+02  0.51100000000E-03 0. -1.
    9900012    2    1    2    0    0  0.70252821883E+01  0.16795842299E+02 -0.36355338043E+02  0.50528861881E+02  0.30000006173E+02 0.  0.
        -12    1    1    2    0    0 -0.70252821883E+01 -0.16795842299E+02  0.36355338043E+02  0.40659138119E+02  0.00000000000E+00 0.  1.
         11    1    3    3    0    0 -0.53853083682E+01  0.63670862487E+01 -0.15314073651E+02  0.17437378976E+02  0.51100000000E-03 0. -1.
        -11    1    3    3    0    0 -0.34940550720E+01 -0.30914665841E+01 -0.37815167377E+01  0.60054521549E+01  0.51100000000E-03 0.  1.
        -12    1    3    3    0    0  0.15904645628E+02  0.13520222634E+02 -0.17259747655E+02  0.27086030749E+02  0.00000000000E+00 0.  1.
</event>
<event>
 7    1  0.5601662E-013  0.5052885E+02  0.7816164E-02  0.1300439E+00
        -11   -1    0    0    0    0  0.00000000000E+00  0.00000000000E+00  0.45593999997E+02  0.45594000000E+02  0.51100000000E-03 0.  1.
         11   -1    0    0    0    0 -0.00000000000E+00 -0.00000000000E+00 -0.45593999997E+02  0.45594000000E+02  0.51100000000E-03 0. -1.
    9900012    2    1    2    0    0  0.29511771160E+02 -0.25544537972E+02  0.11388527103E+02  0.50528848425E+02  0.29999965273E+02 0.  0.
        -12    1    1    2    0    0 -0.29511771160E+02  0.25544537972E+02 -0.11388527103E+02  0.40659151575E+02  0.00000000000E+00 0.  1.
         11    1    3    3    0    0 -0.22741607082E+01 -0.57025660873E+01 -0.96326913236E+00  0.62144150641E+01  0.51100000000E-03 0. -1.
        -11    1    3    3    0    0  0.13798156016E+02 -0.33722928135E+01 -0.42322298505E+01  0.14821377737E+02  0.51100000000E-03 0.  1.
        -12    1    3    3    0    0  0.17987775853E+02 -0.16469679071E+02  0.16584026085E+02  0.29493055624E+02  0.00000000000E+00 0.  1.
</event>
<event>
 7    1  0.5601662E-013  0.5052886E+02  0.7816164E-02  0.1300439E+00
        -11   -1    0    0    0    0  0.00000000000E+00  0.00000000000E+00  0.45593999997E+02  0.45594000000E+02  0.51100000000E-03 0.  1.
         11   -1    0    0    0    0 -0.00000000000E+00 -0.00000000000E+00 -0.45593999997E+02  0.45594000000E+02  0.51100000000E-03 0. -1.
    9900012    2    1    2    0    0 -0.13886244810E+02  0.21068506462E+02 -0.31881906919E+02  0.50528858983E+02  0.29999997366E+02 0.  0.
        -12    1    1    2    0    0  0.13886244810E+02 -0.21068506462E+02  0.31881906919E+02  0.40659141017E+02  0.00000000000E+00 0.  1.
         11    1    3    3    0    0 -0.20673068050E+01  0.10536173067E+02 -0.46530077777E+01  0.11701930694E+02  0.51100000000E-03 0. -1.
        -11    1    3    3    0    0 -0.41164851192E+01  0.10492414865E+02 -0.80103627931E+00  0.11299463652E+02  0.51100000000E-03 0.  1.
        -12    1    3    3    0    0 -0.77024528859E+01  0.39918529581E-01 -0.26427862861E+02  0.27527464638E+02  0.00000000000E+00 0.  1.
</event>
<event>
 7    1  0.5601662E-013  0.5052886E+02  0.7816164E-02  0.1300439E+00
        -11   -1    0    0    0    0  0.00000000000E+00  0.00000000000E+00  0.45593999997E+02  0.45594000000E+02  0.51100000000E-03 0.  1.
         11   -1    0    0    0    0 -0.00000000000E+00 -0.00000000000E+00 -0.45593999997E+02  0.45594000000E+02  0.51100000000E-03 0. -1.
    9900012    2    1    2    0    0  0.19122355111E+02  0.30709941452E+02 -0.18558038296E+02  0.50528858907E+02  0.29999997135E+02 0.  0.
        -12    1    1    2    0    0 -0.19122355111E+02 -0.30709941452E+02  0.18558038296E+02  0.40659141093E+02  0.00000000000E+00 0.  1.
         11    1    3    3    0    0  0.15257948174E+01  0.30979952121E+01 -0.61257042487E+01  0.70320606484E+01  0.51100000000E-03 0.  1.
        -11    1    3    3    0    0  0.10087319034E+01  0.12457024661E+02  0.65257005482E+01  0.14098928021E+02  0.51100000000E-03 0. -1.
         12    1    3    3    0    0  0.16587828390E+02  0.15154921580E+02 -0.18958034595E+02  0.29397870238E+02  0.00000000000E+00 0. -1.
</event>
<event>
 7    1  0.5601662E-013  0.5052886E+02  0.7816164E-02  0.1300439E+00
        -11   -1    0    0    0    0  0.00000000000E+00  0.00000000000E+00  0.45593999997E+02  0.45594000000E+02  0.51100000000E-03 0. -1.
         11   -1    0    0    0    0 -0.00000000000E+00 -0.00000000000E+00 -0.45593999997E+02  0.45594000000E+02  0.51100000000E-03 0.  1.
    9900012    2    1    2    0    0  0.26723793758E+02  0.72711353616E+00  0.30634552348E+02  0.50528860259E+02  0.30000001242E+02 0.  0.
        -12    1    1    2    0    0 -0.26723793758E+02 -0.72711353616E+00 -0.30634552348E+02  0.40659139741E+02  0.00000000000E+00 0.  1.
         11    1    3    3    0    0  0.26985201528E+02  0.83928365159E+01  0.25912967683E+02  0.38342179133E+02  0.51100000000E-03 0. -1.
        -11    1    3    3    0    0 -0.24164268860E+01 -0.17428718771E+00  0.35588294129E+01  0.43052017340E+01  0.51100000000E-03 0.  1.
        -12    1    3    3    0    0  0.21550191164E+01 -0.74914357920E+01  0.11627552519E+01  0.78814793912E+01  0.00000000000E+00 0.  1.
</event>
<event>
 7    1  0.5601662E-013  0.5052885E+02  0.7816164E-02  0.1300439E+00
        -11   -1    0    0    0    0  0.00000000000E+00  0.00000000000E+00  0.45593999997E+02  0.45594000000E+02  0.51100000000E-03 0. -1.
         11   -1    0    0    0    0 -0.00000000000E+00 -0.00000000000E+00 -0.45593999997E+02  0.45594000000E+02  0.51100000000E-03 0.  1.
    9900012    2    1    2    0    0  0.33021208291E+02  0.12169339470E+02  0.20363528335E+02  0.50528852120E+02  0.29999976503E+02 0.  0.
        -12    1    1    2    0    0 -0.33021208291E+02 -0.12169339470E+02 -0.20363528335E+02  0.40659147880E+02  0.00000000000E+00 0.  1.
         11    1    3    3    0    0  0.24864349901E+02  0.96180074258E+01  0.16723302110E+02  0.31470792755E+02  0.51100000000E-03 0. -1.
        -11    1    3    3    0    0  0.73414331666E+01  0.72654845770E+01  0.76196314169E+01  0.12835212903E+02  0.51100000000E-03 0.  1.
         12    1    3    3    0    0  0.81542522300E+00 -0.47141525330E+01 -0.39794051927E+01  0.62228464618E+01  0.00000000000E+00 0. -1.
</event>
<event>
 7    1  0.5601662E-013  0.5052885E+02  0.7816164E-02  0.1300439E+00
        -11   -1    0    0    0    0  0.00000000000E+00  0.00000000000E+00  0.45593999997E+02  0.45594000000E+02  0.51100000000E-03 0.  1.
         11   -1    0    0    0    0 -0.00000000000E+00 -0.00000000000E+00 -0.45593999997E+02  0.45594000000E+02  0.51100000000E-03 0. -1.
    9900012    2    1    2    0    0 -0.18503651535E+02 -0.36657310938E+01 -0.36018662572E+02  0.50528846565E+02  0.29999959618E+02 0.  0.
        -12    1    1    2    0    0  0.18503651535E+02  0.36657310938E+01  0.36018662572E+02  0.40659153435E+02  0.00000000000E+00 0.  1.
         11    1    3    3    0    0 -0.16872660870E+02 -0.66226752636E+01 -0.24855160668E+02  0.30762404402E+02  0.51100000000E-03 0. -1.
        -11    1    3    3    0    0 -0.37497054052E+01 -0.46381160373E+01 -0.10209400850E+02  0.11823885867E+02  0.51100000000E-03 0.  1.
        -12    1    3    3    0    0  0.21187147402E+01  0.75950602070E+01 -0.95410105334E+00  0.79425562962E+01  0.00000000000E+00 0.  1.
</event>
<event>
 7    1  0.5601662E-013  0.5052886E+02  0.7816164E-02  0.1300439E+00
        -11   -1    0    0    0    0  0.00000000000E+00  0.00000000000E+00  0.45593999997E+02  0.45594000000E+02  0.51100000000E-03 0. -1.
         11   -1    0    0    0    0 -0.00000000000E+00 -0.00000000000E+00 -0.45593999997E+02  0.45594000000E+02  0.51100000000E-03 0.  1.
    9900012    2    1    2    0    0 -0.32795257739E+02  0.59794090603E+01  0.23278386802E+02  0.50528861359E+02  0.30000004587E+02 0.  0.
        -12    1    1    2    0    0  0.32795257739E+02 -0.59794090603E+01 -0.23278386802E+02  0.40659138641E+02  0.00000000000E+00 0.  1.
         11    1    3    3    0    0 -0.14417794095E+02 -0.38742997604E+01  0.92491480551E+01  0.17562167440E+02  0.51100000000E-03 0. -1.
        -11    1    3    3    0    0 -0.10755388520E+02 -0.99191900362E+00  0.16263729404E+02  0.19523605710E+02  0.51100000000E-03 0.  1.
        -12    1    3    3    0    0 -0.76220751244E+01  0.10845627824E+02 -0.22344906565E+01  0.13443088209E+02  0.00000000000E+00 0.  1.
</event>
<event>
 7    1  0.5601662E-013  0.5052885E+02  0.7816164E-02  0.1300439E+00
        -11   -1    0    0    0    0  0.00000000000E+00  0.00000000000E+00  0.45593999997E+02  0.45594000000E+02  0.51100000000E-03 0.  1.
         11   -1    0    0    0    0 -0.00000000000E+00 -0.00000000000E+00 -0.45593999997E+02  0.45594000000E+02  0.51100000000E-03 0. -1.
    9900012    2    1    2    0    0 -0.23144914039E+02 -0.32895989036E+02  0.59441816765E+01  0.50528850521E+02  0.29999971644E+02 0.  0.
        -12    1    1    2    0    0  0.23144914039E+02  0.32895989036E+02 -0.59441816765E+01  0.40659149479E+02  0.00000000000E+00 0.  1.
         11    1    3    3    0    0 -0.12764351152E+02 -0.64860226885E+01  0.66784966266E+01  0.15798717293E+02  0.51100000000E-03 0. -1.
        -11    1    3    3    0    0  0.57714659145E+01 -0.71968000077E+01  0.21266995286E+01  0.94671326335E+01  0.51100000000E-03 0.  1.
         12    1    3    3    0    0 -0.16152028802E+02 -0.19213166340E+02 -0.28610144786E+01  0.25263000595E+02  0.00000000000E+00 0. -1.
</event>
<event>
 7    1  0.5601662E-013  0.5052884E+02  0.7816164E-02  0.1300439E+00
        -11   -1    0    0    0    0  0.00000000000E+00  0.00000000000E+00  0.45593999997E+02  0.45594000000E+02  0.51100000000E-03 0.  1.
         11   -1    0    0    0    0 -0.00000000000E+00 -0.00000000000E+00 -0.45593999997E+02  0.45594000000E+02  0.51100000000E-03 0. -1.
    9900012    2    1    2    0    0  0.18918701631E+02  0.50828931130E+01 -0.35628835134E+02  0.50528843998E+02  0.29999951816E+02 0.  0.
        -12    1    1    2    0    0 -0.18918701631E+02 -0.50828931130E+01  0.35628835134E+02  0.40659156002E+02  0.00000000000E+00 0.  1.
         11    1    3    3    0    0  0.74291646265E+01 -0.46498943793E+01 -0.28853772627E+01  0.92271017657E+01  0.51100000000E-03 0. -1.
        -11    1    3    3    0    0 -0.25092695832E+01 -0.86701494648E+00 -0.18507009857E+02  0.18696458564E+02  0.51100000000E-03 0.  1.
        -12    1    3    3    0    0  0.13998806587E+02  0.10599802439E+02 -0.14236448015E+02  0.22605283668E+02  0.00000000000E+00 0.  1.
</event>
<event>
 7    1  0.5601662E-013  0.5052884E+02  0.7816164E-02  0.1300439E+00
        -11   -1    0    0    0    0  0.00000000000E+00  0.00000000000E+00  0.45593999997E+02  0.45594000000E+02  0.51100000000E-03 0.  1.
         11   -1    0    0    0    0 -0.00000000000E+00 -0.00000000000E+00 -0.45593999997E+02  0.45594000000E+02  0.51100000000E-03 0. -1.
    9900012    2    1    2    0    0 -0.17088254084E+02  0.36575314971E+02 -0.48379003049E+01  0.50528839012E+02  0.29999936661E+02 0.  0.
        -12    1    1    2    0    0  0.17088254084E+02 -0.36575314971E+02  0.48379003049E+01  0.40659160988E+02  0.00000000000E+00 0.  1.
         11    1    3    3    0    0 -0.90830859514E+01 -0.76726039441E+00  0.20948028482E+01  0.93530389793E+01  0.51100000000E-03 0.  1.
        -11    1    3    3    0    0  0.26163824287E+01  0.11539985582E+01 -0.22069209366E+00  0.28680786159E+01  0.51100000000E-03 0. -1.
         12    1    3    3    0    0 -0.10621550561E+02  0.36188576808E+02 -0.67120110595E+01  0.38307721417E+02  0.00000000000E+00 0. -1.
</event>
<event>
 7    1  0.5601662E-013  0.5052885E+02  0.7816164E-02  0.1300439E+00
        -11   -1    0    0    0    0  0.00000000000E+00  0.00000000000E+00  0.45593999997E+02  0.45594000000E+02  0.51100000000E-03 0.  1.
         11   -1    0    0    0    0 -0.00000000000E+00 -0.00000000000E+00 -0.45593999997E+02  0.45594000000E+02  0.51100000000E-03 0. -1.
    9900012    2    1    2    0    0 -0.62340887938E+01  0.39420851546E+02  0.77652575698E+01  0.50528848203E+02  0.29999964599E+02 0.  0.
        -12    1    1    2    0    0  0.62340887938E+01 -0.39420851546E+02 -0.77652575698E+01  0.40659151797E+02  0.00000000000E+00 0.  1.
         11    1    3    3    0    0 -0.37161494248E+00  0.41095512782E+01  0.36779505459E+01  0.55275518860E+01  0.51100000000E-03 0. -1.
        -11    1    3    3    0    0  0.60151079592E+01 -0.13663737057E+01 -0.43695858908E+00  0.61838041636E+01  0.51100000000E-03 0.  1.
        -12    1    3    3    0    0 -0.11877581810E+02  0.36677673973E+02  0.45242656130E+01  0.38817492154E+02  0.00000000000E+00 0.  1.
</event>
<event>
 7    1  0.5601662E-013  0.5052887E+02  0.7816164E-02  0.1300439E+00
        -11   -1    0    0    0    0  0.00000000000E+00  0.00000000000E+00  0.45593999997E+02  0.45594000000E+02  0.51100000000E-03 0. -1.
         11   -1    0    0    0    0 -0.00000000000E+00 -0.00000000000E+00 -0.45593999997E+02  0.45594000000E+02  0.51100000000E-03 0.  1.
    9900012    2    1    2    0    0  0.10112250050E+02 -0.17962193966E+02  0.35046632768E+02  0.50528874560E+02  0.30000044714E+02 0.  0.
        -12    1    1    2    0    0 -0.10112250050E+02  0.17962193966E+02 -0.35046632768E+02  0.40659125440E+02  0.00000000000E+00 0.  1.
         11    1    3    3    0    0 -0.80668611210E+01 -0.10847737029E+01  0.44703201172E+01  0.92862664480E+01  0.51100000000E-03 0.  1.
        -11    1    3    3    0    0  0.32094333458E+01 -0.62101199612E+00  0.11799030926E+02  0.12243498249E+02  0.51100000000E-03 0. -1.
        -12    1    3    3    0    0  0.14969677826E+02 -0.16256408267E+02  0.18777281724E+02  0.28999109864E+02  0.00000000000E+00 0.  1.
</event>
<event>
 7    1  0.5601662E-013  0.5052886E+02  0.7816164E-02  0.1300439E+00
        -11   -1    0    0    0    0  0.00000000000E+00  0.00000000000E+00  0.45593999997E+02  0.45594000000E+02  0.51100000000E-03 0. -1.
         11   -1    0    0    0    0 -0.00000000000E+00 -0.00000000000E+00 -0.45593999997E+02  0.45594000000E+02  0.51100000000E-03 0.  1.
    9900012    2    1    2    0    0  0.33045680030E+02 -0.19813036639E+02  0.12984311902E+02  0.50528859022E+02  0.29999997482E+02 0.  0.
        -12    1    1    2    0    0 -0.33045680030E+02  0.19813036639E+02 -0.12984311902E+02  0.40659140978E+02  0.00000000000E+00 0.  1.
         11    1    3    3    0    0  0.17147009803E+02 -0.17094912152E+02  0.14613761722E+02  0.28281053703E+02  0.51100000000E-03 0. -1.
        -11    1    3    3    0    0  0.97694396361E+01 -0.40165294968E+01  0.61783220242E+01  0.12237079852E+02  0.51100000000E-03 0.  1.
        -12    1    3    3    0    0  0.61292305910E+01  0.12984050089E+01 -0.78077718436E+01  0.10010725467E+02  0.00000000000E+00 0.  1.
</event>
<event>
 7    1  0.5601662E-013  0.5052885E+02  0.7816164E-02  0.1300439E+00
        -11   -1    0    0    0    0  0.00000000000E+00  0.00000000000E+00  0.45593999997E+02  0.45594000000E+02  0.51100000000E-03 0. -1.
         11   -1    0    0    0    0 -0.00000000000E+00 -0.00000000000E+00 -0.45593999997E+02  0.45594000000E+02  0.51100000000E-03 0.  1.
    9900012    2    1    2    0    0  0.14218979956E+02  0.33420485538E+02  0.18277250952E+02  0.50528854080E+02  0.29999982461E+02 0.  0.
        -12    1    1    2    0    0 -0.14218979956E+02 -0.33420485538E+02 -0.18277250952E+02  0.40659145920E+02  0.00000000000E+00 0.  1.
         11    1    3    3    0    0  0.71384918273E+01  0.83933205171E+01  0.19141501627E+02  0.22086262238E+02  0.51100000000E-03 0. -1.
        -11    1    3    3    0    0 -0.29642350328E+01  0.65443493771E+01 -0.17267663590E+01  0.73889728934E+01  0.51100000000E-03 0.  1.
        -12    1    3    3    0    0  0.10044723161E+02  0.18482815644E+02  0.86251568434E+00  0.21053618948E+02  0.00000000000E+00 0.  1.
</event>
<event>
 7    1  0.5601662E-013  0.5052885E+02  0.7816164E-02  0.1300439E+00
        -11   -1    0    0    0    0  0.00000000000E+00  0.00000000000E+00  0.45593999997E+02  0.45594000000E+02  0.51100000000E-03 0. -1.
         11   -1    0    0    0    0 -0.00000000000E+00 -0.00000000000E+00 -0.45593999997E+02  0.45594000000E+02  0.51100000000E-03 0.  1.
    9900012    2    1    2    0    0  0.12996023196E+02 -0.38471858429E+02 -0.20458920584E+01  0.50528853621E+02  0.29999981068E+02 0.  0.
        -12    1    1    2    0    0 -0.12996023196E+02  0.38471858429E+02  0.20458920584E+01  0.40659146379E+02  0.00000000000E+00 0.  1.
         11    1    3    3    0    0  0.15544880793E+02 -0.14947887775E+02 -0.51127121791E+01  0.22163539742E+02  0.51100000000E-03 0. -1.
        -11    1    3    3    0    0  0.54511764447E+01 -0.86396298004E+01 -0.26019512507E+01  0.10541758786E+02  0.51100000000E-03 0.  1.
        -12    1    3    3    0    0 -0.80000340421E+01 -0.14884340854E+02  0.56687713714E+01  0.17823555094E+02  0.00000000000E+00 0.  1.
</event>
<event>
 7    1  0.5601662E-013  0.5052886E+02  0.7816164E-02  0.1300439E+00
        -11   -1    0    0    0    0  0.00000000000E+00  0.00000000000E+00  0.45593999997E+02  0.45594000000E+02  0.51100000000E-03 0.  1.
         11   -1    0    0    0    0 -0.00000000000E+00 -0.00000000000E+00 -0.45593999997E+02  0.45594000000E+02  0.51100000000E-03 0. -1.
    9900012    2    1    2    0    0  0.28941048174E+02  0.22423051083E+02 -0.17685819214E+02  0.50528859692E+02  0.29999999520E+02 0.  0.
        -12    1    1    2    0    0 -0.28941048174E+02 -0.22423051083E+02  0.17685819214E+02  0.40659140308E+02  0.00000000000E+00 0.  1.
         11    1    3    3    0    0  0.14569528557E+01  0.87486765228E+01 -0.80286399036E+01  0.11963323597E+02  0.51100000000E-03 0. -1.
        -11    1    3    3    0    0  0.24550187221E+01 -0.18888176151E+01 -0.85253646503E+01  0.90706444970E+01  0.51100000000E-03 0.  1.
        -12    1    3    3    0    0  0.25029076596E+02  0.15563192176E+02 -0.11318146604E+01  0.29494891598E+02  0.00000000000E+00 0.  1.
</event>
<event>
 7    1  0.5601662E-013  0.5052886E+02  0.7816164E-02  0.1300439E+00
        -11   -1    0    0    0    0  0.00000000000E+00  0.00000000000E+00  0.45593999997E+02  0.45594000000E+02  0.51100000000E-03 0. -1.
         11   -1    0    0    0    0 -0.00000000000E+00 -0.00000000000E+00 -0.45593999997E+02  0.45594000000E+02  0.51100000000E-03 0.  1.
    9900012    2    1    2    0    0 -0.35129502075E+02 -0.11229274446E+02 -0.17116869511E+02  0.50528859054E+02  0.29999997581E+02 0.  0.
        -12    1    1    2    0    0  0.35129502075E+02  0.11229274446E+02  0.17116869511E+02  0.40659140946E+02  0.00000000000E+00 0.  1.
         11    1    3    3    0    0 -0.14276484704E+02  0.33306362463E+01 -0.11999735156E+02  0.18944782854E+02  0.51100000000E-03 0. -1.
        -11    1    3    3    0    0  0.30829930873E+01 -0.34279676930E+01 -0.19161625889E+01  0.49927435553E+01  0.51100000000E-03 0.  1.
         12    1    3    3    0    0 -0.23936010458E+02 -0.11131943000E+02 -0.32009717655E+01  0.26591332645E+02  0.00000000000E+00 0. -1.
</event>
<event>
 7    1  0.5601662E-013  0.5052887E+02  0.7816164E-02  0.1300439E+00
        -11   -1    0    0    0    0  0.00000000000E+00  0.00000000000E+00  0.45593999997E+02  0.45594000000E+02  0.51100000000E-03 0. -1.
         11   -1    0    0    0    0 -0.00000000000E+00 -0.00000000000E+00 -0.45593999997E+02  0.45594000000E+02  0.51100000000E-03 0.  1.
    9900012    2    1    2    0    0 -0.32911118344E+02 -0.36452647781E+01  0.23595244209E+02  0.50528865538E+02  0.30000017288E+02 0.  0.
        -12    1    1    2    0    0  0.32911118344E+02  0.36452647781E+01 -0.23595244209E+02  0.40659134462E+02  0.00000000000E+00 0.  1.
         11    1    3    3    0    0 -0.23533622294E+02  0.15622092456E+01  0.24866936511E+01  0.23716144745E+02  0.51100000000E-03 0. -1.
        -11    1    3    3    0    0  0.15503688517E+01  0.26064905221E+01  0.30076526068E+01  0.42712306051E+01  0.51100000000E-03 0.  1.
        -12    1    3    3    0    0 -0.10927864902E+02 -0.78139645457E+01  0.18100897951E+02  0.22541490187E+02  0.00000000000E+00 0.  1.
</event>
<event>
 7    1  0.5601662E-013  0.5052888E+02  0.7816164E-02  0.1300439E+00
        -11   -1    0    0    0    0  0.00000000000E+00  0.00000000000E+00  0.45593999997E+02  0.45594000000E+02  0.51100000000E-03 0.  1.
         11   -1    0    0    0    0 -0.00000000000E+00 -0.00000000000E+00 -0.45593999997E+02  0.45594000000E+02  0.51100000000E-03 0. -1.
    9900012    2    1    2    0    0 -0.10324916556E+02  0.39319048607E+02  0.75683020190E+00  0.50528877073E+02  0.30000052351E+02 0.  0.
        -12    1    1    2    0    0  0.10324916556E+02 -0.39319048607E+02 -0.75683020190E+00  0.40659122927E+02  0.00000000000E+00 0.  1.
         11    1    3    3    0    0 -0.87462641188E+01  0.12841187810E+02  0.66363340723E+00  0.15551001575E+02  0.51100000000E-03 0. -1.
        -11    1    3    3    0    0  0.36867293803E+01 -0.13783901261E+01  0.48350222373E+01  0.62345307088E+01  0.51100000000E-03 0.  1.
         12    1    3    3    0    0 -0.52653818175E+01  0.27856250923E+02 -0.47418254426E+01  0.28743344789E+02  0.00000000000E+00 0. -1.
</event>
<event>
 7    1  0.5601662E-013  0.5052886E+02  0.7816164E-02  0.1300439E+00
        -11   -1    0    0    0    0  0.00000000000E+00  0.00000000000E+00  0.45593999997E+02  0.45594000000E+02  0.51100000000E-03 0.  1.
         11   -1    0    0    0    0 -0.00000000000E+00 -0.00000000000E+00 -0.45593999997E+02  0.45594000000E+02  0.51100000000E-03 0. -1.
    9900012    2    1    2    0    0 -0.39142149161E+02  0.74820239293E+01 -0.80670388031E+01  0.50528860338E+02  0.30000001484E+02 0.  0.
        -12    1    1    2    0    0  0.39142149161E+02 -0.74820239293E+01  0.80670388031E+01  0.40659139662E+02  0.00000000000E+00 0.  1.
         11    1    3    3    0    0 -0.13574854590E+02 -0.61492652570E+01  0.16589112013E+01  0.14994736643E+02  0.51100000000E-03 0. -1.
        -11    1    3    3    0    0 -0.12342556615E+02  0.16753262162E+01 -0.12318821512E+02  0.17518526919E+02  0.51100000000E-03 0.  1.
         12    1    3    3    0    0 -0.13224737956E+02  0.11955962970E+02  0.25928715077E+01  0.18015596776E+02  0.00000000000E+00 0. -1.
</event>
<event>
 7    1  0.5601662E-013  0.5052887E+02  0.7816164E-02  0.1300439E+00
        -11   -1    0    0    0    0  0.00000000000E+00  0.00000000000E+00  0.45593999997E+02  0.45594000000E+02  0.51100000000E-03 0.  1.
         11   -1    0    0    0    0 -0.00000000000E+00 -0.00000000000E+00 -0.45593999997E+02  0.45594000000E+02  0.51100000000E-03 0. -1.
    9900012    2    1    2    0    0  0.94588444672E+01 -0.35947864794E+02 -0.16475633995E+02  0.50528865265E+02  0.30000016459E+02 0.  0.
        -12    1    1    2    0    0 -0.94588444672E+01  0.35947864794E+02  0.16475633995E+02  0.40659134735E+02  0.00000000000E+00 0.  1.
         11    1    3    3    0    0  0.23075674009E+01 -0.25965303324E+01  0.87373697783E-01  0.34748340249E+01  0.51100000000E-03 0.  1.
        -11    1    3    3    0    0 -0.28928340958E+00 -0.24048450663E+02  0.29107560357E+01  0.24225692253E+02  0.51100000000E-03 0. -1.
         12    1    3    3    0    0  0.74405604759E+01 -0.93028837985E+01 -0.19473763729E+02  0.22828338987E+02  0.00000000000E+00 0. -1.
</event>
<event>
 7    1  0.5601662E-013  0.5052885E+02  0.7816164E-02  0.1300439E+00
        -11   -1    0    0    0    0  0.00000000000E+00  0.00000000000E+00  0.45593999997E+02  0.45594000000E+02  0.51100000000E-03 0.  1.
         11   -1    0    0    0    0 -0.00000000000E+00 -0.00000000000E+00 -0.45593999997E+02  0.45594000000E+02  0.51100000000E-03 0. -1.
    9900012    2    1    2    0    0 -0.28257861587E+02 -0.15177655398E+01 -0.29195144230E+02  0.50528846045E+02  0.29999958038E+02 0.  0.
        -12    1    1    2    0    0  0.28257861587E+02  0.15177655398E+01  0.29195144230E+02  0.40659153955E+02  0.00000000000E+00 0.  1.
         11    1    3    3    0    0 -0.52775819431E+01 -0.35400091451E+01 -0.13294756368E+02  0.14735504168E+02  0.51100000000E-03 0. -1.
        -11    1    3    3    0    0  0.34008084090E+01  0.16168809792E+01  0.16436062847E+01  0.41086790840E+01  0.51100000000E-03 0.  1.
         12    1    3    3    0    0 -0.26381088053E+02  0.40536262618E+00 -0.17543994146E+02  0.31684662793E+02  0.00000000000E+00 0. -1.
</event>
<event>
 7    1  0.5601662E-013  0.5052885E+02  0.7816164E-02  0.1300439E+00
        -11   -1    0    0    0    0  0.00000000000E+00  0.00000000000E+00  0.45593999997E+02  0.45594000000E+02  0.51100000000E-03 0.  1.
         11   -1    0    0    0    0 -0.00000000000E+00 -0.00000000000E+00 -0.45593999997E+02  0.45594000000E+02  0.51100000000E-03 0. -1.
    9900012    2    1    2    0    0 -0.32987705263E+02  0.19054739277E+02  0.14208951294E+02  0.50528854850E+02  0.29999984802E+02 0.  0.
        -12    1    1    2    0    0  0.32987705263E+02 -0.19054739277E+02 -0.14208951294E+02  0.40659145150E+02  0.00000000000E+00 0.  1.
         11    1    3    3    0    0 -0.89258865629E+01  0.11777340320E+02  0.54115179025E+00  0.14787496119E+02  0.51100000000E-03 0. -1.
        -11    1    3    3    0    0 -0.13107881708E+02  0.99784671257E+01 -0.18265259362E+01  0.16574756901E+02  0.51100000000E-03 0.  1.
        -12    1    3    3    0    0 -0.10953936992E+02 -0.27010681690E+01  0.15494325440E+02  0.19166601830E+02  0.00000000000E+00 0.  1.
</event>
<event>
 7    1  0.5601662E-013  0.5052886E+02  0.7816164E-02  0.1300439E+00
        -11   -1    0    0    0    0  0.00000000000E+00  0.00000000000E+00  0.45593999997E+02  0.45594000000E+02  0.51100000000E-03 0.  1.
         11   -1    0    0    0    0 -0.00000000000E+00 -0.00000000000E+00 -0.45593999997E+02  0.45594000000E+02  0.51100000000E-03 0. -1.
    9900012    2    1    2    0    0 -0.39027777270E+02 -0.11026757929E+02  0.28998244286E+01  0.50528858706E+02  0.29999996523E+02 0.  0.
        -12    1    1    2    0    0  0.39027777270E+02  0.11026757929E+02 -0.28998244286E+01  0.40659141294E+02  0.00000000000E+00 0.  1.
         11    1    3    3    0    0  0.22311191416E+01 -0.15719347205E+01 -0.51663505133E+01  0.58429486799E+01  0.51100000000E-03 0. -1.
        -11    1    3    3    0    0 -0.37559754840E+01 -0.43466429224E+01 -0.83267431412E+00  0.58046535905E+01  0.51100000000E-03 0.  1.
         12    1    3    3    0    0 -0.37502920927E+02 -0.51081802863E+01  0.88988492559E+01  0.38881256435E+02  0.00000000000E+00 0. -1.
</event>
<event>
 7    1  0.5601662E-013  0.5052886E+02  0.7816164E-02  0.1300439E+00
        -11   -1    0    0    0    0  0.00000000000E+00  0.00000000000E+00  0.45593999997E+02  0.45594000000E+02  0.51100000000E-03 0.  1.
         11   -1    0    0    0    0 -0.00000000000E+00 -0.00000000000E+00 -0.45593999997E+02  0.45594000000E+02  0.51100000000E-03 0. -1.
    9900012    2    1    2    0    0 -0.20919653536E+02 -0.12747198034E+02 -0.32450621307E+02  0.50528858530E+02  0.29999995989E+02 0.  0.
        -12    1    1    2    0    0  0.20919653536E+02  0.12747198034E+02  0.32450621307E+02  0.40659141470E+02  0.00000000000E+00 0.  1.
         11    1    3    3    0    0 -0.21056872108E+02 -0.17637830731E+01 -0.17533879954E+02  0.27457963148E+02  0.51100000000E-03 0. -1.
        -11    1    3    3    0    0 -0.38578550763E+01 -0.55910418687E+01 -0.14882831623E+02  0.16359751598E+02  0.51100000000E-03 0.  1.
        -12    1    3    3    0    0  0.39950736484E+01 -0.53923730927E+01 -0.33909730152E-01  0.67111437845E+01  0.00000000000E+00 0.  1.
</event>
<event>
 7    1  0.7007522E-013  0.5052885E+02  0.7816164E-02  0.1300439E+00
        -11   -1    0    0    0    0  0.00000000000E+00  0.00000000000E+00  0.45593999997E+02  0.45594000000E+02  0.51100000000E-03 0. -1.
         11   -1    0    0    0    0 -0.00000000000E+00 -0.00000000000E+00 -0.45593999997E+02  0.45594000000E+02  0.51100000000E-03 0.  1.
    9900012    2    1    2    0    0 -0.72904967474E+01 -0.29311245848E+02  0.27218852693E+02  0.50528850748E+02  0.29999972334E+02 0.  0.
        -12    1    1    2    0    0  0.72904967474E+01  0.29311245848E+02 -0.27218852693E+02  0.40659149252E+02  0.00000000000E+00 0.  1.
         11    1    3    3    0    0 -0.48739618698E+01 -0.16676904366E+02  0.32482651062E+01  0.17675572693E+02  0.51100000000E-03 0. -1.
        -11    1    3    3    0    0 -0.40222967951E+01 -0.10051301616E+01 -0.18113540440E+01  0.45243963004E+01  0.51100000000E-03 0.  1.
         12    1    3    3    0    0  0.16057619175E+01 -0.11629211320E+02  0.25781941631E+02  0.28328881755E+02  0.00000000000E+00 0. -1.
</event>
<event>
 7    1  0.5601662E-013  0.5052886E+02  0.7816164E-02  0.1300439E+00
        -11   -1    0    0    0    0  0.00000000000E+00  0.00000000000E+00  0.45593999997E+02  0.45594000000E+02  0.51100000000E-03 0.  1.
         11   -1    0    0    0    0 -0.00000000000E+00 -0.00000000000E+00 -0.45593999997E+02  0.45594000000E+02  0.51100000000E-03 0. -1.
    9900012    2    1    2    0    0 -0.33292993127E+02 -0.15100563374E+02 -0.17796491479E+02  0.50528861857E+02  0.30000006101E+02 0.  0.
        -12    1    1    2    0    0  0.33292993127E+02  0.15100563374E+02  0.17796491479E+02  0.40659138143E+02  0.00000000000E+00 0.  1.
         11    1    3    3    0    0 -0.95548837764E+01 -0.10465097900E+02 -0.77834490206E+01  0.16167750522E+02  0.51100000000E-03 0. -1.
        -11    1    3    3    0    0 -0.17501122228E+02 -0.12952085674E+02 -0.33895760832E+01  0.22034859402E+02  0.51100000000E-03 0.  1.
         12    1    3    3    0    0 -0.62369871218E+01  0.83166201992E+01 -0.66234663754E+01  0.12326251933E+02  0.00000000000E+00 0. -1.
</event>
<event>
 7    1  0.5601662E-013  0.5052885E+02  0.7816164E-02  0.1300439E+00
        -11   -1    0    0    0    0  0.00000000000E+00  0.00000000000E+00  0.45593999997E+02  0.45594000000E+02  0.51100000000E-03 0. -1.
         11   -1    0    0    0    0 -0.00000000000E+00 -0.00000000000E+00 -0.45593999997E+02  0.45594000000E+02  0.51100000000E-03 0.  1.
    9900012    2    1    2    0    0  0.39201490594E+00 -0.28444728202E+02 -0.29050138207E+02  0.50528846443E+02  0.29999959248E+02 0.  0.
        -12    1    1    2    0    0 -0.39201490594E+00  0.28444728202E+02  0.29050138207E+02  0.40659153557E+02  0.00000000000E+00 0.  1.
         11    1    3    3    0    0 -0.40897314525E+00  0.42065043618E+01 -0.59064123725E+01  0.72627574209E+01  0.51100000000E-03 0. -1.
        -11    1    3    3    0    0  0.21133039592E+00 -0.26146049240E+00  0.21436825531E+01  0.21698841616E+01  0.51100000000E-03 0.  1.
         12    1    3    3    0    0  0.58965765527E+00 -0.32389772071E+02 -0.25287408387E+02  0.41096204860E+02  0.00000000000E+00 0. -1.
</event>
<event>
 7    1  0.5601662E-013  0.5052883E+02  0.7816164E-02  0.1300439E+00
        -11   -1    0    0    0    0  0.00000000000E+00  0.00000000000E+00  0.45593999997E+02  0.45594000000E+02  0.51100000000E-03 0. -1.
         11   -1    0    0    0    0 -0.00000000000E+00 -0.00000000000E+00 -0.45593999997E+02  0.45594000000E+02  0.51100000000E-03 0.  1.
    9900012    2    1    2    0    0  0.19462473528E+02 -0.36525311712E+01  0.35511111847E+02  0.50528832222E+02  0.29999916023E+02 0.  0.
        -12    1    1    2    0    0 -0.19462473528E+02  0.36525311712E+01 -0.35511111847E+02  0.40659167778E+02  0.00000000000E+00 0.  1.
         11    1    3    3    0    0 -0.12923326650E+01 -0.61057847867E+00 -0.16484099960E+00  0.14387851166E+01  0.51100000000E-03 0. -1.
        -11    1    3    3    0    0  0.43992258802E+01  0.85355101384E+01  0.24113057688E+02  0.25954723520E+02  0.51100000000E-03 0.  1.
         12    1    3    3    0    0  0.16355580313E+02 -0.11577462831E+02  0.11562895158E+02  0.23135323586E+02  0.00000000000E+00 0. -1.
</event>
<event>
 7    1  0.5601662E-013  0.5052886E+02  0.7816164E-02  0.1300439E+00
        -11   -1    0    0    0    0  0.00000000000E+00  0.00000000000E+00  0.45593999997E+02  0.45594000000E+02  0.51100000000E-03 0.  1.
         11   -1    0    0    0    0 -0.00000000000E+00 -0.00000000000E+00 -0.45593999997E+02  0.45594000000E+02  0.51100000000E-03 0. -1.
    9900012    2    1    2    0    0 -0.21648953565E+02 -0.64124534176E+01  0.33813739052E+02  0.50528859601E+02  0.29999999242E+02 0.  0.
        -12    1    1    2    0    0  0.21648953565E+02  0.64124534176E+01 -0.33813739052E+02  0.40659140399E+02  0.00000000000E+00 0.  1.
         11    1    3    3    0    0  0.30193230027E+01  0.22205299560E+01  0.45481756560E+01  0.58934681418E+01  0.51100000000E-03 0. -1.
        -11    1    3    3    0    0  0.98001844692E+00 -0.73990482938E+01  0.10266982368E+02  0.12693198140E+02  0.51100000000E-03 0.  1.
        -12    1    3    3    0    0 -0.25648295015E+02 -0.12339350797E+01  0.18998581028E+02  0.31942193319E+02  0.00000000000E+00 0.  1.
</event>
<event>
 7    1  0.5601662E-013  0.5052886E+02  0.7816164E-02  0.1300439E+00
        -11   -1    0    0    0    0  0.00000000000E+00  0.00000000000E+00  0.45593999997E+02  0.45594000000E+02  0.51100000000E-03 0.  1.
         11   -1    0    0    0    0 -0.00000000000E+00 -0.00000000000E+00 -0.45593999997E+02  0.45594000000E+02  0.51100000000E-03 0. -1.
    9900012    2    1    2    0    0  0.11596343364E+02  0.75177502358E+01 -0.38238378949E+02  0.50528863602E+02  0.30000011404E+02 0.  0.
        -12    1    1    2    0    0 -0.11596343364E+02 -0.75177502358E+01  0.38238378949E+02  0.40659136398E+02  0.00000000000E+00 0.  1.
         11    1    3    3    0    0  0.17280826929E+02 -0.13686419882E+01 -0.16286071891E+02  0.23785211753E+02  0.51100000000E-03 0. -1.
        -11    1    3    3    0    0 -0.37699888842E+01 -0.17313287361E+01 -0.37931312569E+01  0.56212240991E+01  0.51100000000E-03 0.  1.
        -12    1    3    3    0    0 -0.19144946808E+01  0.10617720960E+02 -0.18159175801E+02  0.21122427750E+02  0.00000000000E+00 0.  1.
</event>
<event>
 7    1  0.5601662E-013  0.5052886E+02  0.7816164E-02  0.1300439E+00
        -11   -1    0    0    0    0  0.00000000000E+00  0.00000000000E+00  0.45593999997E+02  0.45594000000E+02  0.51100000000E-03 0.  1.
         11   -1    0    0    0    0 -0.00000000000E+00 -0.00000000000E+00 -0.45593999997E+02  0.45594000000E+02  0.51100000000E-03 0. -1.
    9900012    2    1    2    0    0 -0.13597570927E+02 -0.11411365607E+01 -0.38301039542E+02  0.50528858866E+02  0.29999997009E+02 0.  0.
        -12    1    1    2    0    0  0.13597570927E+02  0.11411365607E+01  0.38301039542E+02  0.40659141134E+02  0.00000000000E+00 0.  1.
         11    1    3    3    0    0 -0.10664135612E+02  0.66224797449E+01 -0.30163015807E+02  0.32670912891E+02  0.51100000000E-03 0. -1.
        -11    1    3    3    0    0 -0.45571846228E+01  0.23971854107E+01 -0.48022421787E+01  0.70410197971E+01  0.51100000000E-03 0.  1.
        -12    1    3    3    0    0  0.16237493082E+01 -0.10160801716E+02 -0.33357815565E+01  0.10816926177E+02  0.00000000000E+00 0.  1.
</event>
<event>
 7    1  0.5601662E-013  0.5052885E+02  0.7816164E-02  0.1300439E+00
        -11   -1    0    0    0    0  0.00000000000E+00  0.00000000000E+00  0.45593999997E+02  0.45594000000E+02  0.51100000000E-03 0.  1.
         11   -1    0    0    0    0 -0.00000000000E+00 -0.00000000000E+00 -0.45593999997E+02  0.45594000000E+02  0.51100000000E-03 0. -1.
    9900012    2    1    2    0    0 -0.26644934892E+01 -0.56846033818E+01 -0.40171530129E+02  0.50528854976E+02  0.29999985187E+02 0.  0.
        -12    1    1    2    0    0  0.26644934892E+01  0.56846033818E+01  0.40171530129E+02  0.40659145024E+02  0.00000000000E+00 0.  1.
         11    1    3    3    0    0  0.29708979936E+01  0.15707789824E+01 -0.10762617136E+02  0.11275083564E+02  0.51100000000E-03 0. -1.
        -11    1    3    3    0    0  0.20977017386E+00  0.79432358404E+01 -0.17051097448E+02  0.18811669878E+02  0.51100000000E-03 0.  1.
        -12    1    3    3    0    0 -0.58451616566E+01 -0.15198618205E+02 -0.12357815544E+02  0.20442101535E+02  0.00000000000E+00 0.  1.
</event>
<event>
 7    1  0.5601662E-013  0.5052887E+02  0.7816164E-02  0.1300439E+00
        -11   -1    0    0    0    0  0.00000000000E+00  0.00000000000E+00  0.45593999997E+02  0.45594000000E+02  0.51100000000E-03 0. -1.
         11   -1    0    0    0    0 -0.00000000000E+00 -0.00000000000E+00 -0.45593999997E+02  0.45594000000E+02  0.51100000000E-03 0.  1.
    9900012    2    1    2    0    0  0.29567209834E+02 -0.17563159746E+02  0.21690562050E+02  0.50528868680E+02  0.30000026841E+02 0.  0.
        -12    1    1    2    0    0 -0.29567209834E+02  0.17563159746E+02 -0.21690562050E+02  0.40659131320E+02  0.00000000000E+00 0.  1.
         11    1    3    3    0    0  0.75240659392E+00  0.10467775768E+01 -0.10461875645E+01  0.16602312065E+01  0.51100000000E-03 0. -1.
        -11    1    3    3    0    0  0.84921670924E+01  0.61492146838E+01  0.97070016229E+01  0.14288303745E+02  0.51100000000E-03 0.  1.
         12    1    3    3    0    0  0.20322636148E+02 -0.24759152006E+02  0.13029747991E+02  0.34580333729E+02  0.00000000000E+00 0. -1.
</event>
<event>
 7    1  0.5601662E-013  0.5052885E+02  0.7816164E-02  0.1300439E+00
        -11   -1    0    0    0    0  0.00000000000E+00  0.00000000000E+00  0.45593999997E+02  0.45594000000E+02  0.51100000000E-03 0.  1.
         11   -1    0    0    0    0 -0.00000000000E+00 -0.00000000000E+00 -0.45593999997E+02  0.45594000000E+02  0.51100000000E-03 0. -1.
    9900012    2    1    2    0    0  0.43541798578E+00 -0.13712234391E+02 -0.38274680440E+02  0.50528854367E+02  0.29999983334E+02 0.  0.
        -12    1    1    2    0    0 -0.43541798578E+00  0.13712234391E+02  0.38274680440E+02  0.40659145633E+02  0.00000000000E+00 0.  1.
         11    1    3    3    0    0  0.44623907075E+01 -0.10801027908E+02 -0.19434304010E+02  0.22677462541E+02  0.51100000000E-03 0. -1.
        -11    1    3    3    0    0  0.69413811008E+01 -0.56741733541E+01 -0.62649382503E+01  0.10937479892E+02  0.51100000000E-03 0.  1.
         12    1    3    3    0    0 -0.10968353823E+02  0.27629668712E+01 -0.12575438180E+02  0.16913911934E+02  0.00000000000E+00 0. -1.
</event>
<event>
 7    1  0.5601662E-013  0.5052894E+02  0.7816164E-02  0.1300439E+00
        -11   -1    0    0    0    0  0.00000000000E+00  0.00000000000E+00  0.45593999997E+02  0.45594000000E+02  0.51100000000E-03 0. -1.
         11   -1    0    0    0    0 -0.00000000000E+00 -0.00000000000E+00 -0.45593999997E+02  0.45594000000E+02  0.51100000000E-03 0.  1.
    9900012    2    1    2    0    0  0.13724079086E+02 -0.23351149990E+02  0.30323796784E+02  0.50528939460E+02  0.30000241981E+02 0.  0.
        -12    1    1    2    0    0 -0.13724079086E+02  0.23351149990E+02 -0.30323796784E+02  0.40659060540E+02  0.00000000000E+00 0.  1.
         11    1    3    3    0    0  0.44306835806E+01 -0.36762490787E+01  0.16333059272E+02  0.17318042318E+02  0.51100000000E-03 0. -1.
        -11    1    3    3    0    0  0.29471399507E+01  0.30785794608E+01 -0.19773062070E+01  0.46981938533E+01  0.51100000000E-03 0.  1.
        -12    1    3    3    0    0  0.63462555552E+01 -0.22753480372E+02  0.15968043719E+02  0.28512703289E+02  0.00000000000E+00 0.  1.
</event>
<event>
 7    1  0.5601662E-013  0.5052886E+02  0.7816164E-02  0.1300439E+00
        -11   -1    0    0    0    0  0.00000000000E+00  0.00000000000E+00  0.45593999997E+02  0.45594000000E+02  0.51100000000E-03 0.  1.
         11   -1    0    0    0    0 -0.00000000000E+00 -0.00000000000E+00 -0.45593999997E+02  0.45594000000E+02  0.51100000000E-03 0. -1.
    9900012    2    1    2    0    0  0.26037855281E+02  0.18025999652E+02 -0.25500177131E+02  0.50528860747E+02  0.30000002726E+02 0.  0.
        -12    1    1    2    0    0 -0.26037855281E+02 -0.18025999652E+02  0.25500177131E+02  0.40659139253E+02  0.00000000000E+00 0.  1.
         11    1    3    3    0    0  0.83373553536E+01 -0.21074872372E+01 -0.16836697272E+02  0.18905749708E+02  0.51100000000E-03 0. -1.
        -11    1    3    3    0    0  0.18008509961E+00  0.77543423218E+01  0.14751962627E+01  0.78954708385E+01  0.51100000000E-03 0.  1.
        -12    1    3    3    0    0  0.17520414828E+02  0.12379144567E+02 -0.10138676121E+02  0.23727640200E+02  0.00000000000E+00 0.  1.
</event>
<event>
 7    1  0.5601662E-013  0.5052885E+02  0.7816164E-02  0.1300439E+00
        -11   -1    0    0    0    0  0.00000000000E+00  0.00000000000E+00  0.45593999997E+02  0.45594000000E+02  0.51100000000E-03 0.  1.
         11   -1    0    0    0    0 -0.00000000000E+00 -0.00000000000E+00 -0.45593999997E+02  0.45594000000E+02  0.51100000000E-03 0. -1.
    9900012    2    1    2    0    0  0.19394517002E+02 -0.22452263806E+02 -0.27801345179E+02  0.50528853015E+02  0.29999979225E+02 0.  0.
        -12    1    1    2    0    0 -0.19394517002E+02  0.22452263806E+02  0.27801345179E+02  0.40659146985E+02  0.00000000000E+00 0.  1.
         11    1    3    3    0    0 -0.28398806050E+01  0.16625685230E+00  0.10385150877E+01  0.30283786157E+01  0.51100000000E-03 0. -1.
        -11    1    3    3    0    0 -0.36325176643E+01 -0.40767427747E+01 -0.71054005376E+01  0.89611234392E+01  0.51100000000E-03 0.  1.
         12    1    3    3    0    0  0.25866915271E+02 -0.18541777884E+02 -0.21734459729E+02  0.38539350960E+02  0.00000000000E+00 0. -1.
</event>
<event>
 7    1  0.5601662E-013  0.5052887E+02  0.7816164E-02  0.1300439E+00
        -11   -1    0    0    0    0  0.00000000000E+00  0.00000000000E+00  0.45593999997E+02  0.45594000000E+02  0.51100000000E-03 0.  1.
         11   -1    0    0    0    0 -0.00000000000E+00 -0.00000000000E+00 -0.45593999997E+02  0.45594000000E+02  0.51100000000E-03 0. -1.
    9900012    2    1    2    0    0  0.24268239157E+02  0.22099038689E+02 -0.23996865156E+02  0.50528874578E+02  0.30000044767E+02 0.  0.
        -12    1    1    2    0    0 -0.24268239157E+02 -0.22099038689E+02  0.23996865156E+02  0.40659125422E+02  0.00000000000E+00 0.  1.
         11    1    3    3    0    0  0.89155487084E+01  0.12240683155E+02 -0.11214194516E+02  0.18843553056E+02  0.51100000000E-03 0. -1.
        -11    1    3    3    0    0 -0.29800909938E+01 -0.89212995910E+00  0.36683068770E+01  0.48097103656E+01  0.51100000000E-03 0.  1.
         12    1    3    3    0    0  0.18332781443E+02  0.10750485494E+02 -0.16450977517E+02  0.26875611157E+02  0.00000000000E+00 0. -1.
</event>
<event>
 7    1  0.5601662E-013  0.5052886E+02  0.7816164E-02  0.1300439E+00
        -11   -1    0    0    0    0  0.00000000000E+00  0.00000000000E+00  0.45593999997E+02  0.45594000000E+02  0.51100000000E-03 0.  1.
         11   -1    0    0    0    0 -0.00000000000E+00 -0.00000000000E+00 -0.45593999997E+02  0.45594000000E+02  0.51100000000E-03 0. -1.
    9900012    2    1    2    0    0  0.13013847356E+02  0.14026228811E+01 -0.38494654760E+02  0.50528855652E+02  0.29999987241E+02 0.  0.
        -12    1    1    2    0    0 -0.13013847356E+02 -0.14026228811E+01  0.38494654760E+02  0.40659144348E+02  0.00000000000E+00 0.  1.
         11    1    3    3    0    0  0.14780247963E+02 -0.17958912756E+01 -0.27455605175E+02  0.31232854675E+02  0.51100000000E-03 0. -1.
        -11    1    3    3    0    0  0.42683442812E+01  0.13014860224E+01 -0.12086529153E+02  0.12883975163E+02  0.51100000000E-03 0.  1.
        -12    1    3    3    0    0 -0.60347448881E+01  0.18970281343E+01  0.10474795680E+01  0.64120258150E+01  0.00000000000E+00 0.  1.
</event>
<event>
 7    1  0.5601662E-013  0.5052886E+02  0.7816164E-02  0.1300439E+00
        -11   -1    0    0    0    0  0.00000000000E+00  0.00000000000E+00  0.45593999997E+02  0.45594000000E+02  0.51100000000E-03 0. -1.
         11   -1    0    0    0    0 -0.00000000000E+00 -0.00000000000E+00 -0.45593999997E+02  0.45594000000E+02  0.51100000000E-03 0.  1.
    9900012    2    1    2    0    0  0.13362947082E+02  0.17528149662E+02  0.34166668413E+02  0.50528860613E+02  0.30000002318E+02 0.  0.
        -12    1    1    2    0    0 -0.13362947082E+02 -0.17528149662E+02 -0.34166668413E+02  0.40659139387E+02  0.00000000000E+00 0.  1.
         11    1    3    3    0    0  0.81994404616E+01  0.11034277115E+02  0.54442141983E+01  0.14785992149E+02  0.51100000000E-03 0.  1.
        -11    1    3    3    0    0 -0.97616876667E+00 -0.66733743897E+01  0.92728118135E+01  0.11466118367E+02  0.51100000000E-03 0. -1.
         12    1    3    3    0    0  0.61396753870E+01  0.13167246936E+02  0.19449642401E+02  0.24276750097E+02  0.00000000000E+00 0. -1.
</event>
<event>
 7    1  0.5601662E-013  0.5052889E+02  0.7816164E-02  0.1300439E+00
        -11   -1    0    0    0    0  0.00000000000E+00  0.00000000000E+00  0.45593999997E+02  0.45594000000E+02  0.51100000000E-03 0. -1.
         11   -1    0    0    0    0 -0.00000000000E+00 -0.00000000000E+00 -0.45593999997E+02  0.45594000000E+02  0.51100000000E-03 0.  1.
    9900012    2    1    2    0    0 -0.23936819587E+02 -0.28407507987E+02  0.16528927049E+02  0.50528889442E+02  0.30000089946E+02 0.  0.
        -12    1    1    2    0    0  0.23936819587E+02  0.28407507987E+02 -0.16528927049E+02  0.40659110558E+02  0.00000000000E+00 0.  1.
         11    1    3    3    0    0 -0.68040588034E+01 -0.57460109193E+01  0.40801875385E+01  0.97959067113E+01  0.51100000000E-03 0.  1.
        -11    1    3    3    0    0 -0.18734910866E+02 -0.33527813339E+01  0.90005952239E+01  0.21053473407E+02  0.51100000000E-03 0. -1.
         12    1    3    3    0    0  0.16021500826E+01 -0.19308715734E+02  0.34481442865E+01  0.19679509323E+02  0.00000000000E+00 0. -1.
</event>
<event>
 7    1  0.5601662E-013  0.5052886E+02  0.7816164E-02  0.1300439E+00
        -11   -1    0    0    0    0  0.00000000000E+00  0.00000000000E+00  0.45593999997E+02  0.45594000000E+02  0.51100000000E-03 0.  1.
         11   -1    0    0    0    0 -0.00000000000E+00 -0.00000000000E+00 -0.45593999997E+02  0.45594000000E+02  0.51100000000E-03 0. -1.
    9900012    2    1    2    0    0 -0.11541557835E+02  0.30976575510E+02 -0.23672984885E+02  0.50528855875E+02  0.29999987919E+02 0.  0.
        -12    1    1    2    0    0  0.11541557835E+02 -0.30976575510E+02  0.23672984885E+02  0.40659144125E+02  0.00000000000E+00 0.  1.
         11    1    3    3    0    0 -0.48049394671E+01  0.19082008105E+01 -0.19620839947E+01  0.55297782487E+01  0.51100000000E-03 0. -1.
        -11    1    3    3    0    0 -0.16194966947E+02  0.23109566226E+02 -0.14951715449E+02  0.31935603966E+02  0.51100000000E-03 0.  1.
        -12    1    3    3    0    0  0.94583485782E+01  0.59588084731E+01 -0.67591854419E+01  0.13063473661E+02  0.00000000000E+00 0.  1.
</event>
<event>
 7    1  0.5601662E-013  0.5052884E+02  0.7816164E-02  0.1300439E+00
        -11   -1    0    0    0    0  0.00000000000E+00  0.00000000000E+00  0.45593999997E+02  0.45594000000E+02  0.51100000000E-03 0. -1.
         11   -1    0    0    0    0 -0.00000000000E+00 -0.00000000000E+00 -0.45593999997E+02  0.45594000000E+02  0.51100000000E-03 0.  1.
    9900012    2    1    2    0    0 -0.13025310343E+02  0.28101935632E+02  0.26339884469E+02  0.50528843471E+02  0.29999950216E+02 0.  0.
        -12    1    1    2    0    0  0.13025310343E+02 -0.28101935632E+02 -0.26339884469E+02  0.40659156529E+02  0.00000000000E+00 0.  1.
         11    1    3    3    0    0 -0.85332828668E+01  0.26347109225E+02  0.20621682676E+02  0.34528841244E+02  0.51100000000E-03 0. -1.
        -11    1    3    3    0    0 -0.26525307523E+01  0.56320551763E+01  0.87550165887E+01  0.10742731526E+02  0.51100000000E-03 0.  1.
        -12    1    3    3    0    0 -0.18394967237E+01 -0.38772287696E+01 -0.30368147958E+01  0.52572707018E+01  0.00000000000E+00 0.  1.
</event>
<event>
 7    1  0.5601662E-013  0.5052887E+02  0.7816164E-02  0.1300439E+00
        -11   -1    0    0    0    0  0.00000000000E+00  0.00000000000E+00  0.45593999997E+02  0.45594000000E+02  0.51100000000E-03 0.  1.
         11   -1    0    0    0    0 -0.00000000000E+00 -0.00000000000E+00 -0.45593999997E+02  0.45594000000E+02  0.51100000000E-03 0. -1.
    9900012    2    1    2    0    0  0.31938444967E+02 -0.24857508652E+02 -0.38993627300E+01  0.50528867779E+02  0.30000024101E+02 0.  0.
        -12    1    1    2    0    0 -0.31938444967E+02  0.24857508652E+02  0.38993627300E+01  0.40659132221E+02  0.00000000000E+00 0.  1.
         11    1    3    3    0    0  0.14347523847E+02 -0.18910273445E+02 -0.53916822112E+01  0.24341736167E+02  0.51100000000E-03 0. -1.
        -11    1    3    3    0    0  0.10630602270E+02 -0.76740927579E+01 -0.71683568583E+01  0.14942782358E+02  0.51100000000E-03 0.  1.
        -12    1    3    3    0    0  0.69603188500E+01  0.17268575510E+01  0.86606763395E+01  0.11244349254E+02  0.00000000000E+00 0.  1.
</event>
<event>
 7    1  0.5601662E-013  0.5052886E+02  0.7816164E-02  0.1300439E+00
        -11   -1    0    0    0    0  0.00000000000E+00  0.00000000000E+00  0.45593999997E+02  0.45594000000E+02  0.51100000000E-03 0.  1.
         11   -1    0    0    0    0 -0.00000000000E+00 -0.00000000000E+00 -0.45593999997E+02  0.45594000000E+02  0.51100000000E-03 0. -1.
    9900012    2    1    2    0    0  0.10257229140E+02  0.21551754407E+02 -0.32916205673E+02  0.50528862483E+02  0.30000008004E+02 0.  0.
        -12    1    1    2    0    0 -0.10257229140E+02 -0.21551754407E+02  0.32916205673E+02  0.40659137517E+02  0.00000000000E+00 0.  1.
         11    1    3    3    0    0  0.20742756024E+01  0.15044578800E+02 -0.17697996210E+02  0.23320828473E+02  0.51100000000E-03 0. -1.
        -11    1    3    3    0    0 -0.59439456305E+01  0.85072244449E+00 -0.48008990887E+00  0.60236786864E+01  0.51100000000E-03 0.  1.
         12    1    3    3    0    0  0.14126899168E+02  0.56564531624E+01 -0.14738119554E+02  0.21184355324E+02  0.00000000000E+00 0. -1.
</event>
<event>
 7    1  0.5601662E-013  0.5052885E+02  0.7816164E-02  0.1300439E+00
        -11   -1    0    0    0    0  0.00000000000E+00  0.00000000000E+00  0.45593999997E+02  0.45594000000E+02  0.51100000000E-03 0.  1.
         11   -1    0    0    0    0 -0.00000000000E+00 -0.00000000000E+00 -0.45593999997E+02  0.45594000000E+02  0.51100000000E-03 0. -1.
    9900012    2    1    2    0    0 -0.27282225201E+02 -0.29791736212E+02  0.46151216974E+01  0.50528847196E+02  0.29999961536E+02 0.  0.
        -12    1    1    2    0    0  0.27282225201E+02  0.29791736212E+02 -0.46151216974E+01  0.40659152804E+02  0.00000000000E+00 0.  1.
         11    1    3    3    0    0 -0.16348376149E+02 -0.16896015223E+01 -0.20112375592E+00  0.16436684795E+02  0.51100000000E-03 0. -1.
        -11    1    3    3    0    0  0.71700968779E+00  0.12723322050E+01 -0.12406378398E+01  0.19162762439E+01  0.51100000000E-03 0.  1.
         12    1    3    3    0    0 -0.11650858740E+02 -0.29374466895E+02  0.60568832932E+01  0.32175886157E+02  0.00000000000E+00 0. -1.
</event>
<event>
 7    1  0.5601662E-013  0.5052885E+02  0.7816164E-02  0.1300439E+00
        -11   -1    0    0    0    0  0.00000000000E+00  0.00000000000E+00  0.45593999997E+02  0.45594000000E+02  0.51100000000E-03 0.  1.
         11   -1    0    0    0    0 -0.00000000000E+00 -0.00000000000E+00 -0.45593999997E+02  0.45594000000E+02  0.51100000000E-03 0. -1.
    9900012    2    1    2    0    0 -0.39249024643E+02  0.13444919041E+01 -0.10529631438E+02  0.50528846884E+02  0.29999960589E+02 0.  0.
        -12    1    1    2    0    0  0.39249024643E+02 -0.13444919041E+01  0.10529631438E+02  0.40659153116E+02  0.00000000000E+00 0.  1.
         11    1    3    3    0    0 -0.40003145309E+01  0.65990291400E+01  0.12522385579E+01  0.78177876413E+01  0.51100000000E-03 0. -1.
        -11    1    3    3    0    0 -0.62126000076E+01  0.71457049345E+01 -0.31553425260E+01  0.99806655381E+01  0.51100000000E-03 0.  1.
         12    1    3    3    0    0 -0.29036110104E+02 -0.12400242170E+02 -0.86265274700E+01  0.32730393705E+02  0.00000000000E+00 0. -1.
</event>
<event>
 7    1  0.5601662E-013  0.5052884E+02  0.7816164E-02  0.1300439E+00
        -11   -1    0    0    0    0  0.00000000000E+00  0.00000000000E+00  0.45593999997E+02  0.45594000000E+02  0.51100000000E-03 0.  1.
         11   -1    0    0    0    0 -0.00000000000E+00 -0.00000000000E+00 -0.45593999997E+02  0.45594000000E+02  0.51100000000E-03 0. -1.
    9900012    2    1    2    0    0  0.70655455556E+01  0.15966581857E+02 -0.36719385669E+02  0.50528844154E+02  0.29999952290E+02 0.  0.
        -12    1    1    2    0    0 -0.70655455556E+01 -0.15966581857E+02  0.36719385669E+02  0.40659155846E+02  0.00000000000E+00 0.  1.
         11    1    3    3    0    0  0.83179623124E+01  0.43933339540E+01 -0.54819471242E+01  0.10887682251E+02  0.51100000000E-03 0. -1.
        -11    1    3    3    0    0  0.60599189568E+01  0.15088963791E+02 -0.19871185008E+02  0.25676125875E+02  0.51100000000E-03 0.  1.
         12    1    3    3    0    0 -0.73123357136E+01 -0.35157158880E+01 -0.11366253538E+02  0.13965036028E+02  0.00000000000E+00 0. -1.
</event>
<event>
 7    1  0.5601662E-013  0.5052885E+02  0.7816164E-02  0.1300439E+00
        -11   -1    0    0    0    0  0.00000000000E+00  0.00000000000E+00  0.45593999997E+02  0.45594000000E+02  0.51100000000E-03 0.  1.
         11   -1    0    0    0    0 -0.00000000000E+00 -0.00000000000E+00 -0.45593999997E+02  0.45594000000E+02  0.51100000000E-03 0. -1.
    9900012    2    1    2    0    0  0.40277439441E+01 -0.18646036516E+02 -0.35906395207E+02  0.50528848314E+02  0.29999964936E+02 0.  0.
        -12    1    1    2    0    0 -0.40277439441E+01  0.18646036516E+02  0.35906395207E+02  0.40659151686E+02  0.00000000000E+00 0.  1.
         11    1    3    3    0    0  0.51473616344E+01 -0.27842239105E+01  0.15661254664E+01  0.60580511567E+01  0.51100000000E-03 0. -1.
        -11    1    3    3    0    0 -0.58468215200E+01 -0.16771086875E+01 -0.27686152440E+01  0.66830566410E+01  0.51100000000E-03 0.  1.
         12    1    3    3    0    0  0.47272038297E+01 -0.14184703918E+02 -0.34703905430E+02  0.37787740517E+02  0.00000000000E+00 0. -1.
</event>
<event>
 7    1  0.5601662E-013  0.5052886E+02  0.7816164E-02  0.1300439E+00
        -11   -1    0    0    0    0  0.00000000000E+00  0.00000000000E+00  0.45593999997E+02  0.45594000000E+02  0.51100000000E-03 0.  1.
         11   -1    0    0    0    0 -0.00000000000E+00 -0.00000000000E+00 -0.45593999997E+02  0.45594000000E+02  0.51100000000E-03 0. -1.
    9900012    2    1    2    0    0  0.43615558011E-01  0.14293742374E+02 -0.38063798132E+02  0.50528859556E+02  0.29999999107E+02 0.  0.
        -12    1    1    2    0    0 -0.43615558011E-01 -0.14293742374E+02  0.38063798132E+02  0.40659140444E+02  0.00000000000E+00 0.  1.
         11    1    3    3    0    0  0.63848496380E+00  0.71003952165E+01 -0.21368598614E+01  0.74424085892E+01  0.51100000000E-03 0. -1.
        -11    1    3    3    0    0 -0.36373268454E+01  0.11354293024E+02 -0.72586460177E+01  0.13958440419E+02  0.51100000000E-03 0.  1.
         12    1    3    3    0    0  0.30424574396E+01 -0.41609458667E+01 -0.28668292253E+02  0.29128010548E+02  0.00000000000E+00 0. -1.
</event>
<event>
 7    1  0.5601662E-013  0.5052887E+02  0.7816164E-02  0.1300439E+00
        -11   -1    0    0    0    0  0.00000000000E+00  0.00000000000E+00  0.45593999997E+02  0.45594000000E+02  0.51100000000E-03 0. -1.
         11   -1    0    0    0    0 -0.00000000000E+00 -0.00000000000E+00 -0.45593999997E+02  0.45594000000E+02  0.51100000000E-03 0.  1.
    9900012    2    1    2    0    0 -0.50780166918E+01  0.74228723248E+01  0.39651983997E+02  0.50528866685E+02  0.30000020775E+02 0.  0.
        -12    1    1    2    0    0  0.50780166918E+01 -0.74228723248E+01 -0.39651983997E+02  0.40659133315E+02  0.00000000000E+00 0.  1.
         11    1    3    3    0    0  0.21256247871E+01 -0.40603399833E+01  0.31657585818E+01  0.55701588105E+01  0.51100000000E-03 0. -1.
        -11    1    3    3    0    0  0.30589389736E+01 -0.31175689515E+01  0.20624795791E+02  0.21082185501E+02  0.51100000000E-03 0.  1.
         12    1    3    3    0    0 -0.10262580452E+02  0.14600781259E+02  0.15861429624E+02  0.23876522374E+02  0.00000000000E+00 0. -1.
</event>
<event>
 7    1  0.5601662E-013  0.5052885E+02  0.7816164E-02  0.1300439E+00
        -11   -1    0    0    0    0  0.00000000000E+00  0.00000000000E+00  0.45593999997E+02  0.45594000000E+02  0.51100000000E-03 0.  1.
         11   -1    0    0    0    0 -0.00000000000E+00 -0.00000000000E+00 -0.45593999997E+02  0.45594000000E+02  0.51100000000E-03 0. -1.
    9900012    2    1    2    0    0 -0.21501367559E+02 -0.23542464675E+02 -0.25231124999E+02  0.50528854429E+02  0.29999983522E+02 0.  0.
        -12    1    1    2    0    0  0.21501367559E+02  0.23542464675E+02  0.25231124999E+02  0.40659145571E+02  0.00000000000E+00 0.  1.
         11    1    3    3    0    0 -0.36463373888E+01 -0.22117150283E+01 -0.69102821135E+01  0.81203115007E+01  0.51100000000E-03 0. -1.
        -11    1    3    3    0    0 -0.11570222327E+02 -0.25079936572E+02 -0.20913627271E+02  0.34644668696E+02  0.51100000000E-03 0.  1.
        -12    1    3    3    0    0 -0.62848078433E+01  0.37491869253E+01  0.25927843854E+01  0.77638742324E+01  0.00000000000E+00 0.  1.
</event>
<event>
 7    1  0.5601662E-013  0.5052886E+02  0.7816164E-02  0.1300439E+00
        -11   -1    0    0    0    0  0.00000000000E+00  0.00000000000E+00  0.45593999997E+02  0.45594000000E+02  0.51100000000E-03 0. -1.
         11   -1    0    0    0    0 -0.00000000000E+00 -0.00000000000E+00 -0.45593999997E+02  0.45594000000E+02  0.51100000000E-03 0.  1.
    9900012    2    1    2    0    0  0.27991563018E+02 -0.28236358492E+02  0.85056352402E+01  0.50528863611E+02  0.30000011433E+02 0.  0.
        -12    1    1    2    0    0 -0.27991563018E+02  0.28236358492E+02 -0.85056352402E+01  0.40659136389E+02  0.00000000000E+00 0.  1.
         11    1    3    3    0    0  0.31879027960E+01  0.11899621344E+01  0.90220309096E+01  0.96423947292E+01  0.51100000000E-03 0. -1.
        -11    1    3    3    0    0 -0.12105479113E+01 -0.97392804751E+00 -0.17168659056E+01  0.23155109342E+01  0.51100000000E-03 0.  1.
        -12    1    3    3    0    0  0.26014208133E+02 -0.28452392579E+02  0.12004702362E+01  0.38570957948E+02  0.00000000000E+00 0.  1.
</event>
<event>
 7    1  0.5601662E-013  0.5052886E+02  0.7816164E-02  0.1300439E+00
        -11   -1    0    0    0    0  0.00000000000E+00  0.00000000000E+00  0.45593999997E+02  0.45594000000E+02  0.51100000000E-03 0.  1.
         11   -1    0    0    0    0 -0.00000000000E+00 -0.00000000000E+00 -0.45593999997E+02  0.45594000000E+02  0.51100000000E-03 0. -1.
    9900012    2    1    2    0    0  0.82202164871E+00  0.29569133086E+02 -0.27895451416E+02  0.50528861289E+02  0.30000004374E+02 0.  0.
        -12    1    1    2    0    0 -0.82202164871E+00 -0.29569133086E+02  0.27895451416E+02  0.40659138711E+02  0.00000000000E+00 0.  1.
         11    1    3    3    0    0 -0.67968952439E+01  0.13098921069E+02 -0.13826441505E+02  0.20222512284E+02  0.51100000000E-03 0. -1.
        -11    1    3    3    0    0  0.98433559182E+01  0.17253792887E+02 -0.17275848927E+02  0.26325652530E+02  0.51100000000E-03 0.  1.
         12    1    3    3    0    0 -0.22244390256E+01 -0.78358087031E+00  0.32068390154E+01  0.39806964755E+01  0.00000000000E+00 0. -1.
</event>
<event>
 7    1  0.5601662E-013  0.5052888E+02  0.7816164E-02  0.1300439E+00
        -11   -1    0    0    0    0  0.00000000000E+00  0.00000000000E+00  0.45593999997E+02  0.45594000000E+02  0.51100000000E-03 0.  1.
         11   -1    0    0    0    0 -0.00000000000E+00 -0.00000000000E+00 -0.45593999997E+02  0.45594000000E+02  0.51100000000E-03 0. -1.
    9900012    2    1    2    0    0  0.40638901664E+02  0.11722709813E+01  0.51890674590E+00  0.50528882795E+02  0.30000069743E+02 0.  0.
        -12    1    1    2    0    0 -0.40638901664E+02 -0.11722709813E+01 -0.51890674590E+00  0.40659117205E+02  0.00000000000E+00 0.  1.
         11    1    3    3    0    0  0.11332005070E+01 -0.56089644271E+01 -0.12752647404E+01  0.58626722365E+01  0.51100000000E-03 0. -1.
        -11    1    3    3    0    0  0.26025218235E+02  0.16514182829E+01  0.10166063951E+02  0.27989069707E+02  0.51100000000E-03 0.  1.
        -12    1    3    3    0    0  0.13480482922E+02  0.51298171254E+01 -0.83718924648E+01  0.16677140852E+02  0.00000000000E+00 0.  1.
</event>
<event>
 7    1  0.5601662E-013  0.5052886E+02  0.7816164E-02  0.1300439E+00
        -11   -1    0    0    0    0  0.00000000000E+00  0.00000000000E+00  0.45593999997E+02  0.45594000000E+02  0.51100000000E-03 0.  1.
         11   -1    0    0    0    0 -0.00000000000E+00 -0.00000000000E+00 -0.45593999997E+02  0.45594000000E+02  0.51100000000E-03 0. -1.
    9900012    2    1    2    0    0 -0.21025964196E+02  0.34556368399E+02 -0.41148461962E+01  0.50528859250E+02  0.29999998177E+02 0.  0.
        -12    1    1    2    0    0  0.21025964196E+02 -0.34556368399E+02  0.41148461962E+01  0.40659140750E+02  0.00000000000E+00 0.  1.
         11    1    3    3    0    0 -0.38248843495E+01 -0.22631848886E+01 -0.50675308314E+01  0.67402978507E+01  0.51100000000E-03 0. -1.
        -11    1    3    3    0    0  0.10061106711E+01 -0.54242698604E-01 -0.23252719583E+01  0.25341844633E+01  0.51100000000E-03 0.  1.
        -12    1    3    3    0    0 -0.18207190518E+02  0.36873795986E+02  0.32779565935E+01  0.41254376936E+02  0.00000000000E+00 0.  1.
</event>
<event>
 7    1  0.5601662E-013  0.5052886E+02  0.7816164E-02  0.1300439E+00
        -11   -1    0    0    0    0  0.00000000000E+00  0.00000000000E+00  0.45593999997E+02  0.45594000000E+02  0.51100000000E-03 0.  1.
         11   -1    0    0    0    0 -0.00000000000E+00 -0.00000000000E+00 -0.45593999997E+02  0.45594000000E+02  0.51100000000E-03 0. -1.
    9900012    2    1    2    0    0  0.16732696334E+02  0.18074590602E+02 -0.32349525684E+02  0.50528858789E+02  0.29999996776E+02 0.  0.
        -12    1    1    2    0    0 -0.16732696334E+02 -0.18074590602E+02  0.32349525684E+02  0.40659141211E+02  0.00000000000E+00 0.  1.
         11    1    3    3    0    0  0.23005024213E+00 -0.62947309911E+00  0.10151115383E+01  0.12163926967E+01  0.51100000000E-03 0. -1.
        -11    1    3    3    0    0  0.33886600737E+01 -0.55852610985E+00  0.40029266129E+01  0.52743141962E+01  0.51100000000E-03 0.  1.
         12    1    3    3    0    0  0.13113986018E+02  0.19262589811E+02 -0.37367563835E+02  0.44038151896E+02  0.00000000000E+00 0. -1.
</event>
<event>
 7    1  0.5601662E-013  0.5052886E+02  0.7816164E-02  0.1300439E+00
        -11   -1    0    0    0    0  0.00000000000E+00  0.00000000000E+00  0.45593999997E+02  0.45594000000E+02  0.51100000000E-03 0.  1.
         11   -1    0    0    0    0 -0.00000000000E+00 -0.00000000000E+00 -0.45593999997E+02  0.45594000000E+02  0.51100000000E-03 0. -1.
    9900012    2    1    2    0    0 -0.35751734746E+02  0.19364044436E+02  0.11271054085E+00  0.50528862553E+02  0.30000008217E+02 0.  0.
        -12    1    1    2    0    0  0.35751734746E+02 -0.19364044436E+02 -0.11271054085E+00  0.40659137447E+02  0.00000000000E+00 0.  1.
         11    1    3    3    0    0  0.65066368406E+00  0.24978868945E+01 -0.57203756657E+00  0.26438663745E+01  0.51100000000E-03 0. -1.
        -11    1    3    3    0    0  0.25493773134E+01  0.24324604854E+01 -0.48319191206E+01  0.59802701735E+01  0.51100000000E-03 0.  1.
         12    1    3    3    0    0 -0.38951775743E+02  0.14433697056E+02  0.55166672280E+01  0.41904726005E+02  0.00000000000E+00 0. -1.
</event>
<event>
 7    1  0.5601662E-013  0.5052886E+02  0.7816164E-02  0.1300439E+00
        -11   -1    0    0    0    0  0.00000000000E+00  0.00000000000E+00  0.45593999997E+02  0.45594000000E+02  0.51100000000E-03 0. -1.
         11   -1    0    0    0    0 -0.00000000000E+00 -0.00000000000E+00 -0.45593999997E+02  0.45594000000E+02  0.51100000000E-03 0.  1.
    9900012    2    1    2    0    0 -0.10018880748E+02 -0.24271098294E+02  0.31043542896E+02  0.50528859092E+02  0.29999997695E+02 0.  0.
        -12    1    1    2    0    0  0.10018880748E+02  0.24271098294E+02 -0.31043542896E+02  0.40659140908E+02  0.00000000000E+00 0.  1.
         11    1    3    3    0    0 -0.40313506408E+01 -0.73129998056E+01  0.13987894596E+02  0.16290885477E+02  0.51100000000E-03 0. -1.
        -11    1    3    3    0    0 -0.19207680772E+01 -0.15944571563E+02  0.22327338277E+02  0.27503249756E+02  0.51100000000E-03 0.  1.
        -12    1    3    3    0    0 -0.40667620306E+01 -0.10135269259E+01 -0.52716899767E+01  0.67347238587E+01  0.00000000000E+00 0.  1.
</event>
<event>
 7    1  0.5601662E-013  0.5052886E+02  0.7816164E-02  0.1300439E+00
        -11   -1    0    0    0    0  0.00000000000E+00  0.00000000000E+00  0.45593999997E+02  0.45594000000E+02  0.51100000000E-03 0.  1.
         11   -1    0    0    0    0 -0.00000000000E+00 -0.00000000000E+00 -0.45593999997E+02  0.45594000000E+02  0.51100000000E-03 0. -1.
    9900012    2    1    2    0    0  0.16227987110E+01 -0.21700598647E+02 -0.34345544282E+02  0.50528857494E+02  0.29999992837E+02 0.  0.
        -12    1    1    2    0    0 -0.16227987110E+01  0.21700598647E+02  0.34345544282E+02  0.40659142506E+02  0.00000000000E+00 0.  1.
         11    1    3    3    0    0  0.75433642922E+00  0.33718828308E+00  0.29473030603E+01  0.30609336773E+01  0.51100000000E-03 0. -1.
        -11    1    3    3    0    0  0.10025651740E+02 -0.11032000602E+02 -0.16677982661E+02  0.22369037440E+02  0.51100000000E-03 0.  1.
         12    1    3    3    0    0 -0.91571894583E+01 -0.11005786328E+02 -0.20614864682E+02  0.25098886376E+02  0.00000000000E+00 0. -1.
</event>
<event>
 7    1  0.5601662E-013  0.5052886E+02  0.7816164E-02  0.1300439E+00
        -11   -1    0    0    0    0  0.00000000000E+00  0.00000000000E+00  0.45593999997E+02  0.45594000000E+02  0.51100000000E-03 0.  1.
         11   -1    0    0    0    0 -0.00000000000E+00 -0.00000000000E+00 -0.45593999997E+02  0.45594000000E+02  0.51100000000E-03 0. -1.
    9900012    2    1    2    0    0  0.24287530325E+02  0.26237089209E+02  0.19362249452E+02  0.50528859782E+02  0.29999999793E+02 0.  0.
        -12    1    1    2    0    0 -0.24287530325E+02 -0.26237089209E+02 -0.19362249452E+02  0.40659140218E+02  0.00000000000E+00 0.  1.
         11    1    3    3    0    0  0.14782302633E+02  0.24025862862E+02  0.14438329174E+02  0.31689492059E+02  0.51100000000E-03 0. -1.
        -11    1    3    3    0    0 -0.30002717746E+01  0.27357918028E+01  0.48465958988E+01  0.63226323297E+01  0.51100000000E-03 0.  1.
        -12    1    3    3    0    0  0.12505499467E+02 -0.52456545547E+00  0.77324378445E-01  0.12516735393E+02  0.00000000000E+00 0.  1.
</event>
<event>
 7    1  0.5601662E-013  0.5052885E+02  0.7816164E-02  0.1300439E+00
        -11   -1    0    0    0    0  0.00000000000E+00  0.00000000000E+00  0.45593999997E+02  0.45594000000E+02  0.51100000000E-03 0.  1.
         11   -1    0    0    0    0 -0.00000000000E+00 -0.00000000000E+00 -0.45593999997E+02  0.45594000000E+02  0.51100000000E-03 0. -1.
    9900012    2    1    2    0    0 -0.17432414247E+02  0.28939659311E+02 -0.22622409544E+02  0.50528851446E+02  0.29999974457E+02 0.  0.
        -12    1    1    2    0    0  0.17432414247E+02 -0.28939659311E+02  0.22622409544E+02  0.40659148554E+02  0.00000000000E+00 0.  1.
         11    1    3    3    0    0 -0.41003065966E+01  0.16487147722E+02 -0.73627895915E+01  0.18516188189E+02  0.51100000000E-03 0. -1.
        -11    1    3    3    0    0 -0.18902673253E+00  0.68852425783E+01 -0.16305707899E+02  0.17700802434E+02  0.51100000000E-03 0.  1.
        -12    1    3    3    0    0 -0.13143080918E+02  0.55672690106E+01  0.10460879463E+01  0.14311860824E+02  0.00000000000E+00 0.  1.
</event>
<event>
 7    1  0.5601662E-013  0.5052886E+02  0.7816164E-02  0.1300439E+00
        -11   -1    0    0    0    0  0.00000000000E+00  0.00000000000E+00  0.45593999997E+02  0.45594000000E+02  0.51100000000E-03 0. -1.
         11   -1    0    0    0    0 -0.00000000000E+00 -0.00000000000E+00 -0.45593999997E+02  0.45594000000E+02  0.51100000000E-03 0.  1.
    9900012    2    1    2    0    0 -0.28532003777E+02  0.28966548299E+02 -0.17267850042E+00  0.50528856161E+02  0.29999988786E+02 0.  0.
        -12    1    1    2    0    0  0.28532003777E+02 -0.28966548299E+02  0.17267850042E+00  0.40659143839E+02  0.00000000000E+00 0.  1.
         11    1    3    3    0    0 -0.43442201831E+01 -0.43781693374E+01  0.17800025897E+00  0.61702755287E+01  0.51100000000E-03 0. -1.
        -11    1    3    3    0    0 -0.40877193439E+01  0.35368890951E+01 -0.58768035246E+01  0.79847262842E+01  0.51100000000E-03 0.  1.
         12    1    3    3    0    0 -0.20100064250E+02  0.29807828541E+02  0.55261247652E+01  0.36373854348E+02  0.00000000000E+00 0. -1.
</event>
<event>
 7    1  0.5601662E-013  0.5052886E+02  0.7816164E-02  0.1300439E+00
        -11   -1    0    0    0    0  0.00000000000E+00  0.00000000000E+00  0.45593999997E+02  0.45594000000E+02  0.51100000000E-03 0.  1.
         11   -1    0    0    0    0 -0.00000000000E+00 -0.00000000000E+00 -0.45593999997E+02  0.45594000000E+02  0.51100000000E-03 0. -1.
    9900012    2    1    2    0    0  0.12171256906E+02 -0.33137864434E+02 -0.20171965020E+02  0.50528859248E+02  0.29999998170E+02 0.  0.
        -12    1    1    2    0    0 -0.12171256906E+02  0.33137864434E+02  0.20171965020E+02  0.40659140752E+02  0.00000000000E+00 0.  1.
         11    1    3    3    0    0  0.88967636189E+01 -0.19015131736E+02 -0.21147606150E+02  0.29798471168E+02  0.51100000000E-03 0. -1.
        -11    1    3    3    0    0  0.65170295554E+01 -0.41520671901E+01  0.53197286534E+01  0.93814097760E+01  0.51100000000E-03 0.  1.
         12    1    3    3    0    0 -0.32425362686E+01 -0.99706655080E+01 -0.43440875238E+01  0.11348978304E+02  0.00000000000E+00 0. -1.
</event>
<event>
 7    1  0.5601662E-013  0.5052886E+02  0.7816164E-02  0.1300439E+00
        -11   -1    0    0    0    0  0.00000000000E+00  0.00000000000E+00  0.45593999997E+02  0.45594000000E+02  0.51100000000E-03 0.  1.
         11   -1    0    0    0    0 -0.00000000000E+00 -0.00000000000E+00 -0.45593999997E+02  0.45594000000E+02  0.51100000000E-03 0. -1.
    9900012    2    1    2    0    0  0.67595203655E+01 -0.66510444119E+01 -0.39537809397E+02  0.50528857372E+02  0.29999992466E+02 0.  0.
        -12    1    1    2    0    0 -0.67595203655E+01  0.66510444119E+01  0.39537809397E+02  0.40659142628E+02  0.00000000000E+00 0.  1.
         11    1    3    3    0    0  0.10395709292E+01  0.25345191772E+01 -0.27421987398E+01  0.38760997621E+01  0.51100000000E-03 0. -1.
        -11    1    3    3    0    0  0.49113248159E+01 -0.18237008683E+02 -0.19694462528E+02  0.27287019838E+02  0.51100000000E-03 0.  1.
         12    1    3    3    0    0  0.80862462041E+00  0.90514450936E+01 -0.17101148130E+02  0.19365737771E+02  0.00000000000E+00 0. -1.
</event>
<event>
 7    1  0.5601662E-013  0.5052885E+02  0.7816164E-02  0.1300439E+00
        -11   -1    0    0    0    0  0.00000000000E+00  0.00000000000E+00  0.45593999997E+02  0.45594000000E+02  0.51100000000E-03 0.  1.
         11   -1    0    0    0    0 -0.00000000000E+00 -0.00000000000E+00 -0.45593999997E+02  0.45594000000E+02  0.51100000000E-03 0. -1.
    9900012    2    1    2    0    0 -0.28386576500E+02  0.20130165782E+01 -0.29039908603E+02  0.50528852778E+02  0.29999978503E+02 0.  0.
        -12    1    1    2    0    0  0.28386576500E+02 -0.20130165782E+01  0.29039908603E+02  0.40659147222E+02  0.00000000000E+00 0.  1.
         11    1    3    3    0    0 -0.58156086173E+01  0.42438260899E+00  0.32687798685E+01  0.66847831886E+01  0.51100000000E-03 0.  1.
        -11    1    3    3    0    0 -0.19550692855E+01 -0.70216400327E+01 -0.75072765795E+01  0.10463504507E+02  0.51100000000E-03 0. -1.
         12    1    3    3    0    0 -0.20615898597E+02  0.86102740020E+01 -0.24801411892E+02  0.33380565082E+02  0.00000000000E+00 0. -1.
</event>
<event>
 7    1  0.5601662E-013  0.5052883E+02  0.7816164E-02  0.1300439E+00
        -11   -1    0    0    0    0  0.00000000000E+00  0.00000000000E+00  0.45593999997E+02  0.45594000000E+02  0.51100000000E-03 0.  1.
         11   -1    0    0    0    0 -0.00000000000E+00 -0.00000000000E+00 -0.45593999997E+02  0.45594000000E+02  0.51100000000E-03 0. -1.
    9900012    2    1    2    0    0  0.47833223919E+01  0.32640547506E+02 -0.23767255527E+02  0.50528831909E+02  0.29999915069E+02 0.  0.
        -12    1    1    2    0    0 -0.47833223919E+01 -0.32640547506E+02  0.23767255527E+02  0.40659168091E+02  0.00000000000E+00 0.  1.
         11    1    3    3    0    0 -0.43932624920E+01  0.12317138187E+01 -0.91294723877E+01  0.10206132499E+02  0.51100000000E-03 0. -1.
        -11    1    3    3    0    0  0.53028494874E-01  0.94111687533E+01  0.38558485505E+01  0.10170569189E+02  0.51100000000E-03 0.  1.
         12    1    3    3    0    0  0.91235563890E+01  0.21997664934E+02 -0.18493631689E+02  0.30152130220E+02  0.00000000000E+00 0. -1.
</event>
<event>
 7    1  0.5601662E-013  0.5052885E+02  0.7816164E-02  0.1300439E+00
        -11   -1    0    0    0    0  0.00000000000E+00  0.00000000000E+00  0.45593999997E+02  0.45594000000E+02  0.51100000000E-03 0.  1.
         11   -1    0    0    0    0 -0.00000000000E+00 -0.00000000000E+00 -0.45593999997E+02  0.45594000000E+02  0.51100000000E-03 0. -1.
    9900012    2    1    2    0    0  0.94196528672E+01  0.30792601207E+02 -0.24824429351E+02  0.50528850454E+02  0.29999971439E+02 0.  0.
        -12    1    1    2    0    0 -0.94196528672E+01 -0.30792601207E+02  0.24824429351E+02  0.40659149546E+02  0.00000000000E+00 0.  1.
         11    1    3    3    0    0  0.72075563546E+01 -0.37672972791E+01 -0.51754392103E+01  0.96398427723E+01  0.51100000000E-03 0. -1.
        -11    1    3    3    0    0 -0.14943675797E+01  0.19524259765E+01  0.31096795884E+00  0.24782661257E+01  0.51100000000E-03 0.  1.
        -12    1    3    3    0    0  0.37064640923E+01  0.32607472510E+02 -0.19959958099E+02  0.38410741556E+02  0.00000000000E+00 0.  1.
</event>
<event>
 7    1  0.5601662E-013  0.5052885E+02  0.7816164E-02  0.1300439E+00
        -11   -1    0    0    0    0  0.00000000000E+00  0.00000000000E+00  0.45593999997E+02  0.45594000000E+02  0.51100000000E-03 0.  1.
         11   -1    0    0    0    0 -0.00000000000E+00 -0.00000000000E+00 -0.45593999997E+02  0.45594000000E+02  0.51100000000E-03 0. -1.
    9900012    2    1    2    0    0 -0.32487346390E+02  0.19480560783E+02 -0.14773159350E+02  0.50528853907E+02  0.29999981935E+02 0.  0.
        -12    1    1    2    0    0  0.32487346390E+02 -0.19480560783E+02  0.14773159350E+02  0.40659146093E+02  0.00000000000E+00 0.  1.
         11    1    3    3    0    0 -0.40226741342E+00  0.24090084713E+01 -0.27179710428E+01  0.36541083368E+01  0.51100000000E-03 0.  1.
        -11    1    3    3    0    0 -0.49733516682E+01 -0.36479538535E+01 -0.11147685024E+02  0.12740199205E+02  0.51100000000E-03 0. -1.
         12    1    3    3    0    0 -0.27111727308E+02  0.20719506165E+02 -0.90750328318E+00  0.34134546365E+02  0.00000000000E+00 0. -1.
</event>
<event>
 7    1  0.5601662E-013  0.5052884E+02  0.7816164E-02  0.1300439E+00
        -11   -1    0    0    0    0  0.00000000000E+00  0.00000000000E+00  0.45593999997E+02  0.45594000000E+02  0.51100000000E-03 0. -1.
         11   -1    0    0    0    0 -0.00000000000E+00 -0.00000000000E+00 -0.45593999997E+02  0.45594000000E+02  0.51100000000E-03 0.  1.
    9900012    2    1    2    0    0 -0.90019230308E+01  0.97673198953E+01  0.38428274547E+02  0.50528838168E+02  0.29999934096E+02 0.  0.
        -12    1    1    2    0    0  0.90019230308E+01 -0.97673198953E+01 -0.38428274547E+02  0.40659161832E+02  0.00000000000E+00 0.  1.
         11    1    3    3    0    0 -0.37473076576E+01 -0.28685506953E+00  0.88025904045E+01  0.95713216748E+01  0.51100000000E-03 0. -1.
        -11    1    3    3    0    0 -0.14044767668E+02 -0.62250978976E+00  0.11528152200E+02  0.18180795106E+02  0.51100000000E-03 0.  1.
        -12    1    3    3    0    0  0.87901522950E+01  0.10676684755E+02  0.18097531943E+02  0.22776721387E+02  0.00000000000E+00 0.  1.
</event>
<event>
 7    1  0.5601662E-013  0.5052885E+02  0.7816164E-02  0.1300439E+00
        -11   -1    0    0    0    0  0.00000000000E+00  0.00000000000E+00  0.45593999997E+02  0.45594000000E+02  0.51100000000E-03 0.  1.
         11   -1    0    0    0    0 -0.00000000000E+00 -0.00000000000E+00 -0.45593999997E+02  0.45594000000E+02  0.51100000000E-03 0. -1.
    9900012    2    1    2    0    0  0.14246902532E+02  0.32820704346E+02 -0.19313033403E+02  0.50528854353E+02  0.29999983292E+02 0.  0.
        -12    1    1    2    0    0 -0.14246902532E+02 -0.32820704346E+02  0.19313033403E+02  0.40659145647E+02  0.00000000000E+00 0.  1.
         11    1    3    3    0    0  0.11818817974E+01  0.16595200716E+02 -0.11783600243E+02  0.20387514962E+02  0.51100000000E-03 0. -1.
        -11    1    3    3    0    0  0.80698465787E+01  0.20377828140E+02 -0.86257637914E+01  0.23553812956E+02  0.51100000000E-03 0.  1.
        -12    1    3    3    0    0  0.49951741555E+01 -0.41523245102E+01  0.10963306314E+01  0.65875264352E+01  0.00000000000E+00 0.  1.
</event>
<event>
 7    1  0.5601662E-013  0.5052886E+02  0.7816164E-02  0.1300439E+00
        -11   -1    0    0    0    0  0.00000000000E+00  0.00000000000E+00  0.45593999997E+02  0.45594000000E+02  0.51100000000E-03 0. -1.
         11   -1    0    0    0    0 -0.00000000000E+00 -0.00000000000E+00 -0.45593999997E+02  0.45594000000E+02  0.51100000000E-03 0.  1.
    9900012    2    1    2    0    0 -0.24081597783E+02  0.19328702783E+02  0.26450783583E+02  0.50528855208E+02  0.29999985891E+02 0.  0.
        -12    1    1    2    0    0  0.24081597783E+02 -0.19328702783E+02 -0.26450783583E+02  0.40659144792E+02  0.00000000000E+00 0.  1.
         11    1    3    3    0    0 -0.90015604012E+01 -0.57252027402E+01  0.14479552505E+01  0.10765807482E+02  0.51100000000E-03 0.  1.
        -11    1    3    3    0    0 -0.40633706352E+01  0.97262768478E+01  0.15189039253E+02  0.18488330264E+02  0.51100000000E-03 0. -1.
        -12    1    3    3    0    0 -0.11016666746E+02  0.15327628676E+02  0.98137890788E+01  0.21274717462E+02  0.00000000000E+00 0.  1.
</event>
<event>
 7    1  0.5601662E-013  0.5052884E+02  0.7816164E-02  0.1300439E+00
        -11   -1    0    0    0    0  0.00000000000E+00  0.00000000000E+00  0.45593999997E+02  0.45594000000E+02  0.51100000000E-03 0. -1.
         11   -1    0    0    0    0 -0.00000000000E+00 -0.00000000000E+00 -0.45593999997E+02  0.45594000000E+02  0.51100000000E-03 0.  1.
    9900012    2    1    2    0    0 -0.87778261892E+01  0.10064237563E+01  0.39687580879E+02  0.50528841162E+02  0.29999943196E+02 0.  0.
        -12    1    1    2    0    0  0.87778261892E+01 -0.10064237563E+01 -0.39687580879E+02  0.40659158838E+02  0.00000000000E+00 0.  1.
         11    1    3    3    0    0 -0.49289351225E+01 -0.26312537595E+01  0.21651916591E+02  0.22361202787E+02  0.51100000000E-03 0. -1.
        -11    1    3    3    0    0  0.40259464553E+01 -0.36698621485E+01  0.16424620960E+02  0.17304459165E+02  0.51100000000E-03 0.  1.
         12    1    3    3    0    0 -0.78748375220E+01  0.73075396643E+01  0.16110433286E+01  0.10863179210E+02  0.00000000000E+00 0. -1.
</event>
<event>
 7    1  0.5601662E-013  0.5052878E+02  0.7816164E-02  0.1300439E+00
        -11   -1    0    0    0    0  0.00000000000E+00  0.00000000000E+00  0.45593999997E+02  0.45594000000E+02  0.51100000000E-03 0.  1.
         11   -1    0    0    0    0 -0.00000000000E+00 -0.00000000000E+00 -0.45593999997E+02  0.45594000000E+02  0.51100000000E-03 0. -1.
    9900012    2    1    2    0    0  0.32923015298E+02 -0.23558059298E+02  0.37769090308E+01  0.50528780430E+02  0.29999758594E+02 0.  0.
        -12    1    1    2    0    0 -0.32923015298E+02  0.23558059298E+02 -0.37769090308E+01  0.40659219570E+02  0.00000000000E+00 0.  1.
         11    1    3    3    0    0  0.17139182173E+02 -0.24377717061E+02 -0.66518418221E+01  0.30533123891E+02  0.51100000000E-03 0. -1.
        -11    1    3    3    0    0  0.76208995127E+01  0.19704086734E+00  0.12996185148E+01  0.77334302241E+01  0.51100000000E-03 0.  1.
         12    1    3    3    0    0  0.81629336121E+01  0.62261689496E+00  0.91291323381E+01  0.12262226315E+02  0.00000000000E+00 0. -1.
</event>
<event>
 7    1  0.5601662E-013  0.5052886E+02  0.7816164E-02  0.1300439E+00
        -11   -1    0    0    0    0  0.00000000000E+00  0.00000000000E+00  0.45593999997E+02  0.45594000000E+02  0.51100000000E-03 0.  1.
         11   -1    0    0    0    0 -0.00000000000E+00 -0.00000000000E+00 -0.45593999997E+02  0.45594000000E+02  0.51100000000E-03 0. -1.
    9900012    2    1    2    0    0  0.15117443313E+02 -0.26968285325E+02 -0.26407196572E+02  0.50528861587E+02  0.30000005280E+02 0.  0.
        -12    1    1    2    0    0 -0.15117443313E+02  0.26968285325E+02  0.26407196572E+02  0.40659138413E+02  0.00000000000E+00 0.  1.
         11    1    3    3    0    0  0.44388234284E+01  0.14810565666E+01 -0.55152844553E+01  0.72329139955E+01  0.51100000000E-03 0. -1.
        -11    1    3    3    0    0  0.12909653880E+02 -0.71097414583E+01 -0.23216373975E+01  0.14919704668E+02  0.51100000000E-03 0.  1.
         12    1    3    3    0    0 -0.22310339952E+01 -0.21339600433E+02 -0.18570274719E+02  0.28376242924E+02  0.00000000000E+00 0. -1.
</event>
<event>
 7    1  0.5601662E-013  0.5052886E+02  0.7816164E-02  0.1300439E+00
        -11   -1    0    0    0    0  0.00000000000E+00  0.00000000000E+00  0.45593999997E+02  0.45594000000E+02  0.51100000000E-03 0.  1.
         11   -1    0    0    0    0 -0.00000000000E+00 -0.00000000000E+00 -0.45593999997E+02  0.45594000000E+02  0.51100000000E-03 0. -1.
    9900012    2    1    2    0    0 -0.13846665283E+02 -0.18890624418E+02 -0.33235218786E+02  0.50528860829E+02  0.30000002974E+02 0.  0.
        -12    1    1    2    0    0  0.13846665283E+02  0.18890624418E+02  0.33235218786E+02  0.40659139171E+02  0.00000000000E+00 0.  1.
         11    1    3    3    0    0 -0.61946673403E+01  0.16118729081E+01 -0.15834579002E+02  0.17079400755E+02  0.51100000000E-03 0. -1.
        -11    1    3    3    0    0  0.15258541317E+01  0.29837536476E+01 -0.20708778270E+01  0.39394862478E+01  0.51100000000E-03 0.  1.
        -12    1    3    3    0    0 -0.91778520747E+01 -0.23486250974E+02 -0.15329761958E+02  0.29509973826E+02  0.00000000000E+00 0.  1.
</event>
<event>
 7    1  0.5601662E-013  0.5052885E+02  0.7816164E-02  0.1300439E+00
        -11   -1    0    0    0    0  0.00000000000E+00  0.00000000000E+00  0.45593999997E+02  0.45594000000E+02  0.51100000000E-03 0.  1.
         11   -1    0    0    0    0 -0.00000000000E+00 -0.00000000000E+00 -0.45593999997E+02  0.45594000000E+02  0.51100000000E-03 0. -1.
    9900012    2    1    2    0    0 -0.69500208966E+01  0.25984799272E+02 -0.30490222697E+02  0.50528852643E+02  0.29999978095E+02 0.  0.
        -12    1    1    2    0    0  0.69500208966E+01 -0.25984799272E+02  0.30490222697E+02  0.40659147357E+02  0.00000000000E+00 0.  1.
         11    1    3    3    0    0 -0.88776235407E+01  0.70658217083E+01 -0.10274769305E+02  0.15307152598E+02  0.51100000000E-03 0. -1.
        -11    1    3    3    0    0 -0.59226380332E+01  0.19450018380E+01 -0.14311931717E+02  0.15610639421E+02  0.51100000000E-03 0.  1.
        -12    1    3    3    0    0  0.78502406772E+01  0.16973975725E+02 -0.59035216758E+01  0.19611060624E+02  0.00000000000E+00 0.  1.
</event>
<event>
 7    1  0.5601662E-013  0.5052886E+02  0.7816164E-02  0.1300439E+00
        -11   -1    0    0    0    0  0.00000000000E+00  0.00000000000E+00  0.45593999997E+02  0.45594000000E+02  0.51100000000E-03 0.  1.
         11   -1    0    0    0    0 -0.00000000000E+00 -0.00000000000E+00 -0.45593999997E+02  0.45594000000E+02  0.51100000000E-03 0. -1.
    9900012    2    1    2    0    0 -0.27199152903E+02  0.23026431019E+02 -0.19574350221E+02  0.50528860429E+02  0.30000001759E+02 0.  0.
        -12    1    1    2    0    0  0.27199152903E+02 -0.23026431019E+02  0.19574350221E+02  0.40659139571E+02  0.00000000000E+00 0.  1.
         11    1    3    3    0    0 -0.15738869064E+02  0.13169395157E+02 -0.75878392951E+01  0.21879677184E+02  0.51100000000E-03 0. -1.
        -11    1    3    3    0    0 -0.12014520040E+02  0.57114097141E+01  0.25306436026E+01  0.13541530565E+02  0.51100000000E-03 0.  1.
         12    1    3    3    0    0  0.55423620212E+00  0.41456261481E+01 -0.14517154528E+02  0.15107652681E+02  0.00000000000E+00 0. -1.
</event>
<event>
 7    1  0.5601662E-013  0.5052886E+02  0.7816164E-02  0.1300439E+00
        -11   -1    0    0    0    0  0.00000000000E+00  0.00000000000E+00  0.45593999997E+02  0.45594000000E+02  0.51100000000E-03 0. -1.
         11   -1    0    0    0    0 -0.00000000000E+00 -0.00000000000E+00 -0.45593999997E+02  0.45594000000E+02  0.51100000000E-03 0.  1.
    9900012    2    1    2    0    0  0.10995638288E+01 -0.40600501622E+02 -0.18857369253E+01  0.50528858637E+02  0.29999996314E+02 0.  0.
        -12    1    1    2    0    0 -0.10995638288E+01  0.40600501622E+02  0.18857369253E+01  0.40659141363E+02  0.00000000000E+00 0.  1.
         11    1    3    3    0    0  0.77840964058E+01 -0.17142400734E+02  0.69589061431E+01  0.20071881694E+02  0.51100000000E-03 0. -1.
        -11    1    3    3    0    0  0.16663464070E+01 -0.14354722062E+02  0.12479336757E+01  0.14504898985E+02  0.51100000000E-03 0.  1.
        -12    1    3    3    0    0 -0.83508789840E+01 -0.91033788260E+01 -0.10092576744E+02  0.15952077958E+02  0.00000000000E+00 0.  1.
</event>
<event>
 7    1  0.5601662E-013  0.5052887E+02  0.7816164E-02  0.1300439E+00
        -11   -1    0    0    0    0  0.00000000000E+00  0.00000000000E+00  0.45593999997E+02  0.45594000000E+02  0.51100000000E-03 0. -1.
         11   -1    0    0    0    0 -0.00000000000E+00 -0.00000000000E+00 -0.45593999997E+02  0.45594000000E+02  0.51100000000E-03 0.  1.
    9900012    2    1    2    0    0 -0.27493271010E+02  0.16657425570E+02  0.24896090115E+02  0.50528867195E+02  0.30000022325E+02 0.  0.
        -12    1    1    2    0    0  0.27493271010E+02 -0.16657425570E+02 -0.24896090115E+02  0.40659132805E+02  0.00000000000E+00 0.  1.
         11    1    3    3    0    0 -0.11904679050E+02 -0.33333895538E+00  0.95094983999E+01  0.15240179074E+02  0.51100000000E-03 0. -1.
        -11    1    3    3    0    0 -0.41938775536E+01 -0.45294411793E+01 -0.53303151310E+00  0.61958509654E+01  0.51100000000E-03 0.  1.
         12    1    3    3    0    0 -0.11394714407E+02  0.21520205705E+02  0.15919623228E+02  0.29092837155E+02  0.00000000000E+00 0. -1.
</event>
<event>
 7    1  0.5601662E-013  0.5052885E+02  0.7816164E-02  0.1300439E+00
        -11   -1    0    0    0    0  0.00000000000E+00  0.00000000000E+00  0.45593999997E+02  0.45594000000E+02  0.51100000000E-03 0. -1.
         11   -1    0    0    0    0 -0.00000000000E+00 -0.00000000000E+00 -0.45593999997E+02  0.45594000000E+02  0.51100000000E-03 0.  1.
    9900012    2    1    2    0    0  0.22656123783E+02 -0.27944795911E+02  0.18946108687E+02  0.50528848536E+02  0.29999965611E+02 0.  0.
        -12    1    1    2    0    0 -0.22656123783E+02  0.27944795911E+02 -0.18946108687E+02  0.40659151464E+02  0.00000000000E+00 0.  1.
         11    1    3    3    0    0  0.94964474748E+01 -0.10238975898E+02 -0.43834817191E+01  0.14636736464E+02  0.51100000000E-03 0. -1.
        -11    1    3    3    0    0  0.48003219883E+01 -0.83140125934E+01  0.24251341013E+00  0.96033697008E+01  0.51100000000E-03 0.  1.
         12    1    3    3    0    0  0.83593543203E+01 -0.93918074196E+01  0.23087076996E+02  0.26288742371E+02  0.00000000000E+00 0. -1.
</event>
<event>
 7    1  0.5601662E-013  0.5052888E+02  0.7816164E-02  0.1300439E+00
        -11   -1    0    0    0    0  0.00000000000E+00  0.00000000000E+00  0.45593999997E+02  0.45594000000E+02  0.51100000000E-03 0.  1.
         11   -1    0    0    0    0 -0.00000000000E+00 -0.00000000000E+00 -0.45593999997E+02  0.45594000000E+02  0.51100000000E-03 0. -1.
    9900012    2    1    2    0    0  0.28077146814E+02 -0.81571708195E+01 -0.28254171250E+02  0.50528882917E+02  0.30000070113E+02 0.  0.
        -12    1    1    2    0    0 -0.28077146814E+02  0.81571708195E+01  0.28254171250E+02  0.40659117083E+02  0.00000000000E+00 0.  1.
         11    1    3    3    0    0 -0.51154348963E+00  0.53071772812E+01 -0.12832987099E+01  0.54840371330E+01  0.51100000000E-03 0. -1.
        -11    1    3    3    0    0  0.67410515188E+01 -0.66356695326E+01  0.27103319982E+00  0.94629458934E+01  0.51100000000E-03 0.  1.
         12    1    3    3    0    0  0.21847638784E+02 -0.68286785681E+01 -0.27241905740E+02  0.35581899890E+02  0.00000000000E+00 0. -1.
</event>
<event>
 7    1  0.5601662E-013  0.5052878E+02  0.7816164E-02  0.1300439E+00
        -11   -1    0    0    0    0  0.00000000000E+00  0.00000000000E+00  0.45593999997E+02  0.45594000000E+02  0.51100000000E-03 0. -1.
         11   -1    0    0    0    0 -0.00000000000E+00 -0.00000000000E+00 -0.45593999997E+02  0.45594000000E+02  0.51100000000E-03 0.  1.
    9900012    2    1    2    0    0 -0.35120073350E+02  0.20209447044E+02  0.33661431035E+01  0.50528779381E+02  0.29999755407E+02 0.  0.
        -12    1    1    2    0    0  0.35120073350E+02 -0.20209447044E+02 -0.33661431035E+01  0.40659220619E+02  0.00000000000E+00 0.  1.
         11    1    3    3    0    0 -0.98421730848E+01  0.10471440810E+02  0.88129004764E+01  0.16857836716E+02  0.51100000000E-03 0. -1.
        -11    1    3    3    0    0 -0.97854343286E+01  0.35119093854E+01  0.72671767085E+01  0.12684639928E+02  0.51100000000E-03 0.  1.
        -12    1    3    3    0    0 -0.15492465936E+02  0.62260968483E+01 -0.12713934081E+02  0.20986302737E+02  0.00000000000E+00 0.  1.
</event>
<event>
 7    1  0.5601662E-013  0.5052885E+02  0.7816164E-02  0.1300439E+00
        -11   -1    0    0    0    0  0.00000000000E+00  0.00000000000E+00  0.45593999997E+02  0.45594000000E+02  0.51100000000E-03 0.  1.
         11   -1    0    0    0    0 -0.00000000000E+00 -0.00000000000E+00 -0.45593999997E+02  0.45594000000E+02  0.51100000000E-03 0. -1.
    9900012    2    1    2    0    0 -0.39388193638E+02 -0.99362218625E+00 -0.10037416851E+02  0.50528845801E+02  0.29999957298E+02 0.  0.
        -12    1    1    2    0    0  0.39388193638E+02  0.99362218625E+00  0.10037416851E+02  0.40659154199E+02  0.00000000000E+00 0.  1.
         11    1    3    3    0    0 -0.45198502569E+01  0.14358590433E+01  0.35187703872E+01  0.59052927816E+01  0.51100000000E-03 0. -1.
        -11    1    3    3    0    0 -0.72949944749E+01  0.86057444533E+01  0.14043479742E+01  0.11368727962E+02  0.51100000000E-03 0.  1.
         12    1    3    3    0    0 -0.27573348906E+02 -0.11035225683E+02 -0.14960535212E+02  0.33254825058E+02  0.00000000000E+00 0. -1.
</event>
<event>
 7    1  0.5601662E-013  0.5052886E+02  0.7816164E-02  0.1300439E+00
        -11   -1    0    0    0    0  0.00000000000E+00  0.00000000000E+00  0.45593999997E+02  0.45594000000E+02  0.51100000000E-03 0.  1.
         11   -1    0    0    0    0 -0.00000000000E+00 -0.00000000000E+00 -0.45593999997E+02  0.45594000000E+02  0.51100000000E-03 0. -1.
    9900012    2    1    2    0    0  0.16592915135E+02 -0.18402984670E+02 -0.32236173077E+02  0.50528861641E+02  0.30000005445E+02 0.  0.
        -12    1    1    2    0    0 -0.16592915135E+02  0.18402984670E+02  0.32236173077E+02  0.40659138359E+02  0.00000000000E+00 0.  1.
         11    1    3    3    0    0 -0.32836709641E+01 -0.15577003365E+01  0.33734022099E+01  0.49587062899E+01  0.51100000000E-03 0. -1.
        -11    1    3    3    0    0 -0.25392115212E+00 -0.79033341042E+00  0.68044631818E+00  0.10733640129E+01  0.51100000000E-03 0.  1.
         12    1    3    3    0    0  0.20130507252E+02 -0.16054950923E+02 -0.36290021605E+02  0.44496791338E+02  0.00000000000E+00 0. -1.
</event>
<event>
 7    1  0.5601662E-013  0.5052887E+02  0.7816164E-02  0.1300439E+00
        -11   -1    0    0    0    0  0.00000000000E+00  0.00000000000E+00  0.45593999997E+02  0.45594000000E+02  0.51100000000E-03 0.  1.
         11   -1    0    0    0    0 -0.00000000000E+00 -0.00000000000E+00 -0.45593999997E+02  0.45594000000E+02  0.51100000000E-03 0. -1.
    9900012    2    1    2    0    0 -0.31797264938E+02 -0.25330287875E+02 -0.68955306794E+00  0.50528867879E+02  0.30000024405E+02 0.  0.
        -12    1    1    2    0    0  0.31797264938E+02  0.25330287875E+02  0.68955306794E+00  0.40659132121E+02  0.00000000000E+00 0.  1.
         11    1    3    3    0    0 -0.23096287330E+02 -0.51344217311E+01  0.30895529331E+01  0.23860974677E+02  0.51100000000E-03 0. -1.
        -11    1    3    3    0    0 -0.39586399642E+01 -0.34131307659E+01  0.49205293042E+01  0.71785723432E+01  0.51100000000E-03 0.  1.
         12    1    3    3    0    0 -0.47423376439E+01 -0.16782735378E+02 -0.86996353053E+01  0.19489320859E+02  0.00000000000E+00 0. -1.
</event>
<event>
 7    1  0.5601662E-013  0.5052886E+02  0.7816164E-02  0.1300439E+00
        -11   -1    0    0    0    0  0.00000000000E+00  0.00000000000E+00  0.45593999997E+02  0.45594000000E+02  0.51100000000E-03 0.  1.
         11   -1    0    0    0    0 -0.00000000000E+00 -0.00000000000E+00 -0.45593999997E+02  0.45594000000E+02  0.51100000000E-03 0. -1.
    9900012    2    1    2    0    0  0.75140489289E+01  0.13166392475E+02 -0.37727319380E+02  0.50528862654E+02  0.30000008523E+02 0.  0.
        -12    1    1    2    0    0 -0.75140489289E+01 -0.13166392475E+02  0.37727319380E+02  0.40659137346E+02  0.00000000000E+00 0.  1.
         11    1    3    3    0    0  0.11223069710E+02  0.63427470185E+01 -0.80126342184E+01  0.15178604706E+02  0.51100000000E-03 0. -1.
        -11    1    3    3    0    0  0.42444642468E+01  0.88307705226E+01 -0.10013318566E+02  0.14009444448E+02  0.51100000000E-03 0.  1.
        -12    1    3    3    0    0 -0.79534850275E+01 -0.20071250657E+01 -0.19701366595E+02  0.21340813500E+02  0.00000000000E+00 0.  1.
</event>
<event>
 7    1  0.5601662E-013  0.5052885E+02  0.7816164E-02  0.1300439E+00
        -11   -1    0    0    0    0  0.00000000000E+00  0.00000000000E+00  0.45593999997E+02  0.45594000000E+02  0.51100000000E-03 0. -1.
         11   -1    0    0    0    0 -0.00000000000E+00 -0.00000000000E+00 -0.45593999997E+02  0.45594000000E+02  0.51100000000E-03 0.  1.
    9900012    2    1    2    0    0 -0.20196372845E+01  0.14285218023E+02  0.38013418284E+02  0.50528851480E+02  0.29999974558E+02 0.  0.
        -12    1    1    2    0    0  0.20196372845E+01 -0.14285218023E+02 -0.38013418284E+02  0.40659148520E+02  0.00000000000E+00 0.  1.
         11    1    3    3    0    0 -0.10859320784E+02  0.44468630705E+00  0.44323551622E+01  0.11737477001E+02  0.51100000000E-03 0. -1.
        -11    1    3    3    0    0  0.94262731704E+01  0.67665235269E+01  0.15463268107E+02  0.19332695812E+02  0.51100000000E-03 0.  1.
        -12    1    3    3    0    0 -0.58658967130E+00  0.70740081895E+01  0.18117795015E+02  0.19458678668E+02  0.00000000000E+00 0.  1.
</event>
<event>
 7    1  0.5601662E-013  0.5052886E+02  0.7816164E-02  0.1300439E+00
        -11   -1    0    0    0    0  0.00000000000E+00  0.00000000000E+00  0.45593999997E+02  0.45594000000E+02  0.51100000000E-03 0.  1.
         11   -1    0    0    0    0 -0.00000000000E+00 -0.00000000000E+00 -0.45593999997E+02  0.45594000000E+02  0.51100000000E-03 0. -1.
    9900012    2    1    2    0    0 -0.22180309708E+01  0.16729404168E+02 -0.36991531586E+02  0.50528855466E+02  0.29999986673E+02 0.  0.
        -12    1    1    2    0    0  0.22180309708E+01 -0.16729404168E+02  0.36991531586E+02  0.40659144534E+02  0.00000000000E+00 0.  1.
         11    1    3    3    0    0 -0.15105858619E+01 -0.11239560863E+00 -0.96093734316E+01  0.97280296272E+01  0.51100000000E-03 0. -1.
        -11    1    3    3    0    0 -0.55283088064E+01  0.14596480634E+01 -0.23546622672E+02  0.24230893715E+02  0.51100000000E-03 0.  1.
        -12    1    3    3    0    0  0.48208636974E+01  0.15382151713E+02 -0.38355354821E+01  0.16569932123E+02  0.00000000000E+00 0.  1.
</event>
<event>
 7    1  0.5601662E-013  0.5052886E+02  0.7816164E-02  0.1300439E+00
        -11   -1    0    0    0    0  0.00000000000E+00  0.00000000000E+00  0.45593999997E+02  0.45594000000E+02  0.51100000000E-03 0.  1.
         11   -1    0    0    0    0 -0.00000000000E+00 -0.00000000000E+00 -0.45593999997E+02  0.45594000000E+02  0.51100000000E-03 0. -1.
    9900012    2    1    2    0    0  0.19923881761E+02  0.35442511855E+02 -0.18052785999E+00  0.50528864478E+02  0.30000014068E+02 0.  0.
        -12    1    1    2    0    0 -0.19923881761E+02 -0.35442511855E+02  0.18052785999E+00  0.40659135522E+02  0.00000000000E+00 0.  1.
         11    1    3    3    0    0  0.29351174529E+01  0.26014187188E+02  0.50064644556E+00  0.26184031329E+02  0.51100000000E-03 0. -1.
        -11    1    3    3    0    0 -0.22029266392E+01  0.21622018490E+01 -0.21646907098E+01  0.37701311308E+01  0.51100000000E-03 0.  1.
         12    1    3    3    0    0  0.19191690948E+02  0.72661228188E+01  0.14835164042E+01  0.20574702019E+02  0.00000000000E+00 0. -1.
</event>
<event>
 7    1  0.5601662E-013  0.5052885E+02  0.7816164E-02  0.1300439E+00
        -11   -1    0    0    0    0  0.00000000000E+00  0.00000000000E+00  0.45593999997E+02  0.45594000000E+02  0.51100000000E-03 0.  1.
         11   -1    0    0    0    0 -0.00000000000E+00 -0.00000000000E+00 -0.45593999997E+02  0.45594000000E+02  0.51100000000E-03 0. -1.
    9900012    2    1    2    0    0 -0.78152450501E+01  0.17344419692E+02 -0.35934094300E+02  0.50528854869E+02  0.29999984859E+02 0.  0.
        -12    1    1    2    0    0  0.78152450501E+01 -0.17344419692E+02  0.35934094300E+02  0.40659145131E+02  0.00000000000E+00 0.  1.
         11    1    3    3    0    0 -0.33485036403E+01  0.86970211206E+01 -0.12981381042E+02  0.15980203598E+02  0.51100000000E-03 0. -1.
        -11    1    3    3    0    0 -0.16891556986E+01  0.15389441006E+02 -0.69646771256E+01  0.16976303165E+02  0.51100000000E-03 0.  1.
         12    1    3    3    0    0 -0.27775857112E+01 -0.67420424344E+01 -0.15988036133E+02  0.17572348106E+02  0.00000000000E+00 0. -1.
</event>
<event>
 7    1  0.5601662E-013  0.5052886E+02  0.7816164E-02  0.1300439E+00
        -11   -1    0    0    0    0  0.00000000000E+00  0.00000000000E+00  0.45593999997E+02  0.45594000000E+02  0.51100000000E-03 0. -1.
         11   -1    0    0    0    0 -0.00000000000E+00 -0.00000000000E+00 -0.45593999997E+02  0.45594000000E+02  0.51100000000E-03 0.  1.
    9900012    2    1    2    0    0  0.82343606984E+01  0.35860321443E+02  0.17303123358E+02  0.50528862920E+02  0.30000009332E+02 0.  0.
        -12    1    1    2    0    0 -0.82343606984E+01 -0.35860321443E+02 -0.17303123358E+02  0.40659137080E+02  0.00000000000E+00 0.  1.
         11    1    3    3    0    0  0.69718812140E+00 -0.36814427530E+00 -0.35784947314E+01  0.36643179840E+01  0.51100000000E-03 0. -1.
        -11    1    3    3    0    0 -0.14594948737E+01  0.14888072369E+01 -0.30764019876E+01  0.37163048483E+01  0.51100000000E-03 0.  1.
         12    1    3    3    0    0  0.89966674507E+01  0.34739658482E+02  0.23958020077E+02  0.43148240088E+02  0.00000000000E+00 0. -1.
</event>
<event>
 7    1  0.5601662E-013  0.5052886E+02  0.7816164E-02  0.1300439E+00
        -11   -1    0    0    0    0  0.00000000000E+00  0.00000000000E+00  0.45593999997E+02  0.45594000000E+02  0.51100000000E-03 0. -1.
         11   -1    0    0    0    0 -0.00000000000E+00 -0.00000000000E+00 -0.45593999997E+02  0.45594000000E+02  0.51100000000E-03 0.  1.
    9900012    2    1    2    0    0  0.14041344093E+02  0.64136909971E+01  0.37614774316E+02  0.50528855605E+02  0.29999987096E+02 0.  0.
        -12    1    1    2    0    0 -0.14041344093E+02 -0.64136909971E+01 -0.37614774316E+02  0.40659144395E+02  0.00000000000E+00 0.  1.
         11    1    3    3    0    0  0.18120582878E+01 -0.82863135331E+01  0.91265858326E+01  0.12459579304E+02  0.51100000000E-03 0. -1.
        -11    1    3    3    0    0  0.57851088330E+00 -0.29493212881E+01  0.59238456688E+00  0.30633463139E+01  0.51100000000E-03 0.  1.
         12    1    3    3    0    0  0.11650774922E+02  0.17649325818E+02  0.27895803916E+02  0.35005929987E+02  0.00000000000E+00 0. -1.
</event>
<event>
 7    1  0.5601662E-013  0.5052886E+02  0.7816164E-02  0.1300439E+00
        -11   -1    0    0    0    0  0.00000000000E+00  0.00000000000E+00  0.45593999997E+02  0.45594000000E+02  0.51100000000E-03 0.  1.
         11   -1    0    0    0    0 -0.00000000000E+00 -0.00000000000E+00 -0.45593999997E+02  0.45594000000E+02  0.51100000000E-03 0. -1.
    9900012    2    1    2    0    0  0.17607309225E+02  0.36426960469E+02 -0.40280253866E+01  0.50528858645E+02  0.29999996338E+02 0.  0.
        -12    1    1    2    0    0 -0.17607309225E+02 -0.36426960469E+02  0.40280253866E+01  0.40659141355E+02  0.00000000000E+00 0.  1.
         11    1    3    3    0    0  0.80739000665E+01  0.23873121344E+02 -0.13175080805E+02  0.28437590254E+02  0.51100000000E-03 0. -1.
        -11    1    3    3    0    0 -0.14094491953E+01  0.51689155398E+00 -0.19042961951E+01  0.24248851875E+01  0.51100000000E-03 0.  1.
         12    1    3    3    0    0  0.10942858354E+02  0.12036947572E+02  0.11051351614E+02  0.19666383203E+02  0.00000000000E+00 0. -1.
</event>
<event>
 7    1  0.5601662E-013  0.5052882E+02  0.7816164E-02  0.1300439E+00
        -11   -1    0    0    0    0  0.00000000000E+00  0.00000000000E+00  0.45593999997E+02  0.45594000000E+02  0.51100000000E-03 0. -1.
         11   -1    0    0    0    0 -0.00000000000E+00 -0.00000000000E+00 -0.45593999997E+02  0.45594000000E+02  0.51100000000E-03 0.  1.
    9900012    2    1    2    0    0 -0.38554104601E+02  0.56412974949E+01 -0.11615757791E+02  0.50528818404E+02  0.29999874020E+02 0.  0.
        -12    1    1    2    0    0  0.38554104601E+02 -0.56412974949E+01  0.11615757791E+02  0.40659181596E+02  0.00000000000E+00 0.  1.
         11    1    3    3    0    0 -0.12887551109E+02 -0.81975542789E+01  0.24198549442E+01  0.15464299788E+02  0.51100000000E-03 0. -1.
        -11    1    3    3    0    0 -0.55107062494E+00 -0.12729042444E+01 -0.37543223356E+01  0.40023618664E+01  0.51100000000E-03 0.  1.
         12    1    3    3    0    0 -0.25115482867E+02  0.15111756018E+02 -0.10281290400E+02  0.31062156749E+02  0.00000000000E+00 0. -1.
</event>
<event>
 7    1  0.5601662E-013  0.5052886E+02  0.7816164E-02  0.1300439E+00
        -11   -1    0    0    0    0  0.00000000000E+00  0.00000000000E+00  0.45593999997E+02  0.45594000000E+02  0.51100000000E-03 0.  1.
         11   -1    0    0    0    0 -0.00000000000E+00 -0.00000000000E+00 -0.45593999997E+02  0.45594000000E+02  0.51100000000E-03 0. -1.
    9900012    2    1    2    0    0 -0.28407584605E+02 -0.88254452615E+01 -0.27717982517E+02  0.50528857093E+02  0.29999991619E+02 0.  0.
        -12    1    1    2    0    0  0.28407584605E+02  0.88254452615E+01  0.27717982517E+02  0.40659142907E+02  0.00000000000E+00 0.  1.
         11    1    3    3    0    0 -0.86401234209E+01 -0.47274010098E+01 -0.22624039583E+02  0.24674829692E+02  0.51100000000E-03 0. -1.
        -11    1    3    3    0    0 -0.68158802564E+01  0.19912064233E+01 -0.85668261409E+01  0.11127067766E+02  0.51100000000E-03 0.  1.
         12    1    3    3    0    0 -0.12951580927E+02 -0.60892506750E+01  0.34728832063E+01  0.14726959634E+02  0.00000000000E+00 0. -1.
</event>
<event>
 7    1  0.5601662E-013  0.5052887E+02  0.7816164E-02  0.1300439E+00
        -11   -1    0    0    0    0  0.00000000000E+00  0.00000000000E+00  0.45593999997E+02  0.45594000000E+02  0.51100000000E-03 0. -1.
         11   -1    0    0    0    0 -0.00000000000E+00 -0.00000000000E+00 -0.45593999997E+02  0.45594000000E+02  0.51100000000E-03 0.  1.
    9900012    2    1    2    0    0  0.11680010947E+02  0.26389275429E+01  0.38855862737E+02  0.50528872325E+02  0.30000037918E+02 0.  0.
        -12    1    1    2    0    0 -0.11680010947E+02 -0.26389275429E+01 -0.38855862737E+02  0.40659127675E+02  0.00000000000E+00 0.  1.
         11    1    3    3    0    0  0.17013661953E+01 -0.19712672399E+01  0.10416595159E+02  0.10737131667E+02  0.51100000000E-03 0. -1.
        -11    1    3    3    0    0  0.32698772722E+01 -0.29678182851E+01  0.29303119006E+02  0.29633980942E+02  0.51100000000E-03 0.  1.
        -12    1    3    3    0    0  0.67087674791E+01  0.75780130679E+01 -0.86385142830E+00  0.10157759715E+02  0.00000000000E+00 0.  1.
</event>
<event>
 7    1  0.5601662E-013  0.5052886E+02  0.7816164E-02  0.1300439E+00
        -11   -1    0    0    0    0  0.00000000000E+00  0.00000000000E+00  0.45593999997E+02  0.45594000000E+02  0.51100000000E-03 0. -1.
         11   -1    0    0    0    0 -0.00000000000E+00 -0.00000000000E+00 -0.45593999997E+02  0.45594000000E+02  0.51100000000E-03 0.  1.
    9900012    2    1    2    0    0 -0.60670415479E-01  0.20478552042E+02  0.35125356983E+02  0.50528862308E+02  0.30000007472E+02 0.  0.
        -12    1    1    2    0    0  0.60670415479E-01 -0.20478552042E+02 -0.35125356983E+02  0.40659137692E+02  0.00000000000E+00 0.  1.
         11    1    3    3    0    0 -0.43581207261E+00  0.41214336754E+00  0.68346967603E+01  0.68609674525E+01  0.51100000000E-03 0.  1.
        -11    1    3    3    0    0 -0.10803465739E+02  0.14125252077E+02  0.24835174779E+02  0.30545433780E+02  0.51100000000E-03 0. -1.
         12    1    3    3    0    0  0.11178607397E+02  0.59411565979E+01  0.34554854437E+01  0.13122461076E+02  0.00000000000E+00 0. -1.
</event>
<event>
 7    1  0.5601662E-013  0.5052886E+02  0.7816164E-02  0.1300439E+00
        -11   -1    0    0    0    0  0.00000000000E+00  0.00000000000E+00  0.45593999997E+02  0.45594000000E+02  0.51100000000E-03 0. -1.
         11   -1    0    0    0    0 -0.00000000000E+00 -0.00000000000E+00 -0.45593999997E+02  0.45594000000E+02  0.51100000000E-03 0.  1.
    9900012    2    1    2    0    0 -0.31180231806E+02 -0.10837404095E+02  0.23738351883E+02  0.50528861629E+02  0.30000005406E+02 0.  0.
        -12    1    1    2    0    0  0.31180231806E+02  0.10837404095E+02 -0.23738351883E+02  0.40659138371E+02  0.00000000000E+00 0.  1.
         11    1    3    3    0    0  0.48716161603E+00 -0.26898221960E+01  0.60477016985E-01  0.27342508329E+01  0.51100000000E-03 0. -1.
        -11    1    3    3    0    0 -0.88006424143E+01  0.61024641797E+01 -0.16257741690E+01  0.10832105884E+02  0.51100000000E-03 0.  1.
         12    1    3    3    0    0 -0.22866751008E+02 -0.14250046078E+02  0.25303649035E+02  0.36962504912E+02  0.00000000000E+00 0. -1.
</event>
<event>
 7    1  0.5601662E-013  0.5052887E+02  0.7816164E-02  0.1300439E+00
        -11   -1    0    0    0    0  0.00000000000E+00  0.00000000000E+00  0.45593999997E+02  0.45594000000E+02  0.51100000000E-03 0.  1.
         11   -1    0    0    0    0 -0.00000000000E+00 -0.00000000000E+00 -0.45593999997E+02  0.45594000000E+02  0.51100000000E-03 0. -1.
    9900012    2    1    2    0    0  0.40915348468E+01  0.36375462289E+02 -0.17698873044E+02  0.50528867924E+02  0.30000024543E+02 0.  0.
        -12    1    1    2    0    0 -0.40915348468E+01 -0.36375462289E+02  0.17698873044E+02  0.40659132076E+02  0.00000000000E+00 0.  1.
         11    1    3    3    0    0 -0.28708533744E+01 -0.28293227455E+01 -0.16824802730E+01  0.43677919393E+01  0.51100000000E-03 0. -1.
        -11    1    3    3    0    0  0.10161486971E+02  0.11630223871E+02 -0.71599144166E+01  0.17022993258E+02  0.51100000000E-03 0.  1.
         12    1    3    3    0    0 -0.31990987500E+01  0.27574561163E+02 -0.88564783542E+01  0.29138082727E+02  0.00000000000E+00 0. -1.
</event>
<event>
 7    1  0.5601662E-013  0.5052890E+02  0.7816164E-02  0.1300439E+00
        -11   -1    0    0    0    0  0.00000000000E+00  0.00000000000E+00  0.45593999997E+02  0.45594000000E+02  0.51100000000E-03 0. -1.
         11   -1    0    0    0    0 -0.00000000000E+00 -0.00000000000E+00 -0.45593999997E+02  0.45594000000E+02  0.51100000000E-03 0.  1.
    9900012    2    1    2    0    0 -0.19307644215E+01 -0.12525236523E+02  0.38633570015E+02  0.50528903437E+02  0.30000132487E+02 0.  0.
        -12    1    1    2    0    0  0.19307644215E+01  0.12525236523E+02 -0.38633570015E+02  0.40659096563E+02  0.00000000000E+00 0.  1.
         11    1    3    3    0    0  0.39617184072E+00 -0.47126925132E+01  0.85532920518E+01  0.97737008363E+01  0.51100000000E-03 0. -1.
        -11    1    3    3    0    0 -0.57984053167E+01 -0.55565031695E+01  0.34071081296E+02  0.35004782711E+02  0.51100000000E-03 0.  1.
        -12    1    3    3    0    0  0.34714690545E+01 -0.22560408407E+01 -0.39908033330E+01  0.57504198902E+01  0.00000000000E+00 0.  1.
</event>
<event>
 7    1  0.5601662E-013  0.5052886E+02  0.7816164E-02  0.1300439E+00
        -11   -1    0    0    0    0  0.00000000000E+00  0.00000000000E+00  0.45593999997E+02  0.45594000000E+02  0.51100000000E-03 0. -1.
         11   -1    0    0    0    0 -0.00000000000E+00 -0.00000000000E+00 -0.45593999997E+02  0.45594000000E+02  0.51100000000E-03 0.  1.
    9900012    2    1    2    0    0  0.57522370391E+01  0.24030205741E+02  0.32289732021E+02  0.50528858187E+02  0.29999994946E+02 0.  0.
        -12    1    1    2    0    0 -0.57522370391E+01 -0.24030205741E+02 -0.32289732021E+02  0.40659141813E+02  0.00000000000E+00 0.  1.
         11    1    3    3    0    0  0.80871311924E+01 -0.38311262476E+00  0.14112436010E+02  0.16269889877E+02  0.51100000000E-03 0. -1.
        -11    1    3    3    0    0 -0.46906448691E+00 -0.22450276655E+01  0.10885473122E+01  0.25387213758E+01  0.51100000000E-03 0.  1.
         12    1    3    3    0    0 -0.18658296664E+01  0.26658346032E+02  0.17088748699E+02  0.31720246934E+02  0.00000000000E+00 0. -1.
</event>
<event>
 7    1  0.5601662E-013  0.5052878E+02  0.7816164E-02  0.1300439E+00
        -11   -1    0    0    0    0  0.00000000000E+00  0.00000000000E+00  0.45593999997E+02  0.45594000000E+02  0.51100000000E-03 0. -1.
         11   -1    0    0    0    0 -0.00000000000E+00 -0.00000000000E+00 -0.45593999997E+02  0.45594000000E+02  0.51100000000E-03 0.  1.
    9900012    2    1    2    0    0  0.76062796831E+01  0.12687796784E+02  0.37872639266E+02  0.50528776166E+02  0.29999745632E+02 0.  0.
        -12    1    1    2    0    0 -0.76062796831E+01 -0.12687796784E+02 -0.37872639266E+02  0.40659223834E+02  0.00000000000E+00 0.  1.
         11    1    3    3    0    0 -0.81703800585E+00  0.30187979930E+01  0.44311990752E+01  0.54236719970E+01  0.51100000000E-03 0. -1.
        -11    1    3    3    0    0 -0.33908356786E+01 -0.78520511723E+01  0.58992685205E+01  0.10390083905E+02  0.51100000000E-03 0.  1.
         12    1    3    3    0    0  0.11814153368E+02  0.17521049963E+02  0.27542171670E+02  0.34715020264E+02  0.00000000000E+00 0. -1.
</event>
<event>
 7    1  0.5601662E-013  0.5052886E+02  0.7816164E-02  0.1300439E+00
        -11   -1    0    0    0    0  0.00000000000E+00  0.00000000000E+00  0.45593999997E+02  0.45594000000E+02  0.51100000000E-03 0. -1.
         11   -1    0    0    0    0 -0.00000000000E+00 -0.00000000000E+00 -0.45593999997E+02  0.45594000000E+02  0.51100000000E-03 0.  1.
    9900012    2    1    2    0    0 -0.20051927630E+01  0.25573981082E+02  0.31545458586E+02  0.50528864941E+02  0.30000015474E+02 0.  0.
        -12    1    1    2    0    0  0.20051927630E+01 -0.25573981082E+02 -0.31545458586E+02  0.40659135059E+02  0.00000000000E+00 0.  1.
         11    1    3    3    0    0  0.55754664898E+01  0.10578806345E+02  0.91473997051E+01  0.15055626586E+02  0.51100000000E-03 0. -1.
        -11    1    3    3    0    0 -0.71786036073E+01  0.15761673474E+02  0.49627044700E+01  0.18016412971E+02  0.51100000000E-03 0.  1.
        -12    1    3    3    0    0 -0.40205564551E+00 -0.76649873676E+00  0.17435354410E+02  0.17456825384E+02  0.00000000000E+00 0.  1.
</event>
<event>
 7    1  0.5601662E-013  0.5052886E+02  0.7816164E-02  0.1300439E+00
        -11   -1    0    0    0    0  0.00000000000E+00  0.00000000000E+00  0.45593999997E+02  0.45594000000E+02  0.51100000000E-03 0. -1.
         11   -1    0    0    0    0 -0.00000000000E+00 -0.00000000000E+00 -0.45593999997E+02  0.45594000000E+02  0.51100000000E-03 0.  1.
    9900012    2    1    2    0    0 -0.38921321803E+00  0.25524026987E+02  0.31647083973E+02  0.50528863701E+02  0.30000011706E+02 0.  0.
        -12    1    1    2    0    0  0.38921321803E+00 -0.25524026987E+02 -0.31647083973E+02  0.40659136299E+02  0.00000000000E+00 0.  1.
         11    1    3    3    0    0  0.98481403550E+01  0.18180992861E+02  0.25899494715E+02  0.33140884065E+02  0.51100000000E-03 0. -1.
        -11    1    3    3    0    0 -0.90186223629E+00  0.57694261317E+00  0.57597276421E+01  0.58583855322E+01  0.51100000000E-03 0.  1.
         12    1    3    3    0    0 -0.93354913368E+01  0.67660915122E+01 -0.12138383702E-01  0.11529594103E+02  0.00000000000E+00 0. -1.
</event>
<event>
 7    1  0.5601662E-013  0.5052889E+02  0.7816164E-02  0.1300439E+00
        -11   -1    0    0    0    0  0.00000000000E+00  0.00000000000E+00  0.45593999997E+02  0.45594000000E+02  0.51100000000E-03 0. -1.
         11   -1    0    0    0    0 -0.00000000000E+00 -0.00000000000E+00 -0.45593999997E+02  0.45594000000E+02  0.51100000000E-03 0.  1.
    9900012    2    1    2    0    0  0.24052641502E+02 -0.20773345106E+02  0.25359459616E+02  0.50528885128E+02  0.30000076836E+02 0.  0.
        -12    1    1    2    0    0 -0.24052641502E+02  0.20773345106E+02 -0.25359459616E+02  0.40659114872E+02  0.00000000000E+00 0.  1.
         11    1    3    3    0    0  0.18753955064E+02 -0.99485383736E+01  0.13882091265E+02  0.25365265708E+02  0.51100000000E-03 0. -1.
        -11    1    3    3    0    0  0.27355146092E+01 -0.59710244354E+01  0.16477764769E+02  0.17738458361E+02  0.51100000000E-03 0.  1.
        -12    1    3    3    0    0  0.25631718296E+01 -0.48537822968E+01 -0.50003964178E+01  0.74251610587E+01  0.00000000000E+00 0.  1.
</event>
<event>
 7    1  0.5601662E-013  0.5052887E+02  0.7816164E-02  0.1300439E+00
        -11   -1    0    0    0    0  0.00000000000E+00  0.00000000000E+00  0.45593999997E+02  0.45594000000E+02  0.51100000000E-03 0.  1.
         11   -1    0    0    0    0 -0.00000000000E+00 -0.00000000000E+00 -0.45593999997E+02  0.45594000000E+02  0.51100000000E-03 0. -1.
    9900012    2    1    2    0    0 -0.11329333171E+02  0.55653674139E+01 -0.38650197014E+02  0.50528870229E+02  0.30000031547E+02 0.  0.
        -12    1    1    2    0    0  0.11329333171E+02 -0.55653674139E+01  0.38650197014E+02  0.40659129771E+02  0.00000000000E+00 0.  1.
         11    1    3    3    0    0  0.86539740063E+00  0.20536600693E+01  0.37141947421E+01  0.43314749433E+01  0.51100000000E-03 0.  1.
        -11    1    3    3    0    0 -0.57173837844E+00 -0.33421418717E+01 -0.28064801873E+01  0.44014916070E+01  0.51100000000E-03 0. -1.
         12    1    3    3    0    0 -0.11622992193E+02  0.68538492163E+01 -0.39557911569E+02  0.41795903678E+02  0.00000000000E+00 0. -1.
</event>
<event>
 7    1  0.5601662E-013  0.5052888E+02  0.7816164E-02  0.1300439E+00
        -11   -1    0    0    0    0  0.00000000000E+00  0.00000000000E+00  0.45593999997E+02  0.45594000000E+02  0.51100000000E-03 0.  1.
         11   -1    0    0    0    0 -0.00000000000E+00 -0.00000000000E+00 -0.45593999997E+02  0.45594000000E+02  0.51100000000E-03 0. -1.
    9900012    2    1    2    0    0  0.39026223825E+02  0.11390852634E+02  0.60504523136E+00  0.50528883563E+02  0.30000072077E+02 0.  0.
        -12    1    1    2    0    0 -0.39026223825E+02 -0.11390852634E+02 -0.60504523136E+00  0.40659116437E+02  0.00000000000E+00 0.  1.
         11    1    3    3    0    0  0.81130937850E+01  0.73179250964E+00 -0.91622569556E+01  0.12259884332E+02  0.51100000000E-03 0.  1.
        -11    1    3    3    0    0  0.22419806282E+02  0.93092784329E+01 -0.12318073827E+01  0.24306948150E+02  0.51100000000E-03 0. -1.
        -12    1    3    3    0    0  0.84933237574E+01  0.13497816914E+01  0.10999109570E+02  0.13962051081E+02  0.00000000000E+00 0.  1.
</event>
<event>
 7    1  0.5601662E-013  0.5052891E+02  0.7816164E-02  0.1300439E+00
        -11   -1    0    0    0    0  0.00000000000E+00  0.00000000000E+00  0.45593999997E+02  0.45594000000E+02  0.51100000000E-03 0.  1.
         11   -1    0    0    0    0 -0.00000000000E+00 -0.00000000000E+00 -0.45593999997E+02  0.45594000000E+02  0.51100000000E-03 0. -1.
    9900012    2    1    2    0    0 -0.33413390141E+02  0.19528456621E+02 -0.12463793838E+02  0.50528912264E+02  0.30000159316E+02 0.  0.
        -12    1    1    2    0    0  0.33413390141E+02 -0.19528456621E+02  0.12463793838E+02  0.40659087736E+02  0.00000000000E+00 0.  1.
         11    1    3    3    0    0 -0.34752927200E+01 -0.14314322865E+01  0.67916842909E+00  0.38194146013E+01  0.51100000000E-03 0. -1.
        -11    1    3    3    0    0  0.19059235497E+01 -0.32758535553E+01 -0.42899269545E+01  0.57242671696E+01  0.51100000000E-03 0.  1.
        -12    1    3    3    0    0 -0.31844020971E+02  0.24235742463E+02 -0.88530353126E+01  0.40985230493E+02  0.00000000000E+00 0.  1.
</event>
<event>
 7    1  0.5601662E-013  0.5052887E+02  0.7816164E-02  0.1300439E+00
        -11   -1    0    0    0    0  0.00000000000E+00  0.00000000000E+00  0.45593999997E+02  0.45594000000E+02  0.51100000000E-03 0.  1.
         11   -1    0    0    0    0 -0.00000000000E+00 -0.00000000000E+00 -0.45593999997E+02  0.45594000000E+02  0.51100000000E-03 0. -1.
    9900012    2    1    2    0    0 -0.22677777116E+02  0.33527751953E+02 -0.38436200347E+01  0.50528866451E+02  0.30000020065E+02 0.  0.
        -12    1    1    2    0    0  0.22677777116E+02 -0.33527751953E+02  0.38436200347E+01  0.40659133549E+02  0.00000000000E+00 0.  1.
         11    1    3    3    0    0 -0.20069146533E+02  0.92849281537E+01 -0.30192500944E+01  0.22318073501E+02  0.51100000000E-03 0. -1.
        -11    1    3    3    0    0 -0.49002131060E+01  0.26690284610E+01 -0.31225880831E+01  0.63942441310E+01  0.51100000000E-03 0.  1.
         12    1    3    3    0    0  0.22915825231E+01  0.21573795339E+02  0.22982181427E+01  0.21816548820E+02  0.00000000000E+00 0. -1.
</event>
<event>
 7    1  0.5601662E-013  0.5052886E+02  0.7816164E-02  0.1300439E+00
        -11   -1    0    0    0    0  0.00000000000E+00  0.00000000000E+00  0.45593999997E+02  0.45594000000E+02  0.51100000000E-03 0.  1.
         11   -1    0    0    0    0 -0.00000000000E+00 -0.00000000000E+00 -0.45593999997E+02  0.45594000000E+02  0.51100000000E-03 0. -1.
    9900012    2    1    2    0    0 -0.74458948794E+01 -0.19922155739E+02 -0.34653019891E+02  0.50528862929E+02  0.30000009359E+02 0.  0.
        -12    1    1    2    0    0  0.74458948794E+01  0.19922155739E+02  0.34653019891E+02  0.40659137071E+02  0.00000000000E+00 0.  1.
         11    1    3    3    0    0 -0.28611816765E+01 -0.11916628051E+02 -0.64585210234E+01  0.13852973643E+02  0.51100000000E-03 0. -1.
        -11    1    3    3    0    0  0.42020157534E+01  0.36980472258E+01 -0.85050109392E+00  0.56617878844E+01  0.51100000000E-03 0.  1.
         12    1    3    3    0    0 -0.87867289562E+01 -0.11703574913E+02 -0.27343997773E+02  0.31014101401E+02  0.00000000000E+00 0. -1.
</event>
<event>
 7    1  0.5601662E-013  0.5052885E+02  0.7816164E-02  0.1300439E+00
        -11   -1    0    0    0    0  0.00000000000E+00  0.00000000000E+00  0.45593999997E+02  0.45594000000E+02  0.51100000000E-03 0.  1.
         11   -1    0    0    0    0 -0.00000000000E+00 -0.00000000000E+00 -0.45593999997E+02  0.45594000000E+02  0.51100000000E-03 0. -1.
    9900012    2    1    2    0    0  0.15584085392E+02 -0.34039683579E+02 -0.15861994524E+02  0.50528847943E+02  0.29999963809E+02 0.  0.
        -12    1    1    2    0    0 -0.15584085392E+02  0.34039683579E+02  0.15861994524E+02  0.40659152057E+02  0.00000000000E+00 0.  1.
         11    1    3    3    0    0  0.32218445186E+01 -0.65236330212E+01  0.13222240934E+01  0.73950217520E+01  0.51100000000E-03 0. -1.
        -11    1    3    3    0    0 -0.67056375262E+01 -0.87353054454E+01  0.55276154627E+00  0.11026181635E+02  0.51100000000E-03 0.  1.
        -12    1    3    3    0    0  0.19067878400E+02 -0.18780745112E+02 -0.17736980164E+02  0.32107644557E+02  0.00000000000E+00 0.  1.
</event>
<event>
 7    1  0.5601662E-013  0.5052885E+02  0.7816164E-02  0.1300439E+00
        -11   -1    0    0    0    0  0.00000000000E+00  0.00000000000E+00  0.45593999997E+02  0.45594000000E+02  0.51100000000E-03 0.  1.
         11   -1    0    0    0    0 -0.00000000000E+00 -0.00000000000E+00 -0.45593999997E+02  0.45594000000E+02  0.51100000000E-03 0. -1.
    9900012    2    1    2    0    0 -0.35370683690E+02  0.16554803671E+02 -0.11314568466E+02  0.50528852826E+02  0.29999978651E+02 0.  0.
        -12    1    1    2    0    0  0.35370683690E+02 -0.16554803671E+02  0.11314568466E+02  0.40659147174E+02  0.00000000000E+00 0.  1.
         11    1    3    3    0    0  0.21373897469E+01 -0.27836186600E+00 -0.42783955793E+01  0.47906773271E+01  0.51100000000E-03 0. -1.
        -11    1    3    3    0    0 -0.59264641750E+01 -0.41852630446E+01 -0.97187287739E+00  0.73201052944E+01  0.51100000000E-03 0.  1.
        -12    1    3    3    0    0 -0.31581609262E+02  0.21018428582E+02 -0.60643000091E+01  0.38418070205E+02  0.00000000000E+00 0.  1.
</event>
<event>
 7    1  0.5601662E-013  0.5052887E+02  0.7816164E-02  0.1300439E+00
        -11   -1    0    0    0    0  0.00000000000E+00  0.00000000000E+00  0.45593999997E+02  0.45594000000E+02  0.51100000000E-03 0. -1.
         11   -1    0    0    0    0 -0.00000000000E+00 -0.00000000000E+00 -0.45593999997E+02  0.45594000000E+02  0.51100000000E-03 0.  1.
    9900012    2    1    2    0    0  0.79608241124E+01  0.39842698806E+02  0.15328460069E+01  0.50528868362E+02  0.30000025873E+02 0.  0.
        -12    1    1    2    0    0 -0.79608241124E+01 -0.39842698806E+02 -0.15328460069E+01  0.40659131638E+02  0.00000000000E+00 0.  1.
         11    1    3    3    0    0  0.86184580516E+00 -0.37315408696E+01 -0.99769850397E+00  0.39575975060E+01  0.51100000000E-03 0. -1.
        -11    1    3    3    0    0  0.19986326692E+01  0.65935626629E+01 -0.49689200455E+01  0.84946905662E+01  0.51100000000E-03 0.  1.
         12    1    3    3    0    0  0.51003456381E+01  0.36980677013E+02  0.74994645564E+01  0.38076580290E+02  0.00000000000E+00 0. -1.
</event>
<event>
 7    1  0.5601662E-013  0.5052885E+02  0.7816164E-02  0.1300439E+00
        -11   -1    0    0    0    0  0.00000000000E+00  0.00000000000E+00  0.45593999997E+02  0.45594000000E+02  0.51100000000E-03 0.  1.
         11   -1    0    0    0    0 -0.00000000000E+00 -0.00000000000E+00 -0.45593999997E+02  0.45594000000E+02  0.51100000000E-03 0. -1.
    9900012    2    1    2    0    0  0.23285116541E+02 -0.32284517106E+02 -0.82873102233E+01  0.50528853332E+02  0.29999980187E+02 0.  0.
        -12    1    1    2    0    0 -0.23285116541E+02  0.32284517106E+02  0.82873102233E+01  0.40659146668E+02  0.00000000000E+00 0.  1.
         11    1    3    3    0    0  0.92137362933E+01 -0.12021886621E+02  0.79501770245E+01  0.17106256440E+02  0.51100000000E-03 0. -1.
        -11    1    3    3    0    0 -0.34738439419E+01 -0.28539801203E+01 -0.23959201694E+01  0.50944310751E+01  0.51100000000E-03 0.  1.
         12    1    3    3    0    0  0.17545224189E+02 -0.17408650364E+02 -0.13841567078E+02  0.28328165817E+02  0.00000000000E+00 0. -1.
</event>
<event>
 7    1  0.5601662E-013  0.5052886E+02  0.7816164E-02  0.1300439E+00
        -11   -1    0    0    0    0  0.00000000000E+00  0.00000000000E+00  0.45593999997E+02  0.45594000000E+02  0.51100000000E-03 0.  1.
         11   -1    0    0    0    0 -0.00000000000E+00 -0.00000000000E+00 -0.45593999997E+02  0.45594000000E+02  0.51100000000E-03 0. -1.
    9900012    2    1    2    0    0  0.52781393206E+01 -0.37950750564E+02 -0.13603208982E+02  0.50528861819E+02  0.30000005984E+02 0.  0.
        -12    1    1    2    0    0 -0.52781393206E+01  0.37950750564E+02  0.13603208982E+02  0.40659138181E+02  0.00000000000E+00 0.  1.
         11    1    3    3    0    0  0.39014108819E+01 -0.19076886526E+02 -0.10934729927E+02  0.22331970921E+02  0.51100000000E-03 0. -1.
        -11    1    3    3    0    0 -0.18810997329E+01  0.98891615747E+00 -0.72489996421E+01  0.75541040133E+01  0.51100000000E-03 0.  1.
        -12    1    3    3    0    0  0.32578281716E+01 -0.19862780196E+02  0.45805205872E+01  0.20642786884E+02  0.00000000000E+00 0.  1.
</event>
<event>
 7    1  0.5601662E-013  0.5052887E+02  0.7816164E-02  0.1300439E+00
        -11   -1    0    0    0    0  0.00000000000E+00  0.00000000000E+00  0.45593999997E+02  0.45594000000E+02  0.51100000000E-03 0.  1.
         11   -1    0    0    0    0 -0.00000000000E+00 -0.00000000000E+00 -0.45593999997E+02  0.45594000000E+02  0.51100000000E-03 0. -1.
    9900012    2    1    2    0    0 -0.24025041657E+02  0.13846751961E+02 -0.29735999287E+02  0.50528870397E+02  0.30000032058E+02 0.  0.
        -12    1    1    2    0    0  0.24025041657E+02 -0.13846751961E+02  0.29735999287E+02  0.40659129603E+02  0.00000000000E+00 0.  1.
         11    1    3    3    0    0 -0.12498874158E+02 -0.32027618098E+01 -0.11597202867E+02  0.17348621070E+02  0.51100000000E-03 0. -1.
        -11    1    3    3    0    0  0.45665403254E+01  0.34371571280E+01 -0.57607395001E+00  0.57444931128E+01  0.51100000000E-03 0.  1.
         12    1    3    3    0    0 -0.16092707824E+02  0.13612356642E+02 -0.17562722470E+02  0.27435756214E+02  0.00000000000E+00 0. -1.
</event>
<event>
 7    1  0.5601662E-013  0.5052886E+02  0.7816164E-02  0.1300439E+00
        -11   -1    0    0    0    0  0.00000000000E+00  0.00000000000E+00  0.45593999997E+02  0.45594000000E+02  0.51100000000E-03 0. -1.
         11   -1    0    0    0    0 -0.00000000000E+00 -0.00000000000E+00 -0.45593999997E+02  0.45594000000E+02  0.51100000000E-03 0.  1.
    9900012    2    1    2    0    0  0.29378989489E+02  0.23156701878E+02  0.15931355214E+02  0.50528856573E+02  0.29999990040E+02 0.  0.
        -12    1    1    2    0    0 -0.29378989489E+02 -0.23156701878E+02 -0.15931355214E+02  0.40659143427E+02  0.00000000000E+00 0.  1.
         11    1    3    3    0    0  0.10403440346E+02  0.14357351093E+02  0.44565119264E+01  0.18281837988E+02  0.51100000000E-03 0. -1.
        -11    1    3    3    0    0 -0.14410471803E+01  0.95395381802E+01  0.27505837140E+01  0.10032203980E+02  0.51100000000E-03 0.  1.
         12    1    3    3    0    0  0.20416596324E+02 -0.74018739504E+00  0.87242595734E+01  0.22214814605E+02  0.00000000000E+00 0. -1.
</event>
<event>
 7    1  0.5601662E-013  0.5052885E+02  0.7816164E-02  0.1300439E+00
        -11   -1    0    0    0    0  0.00000000000E+00  0.00000000000E+00  0.45593999997E+02  0.45594000000E+02  0.51100000000E-03 0.  1.
         11   -1    0    0    0    0 -0.00000000000E+00 -0.00000000000E+00 -0.45593999997E+02  0.45594000000E+02  0.51100000000E-03 0. -1.
    9900012    2    1    2    0    0  0.17800743034E+02 -0.34716982439E+02 -0.11446894684E+02  0.50528847031E+02  0.29999961035E+02 0.  0.
        -12    1    1    2    0    0 -0.17800743034E+02  0.34716982439E+02  0.11446894684E+02  0.40659152969E+02  0.00000000000E+00 0.  1.
         11    1    3    3    0    0 -0.58635075163E+01 -0.13527010271E+02 -0.34649707646E+01  0.15144858862E+02  0.51100000000E-03 0. -1.
        -11    1    3    3    0    0  0.74837103675E+01 -0.48949484596E+01  0.36301906235E+01  0.96511515122E+01  0.51100000000E-03 0.  1.
        -12    1    3    3    0    0  0.16180540183E+02 -0.16295023708E+02 -0.11612114543E+02  0.25732836657E+02  0.00000000000E+00 0.  1.
</event>
<event>
 7    1  0.5601662E-013  0.5052886E+02  0.7816164E-02  0.1300439E+00
        -11   -1    0    0    0    0  0.00000000000E+00  0.00000000000E+00  0.45593999997E+02  0.45594000000E+02  0.51100000000E-03 0.  1.
         11   -1    0    0    0    0 -0.00000000000E+00 -0.00000000000E+00 -0.45593999997E+02  0.45594000000E+02  0.51100000000E-03 0. -1.
    9900012    2    1    2    0    0 -0.37162307832E+02  0.13295794886E+02 -0.97647441424E+01  0.50528861873E+02  0.30000006149E+02 0.  0.
        -12    1    1    2    0    0  0.37162307832E+02 -0.13295794886E+02  0.97647441424E+01  0.40659138127E+02  0.00000000000E+00 0.  1.
         11    1    3    3    0    0 -0.65528895110E+01 -0.11979495835E+01 -0.11067842808E+01  0.67528079977E+01  0.51100000000E-03 0. -1.
        -11    1    3    3    0    0 -0.32582447503E+02  0.50695126800E+01 -0.88647865666E+01  0.34145282034E+02  0.51100000000E-03 0.  1.
        -12    1    3    3    0    0  0.19730291813E+01  0.94242317893E+01  0.20682670505E+00  0.96307718410E+01  0.00000000000E+00 0.  1.
</event>
<event>
 7    1  0.5601662E-013  0.5052888E+02  0.7816164E-02  0.1300439E+00
        -11   -1    0    0    0    0  0.00000000000E+00  0.00000000000E+00  0.45593999997E+02  0.45594000000E+02  0.51100000000E-03 0.  1.
         11   -1    0    0    0    0 -0.00000000000E+00 -0.00000000000E+00 -0.45593999997E+02  0.45594000000E+02  0.51100000000E-03 0. -1.
    9900012    2    1    2    0    0 -0.24331508428E+02 -0.30771286257E+02  0.10689692346E+02  0.50528881924E+02  0.30000067095E+02 0.  0.
        -12    1    1    2    0    0  0.24331508428E+02  0.30771286257E+02 -0.10689692346E+02  0.40659118076E+02  0.00000000000E+00 0.  1.
         11    1    3    3    0    0 -0.15663653073E+02 -0.29263084459E+02 -0.67438625338E+00  0.33198387562E+02  0.51100000000E-03 0. -1.
        -11    1    3    3    0    0 -0.37577698936E+01 -0.28054802991E+01 -0.20688426922E+00  0.46940766551E+01  0.51100000000E-03 0.  1.
        -12    1    3    3    0    0 -0.49100854613E+01  0.12972785005E+01  0.11570962869E+02  0.12636417707E+02  0.00000000000E+00 0.  1.
</event>
<event>
 7    1  0.5601662E-013  0.5052886E+02  0.7816164E-02  0.1300439E+00
        -11   -1    0    0    0    0  0.00000000000E+00  0.00000000000E+00  0.45593999997E+02  0.45594000000E+02  0.51100000000E-03 0.  1.
         11   -1    0    0    0    0 -0.00000000000E+00 -0.00000000000E+00 -0.45593999997E+02  0.45594000000E+02  0.51100000000E-03 0. -1.
    9900012    2    1    2    0    0 -0.17101692888E+02 -0.25786052397E+00 -0.36886734288E+02  0.50528861321E+02  0.30000004470E+02 0.  0.
        -12    1    1    2    0    0  0.17101692888E+02  0.25786052397E+00  0.36886734288E+02  0.40659138679E+02  0.00000000000E+00 0.  1.
         11    1    3    3    0    0 -0.28820936756E+01 -0.96557958375E+01 -0.13045893599E+02  0.16484422867E+02  0.51100000000E-03 0. -1.
        -11    1    3    3    0    0  0.76017581410E+00  0.91959826246E+01 -0.10566729815E+02  0.14028533171E+02  0.51100000000E-03 0.  1.
         12    1    3    3    0    0 -0.14979775027E+02  0.20195268889E+00 -0.13274110874E+02  0.20015905282E+02  0.00000000000E+00 0. -1.
</event>
<event>
 7    1  0.5601662E-013  0.5052886E+02  0.7816164E-02  0.1300439E+00
        -11   -1    0    0    0    0  0.00000000000E+00  0.00000000000E+00  0.45593999997E+02  0.45594000000E+02  0.51100000000E-03 0.  1.
         11   -1    0    0    0    0 -0.00000000000E+00 -0.00000000000E+00 -0.45593999997E+02  0.45594000000E+02  0.51100000000E-03 0. -1.
    9900012    2    1    2    0    0  0.96845728392E+01 -0.13657411370E+02 -0.37051991737E+02  0.50528856772E+02  0.29999990643E+02 0.  0.
        -12    1    1    2    0    0 -0.96845728392E+01  0.13657411370E+02  0.37051991737E+02  0.40659143228E+02  0.00000000000E+00 0.  1.
         11    1    3    3    0    0  0.19180063324E+01  0.21585654142E+01 -0.11234909966E+02  0.11600058411E+02  0.51100000000E-03 0. -1.
        -11    1    3    3    0    0  0.12046088401E+02 -0.14280511643E+01 -0.18763782789E+02  0.22343390985E+02  0.51100000000E-03 0.  1.
        -12    1    3    3    0    0 -0.42795218944E+01 -0.14387925620E+02 -0.70532989818E+01  0.16585407375E+02  0.00000000000E+00 0.  1.
</event>
<event>
 7    1  0.5601662E-013  0.5052883E+02  0.7816164E-02  0.1300439E+00
        -11   -1    0    0    0    0  0.00000000000E+00  0.00000000000E+00  0.45593999997E+02  0.45594000000E+02  0.51100000000E-03 0.  1.
         11   -1    0    0    0    0 -0.00000000000E+00 -0.00000000000E+00 -0.45593999997E+02  0.45594000000E+02  0.51100000000E-03 0. -1.
    9900012    2    1    2    0    0 -0.18677791594E+02  0.17569158850E+02 -0.31553647941E+02  0.50528832031E+02  0.29999915443E+02 0.  0.
        -12    1    1    2    0    0  0.18677791594E+02 -0.17569158850E+02  0.31553647941E+02  0.40659167969E+02  0.00000000000E+00 0.  1.
         11    1    3    3    0    0 -0.18083629224E+02 -0.26408278768E+01 -0.95659562292E+01  0.20627630418E+02  0.51100000000E-03 0.  1.
        -11    1    3    3    0    0  0.63045870729E-01  0.23526149818E+00 -0.49882593081E+00  0.55511289366E+00  0.51100000000E-03 0. -1.
        -12    1    3    3    0    0 -0.65720824019E+00  0.19974725229E+02 -0.21488865781E+02  0.29346088720E+02  0.00000000000E+00 0.  1.
</event>
<event>
 7    1  0.5601662E-013  0.5052886E+02  0.7816164E-02  0.1300439E+00
        -11   -1    0    0    0    0  0.00000000000E+00  0.00000000000E+00  0.45593999997E+02  0.45594000000E+02  0.51100000000E-03 0.  1.
         11   -1    0    0    0    0 -0.00000000000E+00 -0.00000000000E+00 -0.45593999997E+02  0.45594000000E+02  0.51100000000E-03 0. -1.
    9900012    2    1    2    0    0  0.26060550921E+01  0.31585259652E+02 -0.25470477943E+02  0.50528863301E+02  0.30000010490E+02 0.  0.
        -12    1    1    2    0    0 -0.26060550921E+01 -0.31585259652E+02  0.25470477943E+02  0.40659136699E+02  0.00000000000E+00 0.  1.
         11    1    3    3    0    0  0.10719664157E+01 -0.77380820489E+00  0.14628945053E+01  0.19717889667E+01  0.51100000000E-03 0. -1.
        -11    1    3    3    0    0 -0.46366156960E+01 -0.90850162549E+00  0.82034900757E+00  0.47954721427E+01  0.51100000000E-03 0.  1.
         12    1    3    3    0    0  0.61707043723E+01  0.33267569483E+02 -0.27753721456E+02  0.43761602192E+02  0.00000000000E+00 0. -1.
</event>
<event>
 7    1  0.5601662E-013  0.5052885E+02  0.7816164E-02  0.1300439E+00
        -11   -1    0    0    0    0  0.00000000000E+00  0.00000000000E+00  0.45593999997E+02  0.45594000000E+02  0.51100000000E-03 0.  1.
         11   -1    0    0    0    0 -0.00000000000E+00 -0.00000000000E+00 -0.45593999997E+02  0.45594000000E+02  0.51100000000E-03 0. -1.
    9900012    2    1    2    0    0 -0.68484774531E+01 -0.57810010735E+01 -0.39659109826E+02  0.50528848398E+02  0.29999965190E+02 0.  0.
        -12    1    1    2    0    0  0.68484774531E+01  0.57810010735E+01  0.39659109826E+02  0.40659151602E+02  0.00000000000E+00 0.  1.
         11    1    3    3    0    0 -0.12087145811E+02 -0.14598334023E+02 -0.17324888682E+02  0.25678049346E+02  0.51100000000E-03 0.  1.
        -11    1    3    3    0    0  0.40420412386E+01  0.33569661146E+01 -0.12045804043E+02  0.13141868747E+02  0.51100000000E-03 0. -1.
        -12    1    3    3    0    0  0.11966271193E+01  0.54603668350E+01 -0.10288417101E+02  0.11708930305E+02  0.00000000000E+00 0.  1.
</event>
<event>
 7    1  0.6712617E-013  0.5052887E+02  0.7816164E-02  0.1300439E+00
        -11   -1    0    0    0    0  0.00000000000E+00  0.00000000000E+00  0.45593999997E+02  0.45594000000E+02  0.51100000000E-03 0.  1.
         11   -1    0    0    0    0 -0.00000000000E+00 -0.00000000000E+00 -0.45593999997E+02  0.45594000000E+02  0.51100000000E-03 0. -1.
    9900012    2    1    2    0    0  0.36595357554E+02  0.17494793812E+02  0.28065436268E+01  0.50528871970E+02  0.30000036840E+02 0.  0.
        -12    1    1    2    0    0 -0.36595357554E+02 -0.17494793812E+02 -0.28065436268E+01  0.40659128030E+02  0.00000000000E+00 0.  1.
         11    1    3    3    0    0  0.13334211247E+02  0.51397176170E+00 -0.62040156519E+01  0.14715813502E+02  0.51100000000E-03 0. -1.
        -11    1    3    3    0    0 -0.54916571664E+00  0.91108254226E+01 -0.11204604839E+00  0.91280489396E+01  0.51100000000E-03 0.  1.
         12    1    3    3    0    0  0.23810312024E+02  0.78699966277E+01  0.91226053271E+01  0.26685009529E+02  0.00000000000E+00 0. -1.
</event>
<event>
 7    1  0.5601662E-013  0.5052886E+02  0.7816164E-02  0.1300439E+00
        -11   -1    0    0    0    0  0.00000000000E+00  0.00000000000E+00  0.45593999997E+02  0.45594000000E+02  0.51100000000E-03 0.  1.
         11   -1    0    0    0    0 -0.00000000000E+00 -0.00000000000E+00 -0.45593999997E+02  0.45594000000E+02  0.51100000000E-03 0. -1.
    9900012    2    1    2    0    0 -0.44849277130E+01 -0.10389375293E+02 -0.39052683554E+02  0.50528858490E+02  0.29999995865E+02 0.  0.
        -12    1    1    2    0    0  0.44849277130E+01  0.10389375293E+02  0.39052683554E+02  0.40659141510E+02  0.00000000000E+00 0.  1.
         11    1    3    3    0    0 -0.31861188351E+01 -0.42818622102E+00 -0.89800862452E+01  0.95381678483E+01  0.51100000000E-03 0. -1.
        -11    1    3    3    0    0 -0.50913079579E+01  0.60035144214E+01 -0.20579358371E+02  0.22033465305E+02  0.51100000000E-03 0.  1.
        -12    1    3    3    0    0  0.37924990800E+01 -0.15964703494E+02 -0.94932389386E+01  0.18957225337E+02  0.00000000000E+00 0.  1.
</event>
<event>
 7    1  0.5601662E-013  0.5052887E+02  0.7816164E-02  0.1300439E+00
        -11   -1    0    0    0    0  0.00000000000E+00  0.00000000000E+00  0.45593999997E+02  0.45594000000E+02  0.51100000000E-03 0.  1.
         11   -1    0    0    0    0 -0.00000000000E+00 -0.00000000000E+00 -0.45593999997E+02  0.45594000000E+02  0.51100000000E-03 0. -1.
    9900012    2    1    2    0    0  0.38088690023E+02 -0.84971082294E+01 -0.11411210072E+02  0.50528869768E+02  0.30000030146E+02 0.  0.
        -12    1    1    2    0    0 -0.38088690023E+02  0.84971082294E+01  0.11411210072E+02  0.40659130232E+02  0.00000000000E+00 0.  1.
         11    1    3    3    0    0 -0.18443980736E+01 -0.66702332297E+00 -0.30515927034E+01  0.36275256934E+01  0.51100000000E-03 0. -1.
        -11    1    3    3    0    0  0.20346680173E+02  0.69069013666E+01 -0.58041014886E+01  0.22257139864E+02  0.51100000000E-03 0.  1.
         12    1    3    3    0    0  0.19586407923E+02 -0.14736986273E+02 -0.25555158802E+01  0.24644204211E+02  0.00000000000E+00 0. -1.
</event>
<event>
 7    1  0.5601662E-013  0.5052886E+02  0.7816164E-02  0.1300439E+00
        -11   -1    0    0    0    0  0.00000000000E+00  0.00000000000E+00  0.45593999997E+02  0.45594000000E+02  0.51100000000E-03 0.  1.
         11   -1    0    0    0    0 -0.00000000000E+00 -0.00000000000E+00 -0.45593999997E+02  0.45594000000E+02  0.51100000000E-03 0. -1.
    9900012    2    1    2    0    0 -0.25582047354E+02 -0.28134407093E+02 -0.14393748028E+02  0.50528855990E+02  0.29999988268E+02 0.  0.
        -12    1    1    2    0    0  0.25582047354E+02  0.28134407093E+02  0.14393748028E+02  0.40659144010E+02  0.00000000000E+00 0.  1.
         11    1    3    3    0    0 -0.25442996815E+02 -0.30349514540E+02 -0.98794344709E+01  0.40817181988E+02  0.51100000000E-03 0. -1.
        -11    1    3    3    0    0 -0.31327890531E+01 -0.17488838532E+01 -0.14162205042E+01  0.38572843765E+01  0.51100000000E-03 0.  1.
        -12    1    3    3    0    0  0.29937385136E+01  0.39639913005E+01 -0.30980930533E+01  0.58543896254E+01  0.00000000000E+00 0.  1.
</event>
<event>
 7    1  0.5601662E-013  0.5052886E+02  0.7816164E-02  0.1300439E+00
        -11   -1    0    0    0    0  0.00000000000E+00  0.00000000000E+00  0.45593999997E+02  0.45594000000E+02  0.51100000000E-03 0.  1.
         11   -1    0    0    0    0 -0.00000000000E+00 -0.00000000000E+00 -0.45593999997E+02  0.45594000000E+02  0.51100000000E-03 0. -1.
    9900012    2    1    2    0    0  0.28020964665E+02  0.29347482094E+02  0.25915466372E+01  0.50528864741E+02  0.30000014868E+02 0.  0.
        -12    1    1    2    0    0 -0.28020964665E+02 -0.29347482094E+02 -0.25915466372E+01  0.40659135259E+02  0.00000000000E+00 0.  1.
         11    1    3    3    0    0  0.72979541391E+01  0.11098053201E+02  0.20686125749E+01  0.13442696073E+02  0.51100000000E-03 0. -1.
        -11    1    3    3    0    0  0.72512138279E+01  0.18403329901E+02  0.83884518334E+01  0.21485548116E+02  0.51100000000E-03 0.  1.
         12    1    3    3    0    0  0.13471796698E+02 -0.15390100855E+00 -0.78655177711E+01  0.15600620552E+02  0.00000000000E+00 0. -1.
</event>
<event>
 7    1  0.5601662E-013  0.5052887E+02  0.7816164E-02  0.1300439E+00
        -11   -1    0    0    0    0  0.00000000000E+00  0.00000000000E+00  0.45593999997E+02  0.45594000000E+02  0.51100000000E-03 0. -1.
         11   -1    0    0    0    0 -0.00000000000E+00 -0.00000000000E+00 -0.45593999997E+02  0.45594000000E+02  0.51100000000E-03 0.  1.
    9900012    2    1    2    0    0  0.12029106075E+02 -0.13981367796E+02  0.36235161163E+02  0.50528868886E+02  0.30000027467E+02 0.  0.
        -12    1    1    2    0    0 -0.12029106075E+02  0.13981367796E+02 -0.36235161163E+02  0.40659131114E+02  0.00000000000E+00 0.  1.
         11    1    3    3    0    0 -0.20343198500E+01 -0.10764514862E+02  0.13323503555E+02  0.17249028515E+02  0.51100000000E-03 0.  1.
        -11    1    3    3    0    0  0.53669188493E+01  0.10281716660E+01  0.22961154288E+02  0.23602448208E+02  0.51100000000E-03 0. -1.
         12    1    3    3    0    0  0.86965070754E+01 -0.42450246000E+01 -0.49496679843E-01  0.96773921637E+01  0.00000000000E+00 0. -1.
</event>
<event>
 7    1  0.5601662E-013  0.5052885E+02  0.7816164E-02  0.1300439E+00
        -11   -1    0    0    0    0  0.00000000000E+00  0.00000000000E+00  0.45593999997E+02  0.45594000000E+02  0.51100000000E-03 0.  1.
         11   -1    0    0    0    0 -0.00000000000E+00 -0.00000000000E+00 -0.45593999997E+02  0.45594000000E+02  0.51100000000E-03 0. -1.
    9900012    2    1    2    0    0 -0.32965902686E+02 -0.23494519072E+02 -0.37977641702E+01  0.50528853685E+02  0.29999981262E+02 0.  0.
        -12    1    1    2    0    0  0.32965902686E+02  0.23494519072E+02  0.37977641702E+01  0.40659146315E+02  0.00000000000E+00 0.  1.
         11    1    3    3    0    0 -0.12310249183E+01 -0.43625860032E+01  0.20629648691E+01  0.49803015267E+01  0.51100000000E-03 0. -1.
        -11    1    3    3    0    0 -0.82082163681E+01  0.26779265331E+00  0.85204059612E+01  0.11834012289E+02  0.51100000000E-03 0.  1.
         12    1    3    3    0    0 -0.23526661400E+02 -0.19399725723E+02 -0.14381135000E+02  0.33714539870E+02  0.00000000000E+00 0. -1.
</event>
<event>
 7    1  0.5701517E-013  0.5052886E+02  0.7816164E-02  0.1300439E+00
        -11   -1    0    0    0    0  0.00000000000E+00  0.00000000000E+00  0.45593999997E+02  0.45594000000E+02  0.51100000000E-03 0. -1.
         11   -1    0    0    0    0 -0.00000000000E+00 -0.00000000000E+00 -0.45593999997E+02  0.45594000000E+02  0.51100000000E-03 0.  1.
    9900012    2    1    2    0    0  0.34849200943E+02 -0.13446841723E+02  0.16058686469E+02  0.50528858717E+02  0.29999996558E+02 0.  0.
        -12    1    1    2    0    0 -0.34849200943E+02  0.13446841723E+02 -0.16058686469E+02  0.40659141283E+02  0.00000000000E+00 0.  1.
         11    1    3    3    0    0  0.29277198300E+02 -0.11646233756E+02  0.17708458939E+02  0.36143860049E+02  0.51100000000E-03 0. -1.
        -11    1    3    3    0    0  0.86119750809E+01 -0.14915983928E+01 -0.48206239023E+01  0.99814525811E+01  0.51100000000E-03 0.  1.
        -12    1    3    3    0    0 -0.30399724374E+01 -0.30900957427E+00  0.31708514321E+01  0.44035460872E+01  0.00000000000E+00 0.  1.
</event>
<event>
 7    1  0.5601662E-013  0.5052885E+02  0.7816164E-02  0.1300439E+00
        -11   -1    0    0    0    0  0.00000000000E+00  0.00000000000E+00  0.45593999997E+02  0.45594000000E+02  0.51100000000E-03 0.  1.
         11   -1    0    0    0    0 -0.00000000000E+00 -0.00000000000E+00 -0.45593999997E+02  0.45594000000E+02  0.51100000000E-03 0. -1.
    9900012    2    1    2    0    0 -0.15415820339E+02 -0.32201626635E+01 -0.37485322534E+02  0.50528851340E+02  0.29999974133E+02 0.  0.
        -12    1    1    2    0    0  0.15415820339E+02  0.32201626635E+01  0.37485322534E+02  0.40659148660E+02  0.00000000000E+00 0.  1.
         11    1    3    3    0    0 -0.17532908971E+02 -0.14578572711E+00 -0.24315057736E+02  0.29977427899E+02  0.51100000000E-03 0. -1.
        -11    1    3    3    0    0 -0.21733462052E+01  0.82556127090E+00  0.27542143734E+01  0.36042588996E+01  0.51100000000E-03 0.  1.
        -12    1    3    3    0    0  0.42904348376E+01 -0.38999382073E+01 -0.15924479171E+02  0.16947164541E+02  0.00000000000E+00 0.  1.
</event>
<event>
 7    1  0.5601662E-013  0.5052886E+02  0.7816164E-02  0.1300439E+00
        -11   -1    0    0    0    0  0.00000000000E+00  0.00000000000E+00  0.45593999997E+02  0.45594000000E+02  0.51100000000E-03 0.  1.
         11   -1    0    0    0    0 -0.00000000000E+00 -0.00000000000E+00 -0.45593999997E+02  0.45594000000E+02  0.51100000000E-03 0. -1.
    9900012    2    1    2    0    0  0.29646569352E+02 -0.27821813323E+02  0.43965028336E+00  0.50528860028E+02  0.30000000540E+02 0.  0.
        -12    1    1    2    0    0 -0.29646569352E+02  0.27821813323E+02 -0.43965028336E+00  0.40659139972E+02  0.00000000000E+00 0.  1.
         11    1    3    3    0    0  0.17124411754E+02 -0.26306145476E+02  0.12761684702E+01  0.31414763630E+02  0.51100000000E-03 0.  1.
        -11    1    3    3    0    0  0.29271655905E+01 -0.61666868100E+01 -0.41002804566E+01  0.79629532644E+01  0.51100000000E-03 0. -1.
         12    1    3    3    0    0  0.95949920078E+01  0.46510189629E+01  0.32637622697E+01  0.11151143133E+02  0.00000000000E+00 0. -1.
</event>
<event>
 7    1  0.5601662E-013  0.5052886E+02  0.7816164E-02  0.1300439E+00
        -11   -1    0    0    0    0  0.00000000000E+00  0.00000000000E+00  0.45593999997E+02  0.45594000000E+02  0.51100000000E-03 0. -1.
         11   -1    0    0    0    0 -0.00000000000E+00 -0.00000000000E+00 -0.45593999997E+02  0.45594000000E+02  0.51100000000E-03 0.  1.
    9900012    2    1    2    0    0 -0.23066828662E+02  0.32445219873E+02  0.82700974066E+01  0.50528863411E+02  0.30000010823E+02 0.  0.
        -12    1    1    2    0    0  0.23066828662E+02 -0.32445219873E+02 -0.82700974066E+01  0.40659136589E+02  0.00000000000E+00 0.  1.
         11    1    3    3    0    0 -0.11978438816E+02  0.14217714952E+02 -0.59847573219E+01  0.19530584614E+02  0.51100000000E-03 0. -1.
        -11    1    3    3    0    0 -0.13075909103E+01  0.67956511878E+01 -0.34762809298E+01  0.77443655917E+01  0.51100000000E-03 0.  1.
        -12    1    3    3    0    0 -0.97807989357E+01  0.11431853733E+02  0.17731135658E+02  0.23253913205E+02  0.00000000000E+00 0.  1.
</event>
<event>
 7    1  0.5601662E-013  0.5052886E+02  0.7816164E-02  0.1300439E+00
        -11   -1    0    0    0    0  0.00000000000E+00  0.00000000000E+00  0.45593999997E+02  0.45594000000E+02  0.51100000000E-03 0. -1.
         11   -1    0    0    0    0 -0.00000000000E+00 -0.00000000000E+00 -0.45593999997E+02  0.45594000000E+02  0.51100000000E-03 0.  1.
    9900012    2    1    2    0    0  0.45269797995E+01 -0.36999605624E+02 -0.16238870338E+02  0.50528864836E+02  0.30000015155E+02 0.  0.
        -12    1    1    2    0    0 -0.45269797995E+01  0.36999605624E+02  0.16238870338E+02  0.40659135164E+02  0.00000000000E+00 0.  1.
         11    1    3    3    0    0  0.63445830613E+01 -0.63401454374E+01 -0.59894742888E+00  0.89894336125E+01  0.51100000000E-03 0.  1.
        -11    1    3    3    0    0  0.92124920713E+01 -0.23619269138E+02 -0.11261388040E+02  0.27740921860E+02  0.51100000000E-03 0. -1.
        -12    1    3    3    0    0 -0.11030095333E+02 -0.70401910485E+01 -0.43785348698E+01  0.13798509364E+02  0.00000000000E+00 0.  1.
</event>
<event>
 7    1  0.5601662E-013  0.5052886E+02  0.7816164E-02  0.1300439E+00
        -11   -1    0    0    0    0  0.00000000000E+00  0.00000000000E+00  0.45593999997E+02  0.45594000000E+02  0.51100000000E-03 0.  1.
         11   -1    0    0    0    0 -0.00000000000E+00 -0.00000000000E+00 -0.45593999997E+02  0.45594000000E+02  0.51100000000E-03 0. -1.
    9900012    2    1    2    0    0 -0.18970491486E+01 -0.38211594503E+02 -0.13763743974E+02  0.50528863289E+02  0.30000010452E+02 0.  0.
        -12    1    1    2    0    0  0.18970491486E+01  0.38211594503E+02  0.13763743974E+02  0.40659136711E+02  0.00000000000E+00 0.  1.
         11    1    3    3    0    0  0.16994095849E+01 -0.13851211471E+01  0.60642934207E+00  0.22747110448E+01  0.51100000000E-03 0. -1.
        -11    1    3    3    0    0 -0.41760341971E+01 -0.16053678786E+02  0.73948592730E+01  0.18161602575E+02  0.51100000000E-03 0.  1.
         12    1    3    3    0    0  0.57957546369E+00 -0.20772794570E+02 -0.21765032589E+02  0.30092549669E+02  0.00000000000E+00 0. -1.
</event>
<event>
 7    1  0.5601662E-013  0.5052887E+02  0.7816164E-02  0.1300439E+00
        -11   -1    0    0    0    0  0.00000000000E+00  0.00000000000E+00  0.45593999997E+02  0.45594000000E+02  0.51100000000E-03 0.  1.
         11   -1    0    0    0    0 -0.00000000000E+00 -0.00000000000E+00 -0.45593999997E+02  0.45594000000E+02  0.51100000000E-03 0. -1.
    9900012    2    1    2    0    0  0.55243131209E+01 -0.40173019809E+02  0.29622674633E+01  0.50528873293E+02  0.30000040863E+02 0.  0.
        -12    1    1    2    0    0 -0.55243131209E+01  0.40173019809E+02 -0.29622674633E+01  0.40659126707E+02  0.00000000000E+00 0.  1.
         11    1    3    3    0    0 -0.28282556654E+01 -0.41931458963E+01  0.27887307728E-01  0.50578928992E+01  0.51100000000E-03 0. -1.
        -11    1    3    3    0    0 -0.37866093491E+01 -0.24429478819E+02  0.10779508713E+02  0.26969161168E+02  0.51100000000E-03 0.  1.
        -12    1    3    3    0    0  0.12139178135E+02 -0.11550395093E+02 -0.78451285570E+01  0.18501819227E+02  0.00000000000E+00 0.  1.
</event>
<event>
 7    1  0.5601662E-013  0.5052886E+02  0.7816164E-02  0.1300439E+00
        -11   -1    0    0    0    0  0.00000000000E+00  0.00000000000E+00  0.45593999997E+02  0.45594000000E+02  0.51100000000E-03 0.  1.
         11   -1    0    0    0    0 -0.00000000000E+00 -0.00000000000E+00 -0.45593999997E+02  0.45594000000E+02  0.51100000000E-03 0. -1.
    9900012    2    1    2    0    0 -0.79113867992E+01 -0.32067112753E+02 -0.23712354129E+02  0.50528862039E+02  0.30000006654E+02 0.  0.
        -12    1    1    2    0    0  0.79113867992E+01  0.32067112753E+02  0.23712354129E+02  0.40659137961E+02  0.00000000000E+00 0.  1.
         11    1    3    3    0    0 -0.17882319307E+02 -0.11422363256E+02 -0.14708921375E+02  0.25818599777E+02  0.51100000000E-03 0.  1.
        -11    1    3    3    0    0  0.37870165442E+01 -0.96000935185E+01 -0.47087720451E+01  0.11343536675E+02  0.51100000000E-03 0. -1.
        -12    1    3    3    0    0  0.61839159632E+01 -0.11044655978E+02 -0.42946607089E+01  0.13366725587E+02  0.00000000000E+00 0.  1.
</event>
<event>
 7    1  0.5601662E-013  0.5052886E+02  0.7816164E-02  0.1300439E+00
        -11   -1    0    0    0    0  0.00000000000E+00  0.00000000000E+00  0.45593999997E+02  0.45594000000E+02  0.51100000000E-03 0.  1.
         11   -1    0    0    0    0 -0.00000000000E+00 -0.00000000000E+00 -0.45593999997E+02  0.45594000000E+02  0.51100000000E-03 0. -1.
    9900012    2    1    2    0    0 -0.24858599040E+02 -0.16801518816E+02 -0.27439469825E+02  0.50528862220E+02  0.30000007203E+02 0.  0.
        -12    1    1    2    0    0  0.24858599040E+02  0.16801518816E+02  0.27439469825E+02  0.40659137780E+02  0.00000000000E+00 0.  1.
         11    1    3    3    0    0 -0.28033157563E+01  0.12039744559E+01  0.11128693168E+01  0.32475547874E+01  0.51100000000E-03 0. -1.
        -11    1    3    3    0    0 -0.91876962748E+01 -0.85220106258E+01  0.21049269994E+01  0.12707051030E+02  0.51100000000E-03 0.  1.
         12    1    3    3    0    0 -0.12867587009E+02 -0.94834826459E+01 -0.30657266141E+02  0.34574256402E+02  0.00000000000E+00 0. -1.
</event>
<event>
 7    1  0.5601662E-013  0.5052885E+02  0.7816164E-02  0.1300439E+00
        -11   -1    0    0    0    0  0.00000000000E+00  0.00000000000E+00  0.45593999997E+02  0.45594000000E+02  0.51100000000E-03 0.  1.
         11   -1    0    0    0    0 -0.00000000000E+00 -0.00000000000E+00 -0.45593999997E+02  0.45594000000E+02  0.51100000000E-03 0. -1.
    9900012    2    1    2    0    0  0.10043886974E+02 -0.84027901916E+01 -0.38492592012E+02  0.50528853570E+02  0.29999980913E+02 0.  0.
        -12    1    1    2    0    0 -0.10043886974E+02  0.84027901916E+01  0.38492592012E+02  0.40659146430E+02  0.00000000000E+00 0.  1.
         11    1    3    3    0    0  0.30340999037E+01  0.68118562940E+01 -0.87594321556E+01  0.11503686381E+02  0.51100000000E-03 0. -1.
        -11    1    3    3    0    0  0.27911165090E+01  0.38640482790E+01 -0.21665626779E+01  0.52359521167E+01  0.51100000000E-03 0.  1.
         12    1    3    3    0    0  0.42186705608E+01 -0.19078694765E+02 -0.27566597179E+02  0.33789215073E+02  0.00000000000E+00 0. -1.
</event>
<event>
 7    1  0.5601662E-013  0.5052891E+02  0.7816164E-02  0.1300439E+00
        -11   -1    0    0    0    0  0.00000000000E+00  0.00000000000E+00  0.45593999997E+02  0.45594000000E+02  0.51100000000E-03 0. -1.
         11   -1    0    0    0    0 -0.00000000000E+00 -0.00000000000E+00 -0.45593999997E+02  0.45594000000E+02  0.51100000000E-03 0.  1.
    9900012    2    1    2    0    0 -0.16854722231E+02 -0.26952148704E+02  0.25350779067E+02  0.50528905316E+02  0.30000138199E+02 0.  0.
        -12    1    1    2    0    0  0.16854722231E+02  0.26952148704E+02 -0.25350779067E+02  0.40659094684E+02  0.00000000000E+00 0.  1.
         11    1    3    3    0    0  0.49360272893E+01 -0.89543197673E+01  0.31883510618E+01  0.10710265667E+02  0.51100000000E-03 0. -1.
        -11    1    3    3    0    0 -0.16991610169E+02 -0.19775115972E+02  0.12565362884E+02  0.28942328388E+02  0.51100000000E-03 0.  1.
         12    1    3    3    0    0 -0.47991393509E+01  0.17772870359E+01  0.95970651210E+01  0.10876311261E+02  0.00000000000E+00 0. -1.
</event>
<event>
 7    1  0.5601662E-013  0.5052886E+02  0.7816164E-02  0.1300439E+00
        -11   -1    0    0    0    0  0.00000000000E+00  0.00000000000E+00  0.45593999997E+02  0.45594000000E+02  0.51100000000E-03 0.  1.
         11   -1    0    0    0    0 -0.00000000000E+00 -0.00000000000E+00 -0.45593999997E+02  0.45594000000E+02  0.51100000000E-03 0. -1.
    9900012    2    1    2    0    0  0.25982236051E+02  0.16199361416E+02  0.26752007575E+02  0.50528858226E+02  0.29999995063E+02 0.  0.
        -12    1    1    2    0    0 -0.25982236051E+02 -0.16199361416E+02 -0.26752007575E+02  0.40659141774E+02  0.00000000000E+00 0.  1.
         11    1    3    3    0    0  0.18504509763E+01  0.10205438541E+02  0.36652312079E+01  0.11000412024E+02  0.51100000000E-03 0. -1.
        -11    1    3    3    0    0 -0.32532029597E+01 -0.12947769666E+01  0.11298124311E+01  0.36791647532E+01  0.51100000000E-03 0.  1.
         12    1    3    3    0    0  0.27384988035E+02  0.72886998409E+01  0.21956963936E+02  0.35849281448E+02  0.00000000000E+00 0. -1.
</event>
<event>
 7    1  0.5601662E-013  0.5052886E+02  0.7816164E-02  0.1300439E+00
        -11   -1    0    0    0    0  0.00000000000E+00  0.00000000000E+00  0.45593999997E+02  0.45594000000E+02  0.51100000000E-03 0.  1.
         11   -1    0    0    0    0 -0.00000000000E+00 -0.00000000000E+00 -0.45593999997E+02  0.45594000000E+02  0.51100000000E-03 0. -1.
    9900012    2    1    2    0    0  0.13923434216E+01  0.85918098439E+01 -0.39716593655E+02  0.50528860459E+02  0.30000001852E+02 0.  0.
        -12    1    1    2    0    0 -0.13923434216E+01 -0.85918098439E+01  0.39716593655E+02  0.40659139541E+02  0.00000000000E+00 0.  1.
         11    1    3    3    0    0  0.47326847121E+01  0.88007086925E+01 -0.45879861973E+01  0.10995471599E+02  0.51100000000E-03 0. -1.
        -11    1    3    3    0    0 -0.45447966585E+01  0.83174427965E+01 -0.17002177509E+02  0.19465586856E+02  0.51100000000E-03 0.  1.
        -12    1    3    3    0    0  0.12044553680E+01 -0.85263416452E+01 -0.18126429949E+02  0.20067802004E+02  0.00000000000E+00 0.  1.
</event>
<event>
 7    1  0.5601662E-013  0.5052885E+02  0.7816164E-02  0.1300439E+00
        -11   -1    0    0    0    0  0.00000000000E+00  0.00000000000E+00  0.45593999997E+02  0.45594000000E+02  0.51100000000E-03 0.  1.
         11   -1    0    0    0    0 -0.00000000000E+00 -0.00000000000E+00 -0.45593999997E+02  0.45594000000E+02  0.51100000000E-03 0. -1.
    9900012    2    1    2    0    0  0.13325492265E+02  0.69063895331E+01 -0.37787555185E+02  0.50528852354E+02  0.29999977214E+02 0.  0.
        -12    1    1    2    0    0 -0.13325492265E+02 -0.69063895331E+01  0.37787555185E+02  0.40659147646E+02  0.00000000000E+00 0.  1.
         11    1    3    3    0    0  0.72101019867E+01  0.63921810327E+00  0.36372802214E+00  0.72475146621E+01  0.51100000000E-03 0. -1.
        -11    1    3    3    0    0  0.60090084236E+01  0.19485179108E+01 -0.16549448408E+01  0.65302179880E+01  0.51100000000E-03 0.  1.
         12    1    3    3    0    0  0.10638185449E+00  0.43186535190E+01 -0.36496338366E+02  0.36751119703E+02  0.00000000000E+00 0. -1.
</event>
<event>
 7    1  0.5601662E-013  0.5052886E+02  0.7816164E-02  0.1300439E+00
        -11   -1    0    0    0    0  0.00000000000E+00  0.00000000000E+00  0.45593999997E+02  0.45594000000E+02  0.51100000000E-03 0.  1.
         11   -1    0    0    0    0 -0.00000000000E+00 -0.00000000000E+00 -0.45593999997E+02  0.45594000000E+02  0.51100000000E-03 0. -1.
    9900012    2    1    2    0    0  0.15552545750E+02 -0.35524360771E+02 -0.12218984563E+02  0.50528862389E+02  0.30000007718E+02 0.  0.
        -12    1    1    2    0    0 -0.15552545750E+02  0.35524360771E+02  0.12218984563E+02  0.40659137611E+02  0.00000000000E+00 0.  1.
         11    1    3    3    0    0 -0.44988737249E+01 -0.64816426887E+01  0.11492946789E+01  0.79732324221E+01  0.51100000000E-03 0. -1.
        -11    1    3    3    0    0 -0.15753728098E+01  0.22873393932E+00 -0.49511771547E+01  0.52007955337E+01  0.51100000000E-03 0.  1.
         12    1    3    3    0    0  0.21626792285E+02 -0.29271452022E+02 -0.84171020875E+01  0.37354834433E+02  0.00000000000E+00 0. -1.
</event>
<event>
 7    1  0.5601662E-013  0.5052886E+02  0.7816164E-02  0.1300439E+00
        -11   -1    0    0    0    0  0.00000000000E+00  0.00000000000E+00  0.45593999997E+02  0.45594000000E+02  0.51100000000E-03 0.  1.
         11   -1    0    0    0    0 -0.00000000000E+00 -0.00000000000E+00 -0.45593999997E+02  0.45594000000E+02  0.51100000000E-03 0. -1.
    9900012    2    1    2    0    0  0.21216545492E+02  0.19442078412E+02 -0.28723321232E+02  0.50528863288E+02  0.30000010450E+02 0.  0.
        -12    1    1    2    0    0 -0.21216545492E+02 -0.19442078412E+02  0.28723321232E+02  0.40659136712E+02  0.00000000000E+00 0.  1.
         11    1    3    3    0    0  0.17002541101E+02  0.27923335452E+01 -0.18052295006E+02  0.24955337821E+02  0.51100000000E-03 0. -1.
        -11    1    3    3    0    0 -0.38945942468E+01 -0.47365601967E+00 -0.36785728772E+01  0.53781142649E+01  0.51100000000E-03 0.  1.
        -12    1    3    3    0    0  0.81085986373E+01  0.17123400886E+02 -0.69924533486E+01  0.20195411202E+02  0.00000000000E+00 0.  1.
</event>
<event>
 7    1  0.5601662E-013  0.5052887E+02  0.7816164E-02  0.1300439E+00
        -11   -1    0    0    0    0  0.00000000000E+00  0.00000000000E+00  0.45593999997E+02  0.45594000000E+02  0.51100000000E-03 0. -1.
         11   -1    0    0    0    0 -0.00000000000E+00 -0.00000000000E+00 -0.45593999997E+02  0.45594000000E+02  0.51100000000E-03 0.  1.
    9900012    2    1    2    0    0 -0.36562427604E+02  0.18501170193E+00 -0.17785383314E+02  0.50528865709E+02  0.30000017810E+02 0.  0.
        -12    1    1    2    0    0  0.36562427604E+02 -0.18501170193E+00  0.17785383314E+02  0.40659134291E+02  0.00000000000E+00 0.  1.
         11    1    3    3    0    0 -0.19911312954E+02  0.68044230773E+00 -0.75440426977E+01  0.21303426151E+02  0.51100000000E-03 0. -1.
        -11    1    3    3    0    0 -0.14000643525E+02 -0.98596728350E+01 -0.37579588422E+01  0.17531498009E+02  0.51100000000E-03 0.  1.
         12    1    3    3    0    0 -0.26504711247E+01  0.93642422292E+01 -0.64833817744E+01  0.11693941549E+02  0.00000000000E+00 0. -1.
</event>
<event>
 7    1  0.5601662E-013  0.5052889E+02  0.7816164E-02  0.1300439E+00
        -11   -1    0    0    0    0  0.00000000000E+00  0.00000000000E+00  0.45593999997E+02  0.45594000000E+02  0.51100000000E-03 0.  1.
         11   -1    0    0    0    0 -0.00000000000E+00 -0.00000000000E+00 -0.45593999997E+02  0.45594000000E+02  0.51100000000E-03 0. -1.
    9900012    2    1    2    0    0 -0.23054313203E+02  0.33099305074E+02  0.51086203657E+01  0.50528888405E+02  0.30000086796E+02 0.  0.
        -12    1    1    2    0    0  0.23054313203E+02 -0.33099305074E+02 -0.51086203657E+01  0.40659111595E+02  0.00000000000E+00 0.  1.
         11    1    3    3    0    0 -0.16359112856E+01  0.93728553010E+01 -0.54246057276E+01  0.10952304314E+02  0.51100000000E-03 0. -1.
        -11    1    3    3    0    0  0.36443026544E+01  0.25943936038E+01 -0.14033435616E+01  0.46884105432E+01  0.51100000000E-03 0.  1.
        -12    1    3    3    0    0 -0.25062704572E+02  0.21132056169E+02  0.11936569655E+02  0.34888173548E+02  0.00000000000E+00 0.  1.
</event>
<event>
 7    1  0.5601662E-013  0.5052886E+02  0.7816164E-02  0.1300439E+00
        -11   -1    0    0    0    0  0.00000000000E+00  0.00000000000E+00  0.45593999997E+02  0.45594000000E+02  0.51100000000E-03 0. -1.
         11   -1    0    0    0    0 -0.00000000000E+00 -0.00000000000E+00 -0.45593999997E+02  0.45594000000E+02  0.51100000000E-03 0.  1.
    9900012    2    1    2    0    0 -0.39059335247E+02  0.76935609498E+01  0.82669716584E+01  0.50528863629E+02  0.30000011487E+02 0.  0.
        -12    1    1    2    0    0  0.39059335247E+02 -0.76935609498E+01 -0.82669716584E+01  0.40659136371E+02  0.00000000000E+00 0.  1.
         11    1    3    3    0    0  0.47025855352E+01 -0.33786468781E+00  0.82835918910E+00  0.47869241137E+01  0.51100000000E-03 0.  1.
        -11    1    3    3    0    0 -0.46687678788E+01 -0.52272636084E+00  0.27666123282E+01  0.54520436893E+01  0.51100000000E-03 0. -1.
        -12    1    3    3    0    0 -0.39093152903E+02  0.85541519985E+01  0.46720001411E+01  0.40289895826E+02  0.00000000000E+00 0.  1.
</event>
<event>
 7    1  0.7211199E-013  0.5052886E+02  0.7816164E-02  0.1300439E+00
        -11   -1    0    0    0    0  0.00000000000E+00  0.00000000000E+00  0.45593999997E+02  0.45594000000E+02  0.51100000000E-03 0. -1.
         11   -1    0    0    0    0 -0.00000000000E+00 -0.00000000000E+00 -0.45593999997E+02  0.45594000000E+02  0.51100000000E-03 0.  1.
    9900012    2    1    2    0    0  0.19178078298E+02 -0.11836879681E+02  0.33841618948E+02  0.50528861042E+02  0.30000003625E+02 0.  0.
        -12    1    1    2    0    0 -0.19178078298E+02  0.11836879681E+02 -0.33841618948E+02  0.40659138958E+02  0.00000000000E+00 0.  1.
         11    1    3    3    0    0  0.17328388066E+02 -0.71236769430E+01  0.18825812622E+02  0.26559951568E+02  0.51100000000E-03 0. -1.
        -11    1    3    3    0    0  0.67334579449E+01 -0.92356229651E+01  0.64598914395E+01  0.13128837920E+02  0.51100000000E-03 0.  1.
        -12    1    3    3    0    0 -0.48837677127E+01  0.45224202271E+01  0.85559148860E+01  0.10840071555E+02  0.00000000000E+00 0.  1.
</event>
<event>
 7    1  0.5601662E-013  0.5052886E+02  0.7816164E-02  0.1300439E+00
        -11   -1    0    0    0    0  0.00000000000E+00  0.00000000000E+00  0.45593999997E+02  0.45594000000E+02  0.51100000000E-03 0. -1.
         11   -1    0    0    0    0 -0.00000000000E+00 -0.00000000000E+00 -0.45593999997E+02  0.45594000000E+02  0.51100000000E-03 0.  1.
    9900012    2    1    2    0    0 -0.10064738430E+02  0.39346464166E+02  0.19293090567E+01  0.50528862829E+02  0.30000009056E+02 0.  0.
        -12    1    1    2    0    0  0.10064738430E+02 -0.39346464166E+02 -0.19293090567E+01  0.40659137171E+02  0.00000000000E+00 0.  1.
         11    1    3    3    0    0 -0.14962864034E+01  0.76687775842E+01  0.56395253344E+00  0.78337133824E+01  0.51100000000E-03 0. -1.
        -11    1    3    3    0    0 -0.35625445701E+01  0.13783475118E+02 -0.12945147269E+02  0.19241952817E+02  0.51100000000E-03 0.  1.
        -12    1    3    3    0    0 -0.50059074567E+01  0.17894211464E+02  0.14310503792E+02  0.23453196630E+02  0.00000000000E+00 0.  1.
</event>
<event>
 7    1  0.5601662E-013  0.5052883E+02  0.7816164E-02  0.1300439E+00
        -11   -1    0    0    0    0  0.00000000000E+00  0.00000000000E+00  0.45593999997E+02  0.45594000000E+02  0.51100000000E-03 0.  1.
         11   -1    0    0    0    0 -0.00000000000E+00 -0.00000000000E+00 -0.45593999997E+02  0.45594000000E+02  0.51100000000E-03 0. -1.
    9900012    2    1    2    0    0  0.77639426249E+01 -0.26029216830E+02 -0.30255066971E+02  0.50528831154E+02  0.29999912774E+02 0.  0.
        -12    1    1    2    0    0 -0.77639426249E+01  0.26029216830E+02  0.30255066971E+02  0.40659168846E+02  0.00000000000E+00 0.  1.
         11    1    3    3    0    0 -0.26912606351E+01 -0.12951147498E+02 -0.22952145877E+02  0.26491057094E+02  0.51100000000E-03 0.  1.
        -11    1    3    3    0    0  0.10547361500E+02 -0.14733772464E+02 -0.10130710330E+02  0.20759628553E+02  0.51100000000E-03 0. -1.
         12    1    3    3    0    0 -0.92158239902E-01  0.16557031322E+01  0.28277892352E+01  0.32781455065E+01  0.00000000000E+00 0. -1.
</event>
<event>
 7    1  0.5601662E-013  0.5052886E+02  0.7816164E-02  0.1300439E+00
        -11   -1    0    0    0    0  0.00000000000E+00  0.00000000000E+00  0.45593999997E+02  0.45594000000E+02  0.51100000000E-03 0.  1.
         11   -1    0    0    0    0 -0.00000000000E+00 -0.00000000000E+00 -0.45593999997E+02  0.45594000000E+02  0.51100000000E-03 0. -1.
    9900012    2    1    2    0    0 -0.23198188053E+02  0.19760025871E+02 -0.26917488796E+02  0.50528858907E+02  0.29999997133E+02 0.  0.
        -12    1    1    2    0    0  0.23198188053E+02 -0.19760025871E+02  0.26917488796E+02  0.40659141093E+02  0.00000000000E+00 0.  1.
         11    1    3    3    0    0 -0.97743874837E+01  0.12774785583E+02 -0.26431830267E+02  0.30941484271E+02  0.51100000000E-03 0. -1.
        -11    1    3    3    0    0  0.31942008170E+00  0.80749382860E-01 -0.38330624379E+01  0.38471960653E+01  0.51100000000E-03 0.  1.
        -12    1    3    3    0    0 -0.13743220651E+02  0.69044909048E+01  0.33474039083E+01  0.15740178571E+02  0.00000000000E+00 0.  1.
</event>
<event>
 7    1  0.5601662E-013  0.5052886E+02  0.7816164E-02  0.1300439E+00
        -11   -1    0    0    0    0  0.00000000000E+00  0.00000000000E+00  0.45593999997E+02  0.45594000000E+02  0.51100000000E-03 0.  1.
         11   -1    0    0    0    0 -0.00000000000E+00 -0.00000000000E+00 -0.45593999997E+02  0.45594000000E+02  0.51100000000E-03 0. -1.
    9900012    2    1    2    0    0 -0.39374533132E+02  0.10042354014E+02 -0.14010564312E+01  0.50528859667E+02  0.29999999445E+02 0.  0.
        -12    1    1    2    0    0  0.39374533132E+02 -0.10042354014E+02  0.14010564312E+01  0.40659140333E+02  0.00000000000E+00 0.  1.
         11    1    3    3    0    0 -0.13749199878E+02 -0.50426644359E+01 -0.61744687644E+00  0.14657769366E+02  0.51100000000E-03 0. -1.
        -11    1    3    3    0    0 -0.15760798512E+02  0.99136149932E+01  0.93303135788E+01  0.20826360308E+02  0.51100000000E-03 0.  1.
         12    1    3    3    0    0 -0.98645347422E+01  0.51714034570E+01 -0.10113923134E+02  0.15044729993E+02  0.00000000000E+00 0. -1.
</event>
<event>
 7    1  0.5601662E-013  0.5052886E+02  0.7816164E-02  0.1300439E+00
        -11   -1    0    0    0    0  0.00000000000E+00  0.00000000000E+00  0.45593999997E+02  0.45594000000E+02  0.51100000000E-03 0.  1.
         11   -1    0    0    0    0 -0.00000000000E+00 -0.00000000000E+00 -0.45593999997E+02  0.45594000000E+02  0.51100000000E-03 0. -1.
    9900012    2    1    2    0    0  0.30557067224E+01  0.13678910724E+02 -0.38166946609E+02  0.50528858892E+02  0.29999997089E+02 0.  0.
        -12    1    1    2    0    0 -0.30557067224E+01 -0.13678910724E+02  0.38166946609E+02  0.40659141108E+02  0.00000000000E+00 0.  1.
         11    1    3    3    0    0  0.28952730329E+01  0.56631822493E+01 -0.15510768849E+02  0.16764193678E+02  0.51100000000E-03 0.  1.
        -11    1    3    3    0    0  0.11024445110E+02  0.85923897926E+01 -0.14715683394E+02  0.20295785039E+02  0.51100000000E-03 0. -1.
        -12    1    3    3    0    0 -0.10864011420E+02 -0.57666131829E+00 -0.79404943662E+01  0.13468880176E+02  0.00000000000E+00 0.  1.
</event>
<event>
 7    1  0.5601662E-013  0.5052886E+02  0.7816164E-02  0.1300439E+00
        -11   -1    0    0    0    0  0.00000000000E+00  0.00000000000E+00  0.45593999997E+02  0.45594000000E+02  0.51100000000E-03 0.  1.
         11   -1    0    0    0    0 -0.00000000000E+00 -0.00000000000E+00 -0.45593999997E+02  0.45594000000E+02  0.51100000000E-03 0. -1.
    9900012    2    1    2    0    0 -0.16427733921E+02 -0.15664805443E+02 -0.33732903166E+02  0.50528864159E+02  0.30000013097E+02 0.  0.
        -12    1    1    2    0    0  0.16427733921E+02  0.15664805443E+02  0.33732903166E+02  0.40659135841E+02  0.00000000000E+00 0.  1.
         11    1    3    3    0    0 -0.10787923719E+01 -0.95902869915E+01 -0.10873089466E+02  0.14538276114E+02  0.51100000000E-03 0. -1.
        -11    1    3    3    0    0  0.52693494102E+01 -0.14971067036E+01 -0.95998368986E+01  0.11052793332E+02  0.51100000000E-03 0.  1.
         12    1    3    3    0    0 -0.20618290960E+02 -0.45774117477E+01 -0.13259976801E+02  0.24937794714E+02  0.00000000000E+00 0. -1.
</event>
<event>
 7    1  0.5601662E-013  0.5052885E+02  0.7816164E-02  0.1300439E+00
        -11   -1    0    0    0    0  0.00000000000E+00  0.00000000000E+00  0.45593999997E+02  0.45594000000E+02  0.51100000000E-03 0. -1.
         11   -1    0    0    0    0 -0.00000000000E+00 -0.00000000000E+00 -0.45593999997E+02  0.45594000000E+02  0.51100000000E-03 0.  1.
    9900012    2    1    2    0    0  0.16792712887E+02 -0.22769937675E+02  0.29201042493E+02  0.50528854036E+02  0.29999982328E+02 0.  0.
        -12    1    1    2    0    0 -0.16792712887E+02  0.22769937675E+02 -0.29201042493E+02  0.40659145964E+02  0.00000000000E+00 0.  1.
         11    1    3    3    0    0  0.15683575301E+02 -0.13272527241E+02  0.31790842351E+02  0.37852241297E+02  0.51100000000E-03 0. -1.
        -11    1    3    3    0    0 -0.13659191277E+00 -0.92890882532E+01  0.53573676683E+00  0.93055269636E+01  0.51100000000E-03 0.  1.
        -12    1    3    3    0    0  0.12457294991E+01 -0.20832218128E+00 -0.31255366245E+01  0.33710857758E+01  0.00000000000E+00 0.  1.
</event>
<event>
 7    1  0.5601662E-013  0.5052885E+02  0.7816164E-02  0.1300439E+00
        -11   -1    0    0    0    0  0.00000000000E+00  0.00000000000E+00  0.45593999997E+02  0.45594000000E+02  0.51100000000E-03 0.  1.
         11   -1    0    0    0    0 -0.00000000000E+00 -0.00000000000E+00 -0.45593999997E+02  0.45594000000E+02  0.51100000000E-03 0. -1.
    9900012    2    1    2    0    0  0.76397496006E+01  0.49360929583E+01 -0.39628721209E+02  0.50528851801E+02  0.29999975534E+02 0.  0.
        -12    1    1    2    0    0 -0.76397496006E+01 -0.49360929583E+01  0.39628721209E+02  0.40659148199E+02  0.00000000000E+00 0.  1.
         11    1    3    3    0    0 -0.77525152420E+01 -0.12994055199E+01 -0.16946081004E+02  0.18680460619E+02  0.51100000000E-03 0. -1.
        -11    1    3    3    0    0 -0.13061501014E+01 -0.25633463844E+01 -0.87527606475E+00  0.30071383780E+01  0.51100000000E-03 0.  1.
        -12    1    3    3    0    0  0.16698414944E+02  0.87988448626E+01 -0.21807364140E+02  0.28841252804E+02  0.00000000000E+00 0.  1.
</event>
<event>
 7    1  0.5601662E-013  0.5052886E+02  0.7816164E-02  0.1300439E+00
        -11   -1    0    0    0    0  0.00000000000E+00  0.00000000000E+00  0.45593999997E+02  0.45594000000E+02  0.51100000000E-03 0.  1.
         11   -1    0    0    0    0 -0.00000000000E+00 -0.00000000000E+00 -0.45593999997E+02  0.45594000000E+02  0.51100000000E-03 0. -1.
    9900012    2    1    2    0    0  0.15162598845E+02 -0.97044737935E+01 -0.36456608957E+02  0.50528861396E+02  0.30000004700E+02 0.  0.
        -12    1    1    2    0    0 -0.15162598845E+02  0.97044737935E+01  0.36456608957E+02  0.40659138604E+02  0.00000000000E+00 0.  1.
         11    1    3    3    0    0  0.40183852682E+00  0.10454410676E+01 -0.12559001990E+02  0.12608844216E+02  0.51100000000E-03 0. -1.
        -11    1    3    3    0    0 -0.46854411244E+01  0.27759031351E+01 -0.24747102059E+01  0.59819050151E+01  0.51100000000E-03 0.  1.
         12    1    3    3    0    0  0.19446201442E+02 -0.13525817996E+02 -0.21422896762E+02  0.31938112165E+02  0.00000000000E+00 0. -1.
</event>
<event>
 7    1  0.5601662E-013  0.5052885E+02  0.7816164E-02  0.1300439E+00
        -11   -1    0    0    0    0  0.00000000000E+00  0.00000000000E+00  0.45593999997E+02  0.45594000000E+02  0.51100000000E-03 0.  1.
         11   -1    0    0    0    0 -0.00000000000E+00 -0.00000000000E+00 -0.45593999997E+02  0.45594000000E+02  0.51100000000E-03 0. -1.
    9900012    2    1    2    0    0 -0.56913187911E+01  0.40162485429E+02  0.27838804211E+01  0.50528851760E+02  0.29999975409E+02 0.  0.
        -12    1    1    2    0    0  0.56913187911E+01 -0.40162485429E+02 -0.27838804211E+01  0.40659148240E+02  0.00000000000E+00 0.  1.
         11    1    3    3    0    0 -0.46577600917E+00  0.14437318263E+02 -0.10152730808E+01  0.14480465655E+02  0.51100000000E-03 0. -1.
        -11    1    3    3    0    0  0.68333416933E+01  0.22245821559E+02  0.18231233419E+01  0.23342984268E+02  0.51100000000E-03 0.  1.
         12    1    3    3    0    0 -0.12058884475E+02  0.34793456073E+01  0.19760301599E+01  0.12705401837E+02  0.00000000000E+00 0. -1.
</event>
<event>
 7    1  0.5601662E-013  0.5052886E+02  0.7816164E-02  0.1300439E+00
        -11   -1    0    0    0    0  0.00000000000E+00  0.00000000000E+00  0.45593999997E+02  0.45594000000E+02  0.51100000000E-03 0.  1.
         11   -1    0    0    0    0 -0.00000000000E+00 -0.00000000000E+00 -0.45593999997E+02  0.45594000000E+02  0.51100000000E-03 0. -1.
    9900012    2    1    2    0    0 -0.10713094194E+00 -0.24255670953E+02 -0.32631523012E+02  0.50528863948E+02  0.30000012457E+02 0.  0.
        -12    1    1    2    0    0  0.10713094194E+00  0.24255670953E+02  0.32631523012E+02  0.40659136052E+02  0.00000000000E+00 0.  1.
         11    1    3    3    0    0  0.18835682164E+01  0.12500131888E+01 -0.29213077143E+01  0.36938328631E+01  0.51100000000E-03 0. -1.
        -11    1    3    3    0    0 -0.59963393143E+01  0.50243782002E+00 -0.16144329391E+02  0.17229274526E+02  0.51100000000E-03 0.  1.
        -12    1    3    3    0    0  0.40056401560E+01 -0.26008121961E+02 -0.13565885907E+02  0.29605756559E+02  0.00000000000E+00 0.  1.
</event>
<event>
 7    1  0.5601662E-013  0.5052883E+02  0.7816164E-02  0.1300439E+00
        -11   -1    0    0    0    0  0.00000000000E+00  0.00000000000E+00  0.45593999997E+02  0.45594000000E+02  0.51100000000E-03 0. -1.
         11   -1    0    0    0    0 -0.00000000000E+00 -0.00000000000E+00 -0.45593999997E+02  0.45594000000E+02  0.51100000000E-03 0.  1.
    9900012    2    1    2    0    0 -0.33152549390E+02  0.61879706614E+01  0.22710906646E+02  0.50528833843E+02  0.29999920948E+02 0.  0.
        -12    1    1    2    0    0  0.33152549390E+02 -0.61879706614E+01 -0.22710906646E+02  0.40659166157E+02  0.00000000000E+00 0.  1.
         11    1    3    3    0    0 -0.86542730913E+01 -0.25918614338E+00  0.53227453451E+01  0.10163426512E+02  0.51100000000E-03 0. -1.
        -11    1    3    3    0    0 -0.24167563875E+02  0.13769302169E+02  0.90192646197E+01  0.29240587552E+02  0.51100000000E-03 0.  1.
        -12    1    3    3    0    0 -0.33071242332E+00 -0.73221453643E+01  0.83688966810E+01  0.11124819778E+02  0.00000000000E+00 0.  1.
</event>
<event>
 7    1  0.5601662E-013  0.5052887E+02  0.7816164E-02  0.1300439E+00
        -11   -1    0    0    0    0  0.00000000000E+00  0.00000000000E+00  0.45593999997E+02  0.45594000000E+02  0.51100000000E-03 0.  1.
         11   -1    0    0    0    0 -0.00000000000E+00 -0.00000000000E+00 -0.45593999997E+02  0.45594000000E+02  0.51100000000E-03 0. -1.
    9900012    2    1    2    0    0 -0.79180120642E+01  0.27111722824E+02 -0.29247642207E+02  0.50528868133E+02  0.30000025177E+02 0.  0.
        -12    1    1    2    0    0  0.79180120642E+01 -0.27111722824E+02  0.29247642207E+02  0.40659131867E+02  0.00000000000E+00 0.  1.
         11    1    3    3    0    0 -0.77733761247E+01  0.29376220539E+02 -0.20997009096E+02  0.36935918843E+02  0.51100000000E-03 0. -1.
        -11    1    3    3    0    0 -0.19409220321E+01 -0.11181493963E+01  0.20728066743E+01  0.30518787947E+01  0.51100000000E-03 0.  1.
        -12    1    3    3    0    0  0.17962860926E+01 -0.11463483190E+01 -0.10323439785E+02  0.10541070496E+02  0.00000000000E+00 0.  1.
</event>
<event>
 7    1  0.5601662E-013  0.5052885E+02  0.7816164E-02  0.1300439E+00
        -11   -1    0    0    0    0  0.00000000000E+00  0.00000000000E+00  0.45593999997E+02  0.45594000000E+02  0.51100000000E-03 0.  1.
         11   -1    0    0    0    0 -0.00000000000E+00 -0.00000000000E+00 -0.45593999997E+02  0.45594000000E+02  0.51100000000E-03 0. -1.
    9900012    2    1    2    0    0  0.27840310561E+02  0.19481039802E+02 -0.22328735957E+02  0.50528852771E+02  0.29999978484E+02 0.  0.
        -12    1    1    2    0    0 -0.27840310561E+02 -0.19481039802E+02  0.22328735957E+02  0.40659147229E+02  0.00000000000E+00 0.  1.
         11    1    3    3    0    0  0.10968305244E+02 -0.41630510496E+00 -0.25840044240E+01  0.11276263078E+02  0.51100000000E-03 0.  1.
        -11    1    3    3    0    0  0.80919976058E+01 -0.18954627720E+01 -0.11835401302E+02  0.14462016754E+02  0.51100000000E-03 0. -1.
         12    1    3    3    0    0  0.87800077111E+01  0.21792807679E+02 -0.79093302316E+01  0.24790572939E+02  0.00000000000E+00 0. -1.
</event>
<event>
 7    1  0.5601662E-013  0.5052886E+02  0.7816164E-02  0.1300439E+00
        -11   -1    0    0    0    0  0.00000000000E+00  0.00000000000E+00  0.45593999997E+02  0.45594000000E+02  0.51100000000E-03 0.  1.
         11   -1    0    0    0    0 -0.00000000000E+00 -0.00000000000E+00 -0.45593999997E+02  0.45594000000E+02  0.51100000000E-03 0. -1.
    9900012    2    1    2    0    0  0.15092577528E+02  0.97045611397E+01 -0.36485634094E+02  0.50528857134E+02  0.29999991744E+02 0.  0.
        -12    1    1    2    0    0 -0.15092577528E+02 -0.97045611397E+01  0.36485634094E+02  0.40659142866E+02  0.00000000000E+00 0.  1.
         11    1    3    3    0    0  0.11300455863E+01 -0.59624707217E-01 -0.20372588073E+02  0.20403992334E+02  0.51100000000E-03 0. -1.
        -11    1    3    3    0    0  0.42923836323E+01  0.79439797561E+01 -0.17970199730E+02  0.20111177246E+02  0.51100000000E-03 0.  1.
        -12    1    3    3    0    0  0.96701483089E+01  0.18202060909E+01  0.18571537085E+01  0.10013687554E+02  0.00000000000E+00 0.  1.
</event>
<event>
 7    1  0.5601662E-013  0.5052887E+02  0.7816164E-02  0.1300439E+00
        -11   -1    0    0    0    0  0.00000000000E+00  0.00000000000E+00  0.45593999997E+02  0.45594000000E+02  0.51100000000E-03 0.  1.
         11   -1    0    0    0    0 -0.00000000000E+00 -0.00000000000E+00 -0.45593999997E+02  0.45594000000E+02  0.51100000000E-03 0. -1.
    9900012    2    1    2    0    0 -0.15676572628E+02  0.35240747871E+02 -0.12864659153E+02  0.50528871935E+02  0.30000036733E+02 0.  0.
        -12    1    1    2    0    0  0.15676572628E+02 -0.35240747871E+02  0.12864659153E+02  0.40659128065E+02  0.00000000000E+00 0.  1.
         11    1    3    3    0    0  0.31666294163E+01  0.10334928109E+02 -0.83463322154E+00  0.10841351104E+02  0.51100000000E-03 0. -1.
        -11    1    3    3    0    0  0.30599573817E+01  0.54235901094E+00  0.23626412805E+01  0.39037887438E+01  0.51100000000E-03 0.  1.
         12    1    3    3    0    0 -0.21903159426E+02  0.24363460751E+02 -0.14392667212E+02  0.35783732087E+02  0.00000000000E+00 0. -1.
</event>
<event>
 7    1  0.5601662E-013  0.5052886E+02  0.7816164E-02  0.1300439E+00
        -11   -1    0    0    0    0  0.00000000000E+00  0.00000000000E+00  0.45593999997E+02  0.45594000000E+02  0.51100000000E-03 0.  1.
         11   -1    0    0    0    0 -0.00000000000E+00 -0.00000000000E+00 -0.45593999997E+02  0.45594000000E+02  0.51100000000E-03 0. -1.
    9900012    2    1    2    0    0 -0.32323559198E+02  0.13458545982E+02 -0.20669318148E+02  0.50528860168E+02  0.30000000967E+02 0.  0.
        -12    1    1    2    0    0  0.32323559198E+02 -0.13458545982E+02  0.20669318148E+02  0.40659139832E+02  0.00000000000E+00 0.  1.
         11    1    3    3    0    0 -0.44290956818E+01  0.12427870283E+02 -0.59397102158E+01  0.14468897886E+02  0.51100000000E-03 0. -1.
        -11    1    3    3    0    0  0.73822628979E+00  0.23779623191E+01  0.17056625503E+01  0.30181066652E+01  0.51100000000E-03 0.  1.
         12    1    3    3    0    0 -0.28632689806E+02 -0.13472866204E+01 -0.16435270482E+02  0.33041855617E+02  0.00000000000E+00 0. -1.
</event>
<event>
 7    1  0.5601662E-013  0.5052886E+02  0.7816164E-02  0.1300439E+00
        -11   -1    0    0    0    0  0.00000000000E+00  0.00000000000E+00  0.45593999997E+02  0.45594000000E+02  0.51100000000E-03 0. -1.
         11   -1    0    0    0    0 -0.00000000000E+00 -0.00000000000E+00 -0.45593999997E+02  0.45594000000E+02  0.51100000000E-03 0.  1.
    9900012    2    1    2    0    0  0.23975287399E+02 -0.26001812445E+02 -0.20056345585E+02  0.50528860136E+02  0.30000000869E+02 0.  0.
        -12    1    1    2    0    0 -0.23975287399E+02  0.26001812445E+02  0.20056345585E+02  0.40659139864E+02  0.00000000000E+00 0.  1.
         11    1    3    3    0    0  0.57270719076E+01 -0.10010990822E+02 -0.11076589860E+01  0.11586466181E+02  0.51100000000E-03 0. -1.
        -11    1    3    3    0    0  0.58120976652E+01 -0.90234595323E+00  0.52135209065E+01  0.78597396899E+01  0.51100000000E-03 0.  1.
        -12    1    3    3    0    0  0.12436117826E+02 -0.15088475669E+02 -0.24162207505E+02  0.31082654265E+02  0.00000000000E+00 0.  1.
</event>
<event>
 7    1  0.5601662E-013  0.5052887E+02  0.7816164E-02  0.1300439E+00
        -11   -1    0    0    0    0  0.00000000000E+00  0.00000000000E+00  0.45593999997E+02  0.45594000000E+02  0.51100000000E-03 0.  1.
         11   -1    0    0    0    0 -0.00000000000E+00 -0.00000000000E+00 -0.45593999997E+02  0.45594000000E+02  0.51100000000E-03 0. -1.
    9900012    2    1    2    0    0 -0.27684711270E+01 -0.31855692460E+02 -0.25114053097E+02  0.50528865264E+02  0.30000016457E+02 0.  0.
        -12    1    1    2    0    0  0.27684711270E+01  0.31855692460E+02  0.25114053097E+02  0.40659134736E+02  0.00000000000E+00 0.  1.
         11    1    3    3    0    0  0.69173849875E+01 -0.72148309162E+01 -0.14484722405E+02  0.17598613117E+02  0.51100000000E-03 0. -1.
        -11    1    3    3    0    0  0.33238656244E+00 -0.40022245990E+00 -0.63295581954E+01  0.63509027748E+01  0.51100000000E-03 0.  1.
        -12    1    3    3    0    0 -0.10018242677E+02 -0.24240639084E+02 -0.42997724963E+01  0.26579349373E+02  0.00000000000E+00 0.  1.
</event>
<event>
 7    1  0.5601662E-013  0.5052886E+02  0.7816164E-02  0.1300439E+00
        -11   -1    0    0    0    0  0.00000000000E+00  0.00000000000E+00  0.45593999997E+02  0.45594000000E+02  0.51100000000E-03 0. -1.
         11   -1    0    0    0    0 -0.00000000000E+00 -0.00000000000E+00 -0.45593999997E+02  0.45594000000E+02  0.51100000000E-03 0.  1.
    9900012    2    1    2    0    0 -0.13259915530E+02 -0.15216004188E+02  0.35296081918E+02  0.50528861518E+02  0.30000005071E+02 0.  0.
        -12    1    1    2    0    0  0.13259915530E+02  0.15216004188E+02 -0.35296081918E+02  0.40659138482E+02  0.00000000000E+00 0.  1.
         11    1    3    3    0    0 -0.73598922160E+01  0.18336447500E+01  0.29339361392E+01  0.81325425317E+01  0.51100000000E-03 0.  1.
        -11    1    3    3    0    0 -0.92918168604E+01 -0.20488487467E+02  0.27680493628E+02  0.35669674893E+02  0.51100000000E-03 0. -1.
         12    1    3    3    0    0  0.33917935460E+01  0.34388385295E+01  0.46816521512E+01  0.67266440931E+01  0.00000000000E+00 0. -1.
</event>
<event>
 7    1  0.5601662E-013  0.5052886E+02  0.7816164E-02  0.1300439E+00
        -11   -1    0    0    0    0  0.00000000000E+00  0.00000000000E+00  0.45593999997E+02  0.45594000000E+02  0.51100000000E-03 0.  1.
         11   -1    0    0    0    0 -0.00000000000E+00 -0.00000000000E+00 -0.45593999997E+02  0.45594000000E+02  0.51100000000E-03 0. -1.
    9900012    2    1    2    0    0 -0.17824923358E+02 -0.35994365287E+02 -0.63121865534E+01  0.50528856819E+02  0.29999990788E+02 0.  0.
        -12    1    1    2    0    0  0.17824923358E+02  0.35994365287E+02  0.63121865534E+01  0.40659143181E+02  0.00000000000E+00 0.  1.
         11    1    3    3    0    0 -0.57661992329E+01 -0.38667482634E+00  0.15530021954E+01  0.59841780634E+01  0.51100000000E-03 0. -1.
        -11    1    3    3    0    0 -0.93770747467E+01 -0.15848654275E+01  0.51289543758E-01  0.95102029477E+01  0.51100000000E-03 0.  1.
         12    1    3    3    0    0 -0.26816493780E+01 -0.34022825033E+02 -0.79164782926E+01  0.35034475808E+02  0.00000000000E+00 0. -1.
</event>
<event>
 7    1  0.5601662E-013  0.5052883E+02  0.7816164E-02  0.1300439E+00
        -11   -1    0    0    0    0  0.00000000000E+00  0.00000000000E+00  0.45593999997E+02  0.45594000000E+02  0.51100000000E-03 0.  1.
         11   -1    0    0    0    0 -0.00000000000E+00 -0.00000000000E+00 -0.45593999997E+02  0.45594000000E+02  0.51100000000E-03 0. -1.
    9900012    2    1    2    0    0 -0.34536113077E+02  0.58674680938E+01 -0.20639705417E+02  0.50528834637E+02  0.29999923363E+02 0.  0.
        -12    1    1    2    0    0  0.34536113077E+02 -0.58674680938E+01  0.20639705417E+02  0.40659165363E+02  0.00000000000E+00 0.  1.
         11    1    3    3    0    0 -0.13391395573E+02  0.72003001624E+01 -0.49712377908E+01  0.15996468462E+02  0.51100000000E-03 0. -1.
        -11    1    3    3    0    0 -0.67402234380E+01 -0.91058280423E+01 -0.14102909284E+02  0.18089742034E+02  0.51100000000E-03 0.  1.
         12    1    3    3    0    0 -0.14404494066E+02  0.77729959737E+01 -0.15655583415E+01  0.16442624140E+02  0.00000000000E+00 0. -1.
</event>
<event>
 7    1  0.5601662E-013  0.5052886E+02  0.7816164E-02  0.1300439E+00
        -11   -1    0    0    0    0  0.00000000000E+00  0.00000000000E+00  0.45593999997E+02  0.45594000000E+02  0.51100000000E-03 0.  1.
         11   -1    0    0    0    0 -0.00000000000E+00 -0.00000000000E+00 -0.45593999997E+02  0.45594000000E+02  0.51100000000E-03 0. -1.
    9900012    2    1    2    0    0  0.27544168630E+02  0.31084645939E+01 -0.29745958860E+02  0.50528857779E+02  0.29999993704E+02 0.  0.
        -12    1    1    2    0    0 -0.27544168630E+02 -0.31084645939E+01  0.29745958860E+02  0.40659142221E+02  0.00000000000E+00 0.  1.
         11    1    3    3    0    0  0.95158406062E+01  0.56092966805E+01 -0.53727215826E+01  0.12283385900E+02  0.51100000000E-03 0. -1.
        -11    1    3    3    0    0  0.31323134357E+01  0.55530823873E+01 -0.19659927529E+02  0.20667870286E+02  0.51100000000E-03 0.  1.
        -12    1    3    3    0    0  0.14896014588E+02 -0.80539144738E+01 -0.47133097487E+01  0.17577601593E+02  0.00000000000E+00 0.  1.
</event>
<event>
 7    1  0.5601662E-013  0.5052886E+02  0.7816164E-02  0.1300439E+00
        -11   -1    0    0    0    0  0.00000000000E+00  0.00000000000E+00  0.45593999997E+02  0.45594000000E+02  0.51100000000E-03 0.  1.
         11   -1    0    0    0    0 -0.00000000000E+00 -0.00000000000E+00 -0.45593999997E+02  0.45594000000E+02  0.51100000000E-03 0. -1.
    9900012    2    1    2    0    0 -0.36052660966E+02 -0.28409605711E+01 -0.18582257923E+02  0.50528859217E+02  0.29999998075E+02 0.  0.
        -12    1    1    2    0    0  0.36052660966E+02  0.28409605711E+01  0.18582257923E+02  0.40659140783E+02  0.00000000000E+00 0.  1.
         11    1    3    3    0    0 -0.86369853610E+01 -0.52276704304E+01 -0.60694068351E+01  0.11779802793E+02  0.51100000000E-03 0. -1.
        -11    1    3    3    0    0 -0.30569925072E+01 -0.90594249209E+01 -0.50828484285E+01  0.10828376217E+02  0.51100000000E-03 0.  1.
         12    1    3    3    0    0 -0.24358683098E+02  0.11446134780E+02 -0.74300026594E+01  0.27920680207E+02  0.00000000000E+00 0. -1.
</event>
<event>
 7    1  0.5601662E-013  0.5052874E+02  0.7816164E-02  0.1300439E+00
        -11   -1    0    0    0    0  0.00000000000E+00  0.00000000000E+00  0.45593999997E+02  0.45594000000E+02  0.51100000000E-03 0.  1.
         11   -1    0    0    0    0 -0.00000000000E+00 -0.00000000000E+00 -0.45593999997E+02  0.45594000000E+02  0.51100000000E-03 0. -1.
    9900012    2    1    2    0    0  0.14505020792E+02  0.34603818261E+02 -0.15663826088E+02  0.50528741348E+02  0.29999639800E+02 0.  0.
        -12    1    1    2    0    0 -0.14505020792E+02 -0.34603818261E+02  0.15663826088E+02  0.40659258652E+02  0.00000000000E+00 0.  1.
         11    1    3    3    0    0  0.98559056523E+00  0.10949710408E+02 -0.17584213211E+02  0.20738179797E+02  0.51100000000E-03 0.  1.
        -11    1    3    3    0    0  0.10982513674E+02  0.11144066175E+02 -0.33156146714E+01  0.15993721219E+02  0.51100000000E-03 0. -1.
        -12    1    3    3    0    0  0.25369165534E+01  0.12510041678E+02  0.52360017945E+01  0.13796840333E+02  0.00000000000E+00 0.  1.
</event>
<event>
 7    1  0.5601662E-013  0.5052886E+02  0.7816164E-02  0.1300439E+00
        -11   -1    0    0    0    0  0.00000000000E+00  0.00000000000E+00  0.45593999997E+02  0.45594000000E+02  0.51100000000E-03 0. -1.
         11   -1    0    0    0    0 -0.00000000000E+00 -0.00000000000E+00 -0.45593999997E+02  0.45594000000E+02  0.51100000000E-03 0.  1.
    9900012    2    1    2    0    0  0.33456776861E+02  0.38180796623E+01  0.22786659136E+02  0.50528862222E+02  0.30000007210E+02 0.  0.
        -12    1    1    2    0    0 -0.33456776861E+02 -0.38180796623E+01 -0.22786659136E+02  0.40659137778E+02  0.00000000000E+00 0.  1.
         11    1    3    3    0    0  0.22913331906E+02  0.69332896673E+01  0.49773426934E+01  0.24451282690E+02  0.51100000000E-03 0. -1.
        -11    1    3    3    0    0  0.56494946037E+01 -0.14926186129E+01 -0.15483751608E+01  0.60450116212E+01  0.51100000000E-03 0.  1.
         12    1    3    3    0    0  0.48939503512E+01 -0.16225913921E+01  0.19357691604E+02  0.20032567911E+02  0.00000000000E+00 0. -1.
</event>
<event>
 7    1  0.5601662E-013  0.5052886E+02  0.7816164E-02  0.1300439E+00
        -11   -1    0    0    0    0  0.00000000000E+00  0.00000000000E+00  0.45593999997E+02  0.45594000000E+02  0.51100000000E-03 0.  1.
         11   -1    0    0    0    0 -0.00000000000E+00 -0.00000000000E+00 -0.45593999997E+02  0.45594000000E+02  0.51100000000E-03 0. -1.
    9900012    2    1    2    0    0  0.77238962494E+01 -0.30606420710E+02 -0.25627220150E+02  0.50528856199E+02  0.29999988904E+02 0.  0.
        -12    1    1    2    0    0 -0.77238962494E+01  0.30606420710E+02  0.25627220150E+02  0.40659143801E+02  0.00000000000E+00 0.  1.
         11    1    3    3    0    0  0.36198628661E+01 -0.11199532067E+01  0.40036898383E+00  0.38102490652E+01  0.51100000000E-03 0. -1.
        -11    1    3    3    0    0  0.45536277352E+01  0.24437833570E+01  0.51629370976E+00  0.51936655748E+01  0.51100000000E-03 0.  1.
         12    1    3    3    0    0 -0.44959435188E+00 -0.31930250860E+02 -0.26543882844E+02  0.41524941559E+02  0.00000000000E+00 0. -1.
</event>
<event>
 7    1  0.5601662E-013  0.5052889E+02  0.7816164E-02  0.1300439E+00
        -11   -1    0    0    0    0  0.00000000000E+00  0.00000000000E+00  0.45593999997E+02  0.45594000000E+02  0.51100000000E-03 0.  1.
         11   -1    0    0    0    0 -0.00000000000E+00 -0.00000000000E+00 -0.45593999997E+02  0.45594000000E+02  0.51100000000E-03 0. -1.
    9900012    2    1    2    0    0  0.64745307715E+01  0.36449429011E+02 -0.16813171160E+02  0.50528890955E+02  0.30000094545E+02 0.  0.
        -12    1    1    2    0    0 -0.64745307715E+01 -0.36449429011E+02  0.16813171160E+02  0.40659109045E+02  0.00000000000E+00 0.  1.
         11    1    3    3    0    0 -0.35025111905E+00  0.35273711870E+01  0.51021243078E+01  0.62126239264E+01  0.51100000000E-03 0. -1.
        -11    1    3    3    0    0  0.12210312391E+01  0.21334597751E+01  0.33086770470E+01  0.41218820897E+01  0.51100000000E-03 0.  1.
         12    1    3    3    0    0  0.56037506514E+01  0.30788598049E+02 -0.25223972515E+02  0.40194384938E+02  0.00000000000E+00 0. -1.
</event>
<event>
 7    1  0.5601662E-013  0.5052886E+02  0.7816164E-02  0.1300439E+00
        -11   -1    0    0    0    0  0.00000000000E+00  0.00000000000E+00  0.45593999997E+02  0.45594000000E+02  0.51100000000E-03 0. -1.
         11   -1    0    0    0    0 -0.00000000000E+00 -0.00000000000E+00 -0.45593999997E+02  0.45594000000E+02  0.51100000000E-03 0.  1.
    9900012    2    1    2    0    0  0.37110411918E+02 -0.91884491761E+01  0.13840363996E+02  0.50528856545E+02  0.29999989954E+02 0.  0.
        -12    1    1    2    0    0 -0.37110411918E+02  0.91884491761E+01 -0.13840363996E+02  0.40659143455E+02  0.00000000000E+00 0.  1.
         11    1    3    3    0    0  0.70382462066E+01  0.12892612740E+01 -0.48092084224E+01  0.86213450348E+01  0.51100000000E-03 0. -1.
        -11    1    3    3    0    0  0.18644294460E+02 -0.52593595145E+00  0.10475283147E+01  0.18681103832E+02  0.51100000000E-03 0.  1.
         12    1    3    3    0    0  0.11427871251E+02 -0.99517744987E+01  0.17602044104E+02  0.23226407678E+02  0.00000000000E+00 0. -1.
</event>
<event>
 7    1  0.5601662E-013  0.5052886E+02  0.7816164E-02  0.1300439E+00
        -11   -1    0    0    0    0  0.00000000000E+00  0.00000000000E+00  0.45593999997E+02  0.45594000000E+02  0.51100000000E-03 0.  1.
         11   -1    0    0    0    0 -0.00000000000E+00 -0.00000000000E+00 -0.45593999997E+02  0.45594000000E+02  0.51100000000E-03 0. -1.
    9900012    2    1    2    0    0 -0.34686464934E+02  0.47426230321E+01 -0.20676621190E+02  0.50528856051E+02  0.29999988452E+02 0.  0.
        -12    1    1    2    0    0  0.34686464934E+02 -0.47426230321E+01  0.20676621190E+02  0.40659143949E+02  0.00000000000E+00 0.  1.
         11    1    3    3    0    0 -0.65850332086E+01 -0.50115004524E+01  0.13404344202E+01  0.83829925348E+01  0.51100000000E-03 0. -1.
        -11    1    3    3    0    0 -0.20686366870E+01 -0.47595449803E+01 -0.71599006900E+01  0.88428900431E+01  0.51100000000E-03 0.  1.
         12    1    3    3    0    0 -0.26032795039E+02  0.14513668465E+02 -0.14857154920E+02  0.33302973473E+02  0.00000000000E+00 0. -1.
</event>
<event>
 7    1  0.5601662E-013  0.5052886E+02  0.7816164E-02  0.1300439E+00
        -11   -1    0    0    0    0  0.00000000000E+00  0.00000000000E+00  0.45593999997E+02  0.45594000000E+02  0.51100000000E-03 0.  1.
         11   -1    0    0    0    0 -0.00000000000E+00 -0.00000000000E+00 -0.45593999997E+02  0.45594000000E+02  0.51100000000E-03 0. -1.
    9900012    2    1    2    0    0 -0.23977992706E+02  0.32691600869E+02 -0.30791068262E+01  0.50528858341E+02  0.29999995414E+02 0.  0.
        -12    1    1    2    0    0  0.23977992706E+02 -0.32691600869E+02  0.30791068262E+01  0.40659141659E+02  0.00000000000E+00 0.  1.
         11    1    3    3    0    0  0.17575515142E+00 -0.30981482255E+01 -0.17798806304E+01  0.35773436542E+01  0.51100000000E-03 0. -1.
        -11    1    3    3    0    0 -0.20995012930E+02  0.22334745110E+02 -0.78710166316E+01  0.31647816830E+02  0.51100000000E-03 0.  1.
         12    1    3    3    0    0 -0.31587349282E+01  0.13455003984E+02  0.65717904358E+01  0.15303697857E+02  0.00000000000E+00 0. -1.
</event>
<event>
 7    1  0.5601662E-013  0.5052886E+02  0.7816164E-02  0.1300439E+00
        -11   -1    0    0    0    0  0.00000000000E+00  0.00000000000E+00  0.45593999997E+02  0.45594000000E+02  0.51100000000E-03 0.  1.
         11   -1    0    0    0    0 -0.00000000000E+00 -0.00000000000E+00 -0.45593999997E+02  0.45594000000E+02  0.51100000000E-03 0. -1.
    9900012    2    1    2    0    0  0.10937662905E+02  0.25488292437E+02 -0.29730128006E+02  0.50528855488E+02  0.29999986741E+02 0.  0.
        -12    1    1    2    0    0 -0.10937662905E+02 -0.25488292437E+02  0.29730128006E+02  0.40659144512E+02  0.00000000000E+00 0.  1.
         11    1    3    3    0    0  0.23595589320E+01  0.18344772992E+02 -0.11521645601E+02  0.21790973638E+02  0.51100000000E-03 0. -1.
        -11    1    3    3    0    0  0.34995377684E+01  0.56312091888E+01  0.27071687550E+01  0.71614275428E+01  0.51100000000E-03 0.  1.
        -12    1    3    3    0    0  0.50785662044E+01  0.15123102566E+01 -0.20915651160E+02  0.21576454307E+02  0.00000000000E+00 0.  1.
</event>
<event>
 7    1  0.5601662E-013  0.5052876E+02  0.7816164E-02  0.1300439E+00
        -11   -1    0    0    0    0  0.00000000000E+00  0.00000000000E+00  0.45593999997E+02  0.45594000000E+02  0.51100000000E-03 0.  1.
         11   -1    0    0    0    0 -0.00000000000E+00 -0.00000000000E+00 -0.45593999997E+02  0.45594000000E+02  0.51100000000E-03 0. -1.
    9900012    2    1    2    0    0  0.39837719000E+02  0.44245709601E+01  0.68229990734E+01  0.50528757513E+02  0.29999688934E+02 0.  0.
        -12    1    1    2    0    0 -0.39837719000E+02 -0.44245709601E+01 -0.68229990734E+01  0.40659242487E+02  0.00000000000E+00 0.  1.
         11    1    3    3    0    0  0.10793599250E+02  0.55806951112E+01 -0.32755348087E+01  0.12584715779E+02  0.51100000000E-03 0. -1.
        -11    1    3    3    0    0  0.28844828281E+02  0.19469857241E+01  0.16682329072E+01  0.28958554406E+02  0.51100000000E-03 0.  1.
        -12    1    3    3    0    0  0.19929146832E+00 -0.31031098753E+01  0.84303009749E+01  0.89854873276E+01  0.00000000000E+00 0.  1.
</event>
<event>
 7    1  0.5601662E-013  0.5052874E+02  0.7816164E-02  0.1300439E+00
        -11   -1    0    0    0    0  0.00000000000E+00  0.00000000000E+00  0.45593999997E+02  0.45594000000E+02  0.51100000000E-03 0.  1.
         11   -1    0    0    0    0 -0.00000000000E+00 -0.00000000000E+00 -0.45593999997E+02  0.45594000000E+02  0.51100000000E-03 0. -1.
    9900012    2    1    2    0    0  0.20633182117E+02  0.28828758815E+02 -0.19908541374E+02  0.50528738340E+02  0.29999630657E+02 0.  0.
        -12    1    1    2    0    0 -0.20633182117E+02 -0.28828758815E+02  0.19908541374E+02  0.40659261660E+02  0.00000000000E+00 0.  1.
         11    1    3    3    0    0  0.65895807999E+01 -0.88353512568E+00 -0.11043841387E+02  0.12890680443E+02  0.51100000000E-03 0. -1.
        -11    1    3    3    0    0  0.26069430054E+01  0.13280542707E+02 -0.11086556408E+02  0.17495162180E+02  0.51100000000E-03 0.  1.
        -12    1    3    3    0    0  0.11436658312E+02  0.16431751233E+02  0.22218564220E+01  0.20142895718E+02  0.00000000000E+00 0.  1.
</event>
<event>
 7    1  0.5601662E-013  0.5052886E+02  0.7816164E-02  0.1300439E+00
        -11   -1    0    0    0    0  0.00000000000E+00  0.00000000000E+00  0.45593999997E+02  0.45594000000E+02  0.51100000000E-03 0. -1.
         11   -1    0    0    0    0 -0.00000000000E+00 -0.00000000000E+00 -0.45593999997E+02  0.45594000000E+02  0.51100000000E-03 0.  1.
    9900012    2    1    2    0    0  0.14421586181E+02  0.23665241782E+02  0.29751297386E+02  0.50528861879E+02  0.30000006168E+02 0.  0.
        -12    1    1    2    0    0 -0.14421586181E+02 -0.23665241782E+02 -0.29751297386E+02  0.40659138121E+02  0.00000000000E+00 0.  1.
         11    1    3    3    0    0  0.11632474611E+02  0.12365329670E+02  0.74583662989E+01  0.18543006000E+02  0.51100000000E-03 0. -1.
        -11    1    3    3    0    0  0.11318500182E+02  0.56400576230E+01  0.13415159930E+02  0.18435976040E+02  0.51100000000E-03 0.  1.
        -12    1    3    3    0    0 -0.85293886117E+01  0.56598544897E+01  0.88777711573E+01  0.13549879839E+02  0.00000000000E+00 0.  1.
</event>
<event>
 7    1  0.5601662E-013  0.5052884E+02  0.7816164E-02  0.1300439E+00
        -11   -1    0    0    0    0  0.00000000000E+00  0.00000000000E+00  0.45593999997E+02  0.45594000000E+02  0.51100000000E-03 0.  1.
         11   -1    0    0    0    0 -0.00000000000E+00 -0.00000000000E+00 -0.45593999997E+02  0.45594000000E+02  0.51100000000E-03 0. -1.
    9900012    2    1    2    0    0 -0.78598369046E+01  0.30895385512E+02 -0.25236195619E+02  0.50528838039E+02  0.29999933702E+02 0.  0.
        -12    1    1    2    0    0  0.78598369046E+01 -0.30895385512E+02  0.25236195619E+02  0.40659161961E+02  0.00000000000E+00 0.  1.
         11    1    3    3    0    0 -0.42825786892E+01  0.74615904723E+01  0.58209669128E+01  0.10387466903E+02  0.51100000000E-03 0. -1.
        -11    1    3    3    0    0 -0.33702715014E+00 -0.85680078151E+00 -0.12862825699E+01  0.15818400646E+01  0.51100000000E-03 0.  1.
        -12    1    3    3    0    0 -0.32402310652E+01  0.24290595821E+02 -0.29770879962E+02  0.38559531071E+02  0.00000000000E+00 0.  1.
</event>
<event>
 7    1  0.5601662E-013  0.5052886E+02  0.7816164E-02  0.1300439E+00
        -11   -1    0    0    0    0  0.00000000000E+00  0.00000000000E+00  0.45593999997E+02  0.45594000000E+02  0.51100000000E-03 0. -1.
         11   -1    0    0    0    0 -0.00000000000E+00 -0.00000000000E+00 -0.45593999997E+02  0.45594000000E+02  0.51100000000E-03 0.  1.
    9900012    2    1    2    0    0  0.39677549832E+02  0.88694173216E+01  0.43678056266E+00  0.50528864476E+02  0.30000014060E+02 0.  0.
        -12    1    1    2    0    0 -0.39677549832E+02 -0.88694173216E+01 -0.43678056266E+00  0.40659135524E+02  0.00000000000E+00 0.  1.
         11    1    3    3    0    0  0.10553756984E+02  0.70110251832E+01 -0.72434256536E+01  0.14594638607E+02  0.51100000000E-03 0. -1.
        -11    1    3    3    0    0  0.30135973385E+01 -0.88741433251E+00 -0.56689189513E+01  0.64811970695E+01  0.51100000000E-03 0.  1.
         12    1    3    3    0    0  0.26110195509E+02  0.27458064710E+01  0.13349125168E+02  0.29453028799E+02  0.00000000000E+00 0. -1.
</event>
<event>
 7    1  0.5601662E-013  0.5052886E+02  0.7816164E-02  0.1300439E+00
        -11   -1    0    0    0    0  0.00000000000E+00  0.00000000000E+00  0.45593999997E+02  0.45594000000E+02  0.51100000000E-03 0.  1.
         11   -1    0    0    0    0 -0.00000000000E+00 -0.00000000000E+00 -0.45593999997E+02  0.45594000000E+02  0.51100000000E-03 0. -1.
    9900012    2    1    2    0    0 -0.14865362680E+02 -0.85406007299E+01 -0.36867938803E+02  0.50528858593E+02  0.29999996178E+02 0.  0.
        -12    1    1    2    0    0  0.14865362680E+02  0.85406007299E+01  0.36867938803E+02  0.40659141407E+02  0.00000000000E+00 0.  1.
         11    1    3    3    0    0 -0.12814061840E+02 -0.11063661021E+02 -0.24312697832E+02  0.29626205497E+02  0.51100000000E-03 0. -1.
        -11    1    3    3    0    0  0.20066230337E+01  0.27184527852E+01 -0.15513439330E+02  0.15877132035E+02  0.51100000000E-03 0.  1.
        -12    1    3    3    0    0 -0.40579238741E+01 -0.19539249360E+00  0.29581983595E+01  0.50255210604E+01  0.00000000000E+00 0.  1.
</event>
<event>
 7    1  0.5601662E-013  0.5052886E+02  0.7816164E-02  0.1300439E+00
        -11   -1    0    0    0    0  0.00000000000E+00  0.00000000000E+00  0.45593999997E+02  0.45594000000E+02  0.51100000000E-03 0. -1.
         11   -1    0    0    0    0 -0.00000000000E+00 -0.00000000000E+00 -0.45593999997E+02  0.45594000000E+02  0.51100000000E-03 0.  1.
    9900012    2    1    2    0    0  0.39494708844E+02 -0.82619657503E+01  0.50073470576E+01  0.50528860445E+02  0.30000001810E+02 0.  0.
        -12    1    1    2    0    0 -0.39494708844E+02  0.82619657503E+01 -0.50073470576E+01  0.40659139555E+02  0.00000000000E+00 0.  1.
         11    1    3    3    0    0  0.24671793672E+02  0.21465724937E+01 -0.14099847077E+01  0.24805104990E+02  0.51100000000E-03 0. -1.
        -11    1    3    3    0    0  0.50103326067E+01  0.46299051465E+01  0.60009044159E+00  0.68483255832E+01  0.51100000000E-03 0.  1.
         12    1    3    3    0    0  0.98125825663E+01 -0.15038443390E+02  0.58172413237E+01  0.18875429872E+02  0.00000000000E+00 0. -1.
</event>
<event>
 7    1  0.5601662E-013  0.5052886E+02  0.7816164E-02  0.1300439E+00
        -11   -1    0    0    0    0  0.00000000000E+00  0.00000000000E+00  0.45593999997E+02  0.45594000000E+02  0.51100000000E-03 0. -1.
         11   -1    0    0    0    0 -0.00000000000E+00 -0.00000000000E+00 -0.45593999997E+02  0.45594000000E+02  0.51100000000E-03 0.  1.
    9900012    2    1    2    0    0 -0.33823908348E+01 -0.23124100468E+02  0.33271630037E+02  0.50528856434E+02  0.29999989616E+02 0.  0.
        -12    1    1    2    0    0  0.33823908348E+01  0.23124100468E+02 -0.33271630037E+02  0.40659143566E+02  0.00000000000E+00 0.  1.
         11    1    3    3    0    0 -0.42219240195E+01 -0.12229616008E+02  0.11688857204E+02  0.17436098564E+02  0.51100000000E-03 0. -1.
        -11    1    3    3    0    0 -0.89966795305E+01 -0.77617803467E+01  0.19069071977E+02  0.22468088104E+02  0.51100000000E-03 0.  1.
        -12    1    3    3    0    0  0.98362127151E+01 -0.31327041137E+01  0.25137008560E+01  0.10624669766E+02  0.00000000000E+00 0.  1.
</event>
<event>
 7    1  0.5601662E-013  0.5052886E+02  0.7816164E-02  0.1300439E+00
        -11   -1    0    0    0    0  0.00000000000E+00  0.00000000000E+00  0.45593999997E+02  0.45594000000E+02  0.51100000000E-03 0.  1.
         11   -1    0    0    0    0 -0.00000000000E+00 -0.00000000000E+00 -0.45593999997E+02  0.45594000000E+02  0.51100000000E-03 0. -1.
    9900012    2    1    2    0    0 -0.23398768817E+02 -0.33231512532E+02  0.11530284140E+01  0.50528864719E+02  0.30000014799E+02 0.  0.
        -12    1    1    2    0    0  0.23398768817E+02  0.33231512532E+02 -0.11530284140E+01  0.40659135281E+02  0.00000000000E+00 0.  1.
         11    1    3    3    0    0 -0.23277981732E+02 -0.25831468123E+02 -0.38258568079E+01  0.34982372125E+02  0.51100000000E-03 0. -1.
        -11    1    3    3    0    0 -0.22251398623E+01  0.32121237750E+01  0.12297273153E+01  0.40964882623E+01  0.51100000000E-03 0.  1.
        -12    1    3    3    0    0  0.21043527781E+01 -0.10612168184E+02  0.37491579066E+01  0.11450004331E+02  0.00000000000E+00 0.  1.
</event>
<event>
 7    1  0.5601662E-013  0.5052886E+02  0.7816164E-02  0.1300439E+00
        -11   -1    0    0    0    0  0.00000000000E+00  0.00000000000E+00  0.45593999997E+02  0.45594000000E+02  0.51100000000E-03 0.  1.
         11   -1    0    0    0    0 -0.00000000000E+00 -0.00000000000E+00 -0.45593999997E+02  0.45594000000E+02  0.51100000000E-03 0. -1.
    9900012    2    1    2    0    0  0.37026443428E+02 -0.15127873713E+02 -0.73044940983E+01  0.50528859453E+02  0.29999998792E+02 0.  0.
        -12    1    1    2    0    0 -0.37026443428E+02  0.15127873713E+02  0.73044940983E+01  0.40659140547E+02  0.00000000000E+00 0.  1.
         11    1    3    3    0    0  0.21399901948E+02 -0.66087094861E+01  0.23373672919E+01  0.22518750644E+02  0.51100000000E-03 0. -1.
        -11    1    3    3    0    0  0.92401173554E+01 -0.56512819266E+01  0.48868352744E+01  0.11882672907E+02  0.51100000000E-03 0.  1.
        -12    1    3    3    0    0  0.63864241253E+01 -0.28678823006E+01 -0.14528696664E+02  0.16127435902E+02  0.00000000000E+00 0.  1.
</event>
<event>
 7    1  0.5601662E-013  0.5052883E+02  0.7816164E-02  0.1300439E+00
        -11   -1    0    0    0    0  0.00000000000E+00  0.00000000000E+00  0.45593999997E+02  0.45594000000E+02  0.51100000000E-03 0.  1.
         11   -1    0    0    0    0 -0.00000000000E+00 -0.00000000000E+00 -0.45593999997E+02  0.45594000000E+02  0.51100000000E-03 0. -1.
    9900012    2    1    2    0    0 -0.53853041440E+01  0.35441710876E+02  0.19184666548E+02  0.50528833738E+02  0.29999920629E+02 0.  0.
        -12    1    1    2    0    0  0.53853041440E+01 -0.35441710876E+02 -0.19184666548E+02  0.40659166262E+02  0.00000000000E+00 0.  1.
         11    1    3    3    0    0 -0.11857405776E+01  0.31346665765E+02  0.18487793720E+02  0.36411783150E+02  0.51100000000E-03 0. -1.
        -11    1    3    3    0    0 -0.17787410566E+01  0.43659207977E+01  0.63806125657E+01  0.79333095952E+01  0.51100000000E-03 0.  1.
        -12    1    3    3    0    0 -0.24208225097E+01 -0.27087568613E+00 -0.56837397373E+01  0.61837409925E+01  0.00000000000E+00 0.  1.
</event>
<event>
 7    1  0.5601662E-013  0.5052886E+02  0.7816164E-02  0.1300439E+00
        -11   -1    0    0    0    0  0.00000000000E+00  0.00000000000E+00  0.45593999997E+02  0.45594000000E+02  0.51100000000E-03 0.  1.
         11   -1    0    0    0    0 -0.00000000000E+00 -0.00000000000E+00 -0.45593999997E+02  0.45594000000E+02  0.51100000000E-03 0. -1.
    9900012    2    1    2    0    0 -0.12182457946E+02  0.86830932593E+01 -0.37806842592E+02  0.50528859122E+02  0.29999997789E+02 0.  0.
        -12    1    1    2    0    0  0.12182457946E+02 -0.86830932593E+01  0.37806842592E+02  0.40659140878E+02  0.00000000000E+00 0.  1.
         11    1    3    3    0    0  0.23639908574E+01 -0.40748680434E+01  0.48665740294E+00  0.47360149951E+01  0.51100000000E-03 0. -1.
        -11    1    3    3    0    0 -0.33508769438E+01 -0.19699937725E+01 -0.77846262736E+00  0.39642472274E+01  0.51100000000E-03 0.  1.
         12    1    3    3    0    0 -0.11195571860E+02  0.14727955075E+02 -0.37515037367E+02  0.41828596900E+02  0.00000000000E+00 0. -1.
</event>
<event>
 7    1  0.5601662E-013  0.5052885E+02  0.7816164E-02  0.1300439E+00
        -11   -1    0    0    0    0  0.00000000000E+00  0.00000000000E+00  0.45593999997E+02  0.45594000000E+02  0.51100000000E-03 0. -1.
         11   -1    0    0    0    0 -0.00000000000E+00 -0.00000000000E+00 -0.45593999997E+02  0.45594000000E+02  0.51100000000E-03 0.  1.
    9900012    2    1    2    0    0 -0.26716079791E+02  0.29778615260E+02  0.72561446513E+01  0.50528849967E+02  0.29999969960E+02 0.  0.
        -12    1    1    2    0    0  0.26716079791E+02 -0.29778615260E+02 -0.72561446513E+01  0.40659150033E+02  0.00000000000E+00 0.  1.
         11    1    3    3    0    0 -0.12902115846E+02  0.59721069579E+01  0.88537188045E+01  0.16748701196E+02  0.51100000000E-03 0. -1.
        -11    1    3    3    0    0 -0.18507395820E+02  0.21741809454E+02 -0.20925552495E+01  0.28628810072E+02  0.51100000000E-03 0.  1.
         12    1    3    3    0    0  0.46934318758E+01  0.20646988478E+01  0.49498109629E+00  0.51513386989E+01  0.00000000000E+00 0. -1.
</event>
<event>
 7    1  0.5601662E-013  0.5052885E+02  0.7816164E-02  0.1300439E+00
        -11   -1    0    0    0    0  0.00000000000E+00  0.00000000000E+00  0.45593999997E+02  0.45594000000E+02  0.51100000000E-03 0.  1.
         11   -1    0    0    0    0 -0.00000000000E+00 -0.00000000000E+00 -0.45593999997E+02  0.45594000000E+02  0.51100000000E-03 0. -1.
    9900012    2    1    2    0    0  0.24219797860E+02 -0.18977504758E+02 -0.26578597489E+02  0.50528854169E+02  0.29999982733E+02 0.  0.
        -12    1    1    2    0    0 -0.24219797860E+02  0.18977504758E+02  0.26578597489E+02  0.40659145831E+02  0.00000000000E+00 0.  1.
         11    1    3    3    0    0  0.98809561783E+01 -0.67323955046E+01 -0.24765373694E+01  0.12210310472E+02  0.51100000000E-03 0. -1.
        -11    1    3    3    0    0  0.10962535648E+02 -0.11439035883E+02 -0.20279141697E+01  0.15973138887E+02  0.51100000000E-03 0.  1.
        -12    1    3    3    0    0  0.33763060342E+01 -0.80607337048E+00 -0.22074145950E+02  0.22345404810E+02  0.00000000000E+00 0.  1.
</event>
<event>
 7    1  0.5601662E-013  0.5052889E+02  0.7816164E-02  0.1300439E+00
        -11   -1    0    0    0    0  0.00000000000E+00  0.00000000000E+00  0.45593999997E+02  0.45594000000E+02  0.51100000000E-03 0. -1.
         11   -1    0    0    0    0 -0.00000000000E+00 -0.00000000000E+00 -0.45593999997E+02  0.45594000000E+02  0.51100000000E-03 0.  1.
    9900012    2    1    2    0    0  0.12663888883E+02 -0.32333804957E+02  0.21149810362E+02  0.50528886594E+02  0.30000081290E+02 0.  0.
        -12    1    1    2    0    0 -0.12663888883E+02  0.32333804957E+02 -0.21149810362E+02  0.40659113406E+02  0.00000000000E+00 0.  1.
         11    1    3    3    0    0  0.50237549652E+01 -0.56919983518E+01  0.19815492297E+02  0.21220054063E+02  0.51100000000E-03 0. -1.
        -11    1    3    3    0    0  0.20669102150E+01 -0.48225524787E+01  0.40469915160E+01  0.66262561705E+01  0.51100000000E-03 0.  1.
        -12    1    3    3    0    0  0.55732237031E+01 -0.21819254126E+02 -0.27126734513E+01  0.22682576360E+02  0.00000000000E+00 0.  1.
</event>
<event>
 7    1  0.5601662E-013  0.5052885E+02  0.7816164E-02  0.1300439E+00
        -11   -1    0    0    0    0  0.00000000000E+00  0.00000000000E+00  0.45593999997E+02  0.45594000000E+02  0.51100000000E-03 0.  1.
         11   -1    0    0    0    0 -0.00000000000E+00 -0.00000000000E+00 -0.45593999997E+02  0.45594000000E+02  0.51100000000E-03 0. -1.
    9900012    2    1    2    0    0  0.28092321619E+02 -0.11524770989E+02 -0.27040113521E+02  0.50528848269E+02  0.29999964798E+02 0.  0.
        -12    1    1    2    0    0 -0.28092321619E+02  0.11524770989E+02  0.27040113521E+02  0.40659151731E+02  0.00000000000E+00 0.  1.
         11    1    3    3    0    0  0.11025546394E+02 -0.62067535577E+01 -0.12916529554E+02  0.18081017643E+02  0.51100000000E-03 0. -1.
        -11    1    3    3    0    0 -0.72736808119E+00 -0.10553264334E+02 -0.39428399638E+01  0.11289217851E+02  0.51100000000E-03 0.  1.
         12    1    3    3    0    0  0.17794143306E+02  0.52352469032E+01 -0.10180744002E+02  0.21158612775E+02  0.00000000000E+00 0. -1.
</event>
<event>
 7    1  0.5601662E-013  0.5052887E+02  0.7816164E-02  0.1300439E+00
        -11   -1    0    0    0    0  0.00000000000E+00  0.00000000000E+00  0.45593999997E+02  0.45594000000E+02  0.51100000000E-03 0.  1.
         11   -1    0    0    0    0 -0.00000000000E+00 -0.00000000000E+00 -0.45593999997E+02  0.45594000000E+02  0.51100000000E-03 0. -1.
    9900012    2    1    2    0    0  0.16098074803E+02  0.55278826323E+01 -0.36925054516E+02  0.50528866342E+02  0.30000019734E+02 0.  0.
        -12    1    1    2    0    0 -0.16098074803E+02 -0.55278826323E+01  0.36925054516E+02  0.40659133658E+02  0.00000000000E+00 0.  1.
         11    1    3    3    0    0 -0.25179291244E+01  0.37862757639E+01 -0.73890200801E+01  0.86760284255E+01  0.51100000000E-03 0. -1.
        -11    1    3    3    0    0  0.43618334423E+01  0.10193933449E+02 -0.48081188534E+01  0.12085523461E+02  0.51100000000E-03 0.  1.
        -12    1    3    3    0    0  0.14254170485E+02 -0.84523265809E+01 -0.24727915583E+02  0.29767314456E+02  0.00000000000E+00 0.  1.
</event>
<event>
 7    1  0.5601662E-013  0.5052886E+02  0.7816164E-02  0.1300439E+00
        -11   -1    0    0    0    0  0.00000000000E+00  0.00000000000E+00  0.45593999997E+02  0.45594000000E+02  0.51100000000E-03 0.  1.
         11   -1    0    0    0    0 -0.00000000000E+00 -0.00000000000E+00 -0.45593999997E+02  0.45594000000E+02  0.51100000000E-03 0. -1.
    9900012    2    1    2    0    0 -0.26025982811E+02 -0.31188385312E+02  0.17602125110E+01  0.50528861941E+02  0.30000006355E+02 0.  0.
        -12    1    1    2    0    0  0.26025982811E+02  0.31188385312E+02 -0.17602125110E+01  0.40659138059E+02  0.00000000000E+00 0.  1.
         11    1    3    3    0    0 -0.29038751581E+00 -0.91237904583E+01 -0.21275412175E+01  0.93730629534E+01  0.51100000000E-03 0. -1.
        -11    1    3    3    0    0 -0.86103790149E-01 -0.96321121181E+01  0.77872821037E+01  0.12386555637E+02  0.51100000000E-03 0.  1.
        -12    1    3    3    0    0 -0.25649491505E+02 -0.12432482736E+02 -0.38995283752E+01  0.28769243351E+02  0.00000000000E+00 0.  1.
</event>
<event>
 7    1  0.5601662E-013  0.5052887E+02  0.7816164E-02  0.1300439E+00
        -11   -1    0    0    0    0  0.00000000000E+00  0.00000000000E+00  0.45593999997E+02  0.45594000000E+02  0.51100000000E-03 0.  1.
         11   -1    0    0    0    0 -0.00000000000E+00 -0.00000000000E+00 -0.45593999997E+02  0.45594000000E+02  0.51100000000E-03 0. -1.
    9900012    2    1    2    0    0  0.24264094752E+02 -0.32593478326E+02  0.14434024443E+01  0.50528873913E+02  0.30000042746E+02 0.  0.
        -12    1    1    2    0    0 -0.24264094752E+02  0.32593478326E+02 -0.14434024443E+01  0.40659126087E+02  0.00000000000E+00 0.  1.
         11    1    3    3    0    0 -0.16145109640E+01 -0.17368129858E+02 -0.15533806574E+01  0.17512040776E+02  0.51100000000E-03 0.  1.
        -11    1    3    3    0    0  0.96044401772E+01 -0.99740881751E+01 -0.41914108910E+01  0.14467053313E+02  0.51100000000E-03 0. -1.
        -12    1    3    3    0    0  0.16274165539E+02 -0.52512602932E+01  0.71881939927E+01  0.18549779824E+02  0.00000000000E+00 0.  1.
</event>
<event>
 7    1  0.5601662E-013  0.5052883E+02  0.7816164E-02  0.1300439E+00
        -11   -1    0    0    0    0  0.00000000000E+00  0.00000000000E+00  0.45593999997E+02  0.45594000000E+02  0.51100000000E-03 0. -1.
         11   -1    0    0    0    0 -0.00000000000E+00 -0.00000000000E+00 -0.45593999997E+02  0.45594000000E+02  0.51100000000E-03 0.  1.
    9900012    2    1    2    0    0 -0.11484704314E+02  0.13163013079E+02  0.36715189461E+02  0.50528825345E+02  0.29999895118E+02 0.  0.
        -12    1    1    2    0    0  0.11484704314E+02 -0.13163013079E+02 -0.36715189461E+02  0.40659174655E+02  0.00000000000E+00 0.  1.
         11    1    3    3    0    0 -0.45405244498E+01 -0.19312077910E+01 -0.13090542099E+01  0.51048554335E+01  0.51100000000E-03 0. -1.
        -11    1    3    3    0    0 -0.93641138028E+01  0.27593686499E+01  0.71846931306E+01  0.12121079090E+02  0.51100000000E-03 0.  1.
         12    1    3    3    0    0  0.24199339386E+01  0.12334852220E+02  0.30839550540E+02  0.33302890822E+02  0.00000000000E+00 0. -1.
</event>
<event>
 7    1  0.5601662E-013  0.5052886E+02  0.7816164E-02  0.1300439E+00
        -11   -1    0    0    0    0  0.00000000000E+00  0.00000000000E+00  0.45593999997E+02  0.45594000000E+02  0.51100000000E-03 0. -1.
         11   -1    0    0    0    0 -0.00000000000E+00 -0.00000000000E+00 -0.45593999997E+02  0.45594000000E+02  0.51100000000E-03 0.  1.
    9900012    2    1    2    0    0  0.32034254165E+02  0.22856319287E+02  0.10225503319E+02  0.50528859707E+02  0.29999999565E+02 0.  0.
        -12    1    1    2    0    0 -0.32034254165E+02 -0.22856319287E+02 -0.10225503319E+02  0.40659140293E+02  0.00000000000E+00 0.  1.
         11    1    3    3    0    0  0.21775884537E+02  0.12779626540E+02  0.61992301881E+01  0.25998816455E+02  0.51100000000E-03 0. -1.
        -11    1    3    3    0    0  0.14478819200E+02  0.11927698210E+02  0.56711099884E+00  0.18767733085E+02  0.51100000000E-03 0.  1.
        -12    1    3    3    0    0 -0.42204495710E+01 -0.18510054639E+01  0.34591621318E+01  0.57623101672E+01  0.00000000000E+00 0.  1.
</event>
<event>
 7    1  0.5601662E-013  0.5052886E+02  0.7816164E-02  0.1300439E+00
        -11   -1    0    0    0    0  0.00000000000E+00  0.00000000000E+00  0.45593999997E+02  0.45594000000E+02  0.51100000000E-03 0.  1.
         11   -1    0    0    0    0 -0.00000000000E+00 -0.00000000000E+00 -0.45593999997E+02  0.45594000000E+02  0.51100000000E-03 0. -1.
    9900012    2    1    2    0    0  0.22785717866E+02 -0.21309460463E+02 -0.26074584945E+02  0.50528855593E+02  0.29999987059E+02 0.  0.
        -12    1    1    2    0    0 -0.22785717866E+02  0.21309460463E+02  0.26074584945E+02  0.40659144407E+02  0.00000000000E+00 0.  1.
         11    1    3    3    0    0  0.13944292157E+02 -0.11931636029E+02 -0.81946492948E+01  0.20098743728E+02  0.51100000000E-03 0. -1.
        -11    1    3    3    0    0  0.13846692268E+02 -0.11745245668E+02 -0.97941410543E+01  0.20630241924E+02  0.51100000000E-03 0.  1.
        -12    1    3    3    0    0 -0.50052665596E+01  0.23674212334E+01 -0.80857945955E+01  0.97998699414E+01  0.00000000000E+00 0.  1.
</event>
<event>
 7    1  0.5601662E-013  0.5052886E+02  0.7816164E-02  0.1300439E+00
        -11   -1    0    0    0    0  0.00000000000E+00  0.00000000000E+00  0.45593999997E+02  0.45594000000E+02  0.51100000000E-03 0.  1.
         11   -1    0    0    0    0 -0.00000000000E+00 -0.00000000000E+00 -0.45593999997E+02  0.45594000000E+02  0.51100000000E-03 0. -1.
    9900012    2    1    2    0    0 -0.13601175511E+02  0.14629018335E+02 -0.35414197863E+02  0.50528861261E+02  0.30000004290E+02 0.  0.
        -12    1    1    2    0    0  0.13601175511E+02 -0.14629018335E+02  0.35414197863E+02  0.40659138739E+02  0.00000000000E+00 0.  1.
         11    1    3    3    0    0 -0.11634596931E+02  0.15374031077E+02 -0.23091218654E+02  0.30082038769E+02  0.51100000000E-03 0. -1.
        -11    1    3    3    0    0 -0.71855402376E+01 -0.20924619311E+00 -0.14860035021E+00  0.71901220296E+01  0.51100000000E-03 0.  1.
        -12    1    3    3    0    0  0.52189616578E+01 -0.53576654932E+00 -0.12174378858E+02  0.13256700463E+02  0.00000000000E+00 0.  1.
</event>
<event>
 7    1  0.5601662E-013  0.5052886E+02  0.7816164E-02  0.1300439E+00
        -11   -1    0    0    0    0  0.00000000000E+00  0.00000000000E+00  0.45593999997E+02  0.45594000000E+02  0.51100000000E-03 0.  1.
         11   -1    0    0    0    0 -0.00000000000E+00 -0.00000000000E+00 -0.45593999997E+02  0.45594000000E+02  0.51100000000E-03 0. -1.
    9900012    2    1    2    0    0 -0.10615459772E+02 -0.15069076273E+02 -0.36240870018E+02  0.50528859508E+02  0.29999998961E+02 0.  0.
        -12    1    1    2    0    0  0.10615459772E+02  0.15069076273E+02  0.36240870018E+02  0.40659140492E+02  0.00000000000E+00 0.  1.
         11    1    3    3    0    0 -0.52641560153E+01 -0.10775848232E+02 -0.22632779031E+02  0.25613920641E+02  0.51100000000E-03 0. -1.
        -11    1    3    3    0    0  0.79646160240E+00 -0.94623521355E+01 -0.13950383376E+02  0.16875534232E+02  0.51100000000E-03 0.  1.
         12    1    3    3    0    0 -0.61477653591E+01  0.51691240938E+01  0.34229238966E+00  0.80394046352E+01  0.00000000000E+00 0. -1.
</event>
<event>
 7    1  0.5601662E-013  0.5052890E+02  0.7816164E-02  0.1300439E+00
        -11   -1    0    0    0    0  0.00000000000E+00  0.00000000000E+00  0.45593999997E+02  0.45594000000E+02  0.51100000000E-03 0.  1.
         11   -1    0    0    0    0 -0.00000000000E+00 -0.00000000000E+00 -0.45593999997E+02  0.45594000000E+02  0.51100000000E-03 0. -1.
    9900012    2    1    2    0    0 -0.33172575370E+02  0.21752160997E+01  0.23409638902E+02  0.50528898740E+02  0.30000118210E+02 0.  0.
        -12    1    1    2    0    0  0.33172575370E+02 -0.21752160997E+01 -0.23409638902E+02  0.40659101260E+02  0.00000000000E+00 0.  1.
         11    1    3    3    0    0  0.88018695908E+00  0.16328251043E+01 -0.92141175332E+00  0.20711945308E+01  0.51100000000E-03 0. -1.
        -11    1    3    3    0    0 -0.17656590089E+01 -0.41878397279E+01  0.13230817684E+02  0.13989642246E+02  0.51100000000E-03 0.  1.
        -12    1    3    3    0    0 -0.32287103320E+02  0.47302307233E+01  0.11100232971E+02  0.34468061963E+02  0.00000000000E+00 0.  1.
</event>
<event>
 7    1  0.5601662E-013  0.5052886E+02  0.7816164E-02  0.1300439E+00
        -11   -1    0    0    0    0  0.00000000000E+00  0.00000000000E+00  0.45593999997E+02  0.45594000000E+02  0.51100000000E-03 0. -1.
         11   -1    0    0    0    0 -0.00000000000E+00 -0.00000000000E+00 -0.45593999997E+02  0.45594000000E+02  0.51100000000E-03 0.  1.
    9900012    2    1    2    0    0 -0.36127792528E+02 -0.71023184768E+01  0.17248335865E+02  0.50528863133E+02  0.30000009979E+02 0.  0.
        -12    1    1    2    0    0  0.36127792528E+02  0.71023184768E+01 -0.17248335865E+02  0.40659136867E+02  0.00000000000E+00 0.  1.
         11    1    3    3    0    0 -0.95828817369E+01 -0.49749567457E+01 -0.10827874082E+01  0.10851462843E+02  0.51100000000E-03 0. -1.
        -11    1    3    3    0    0 -0.24922459164E+02 -0.89384218100E+01  0.89026737190E+01  0.27933527433E+02  0.51100000000E-03 0.  1.
        -12    1    3    3    0    0 -0.16224516266E+01  0.68110600788E+01  0.94284495539E+01  0.11743872856E+02  0.00000000000E+00 0.  1.
</event>
<event>
 7    1  0.5601662E-013  0.5052886E+02  0.7816164E-02  0.1300439E+00
        -11   -1    0    0    0    0  0.00000000000E+00  0.00000000000E+00  0.45593999997E+02  0.45594000000E+02  0.51100000000E-03 0. -1.
         11   -1    0    0    0    0 -0.00000000000E+00 -0.00000000000E+00 -0.45593999997E+02  0.45594000000E+02  0.51100000000E-03 0.  1.
    9900012    2    1    2    0    0  0.18020167696E+02 -0.15147075253E+02  0.33151244481E+02  0.50528863964E+02  0.30000012506E+02 0.  0.
        -12    1    1    2    0    0 -0.18020167696E+02  0.15147075253E+02 -0.33151244481E+02  0.40659136036E+02  0.00000000000E+00 0.  1.
         11    1    3    3    0    0  0.41139734819E+01 -0.20403018369E+01  0.25843079364E+02  0.26247902024E+02  0.51100000000E-03 0. -1.
        -11    1    3    3    0    0 -0.10528616765E+00 -0.40611450128E+01  0.63975618938E+01  0.75784419532E+01  0.51100000000E-03 0.  1.
        -12    1    3    3    0    0  0.14011480382E+02 -0.90456284030E+01  0.91060322382E+00  0.16702519987E+02  0.00000000000E+00 0.  1.
</event>
<event>
 7    1  0.5601662E-013  0.5052885E+02  0.7816164E-02  0.1300439E+00
        -11   -1    0    0    0    0  0.00000000000E+00  0.00000000000E+00  0.45593999997E+02  0.45594000000E+02  0.51100000000E-03 0.  1.
         11   -1    0    0    0    0 -0.00000000000E+00 -0.00000000000E+00 -0.45593999997E+02  0.45594000000E+02  0.51100000000E-03 0. -1.
    9900012    2    1    2    0    0 -0.34977728026E+02  0.20163736886E+02  0.48113103004E+01  0.50528850354E+02  0.29999971137E+02 0.  0.
        -12    1    1    2    0    0  0.34977728026E+02 -0.20163736886E+02 -0.48113103004E+01  0.40659149646E+02  0.00000000000E+00 0.  1.
         11    1    3    3    0    0 -0.11021786723E+01 -0.24424790918E+01  0.89425093182E+00  0.28249224643E+01  0.51100000000E-03 0. -1.
        -11    1    3    3    0    0  0.37904898948E+01  0.27996989448E+01  0.19572526000E+01  0.51026430235E+01  0.51100000000E-03 0.  1.
         12    1    3    3    0    0 -0.37666039249E+02  0.19806517033E+02  0.19598067685E+01  0.42601284866E+02  0.00000000000E+00 0. -1.
</event>
<event>
 7    1  0.5601662E-013  0.5052887E+02  0.7816164E-02  0.1300439E+00
        -11   -1    0    0    0    0  0.00000000000E+00  0.00000000000E+00  0.45593999997E+02  0.45594000000E+02  0.51100000000E-03 0. -1.
         11   -1    0    0    0    0 -0.00000000000E+00 -0.00000000000E+00 -0.45593999997E+02  0.45594000000E+02  0.51100000000E-03 0.  1.
    9900012    2    1    2    0    0  0.26944211190E+00  0.40657915039E+02  0.16279604906E+00  0.50528866255E+02  0.30000019469E+02 0.  0.
        -12    1    1    2    0    0 -0.26944211190E+00 -0.40657915039E+02 -0.16279604906E+00  0.40659133745E+02  0.00000000000E+00 0.  1.
         11    1    3    3    0    0 -0.79915840704E+01  0.32558052107E+01  0.35077861225E+01  0.93150548720E+01  0.51100000000E-03 0. -1.
        -11    1    3    3    0    0  0.38986915815E+01  0.18334902237E+02  0.58000967691E+01  0.19621660452E+02  0.51100000000E-03 0.  1.
        -12    1    3    3    0    0  0.43623346008E+01  0.19067207591E+02 -0.91450868425E+01  0.21592150931E+02  0.00000000000E+00 0.  1.
</event>
<event>
 7    1  0.5601662E-013  0.5052887E+02  0.7816164E-02  0.1300439E+00
        -11   -1    0    0    0    0  0.00000000000E+00  0.00000000000E+00  0.45593999997E+02  0.45594000000E+02  0.51100000000E-03 0.  1.
         11   -1    0    0    0    0 -0.00000000000E+00 -0.00000000000E+00 -0.45593999997E+02  0.45594000000E+02  0.51100000000E-03 0. -1.
    9900012    2    1    2    0    0 -0.31889103885E+02  0.21493961311E+02 -0.13200746341E+02  0.50528867897E+02  0.30000024458E+02 0.  0.
        -12    1    1    2    0    0  0.31889103885E+02 -0.21493961311E+02  0.13200746341E+02  0.40659132103E+02  0.00000000000E+00 0.  1.
         11    1    3    3    0    0 -0.79419558139E+01 -0.27555758830E+01  0.81056932179E+00  0.84454060579E+01  0.51100000000E-03 0. -1.
        -11    1    3    3    0    0 -0.88607047490E+01  0.66960562923E+01  0.49530608281E+01  0.12160677216E+02  0.51100000000E-03 0.  1.
         12    1    3    3    0    0 -0.15086443322E+02  0.17553480902E+02 -0.18964376491E+02  0.29922784623E+02  0.00000000000E+00 0. -1.
</event>
<event>
 7    1  0.5601662E-013  0.5052886E+02  0.7816164E-02  0.1300439E+00
        -11   -1    0    0    0    0  0.00000000000E+00  0.00000000000E+00  0.45593999997E+02  0.45594000000E+02  0.51100000000E-03 0. -1.
         11   -1    0    0    0    0 -0.00000000000E+00 -0.00000000000E+00 -0.45593999997E+02  0.45594000000E+02  0.51100000000E-03 0.  1.
    9900012    2    1    2    0    0 -0.17789861571E+02  0.31756568954E+02  0.18116479000E+02  0.50528860095E+02  0.30000000744E+02 0.  0.
        -12    1    1    2    0    0  0.17789861571E+02 -0.31756568954E+02 -0.18116479000E+02  0.40659139905E+02  0.00000000000E+00 0.  1.
         11    1    3    3    0    0  0.90324395937E+00 -0.23787586409E+01  0.62555951349E+01  0.67532816523E+01  0.51100000000E-03 0. -1.
        -11    1    3    3    0    0  0.25306992654E+01  0.16399973233E+01 -0.46891758131E+00  0.30518705659E+01  0.51100000000E-03 0.  1.
         12    1    3    3    0    0 -0.21223804796E+02  0.32495330272E+02  0.12329801447E+02  0.40723707877E+02  0.00000000000E+00 0. -1.
</event>
<event>
 7    1  0.5601662E-013  0.5052888E+02  0.7816164E-02  0.1300439E+00
        -11   -1    0    0    0    0  0.00000000000E+00  0.00000000000E+00  0.45593999997E+02  0.45594000000E+02  0.51100000000E-03 0.  1.
         11   -1    0    0    0    0 -0.00000000000E+00 -0.00000000000E+00 -0.45593999997E+02  0.45594000000E+02  0.51100000000E-03 0. -1.
    9900012    2    1    2    0    0  0.16872876456E+02 -0.33282731446E+02 -0.16147143711E+02  0.50528875287E+02  0.30000046922E+02 0.  0.
        -12    1    1    2    0    0 -0.16872876456E+02  0.33282731446E+02  0.16147143711E+02  0.40659124713E+02  0.00000000000E+00 0.  1.
         11    1    3    3    0    0  0.11490417877E+01 -0.12101806449E+02  0.87811419928E+00  0.12187907990E+02  0.51100000000E-03 0.  1.
        -11    1    3    3    0    0  0.17368572295E+01  0.46515157025E+01 -0.21038239710E+01  0.53925269520E+01  0.51100000000E-03 0. -1.
         12    1    3    3    0    0  0.13986977439E+02 -0.25832440699E+02 -0.14921433940E+02  0.32948440345E+02  0.00000000000E+00 0. -1.
</event>
<event>
 7    1  0.5601662E-013  0.5052886E+02  0.7816164E-02  0.1300439E+00
        -11   -1    0    0    0    0  0.00000000000E+00  0.00000000000E+00  0.45593999997E+02  0.45594000000E+02  0.51100000000E-03 0. -1.
         11   -1    0    0    0    0 -0.00000000000E+00 -0.00000000000E+00 -0.45593999997E+02  0.45594000000E+02  0.51100000000E-03 0.  1.
    9900012    2    1    2    0    0 -0.18732864152E+01 -0.75822264098E+01  0.39901958557E+02  0.50528860117E+02  0.30000000813E+02 0.  0.
        -12    1    1    2    0    0  0.18732864152E+01  0.75822264098E+01 -0.39901958557E+02  0.40659139883E+02  0.00000000000E+00 0.  1.
         11    1    3    3    0    0 -0.15915884980E+01 -0.81208800480E+00  0.95312478500E+00  0.20251143157E+01  0.51100000000E-03 0. -1.
        -11    1    3    3    0    0 -0.12740411885E+02 -0.22467506798E+01  0.90194230232E+01  0.15770731611E+02  0.51100000000E-03 0.  1.
         12    1    3    3    0    0  0.12458713968E+02 -0.45233877252E+01  0.29929410749E+02  0.32733014191E+02  0.00000000000E+00 0. -1.
</event>
<event>
 7    1  0.5601662E-013  0.5052886E+02  0.7816164E-02  0.1300439E+00
        -11   -1    0    0    0    0  0.00000000000E+00  0.00000000000E+00  0.45593999997E+02  0.45594000000E+02  0.51100000000E-03 0.  1.
         11   -1    0    0    0    0 -0.00000000000E+00 -0.00000000000E+00 -0.45593999997E+02  0.45594000000E+02  0.51100000000E-03 0. -1.
    9900012    2    1    2    0    0 -0.17125467138E+02  0.89068768969E+01 -0.35784799451E+02  0.50528856471E+02  0.29999989731E+02 0.  0.
        -12    1    1    2    0    0  0.17125467138E+02 -0.89068768969E+01  0.35784799451E+02  0.40659143529E+02  0.00000000000E+00 0.  1.
         11    1    3    3    0    0 -0.64972133048E+01 -0.28663142512E+01 -0.94104263855E+01  0.11789218088E+02  0.51100000000E-03 0. -1.
        -11    1    3    3    0    0 -0.17410111234E+01 -0.18752402169E+00  0.42970309237E+01  0.46401249995E+01  0.51100000000E-03 0.  1.
        -12    1    3    3    0    0 -0.88872427099E+01  0.11960715170E+02 -0.30671403989E+02  0.34099513384E+02  0.00000000000E+00 0.  1.
</event>
<event>
 7    1  0.5601662E-013  0.5052885E+02  0.7816164E-02  0.1300439E+00
        -11   -1    0    0    0    0  0.00000000000E+00  0.00000000000E+00  0.45593999997E+02  0.45594000000E+02  0.51100000000E-03 0. -1.
         11   -1    0    0    0    0 -0.00000000000E+00 -0.00000000000E+00 -0.45593999997E+02  0.45594000000E+02  0.51100000000E-03 0.  1.
    9900012    2    1    2    0    0 -0.40179126196E+02 -0.59525449736E+01 -0.18361321639E+01  0.50528851523E+02  0.29999974689E+02 0.  0.
        -12    1    1    2    0    0  0.40179126196E+02  0.59525449736E+01  0.18361321639E+01  0.40659148477E+02  0.00000000000E+00 0.  1.
         11    1    3    3    0    0 -0.15374386758E+02  0.60874293552E+01 -0.55748488110E+01  0.17450143377E+02  0.51100000000E-03 0. -1.
        -11    1    3    3    0    0 -0.16859083971E+02 -0.94590924462E+01 -0.60061462095E+01  0.20242947780E+02  0.51100000000E-03 0.  1.
         12    1    3    3    0    0 -0.79456554667E+01 -0.25808818826E+01  0.97448628566E+01  0.12835760366E+02  0.00000000000E+00 0. -1.
</event>
<event>
 7    1  0.5601662E-013  0.5052886E+02  0.7816164E-02  0.1300439E+00
        -11   -1    0    0    0    0  0.00000000000E+00  0.00000000000E+00  0.45593999997E+02  0.45594000000E+02  0.51100000000E-03 0.  1.
         11   -1    0    0    0    0 -0.00000000000E+00 -0.00000000000E+00 -0.45593999997E+02  0.45594000000E+02  0.51100000000E-03 0. -1.
    9900012    2    1    2    0    0  0.19663457209E+02  0.34956952399E+02  0.66727539240E+01  0.50528859387E+02  0.29999998592E+02 0.  0.
        -12    1    1    2    0    0 -0.19663457209E+02 -0.34956952399E+02 -0.66727539240E+01  0.40659140613E+02  0.00000000000E+00 0.  1.
         11    1    3    3    0    0 -0.36012874447E+01  0.93027371792E+01  0.24056520482E+01  0.10261449816E+02  0.51100000000E-03 0.  1.
        -11    1    3    3    0    0 -0.19503137054E+01  0.66319635491E+00 -0.33738512138E+01  0.39530273498E+01  0.51100000000E-03 0. -1.
        -12    1    3    3    0    0  0.25215058359E+02  0.24991018865E+02  0.76409530896E+01  0.36314382221E+02  0.00000000000E+00 0.  1.
</event>
<event>
 7    1  0.5601662E-013  0.5052888E+02  0.7816164E-02  0.1300439E+00
        -11   -1    0    0    0    0  0.00000000000E+00  0.00000000000E+00  0.45593999997E+02  0.45594000000E+02  0.51100000000E-03 0.  1.
         11   -1    0    0    0    0 -0.00000000000E+00 -0.00000000000E+00 -0.45593999997E+02  0.45594000000E+02  0.51100000000E-03 0. -1.
    9900012    2    1    2    0    0 -0.21489961196E+02  0.24725505511E+02 -0.24083086104E+02  0.50528879359E+02  0.30000059301E+02 0.  0.
        -12    1    1    2    0    0  0.21489961196E+02 -0.24725505511E+02  0.24083086104E+02  0.40659120641E+02  0.00000000000E+00 0.  1.
         11    1    3    3    0    0 -0.11020884639E+02  0.92485634478E+01 -0.14597312386E+01  0.14461211555E+02  0.51100000000E-03 0. -1.
        -11    1    3    3    0    0 -0.34212225241E+01  0.60169091747E+01  0.32389571527E+01  0.76419109701E+01  0.51100000000E-03 0.  1.
         12    1    3    3    0    0 -0.70478540328E+01  0.94600328883E+01 -0.25862312018E+02  0.28425756835E+02  0.00000000000E+00 0. -1.
</event>
<event>
 7    1  0.5601662E-013  0.5052887E+02  0.7816164E-02  0.1300439E+00
        -11   -1    0    0    0    0  0.00000000000E+00  0.00000000000E+00  0.45593999997E+02  0.45594000000E+02  0.51100000000E-03 0. -1.
         11   -1    0    0    0    0 -0.00000000000E+00 -0.00000000000E+00 -0.45593999997E+02  0.45594000000E+02  0.51100000000E-03 0.  1.
    9900012    2    1    2    0    0  0.39995456803E+02  0.59933548480E+01  0.41961743289E+01  0.50528871306E+02  0.30000034821E+02 0.  0.
        -12    1    1    2    0    0 -0.39995456803E+02 -0.59933548480E+01 -0.41961743289E+01  0.40659128694E+02  0.00000000000E+00 0.  1.
         11    1    3    3    0    0  0.21499370506E+01 -0.15282511565E+01 -0.37492300171E+01  0.45841582543E+01  0.51100000000E-03 0.  1.
        -11    1    3    3    0    0  0.14603680347E+02  0.90926234019E+01  0.13651126586E+02  0.21961250814E+02  0.51100000000E-03 0. -1.
         12    1    3    3    0    0  0.23241839405E+02 -0.15710173974E+01 -0.57057222397E+01  0.23983462237E+02  0.00000000000E+00 0. -1.
</event>
<event>
 7    1  0.5601662E-013  0.5052886E+02  0.7816164E-02  0.1300439E+00
        -11   -1    0    0    0    0  0.00000000000E+00  0.00000000000E+00  0.45593999997E+02  0.45594000000E+02  0.51100000000E-03 0.  1.
         11   -1    0    0    0    0 -0.00000000000E+00 -0.00000000000E+00 -0.45593999997E+02  0.45594000000E+02  0.51100000000E-03 0. -1.
    9900012    2    1    2    0    0 -0.24650070164E+02 -0.17190676116E+02 -0.27386501853E+02  0.50528858492E+02  0.29999995874E+02 0.  0.
        -12    1    1    2    0    0  0.24650070164E+02  0.17190676116E+02  0.27386501853E+02  0.40659141508E+02  0.00000000000E+00 0.  1.
         11    1    3    3    0    0 -0.39733503838E+01 -0.11451648868E+01 -0.86141852085E+01  0.95552657188E+01  0.51100000000E-03 0. -1.
        -11    1    3    3    0    0 -0.17213396021E+02 -0.50968988382E+00 -0.18185768366E+02  0.25045617534E+02  0.51100000000E-03 0.  1.
        -12    1    3    3    0    0 -0.34633237594E+01 -0.15535821345E+02 -0.58654827777E+00  0.15927975239E+02  0.00000000000E+00 0.  1.
</event>
<event>
 7    1  0.5601662E-013  0.5052886E+02  0.7816164E-02  0.1300439E+00
        -11   -1    0    0    0    0  0.00000000000E+00  0.00000000000E+00  0.45593999997E+02  0.45594000000E+02  0.51100000000E-03 0. -1.
         11   -1    0    0    0    0 -0.00000000000E+00 -0.00000000000E+00 -0.45593999997E+02  0.45594000000E+02  0.51100000000E-03 0.  1.
    9900012    2    1    2    0    0 -0.28188612752E+02  0.38288523680E+01  0.29050085878E+02  0.50528862173E+02  0.30000007061E+02 0.  0.
        -12    1    1    2    0    0  0.28188612752E+02 -0.38288523680E+01 -0.29050085878E+02  0.40659137827E+02  0.00000000000E+00 0.  1.
         11    1    3    3    0    0 -0.94787163623E+01  0.38045480876E+00  0.13587326131E+02  0.16571247430E+02  0.51100000000E-03 0. -1.
        -11    1    3    3    0    0  0.29641199182E-01 -0.24488771808E+01  0.14049419761E+02  0.14261278832E+02  0.51100000000E-03 0.  1.
        -12    1    3    3    0    0 -0.18739537589E+02  0.58972747400E+01  0.14133399863E+01  0.19696335911E+02  0.00000000000E+00 0.  1.
</event>
<event>
 7    1  0.5601662E-013  0.5052886E+02  0.7816164E-02  0.1300439E+00
        -11   -1    0    0    0    0  0.00000000000E+00  0.00000000000E+00  0.45593999997E+02  0.45594000000E+02  0.51100000000E-03 0. -1.
         11   -1    0    0    0    0 -0.00000000000E+00 -0.00000000000E+00 -0.45593999997E+02  0.45594000000E+02  0.51100000000E-03 0.  1.
    9900012    2    1    2    0    0 -0.37438686623E+02  0.15564683981E+02  0.30416015530E+01  0.50528856090E+02  0.29999988572E+02 0.  0.
        -12    1    1    2    0    0  0.37438686623E+02 -0.15564683981E+02 -0.30416015530E+01  0.40659143910E+02  0.00000000000E+00 0.  1.
         11    1    3    3    0    0 -0.10170788554E+02  0.18288125482E+02  0.12777955101E+01  0.20965047939E+02  0.51100000000E-03 0.  1.
        -11    1    3    3    0    0 -0.28020539711E+01  0.10857548921E+01  0.36542245874E+01  0.47311444428E+01  0.51100000000E-03 0. -1.
        -12    1    3    3    0    0 -0.24465844098E+02 -0.38091963931E+01 -0.18904185444E+01  0.24832663708E+02  0.00000000000E+00 0.  1.
</event>
<event>
 7    1  0.5601662E-013  0.5052887E+02  0.7816164E-02  0.1300439E+00
        -11   -1    0    0    0    0  0.00000000000E+00  0.00000000000E+00  0.45593999997E+02  0.45594000000E+02  0.51100000000E-03 0. -1.
         11   -1    0    0    0    0 -0.00000000000E+00 -0.00000000000E+00 -0.45593999997E+02  0.45594000000E+02  0.51100000000E-03 0.  1.
    9900012    2    1    2    0    0 -0.38050872707E+02  0.13241905137E+02 -0.54724963390E+01  0.50528865951E+02  0.30000018545E+02 0.  0.
        -12    1    1    2    0    0  0.38050872707E+02 -0.13241905137E+02  0.54724963390E+01  0.40659134049E+02  0.00000000000E+00 0.  1.
         11    1    3    3    0    0 -0.12820909358E+02  0.45588640356E+01  0.63011142213E+01  0.14995432597E+02  0.51100000000E-03 0.  1.
        -11    1    3    3    0    0 -0.11271832851E+02  0.11228308819E+02  0.16576090701E+01  0.15996149625E+02  0.51100000000E-03 0. -1.
        -12    1    3    3    0    0 -0.13958130498E+02 -0.25452677177E+01 -0.13431219630E+02  0.19537283729E+02  0.00000000000E+00 0.  1.
</event>
<event>
 7    1  0.5601662E-013  0.5052886E+02  0.7816164E-02  0.1300439E+00
        -11   -1    0    0    0    0  0.00000000000E+00  0.00000000000E+00  0.45593999997E+02  0.45594000000E+02  0.51100000000E-03 0.  1.
         11   -1    0    0    0    0 -0.00000000000E+00 -0.00000000000E+00 -0.45593999997E+02  0.45594000000E+02  0.51100000000E-03 0. -1.
    9900012    2    1    2    0    0 -0.23890948201E+01 -0.39528095829E+02 -0.92188684526E+01  0.50528859952E+02  0.30000000309E+02 0.  0.
        -12    1    1    2    0    0  0.23890948201E+01  0.39528095829E+02  0.92188684526E+01  0.40659140048E+02  0.00000000000E+00 0.  1.
         11    1    3    3    0    0  0.38981947234E+01 -0.20509416189E+02 -0.13618549998E+02  0.24925829551E+02  0.51100000000E-03 0. -1.
        -11    1    3    3    0    0 -0.80397070889E+01 -0.19390288833E+02  0.15030327910E+00  0.20991493097E+02  0.51100000000E-03 0.  1.
        -12    1    3    3    0    0  0.17524175453E+01  0.37160919340E+00  0.42493782665E+01  0.46115373031E+01  0.00000000000E+00 0.  1.
</event>
<event>
 7    1  0.5601662E-013  0.5052887E+02  0.7816164E-02  0.1300439E+00
        -11   -1    0    0    0    0  0.00000000000E+00  0.00000000000E+00  0.45593999997E+02  0.45594000000E+02  0.51100000000E-03 0. -1.
         11   -1    0    0    0    0 -0.00000000000E+00 -0.00000000000E+00 -0.45593999997E+02  0.45594000000E+02  0.51100000000E-03 0.  1.
    9900012    2    1    2    0    0 -0.30784470480E+01  0.39961058587E+02  0.68411612837E+01  0.50528873997E+02  0.30000043000E+02 0.  0.
        -12    1    1    2    0    0  0.30784470480E+01 -0.39961058587E+02 -0.68411612837E+01  0.40659126003E+02  0.00000000000E+00 0.  1.
         11    1    3    3    0    0  0.68261512289E+01  0.10175924254E+02 -0.75005434844E+01  0.14366764697E+02  0.51100000000E-03 0. -1.
        -11    1    3    3    0    0 -0.67065993912E+01  0.65968151712E+01  0.17029039566E+01  0.95601426738E+01  0.51100000000E-03 0.  1.
        -12    1    3    3    0    0 -0.31979988856E+01  0.23188319162E+02  0.12638800811E+02  0.26601966626E+02  0.00000000000E+00 0.  1.
</event>
<event>
 7    1  0.5601662E-013  0.5052886E+02  0.7816164E-02  0.1300439E+00
        -11   -1    0    0    0    0  0.00000000000E+00  0.00000000000E+00  0.45593999997E+02  0.45594000000E+02  0.51100000000E-03 0.  1.
         11   -1    0    0    0    0 -0.00000000000E+00 -0.00000000000E+00 -0.45593999997E+02  0.45594000000E+02  0.51100000000E-03 0. -1.
    9900012    2    1    2    0    0  0.71194355604E+01  0.39977083792E+02  0.20766485975E+01  0.50528855142E+02  0.29999985689E+02 0.  0.
        -12    1    1    2    0    0 -0.71194355604E+01 -0.39977083792E+02 -0.20766485975E+01  0.40659144858E+02  0.00000000000E+00 0.  1.
         11    1    3    3    0    0  0.10837644040E+02  0.27150644261E+02  0.63102786681E+01  0.29907049825E+02  0.51100000000E-03 0. -1.
        -11    1    3    3    0    0  0.20952548324E+01  0.84849795689E+01  0.40305584122E+01  0.96244673864E+01  0.51100000000E-03 0.  1.
         12    1    3    3    0    0 -0.58134633115E+01  0.43414599618E+01 -0.82641884828E+01  0.10997337930E+02  0.00000000000E+00 0. -1.
</event>
<event>
 7    1  0.5601662E-013  0.5052884E+02  0.7816164E-02  0.1300439E+00
        -11   -1    0    0    0    0  0.00000000000E+00  0.00000000000E+00  0.45593999997E+02  0.45594000000E+02  0.51100000000E-03 0.  1.
         11   -1    0    0    0    0 -0.00000000000E+00 -0.00000000000E+00 -0.45593999997E+02  0.45594000000E+02  0.51100000000E-03 0. -1.
    9900012    2    1    2    0    0 -0.19860178335E+02 -0.33233254065E+02  0.12421395634E+02  0.50528844466E+02  0.29999953240E+02 0.  0.
        -12    1    1    2    0    0  0.19860178335E+02  0.33233254065E+02 -0.12421395634E+02  0.40659155534E+02  0.00000000000E+00 0.  1.
         11    1    3    3    0    0 -0.63223582012E+01 -0.79739344270E+01  0.15106210679E+02  0.18214100165E+02  0.51100000000E-03 0. -1.
        -11    1    3    3    0    0 -0.99665865331E+00 -0.16717689122E+01  0.42849061959E+01  0.47062257846E+01  0.51100000000E-03 0.  1.
         12    1    3    3    0    0 -0.12541161480E+02 -0.23587550726E+02 -0.69697212412E+01  0.27608518517E+02  0.00000000000E+00 0. -1.
</event>
<event>
 7    1  0.5601662E-013  0.5052886E+02  0.7816164E-02  0.1300439E+00
        -11   -1    0    0    0    0  0.00000000000E+00  0.00000000000E+00  0.45593999997E+02  0.45594000000E+02  0.51100000000E-03 0. -1.
         11   -1    0    0    0    0 -0.00000000000E+00 -0.00000000000E+00 -0.45593999997E+02  0.45594000000E+02  0.51100000000E-03 0.  1.
    9900012    2    1    2    0    0  0.31186804863E+02 -0.19712346114E+02  0.17087206483E+02  0.50528855736E+02  0.29999987496E+02 0.  0.
        -12    1    1    2    0    0 -0.31186804863E+02  0.19712346114E+02 -0.17087206483E+02  0.40659144264E+02  0.00000000000E+00 0.  1.
         11    1    3    3    0    0  0.13967813786E+02 -0.29176440876E+01  0.47055488488E+01  0.15025134250E+02  0.51100000000E-03 0. -1.
        -11    1    3    3    0    0 -0.28258816033E+01 -0.36944363231E+01 -0.42884610046E+01  0.63265602527E+01  0.51100000000E-03 0.  1.
         12    1    3    3    0    0  0.20044872679E+02 -0.13100265703E+02  0.16670118639E+02  0.29177161234E+02  0.00000000000E+00 0. -1.
</event>
<event>
 7    1  0.5601662E-013  0.5052886E+02  0.7816164E-02  0.1300439E+00
        -11   -1    0    0    0    0  0.00000000000E+00  0.00000000000E+00  0.45593999997E+02  0.45594000000E+02  0.51100000000E-03 0.  1.
         11   -1    0    0    0    0 -0.00000000000E+00 -0.00000000000E+00 -0.45593999997E+02  0.45594000000E+02  0.51100000000E-03 0. -1.
    9900012    2    1    2    0    0  0.19304972813E+02  0.32206184253E+02 -0.15596321538E+02  0.50528861729E+02  0.30000005711E+02 0.  0.
        -12    1    1    2    0    0 -0.19304972813E+02 -0.32206184253E+02  0.15596321538E+02  0.40659138271E+02  0.00000000000E+00 0.  1.
         11    1    3    3    0    0  0.77589666340E+01 -0.10560721517E+01 -0.39770623577E+01  0.87825894175E+01  0.51100000000E-03 0. -1.
        -11    1    3    3    0    0  0.92830223603E+00  0.29779332427E+01 -0.90262254305E+01  0.95500040431E+01  0.51100000000E-03 0.  1.
         12    1    3    3    0    0  0.10617703943E+02  0.30284323162E+02 -0.25930337496E+01  0.32196268268E+02  0.00000000000E+00 0. -1.
</event>
<event>
 7    1  0.5601662E-013  0.5052884E+02  0.7816164E-02  0.1300439E+00
        -11   -1    0    0    0    0  0.00000000000E+00  0.00000000000E+00  0.45593999997E+02  0.45594000000E+02  0.51100000000E-03 0.  1.
         11   -1    0    0    0    0 -0.00000000000E+00 -0.00000000000E+00 -0.45593999997E+02  0.45594000000E+02  0.51100000000E-03 0. -1.
    9900012    2    1    2    0    0 -0.83914579818E+01 -0.34574461592E+02 -0.19681389550E+02  0.50528842900E+02  0.29999948479E+02 0.  0.
        -12    1    1    2    0    0  0.83914579818E+01  0.34574461592E+02  0.19681389550E+02  0.40659157100E+02  0.00000000000E+00 0.  1.
         11    1    3    3    0    0 -0.65047812764E+01 -0.13418715113E+02  0.39840742354E+01  0.15435249998E+02  0.51100000000E-03 0. -1.
        -11    1    3    3    0    0  0.14813131208E+01  0.82199510966E+00  0.93433019553E+00  0.19346673351E+01  0.51100000000E-03 0.  1.
         12    1    3    3    0    0 -0.33679898262E+01 -0.21977741589E+02 -0.24599793981E+02  0.33158925567E+02  0.00000000000E+00 0. -1.
</event>
<event>
 7    1  0.5601662E-013  0.5052886E+02  0.7816164E-02  0.1300439E+00
        -11   -1    0    0    0    0  0.00000000000E+00  0.00000000000E+00  0.45593999997E+02  0.45594000000E+02  0.51100000000E-03 0.  1.
         11   -1    0    0    0    0 -0.00000000000E+00 -0.00000000000E+00 -0.45593999997E+02  0.45594000000E+02  0.51100000000E-03 0. -1.
    9900012    2    1    2    0    0 -0.44302854442E+01  0.35027860559E+02 -0.20164013689E+02  0.50528857209E+02  0.29999991971E+02 0.  0.
        -12    1    1    2    0    0  0.44302854442E+01 -0.35027860559E+02  0.20164013689E+02  0.40659142791E+02  0.00000000000E+00 0.  1.
         11    1    3    3    0    0  0.69106738684E+01  0.92416594392E+01 -0.75342152378E+01  0.13781512327E+02  0.51100000000E-03 0. -1.
        -11    1    3    3    0    0 -0.88392247045E+00  0.57153458831E+01 -0.12875189049E+02  0.14114424919E+02  0.51100000000E-03 0.  1.
         12    1    3    3    0    0 -0.10457036842E+02  0.20070855237E+02  0.24539059784E+00  0.22632919962E+02  0.00000000000E+00 0. -1.
</event>
<event>
 7    1  0.5601662E-013  0.5052886E+02  0.7816164E-02  0.1300439E+00
        -11   -1    0    0    0    0  0.00000000000E+00  0.00000000000E+00  0.45593999997E+02  0.45594000000E+02  0.51100000000E-03 0. -1.
         11   -1    0    0    0    0 -0.00000000000E+00 -0.00000000000E+00 -0.45593999997E+02  0.45594000000E+02  0.51100000000E-03 0.  1.
    9900012    2    1    2    0    0  0.22545623985E+02  0.54040949578E+01 -0.33401446002E+02  0.50528855909E+02  0.29999988021E+02 0.  0.
        -12    1    1    2    0    0 -0.22545623985E+02 -0.54040949578E+01  0.33401446002E+02  0.40659144091E+02  0.00000000000E+00 0.  1.
         11    1    3    3    0    0 -0.31062937937E+01  0.10656236855E+01 -0.69139218571E+01  0.76542099971E+01  0.51100000000E-03 0. -1.
        -11    1    3    3    0    0  0.29091019858E+01 -0.75074985634E+01 -0.69637383500E+01  0.10645142606E+02  0.51100000000E-03 0.  1.
         12    1    3    3    0    0  0.22742815793E+02  0.11845969836E+02 -0.19523785795E+02  0.32229503305E+02  0.00000000000E+00 0. -1.
</event>
<event>
 7    1  0.5601662E-013  0.5052886E+02  0.7816164E-02  0.1300439E+00
        -11   -1    0    0    0    0  0.00000000000E+00  0.00000000000E+00  0.45593999997E+02  0.45594000000E+02  0.51100000000E-03 0.  1.
         11   -1    0    0    0    0 -0.00000000000E+00 -0.00000000000E+00 -0.45593999997E+02  0.45594000000E+02  0.51100000000E-03 0. -1.
    9900012    2    1    2    0    0  0.32271776542E+02 -0.15389381419E+02 -0.19361437957E+02  0.50528857099E+02  0.29999991639E+02 0.  0.
        -12    1    1    2    0    0 -0.32271776542E+02  0.15389381419E+02  0.19361437957E+02  0.40659142901E+02  0.00000000000E+00 0.  1.
         11    1    3    3    0    0 -0.20815812766E+01 -0.41874845732E+01 -0.29460028598E+01  0.55269286926E+01  0.51100000000E-03 0.  1.
        -11    1    3    3    0    0  0.25652728784E+02 -0.15466189068E+02 -0.55864742080E+01  0.30470874498E+02  0.51100000000E-03 0. -1.
         12    1    3    3    0    0  0.87006290346E+01  0.42642922216E+01 -0.10828960889E+02  0.14531053908E+02  0.00000000000E+00 0. -1.
</event>
<event>
 7    1  0.5601662E-013  0.5052894E+02  0.7816164E-02  0.1300439E+00
        -11   -1    0    0    0    0  0.00000000000E+00  0.00000000000E+00  0.45593999997E+02  0.45594000000E+02  0.51100000000E-03 0.  1.
         11   -1    0    0    0    0 -0.00000000000E+00 -0.00000000000E+00 -0.45593999997E+02  0.45594000000E+02  0.51100000000E-03 0. -1.
    9900012    2    1    2    0    0 -0.12483103130E+01  0.18466181944E+02 -0.36202221476E+02  0.50528942042E+02  0.30000249830E+02 0.  0.
        -12    1    1    2    0    0  0.12483103130E+01 -0.18466181944E+02  0.36202221476E+02  0.40659057958E+02  0.00000000000E+00 0.  1.
         11    1    3    3    0    0 -0.62042703532E+01  0.52885992990E+01 -0.14064788724E+01  0.82728735178E+01  0.51100000000E-03 0. -1.
        -11    1    3    3    0    0 -0.58316588383E+01  0.41866095659E+01 -0.22408396980E+02  0.23530240116E+02  0.51100000000E-03 0.  1.
        -12    1    3    3    0    0  0.10787618878E+02  0.89909730786E+01 -0.12387345624E+02  0.18725828408E+02  0.00000000000E+00 0.  1.
</event>
<event>
 7    1  0.5601662E-013  0.5052885E+02  0.7816164E-02  0.1300439E+00
        -11   -1    0    0    0    0  0.00000000000E+00  0.00000000000E+00  0.45593999997E+02  0.45594000000E+02  0.51100000000E-03 0.  1.
         11   -1    0    0    0    0 -0.00000000000E+00 -0.00000000000E+00 -0.45593999997E+02  0.45594000000E+02  0.51100000000E-03 0. -1.
    9900012    2    1    2    0    0  0.44334443900E+01  0.27906156648E+02 -0.29236239455E+02  0.50528847211E+02  0.29999961584E+02 0.  0.
        -12    1    1    2    0    0 -0.44334443900E+01 -0.27906156648E+02  0.29236239455E+02  0.40659152789E+02  0.00000000000E+00 0.  1.
         11    1    3    3    0    0 -0.39935616741E+01  0.15953304381E+02 -0.66947389089E+01  0.17756012639E+02  0.51100000000E-03 0. -1.
        -11    1    3    3    0    0  0.35077323542E-01  0.11489493635E+02 -0.35836682620E+01  0.12035463135E+02  0.51100000000E-03 0.  1.
        -12    1    3    3    0    0  0.83919287405E+01  0.46335863209E+00 -0.18957832284E+02  0.20737371437E+02  0.00000000000E+00 0.  1.
</event>
<event>
 7    1  0.5601662E-013  0.5052875E+02  0.7816164E-02  0.1300439E+00
        -11   -1    0    0    0    0  0.00000000000E+00  0.00000000000E+00  0.45593999997E+02  0.45594000000E+02  0.51100000000E-03 0.  1.
         11   -1    0    0    0    0 -0.00000000000E+00 -0.00000000000E+00 -0.45593999997E+02  0.45594000000E+02  0.51100000000E-03 0. -1.
    9900012    2    1    2    0    0  0.26182944382E+02  0.29199723464E+02 -0.10723997879E+02  0.50528750654E+02  0.29999668086E+02 0.  0.
        -12    1    1    2    0    0 -0.26182944382E+02 -0.29199723464E+02  0.10723997879E+02  0.40659249346E+02  0.00000000000E+00 0.  1.
         11    1    3    3    0    0  0.53364882912E+01  0.30758191283E+01 -0.11401848510E+02  0.12959202148E+02  0.51100000000E-03 0. -1.
        -11    1    3    3    0    0 -0.12211379207E+01  0.56621285417E+01  0.43614207395E+01  0.72507150387E+01  0.51100000000E-03 0.  1.
         12    1    3    3    0    0  0.22067594012E+02  0.20461775794E+02 -0.36835701085E+01  0.30318833468E+02  0.00000000000E+00 0. -1.
</event>
<event>
 7    1  0.5601662E-013  0.5052886E+02  0.7816164E-02  0.1300439E+00
        -11   -1    0    0    0    0  0.00000000000E+00  0.00000000000E+00  0.45593999997E+02  0.45594000000E+02  0.51100000000E-03 0.  1.
         11   -1    0    0    0    0 -0.00000000000E+00 -0.00000000000E+00 -0.45593999997E+02  0.45594000000E+02  0.51100000000E-03 0. -1.
    9900012    2    1    2    0    0 -0.12905584625E+02 -0.34249693981E+02 -0.17707906829E+02  0.50528860602E+02  0.30000002287E+02 0.  0.
        -12    1    1    2    0    0  0.12905584625E+02  0.34249693981E+02  0.17707906829E+02  0.40659139398E+02  0.00000000000E+00 0.  1.
         11    1    3    3    0    0 -0.90517730769E+01 -0.10023997199E+02 -0.13586317973E+02  0.19157326327E+02  0.51100000000E-03 0. -1.
        -11    1    3    3    0    0 -0.73042730544E+01 -0.93955507837E+01 -0.94955162442E+01  0.15224769568E+02  0.51100000000E-03 0.  1.
        -12    1    3    3    0    0  0.34504615065E+01 -0.14830145998E+02  0.53739273886E+01  0.16146764707E+02  0.00000000000E+00 0.  1.
</event>
<event>
 7    1  0.5601662E-013  0.5052881E+02  0.7816164E-02  0.1300439E+00
        -11   -1    0    0    0    0  0.00000000000E+00  0.00000000000E+00  0.45593999997E+02  0.45594000000E+02  0.51100000000E-03 0. -1.
         11   -1    0    0    0    0 -0.00000000000E+00 -0.00000000000E+00 -0.45593999997E+02  0.45594000000E+02  0.51100000000E-03 0.  1.
    9900012    2    1    2    0    0 -0.82324742465E+01  0.39594596665E+02  0.42028544028E+01  0.50528810357E+02  0.29999849560E+02 0.  0.
        -12    1    1    2    0    0  0.82324742465E+01 -0.39594596665E+02 -0.42028544028E+01  0.40659189643E+02  0.00000000000E+00 0.  1.
         11    1    3    3    0    0 -0.10819206451E+02  0.19614185362E+02 -0.60128560081E+01  0.23193230333E+02  0.51100000000E-03 0. -1.
        -11    1    3    3    0    0  0.40829048985E+01  0.10185565492E+02 -0.24609462466E+01  0.11245982104E+02  0.51100000000E-03 0.  1.
         12    1    3    3    0    0 -0.14961726939E+01  0.97948458112E+01  0.12676656658E+02  0.16089597919E+02  0.00000000000E+00 0. -1.
</event>
<event>
 7    1  0.5601662E-013  0.5052887E+02  0.7816164E-02  0.1300439E+00
        -11   -1    0    0    0    0  0.00000000000E+00  0.00000000000E+00  0.45593999997E+02  0.45594000000E+02  0.51100000000E-03 0.  1.
         11   -1    0    0    0    0 -0.00000000000E+00 -0.00000000000E+00 -0.45593999997E+02  0.45594000000E+02  0.51100000000E-03 0. -1.
    9900012    2    1    2    0    0 -0.20274598846E+02  0.10314077653E+02 -0.33700525867E+02  0.50528868185E+02  0.30000025336E+02 0.  0.
        -12    1    1    2    0    0  0.20274598846E+02 -0.10314077653E+02  0.33700525867E+02  0.40659131815E+02  0.00000000000E+00 0.  1.
         11    1    3    3    0    0 -0.14431644460E+02  0.95078369910E+00 -0.10282101130E+02  0.17745364335E+02  0.51100000000E-03 0. -1.
        -11    1    3    3    0    0 -0.56254223755E+00 -0.63373329427E+01 -0.59753457800E+01  0.87282873490E+01  0.51100000000E-03 0.  1.
         12    1    3    3    0    0 -0.52804121484E+01  0.15700626897E+02 -0.17443078957E+02  0.24055216501E+02  0.00000000000E+00 0. -1.
</event>
<event>
 7    1  0.5601662E-013  0.5052890E+02  0.7816164E-02  0.1300439E+00
        -11   -1    0    0    0    0  0.00000000000E+00  0.00000000000E+00  0.45593999997E+02  0.45594000000E+02  0.51100000000E-03 0.  1.
         11   -1    0    0    0    0 -0.00000000000E+00 -0.00000000000E+00 -0.45593999997E+02  0.45594000000E+02  0.51100000000E-03 0. -1.
    9900012    2    1    2    0    0  0.21652255937E+02  0.23789438041E+02 -0.24867752991E+02  0.50528896612E+02  0.30000111743E+02 0.  0.
        -12    1    1    2    0    0 -0.21652255937E+02 -0.23789438041E+02  0.24867752991E+02  0.40659103388E+02  0.00000000000E+00 0.  1.
         11    1    3    3    0    0 -0.57744442974E+01  0.19091406370E+01 -0.60586033284E+00  0.61119630169E+01  0.51100000000E-03 0.  1.
        -11    1    3    3    0    0 -0.98699681497E+00  0.14176919035E+01 -0.29717659935E+01  0.34373545681E+01  0.51100000000E-03 0. -1.
         12    1    3    3    0    0  0.28413697049E+02  0.20462605501E+02 -0.21290126665E+02  0.40979579027E+02  0.00000000000E+00 0. -1.
</event>
<event>
 7    1  0.5601662E-013  0.5052888E+02  0.7816164E-02  0.1300439E+00
        -11   -1    0    0    0    0  0.00000000000E+00  0.00000000000E+00  0.45593999997E+02  0.45594000000E+02  0.51100000000E-03 0.  1.
         11   -1    0    0    0    0 -0.00000000000E+00 -0.00000000000E+00 -0.45593999997E+02  0.45594000000E+02  0.51100000000E-03 0. -1.
    9900012    2    1    2    0    0 -0.15064378252E+02  0.28574487713E+02 -0.24692662905E+02  0.50528875052E+02  0.30000046207E+02 0.  0.
        -12    1    1    2    0    0  0.15064378252E+02 -0.28574487713E+02  0.24692662905E+02  0.40659124948E+02  0.00000000000E+00 0.  1.
         11    1    3    3    0    0 -0.64790038066E+01  0.96435328491E+01 -0.20046559613E+02  0.23169802949E+02  0.51100000000E-03 0. -1.
        -11    1    3    3    0    0 -0.29820294607E+01 -0.20807205952E+01 -0.42718470426E+01  0.56098641085E+01  0.51100000000E-03 0.  1.
         12    1    3    3    0    0 -0.56033449846E+01  0.21011675460E+02 -0.37425625021E+00  0.21749207994E+02  0.00000000000E+00 0. -1.
</event>
<event>
 7    1  0.5601662E-013  0.5052886E+02  0.7816164E-02  0.1300439E+00
        -11   -1    0    0    0    0  0.00000000000E+00  0.00000000000E+00  0.45593999997E+02  0.45594000000E+02  0.51100000000E-03 0. -1.
         11   -1    0    0    0    0 -0.00000000000E+00 -0.00000000000E+00 -0.45593999997E+02  0.45594000000E+02  0.51100000000E-03 0.  1.
    9900012    2    1    2    0    0 -0.29417046392E+01  0.44162196843E+01  0.40311404861E+02  0.50528856080E+02  0.29999988540E+02 0.  0.
        -12    1    1    2    0    0  0.29417046392E+01 -0.44162196843E+01 -0.40311404861E+02  0.40659143920E+02  0.00000000000E+00 0.  1.
         11    1    3    3    0    0  0.11983047604E+01 -0.11769473724E+01 -0.33938298101E+00  0.17135695157E+01  0.51100000000E-03 0.  1.
        -11    1    3    3    0    0 -0.11421580732E+02 -0.14387352475E+01  0.65522351062E+01  0.13245914490E+02  0.51100000000E-03 0. -1.
         12    1    3    3    0    0  0.72815713325E+01  0.70319023043E+01  0.34098552735E+02  0.35569372074E+02  0.00000000000E+00 0. -1.
</event>
<event>
 7    1  0.5601662E-013  0.5052887E+02  0.7816164E-02  0.1300439E+00
        -11   -1    0    0    0    0  0.00000000000E+00  0.00000000000E+00  0.45593999997E+02  0.45594000000E+02  0.51100000000E-03 0. -1.
         11   -1    0    0    0    0 -0.00000000000E+00 -0.00000000000E+00 -0.45593999997E+02  0.45594000000E+02  0.51100000000E-03 0.  1.
    9900012    2    1    2    0    0  0.35152272383E+02 -0.31822119634E+01 -0.20183074621E+02  0.50528865383E+02  0.30000016817E+02 0.  0.
        -12    1    1    2    0    0 -0.35152272383E+02  0.31822119634E+01  0.20183074621E+02  0.40659134617E+02  0.00000000000E+00 0.  1.
         11    1    3    3    0    0  0.22211695246E+02 -0.15467864733E+01 -0.48116093393E+01  0.22779454313E+02  0.51100000000E-03 0. -1.
        -11    1    3    3    0    0  0.17002891885E+02 -0.28758021159E+01 -0.74992931256E+01  0.18804466701E+02  0.51100000000E-03 0.  1.
        -12    1    3    3    0    0 -0.40623147488E+01  0.12403766258E+01 -0.78721721564E+01  0.89449443683E+01  0.00000000000E+00 0.  1.
</event>
<event>
 7    1  0.5601662E-013  0.5052882E+02  0.7816164E-02  0.1300439E+00
        -11   -1    0    0    0    0  0.00000000000E+00  0.00000000000E+00  0.45593999997E+02  0.45594000000E+02  0.51100000000E-03 0. -1.
         11   -1    0    0    0    0 -0.00000000000E+00 -0.00000000000E+00 -0.45593999997E+02  0.45594000000E+02  0.51100000000E-03 0.  1.
    9900012    2    1    2    0    0 -0.39086968730E+01  0.23431279498E+02  0.32997976349E+02  0.50528816372E+02  0.29999867845E+02 0.  0.
        -12    1    1    2    0    0  0.39086968730E+01 -0.23431279498E+02 -0.32997976349E+02  0.40659183628E+02  0.00000000000E+00 0.  1.
         11    1    3    3    0    0 -0.26865292846E+01  0.15426190907E+01  0.15616011321E+01  0.34692523132E+01  0.51100000000E-03 0. -1.
        -11    1    3    3    0    0 -0.51784214174E+01  0.12873893879E+02 -0.25049051914E+00  0.13878614403E+02  0.51100000000E-03 0.  1.
         12    1    3    3    0    0  0.39562538290E+01  0.90147665282E+01  0.31686865736E+02  0.33180949656E+02  0.00000000000E+00 0. -1.
</event>
<event>
 7    1  0.5601662E-013  0.5052885E+02  0.7816164E-02  0.1300439E+00
        -11   -1    0    0    0    0  0.00000000000E+00  0.00000000000E+00  0.45593999997E+02  0.45594000000E+02  0.51100000000E-03 0.  1.
         11   -1    0    0    0    0 -0.00000000000E+00 -0.00000000000E+00 -0.45593999997E+02  0.45594000000E+02  0.51100000000E-03 0. -1.
    9900012    2    1    2    0    0  0.22223787508E+01 -0.34211001734E+02 -0.21859434525E+02  0.50528849926E+02  0.29999969835E+02 0.  0.
        -12    1    1    2    0    0 -0.22223787508E+01  0.34211001734E+02  0.21859434525E+02  0.40659150074E+02  0.00000000000E+00 0.  1.
         11    1    3    3    0    0  0.35039693639E+00  0.45484038050E+01 -0.61150579338E+01  0.76291997602E+01  0.51100000000E-03 0. -1.
        -11    1    3    3    0    0 -0.38125359411E+01 -0.15427834261E+02 -0.63069063269E+01  0.17097677268E+02  0.51100000000E-03 0.  1.
        -12    1    3    3    0    0  0.56845177555E+01 -0.23331571278E+02 -0.94374702645E+01  0.25801972897E+02  0.00000000000E+00 0.  1.
</event>
<event>
 7    1  0.5601662E-013  0.5052886E+02  0.7816164E-02  0.1300439E+00
        -11   -1    0    0    0    0  0.00000000000E+00  0.00000000000E+00  0.45593999997E+02  0.45594000000E+02  0.51100000000E-03 0.  1.
         11   -1    0    0    0    0 -0.00000000000E+00 -0.00000000000E+00 -0.45593999997E+02  0.45594000000E+02  0.51100000000E-03 0. -1.
    9900012    2    1    2    0    0  0.32977505760E+02 -0.24360760327E+01 -0.23658307246E+02  0.50528857679E+02  0.29999993400E+02 0.  0.
        -12    1    1    2    0    0 -0.32977505760E+02  0.24360760327E+01  0.23658307246E+02  0.40659142321E+02  0.00000000000E+00 0.  1.
         11    1    3    3    0    0  0.14246584678E+02 -0.63118929886E+01 -0.79170881791E+01  0.17478142166E+02  0.51100000000E-03 0. -1.
        -11    1    3    3    0    0  0.17177509472E+02 -0.45184612348E+01 -0.16800154334E+02  0.24448486855E+02  0.51100000000E-03 0.  1.
        -12    1    3    3    0    0  0.15534116095E+01  0.83942781907E+01  0.10589352670E+01  0.86022286572E+01  0.00000000000E+00 0.  1.
</event>
<event>
 7    1  0.5601662E-013  0.5052890E+02  0.7816164E-02  0.1300439E+00
        -11   -1    0    0    0    0  0.00000000000E+00  0.00000000000E+00  0.45593999997E+02  0.45594000000E+02  0.51100000000E-03 0.  1.
         11   -1    0    0    0    0 -0.00000000000E+00 -0.00000000000E+00 -0.45593999997E+02  0.45594000000E+02  0.51100000000E-03 0. -1.
    9900012    2    1    2    0    0  0.40564796401E+02  0.27665506304E+01 -0.77813791565E-01  0.50528898136E+02  0.30000116373E+02 0.  0.
        -12    1    1    2    0    0 -0.40564796401E+02 -0.27665506304E+01  0.77813791565E-01  0.40659101864E+02  0.00000000000E+00 0.  1.
         11    1    3    3    0    0  0.18366740401E+02  0.30692629334E+00  0.99410824743E+01  0.20886753643E+02  0.51100000000E-03 0. -1.
        -11    1    3    3    0    0  0.14360258279E+02  0.91977461793E+01 -0.34601794662E+01  0.17400815924E+02  0.51100000000E-03 0.  1.
        -12    1    3    3    0    0  0.78377977208E+01 -0.67381218423E+01 -0.65587167997E+01  0.12241328569E+02  0.00000000000E+00 0.  1.
</event>
<event>
 7    1  0.5601662E-013  0.5052885E+02  0.7816164E-02  0.1300439E+00
        -11   -1    0    0    0    0  0.00000000000E+00  0.00000000000E+00  0.45593999997E+02  0.45594000000E+02  0.51100000000E-03 0. -1.
         11   -1    0    0    0    0 -0.00000000000E+00 -0.00000000000E+00 -0.45593999997E+02  0.45594000000E+02  0.51100000000E-03 0.  1.
    9900012    2    1    2    0    0  0.74554395312E+01 -0.39596128004E+02 -0.54525086107E+01  0.50528846275E+02  0.29999958737E+02 0.  0.
        -12    1    1    2    0    0 -0.74554395312E+01  0.39596128004E+02  0.54525086107E+01  0.40659153725E+02  0.00000000000E+00 0.  1.
         11    1    3    3    0    0  0.34492912175E+01 -0.99494813958E+01  0.60045240354E+01  0.12122050120E+02  0.51100000000E-03 0. -1.
        -11    1    3    3    0    0  0.36981024064E-01  0.12919353267E+01  0.35604650342E+01  0.37877930257E+01  0.51100000000E-03 0.  1.
        -12    1    3    3    0    0  0.39691672896E+01 -0.30938581935E+02 -0.15017497680E+02  0.34619003130E+02  0.00000000000E+00 0.  1.
</event>
<event>
 7    1  0.5601662E-013  0.5052886E+02  0.7816164E-02  0.1300439E+00
        -11   -1    0    0    0    0  0.00000000000E+00  0.00000000000E+00  0.45593999997E+02  0.45594000000E+02  0.51100000000E-03 0. -1.
         11   -1    0    0    0    0 -0.00000000000E+00 -0.00000000000E+00 -0.45593999997E+02  0.45594000000E+02  0.51100000000E-03 0.  1.
    9900012    2    1    2    0    0  0.35395934690E+01 -0.26753538576E+02  0.30411927255E+02  0.50528857515E+02  0.29999992904E+02 0.  0.
        -12    1    1    2    0    0 -0.35395934690E+01  0.26753538576E+02 -0.30411927255E+02  0.40659142485E+02  0.00000000000E+00 0.  1.
         11    1    3    3    0    0 -0.26846956711E+01 -0.42528850264E+01  0.17077739605E+02  0.17802915834E+02  0.51100000000E-03 0. -1.
        -11    1    3    3    0    0 -0.46974831914E+01 -0.16198739794E+02  0.49280189449E+01  0.17571308722E+02  0.51100000000E-03 0.  1.
        -12    1    3    3    0    0  0.10921772331E+02 -0.63019137556E+01  0.84061687043E+01  0.15154632959E+02  0.00000000000E+00 0.  1.
</event>
<event>
 7    1  0.5601662E-013  0.5052884E+02  0.7816164E-02  0.1300439E+00
        -11   -1    0    0    0    0  0.00000000000E+00  0.00000000000E+00  0.45593999997E+02  0.45594000000E+02  0.51100000000E-03 0. -1.
         11   -1    0    0    0    0 -0.00000000000E+00 -0.00000000000E+00 -0.45593999997E+02  0.45594000000E+02  0.51100000000E-03 0.  1.
    9900012    2    1    2    0    0 -0.33890675124E+02  0.20054835388E+02 -0.10118955360E+02  0.50528836944E+02  0.29999930376E+02 0.  0.
        -12    1    1    2    0    0  0.33890675124E+02 -0.20054835388E+02  0.10118955360E+02  0.40659163056E+02  0.00000000000E+00 0.  1.
         11    1    3    3    0    0  0.16288943578E+01  0.26128939159E+01  0.26208741718E+01  0.40434506464E+01  0.51100000000E-03 0. -1.
        -11    1    3    3    0    0  0.10376059829E+01  0.63891424726E+01 -0.25577379937E+01  0.69598700861E+01  0.51100000000E-03 0.  1.
         12    1    3    3    0    0 -0.36557175465E+02  0.11052798999E+02 -0.10182091538E+02  0.39525516212E+02  0.00000000000E+00 0. -1.
</event>
<event>
 7    1  0.5877835E-013  0.5052886E+02  0.7816164E-02  0.1300439E+00
        -11   -1    0    0    0    0  0.00000000000E+00  0.00000000000E+00  0.45593999997E+02  0.45594000000E+02  0.51100000000E-03 0. -1.
         11   -1    0    0    0    0 -0.00000000000E+00 -0.00000000000E+00 -0.45593999997E+02  0.45594000000E+02  0.51100000000E-03 0.  1.
    9900012    2    1    2    0    0  0.70068475241E+01  0.39063059802E+02 -0.88400881473E+01  0.50528859432E+02  0.29999998728E+02 0.  0.
        -12    1    1    2    0    0 -0.70068475241E+01 -0.39063059802E+02  0.88400881473E+01  0.40659140568E+02  0.00000000000E+00 0.  1.
         11    1    3    3    0    0 -0.93813380457E+00  0.30715774621E+02 -0.80705591163E+01  0.31772202164E+02  0.51100000000E-03 0. -1.
        -11    1    3    3    0    0  0.64171365638E+01  0.54208019181E+01 -0.74993155311E+01  0.11260749034E+02  0.51100000000E-03 0.  1.
        -12    1    3    3    0    0  0.15278447648E+01  0.29264832624E+01  0.67297865001E+01  0.74959082337E+01  0.00000000000E+00 0.  1.
</event>
<event>
 7    1  0.5601662E-013  0.5052885E+02  0.7816164E-02  0.1300439E+00
        -11   -1    0    0    0    0  0.00000000000E+00  0.00000000000E+00  0.45593999997E+02  0.45594000000E+02  0.51100000000E-03 0.  1.
         11   -1    0    0    0    0 -0.00000000000E+00 -0.00000000000E+00 -0.45593999997E+02  0.45594000000E+02  0.51100000000E-03 0. -1.
    9900012    2    1    2    0    0 -0.62944096231E+01 -0.63619572156E+01 -0.39661977721E+02  0.50528848891E+02  0.29999966691E+02 0.  0.
        -12    1    1    2    0    0  0.62944096231E+01  0.63619572156E+01  0.39661977721E+02  0.40659151109E+02  0.00000000000E+00 0.  1.
         11    1    3    3    0    0  0.25376554332E+01  0.34583592301E+01 -0.78494326456E+01  0.89450286071E+01  0.51100000000E-03 0. -1.
        -11    1    3    3    0    0 -0.21588412319E+01  0.43350827479E+01 -0.23241885937E+02  0.23741078325E+02  0.51100000000E-03 0.  1.
        -12    1    3    3    0    0 -0.66732238245E+01 -0.14155399194E+02 -0.85706591387E+01  0.17842741959E+02  0.00000000000E+00 0.  1.
</event>
<event>
 7    1  0.5601662E-013  0.5052885E+02  0.7816164E-02  0.1300439E+00
        -11   -1    0    0    0    0  0.00000000000E+00  0.00000000000E+00  0.45593999997E+02  0.45594000000E+02  0.51100000000E-03 0.  1.
         11   -1    0    0    0    0 -0.00000000000E+00 -0.00000000000E+00 -0.45593999997E+02  0.45594000000E+02  0.51100000000E-03 0. -1.
    9900012    2    1    2    0    0  0.26320057667E+02 -0.32940857129E+01 -0.30815088080E+02  0.50528854785E+02  0.29999984605E+02 0.  0.
        -12    1    1    2    0    0 -0.26320057667E+02  0.32940857129E+01  0.30815088080E+02  0.40659145215E+02  0.00000000000E+00 0.  1.
         11    1    3    3    0    0  0.17246404517E+02 -0.75609976104E+01 -0.28383047892E+02  0.34061775666E+02  0.51100000000E-03 0. -1.
        -11    1    3    3    0    0 -0.12968899101E+01  0.52851752342E+01 -0.26313705017E+01  0.60447590252E+01  0.51100000000E-03 0.  1.
        -12    1    3    3    0    0  0.10370543059E+02 -0.10182633367E+01  0.19933031362E+00  0.10422320094E+02  0.00000000000E+00 0.  1.
</event>
<event>
 7    1  0.5601662E-013  0.5052886E+02  0.7816164E-02  0.1300439E+00
        -11   -1    0    0    0    0  0.00000000000E+00  0.00000000000E+00  0.45593999997E+02  0.45594000000E+02  0.51100000000E-03 0.  1.
         11   -1    0    0    0    0 -0.00000000000E+00 -0.00000000000E+00 -0.45593999997E+02  0.45594000000E+02  0.51100000000E-03 0. -1.
    9900012    2    1    2    0    0 -0.11719028331E+02 -0.22412475797E+02 -0.31835682137E+02  0.50528863837E+02  0.30000012120E+02 0.  0.
        -12    1    1    2    0    0  0.11719028331E+02  0.22412475797E+02  0.31835682137E+02  0.40659136163E+02  0.00000000000E+00 0.  1.
         11    1    3    3    0    0 -0.39678834477E+01  0.32329468306E+00  0.17333252748E+01  0.43420082077E+01  0.51100000000E-03 0. -1.
        -11    1    3    3    0    0 -0.76531024651E+01 -0.11474048935E+02 -0.37216936954E+01  0.14285474459E+02  0.51100000000E-03 0.  1.
         12    1    3    3    0    0 -0.98042417820E-01 -0.11261721546E+02 -0.29847313717E+02  0.31901381170E+02  0.00000000000E+00 0. -1.
</event>
<event>
 7    1  0.5601662E-013  0.5052884E+02  0.7816164E-02  0.1300439E+00
        -11   -1    0    0    0    0  0.00000000000E+00  0.00000000000E+00  0.45593999997E+02  0.45594000000E+02  0.51100000000E-03 0.  1.
         11   -1    0    0    0    0 -0.00000000000E+00 -0.00000000000E+00 -0.45593999997E+02  0.45594000000E+02  0.51100000000E-03 0. -1.
    9900012    2    1    2    0    0 -0.34893827515E+02  0.15830655269E+02 -0.13600691693E+02  0.50528835481E+02  0.29999925928E+02 0.  0.
        -12    1    1    2    0    0  0.34893827515E+02 -0.15830655269E+02  0.13600691693E+02  0.40659164519E+02  0.00000000000E+00 0.  1.
         11    1    3    3    0    0 -0.21130819747E+02  0.16129364560E+01 -0.10603008925E+01  0.21218796984E+02  0.51100000000E-03 0. -1.
        -11    1    3    3    0    0 -0.15645590653E+01 -0.23384806935E+01 -0.76793501812E+01  0.81785546699E+01  0.51100000000E-03 0.  1.
         12    1    3    3    0    0 -0.12198448702E+02  0.16556199506E+02 -0.48610406197E+01  0.21131483827E+02  0.00000000000E+00 0. -1.
</event>
<event>
 7    1  0.5601662E-013  0.5052886E+02  0.7816164E-02  0.1300439E+00
        -11   -1    0    0    0    0  0.00000000000E+00  0.00000000000E+00  0.45593999997E+02  0.45594000000E+02  0.51100000000E-03 0.  1.
         11   -1    0    0    0    0 -0.00000000000E+00 -0.00000000000E+00 -0.45593999997E+02  0.45594000000E+02  0.51100000000E-03 0. -1.
    9900012    2    1    2    0    0  0.12610246654E+01 -0.29586805557E+02 -0.27860302519E+02  0.50528859543E+02  0.29999999068E+02 0.  0.
        -12    1    1    2    0    0 -0.12610246654E+01  0.29586805557E+02  0.27860302519E+02  0.40659140457E+02  0.00000000000E+00 0.  1.
         11    1    3    3    0    0  0.29420056068E+01 -0.17463021878E+02 -0.13697254869E+02  0.22388106693E+02  0.51100000000E-03 0. -1.
        -11    1    3    3    0    0 -0.31419378038E+01 -0.17852407885E+02 -0.87632487380E+01  0.20133920859E+02  0.51100000000E-03 0.  1.
        -12    1    3    3    0    0  0.14609568624E+01  0.57286242061E+01 -0.53997989115E+01  0.80068319911E+01  0.00000000000E+00 0.  1.
</event>
<event>
 7    1  0.5601662E-013  0.5052885E+02  0.7816164E-02  0.1300439E+00
        -11   -1    0    0    0    0  0.00000000000E+00  0.00000000000E+00  0.45593999997E+02  0.45594000000E+02  0.51100000000E-03 0.  1.
         11   -1    0    0    0    0 -0.00000000000E+00 -0.00000000000E+00 -0.45593999997E+02  0.45594000000E+02  0.51100000000E-03 0. -1.
    9900012    2    1    2    0    0 -0.32758483466E+02  0.11687083968E+02 -0.21058500538E+02  0.50528848317E+02  0.29999964945E+02 0.  0.
        -12    1    1    2    0    0  0.32758483466E+02 -0.11687083968E+02  0.21058500538E+02  0.40659151683E+02  0.00000000000E+00 0.  1.
         11    1    3    3    0    0 -0.13709621837E+02  0.21557898070E+01 -0.99773896184E+01  0.17092380304E+02  0.51100000000E-03 0. -1.
        -11    1    3    3    0    0 -0.14236392324E+02 -0.58363708950E+01 -0.64193145957E+01  0.16671703325E+02  0.51100000000E-03 0.  1.
         12    1    3    3    0    0 -0.48124693049E+01  0.15367665056E+02 -0.46617963240E+01  0.16764764688E+02  0.00000000000E+00 0. -1.
</event>
<event>
 7    1  0.5601662E-013  0.5052886E+02  0.7816164E-02  0.1300439E+00
        -11   -1    0    0    0    0  0.00000000000E+00  0.00000000000E+00  0.45593999997E+02  0.45594000000E+02  0.51100000000E-03 0. -1.
         11   -1    0    0    0    0 -0.00000000000E+00 -0.00000000000E+00 -0.45593999997E+02  0.45594000000E+02  0.51100000000E-03 0.  1.
    9900012    2    1    2    0    0  0.20534098031E+02 -0.34915578758E+02  0.35240778944E+01  0.50528856539E+02  0.29999989937E+02 0.  0.
        -12    1    1    2    0    0 -0.20534098031E+02  0.34915578758E+02 -0.35240778944E+01  0.40659143461E+02  0.00000000000E+00 0.  1.
         11    1    3    3    0    0  0.14094580467E+02 -0.71725866439E+01 -0.22200554687E+01  0.15969716474E+02  0.51100000000E-03 0. -1.
        -11    1    3    3    0    0  0.33799320003E+01 -0.54762610023E+01 -0.63458314479E+01  0.90378621321E+01  0.51100000000E-03 0.  1.
         12    1    3    3    0    0  0.30595855634E+01 -0.22266731112E+02  0.12089964811E+02  0.25521277933E+02  0.00000000000E+00 0. -1.
</event>
<event>
 7    1  0.5601662E-013  0.5052885E+02  0.7816164E-02  0.1300439E+00
        -11   -1    0    0    0    0  0.00000000000E+00  0.00000000000E+00  0.45593999997E+02  0.45594000000E+02  0.51100000000E-03 0.  1.
         11   -1    0    0    0    0 -0.00000000000E+00 -0.00000000000E+00 -0.45593999997E+02  0.45594000000E+02  0.51100000000E-03 0. -1.
    9900012    2    1    2    0    0 -0.28677593546E+02  0.12416217906E+02 -0.26011521550E+02  0.50528854755E+02  0.29999984515E+02 0.  0.
        -12    1    1    2    0    0  0.28677593546E+02 -0.12416217906E+02  0.26011521550E+02  0.40659145245E+02  0.00000000000E+00 0.  1.
         11    1    3    3    0    0 -0.23661521558E+02  0.18166809738E+02 -0.18920248094E+02  0.35325293583E+02  0.51100000000E-03 0. -1.
        -11    1    3    3    0    0 -0.57957433065E+01  0.15184741473E+01 -0.20884384818E+01  0.63449176326E+01  0.51100000000E-03 0.  1.
        -12    1    3    3    0    0  0.77967131903E+00 -0.72690659798E+01 -0.50028349750E+01  0.88586435401E+01  0.00000000000E+00 0.  1.
</event>
<event>
 7    1  0.5601662E-013  0.5052890E+02  0.7816164E-02  0.1300439E+00
        -11   -1    0    0    0    0  0.00000000000E+00  0.00000000000E+00  0.45593999997E+02  0.45594000000E+02  0.51100000000E-03 0.  1.
         11   -1    0    0    0    0 -0.00000000000E+00 -0.00000000000E+00 -0.45593999997E+02  0.45594000000E+02  0.51100000000E-03 0. -1.
    9900012    2    1    2    0    0  0.16258294851E+01  0.63494552081E+01 -0.40127337242E+02  0.50528903882E+02  0.30000133840E+02 0.  0.
        -12    1    1    2    0    0 -0.16258294851E+01 -0.63494552081E+01  0.40127337242E+02  0.40659096118E+02  0.00000000000E+00 0.  1.
         11    1    3    3    0    0  0.40239279442E+00 -0.17537647507E+01 -0.17529031791E+02  0.17621139763E+02  0.51100000000E-03 0. -1.
        -11    1    3    3    0    0  0.15955876474E+01  0.60895942575E+01 -0.27174594187E+02  0.27894222119E+02  0.51100000000E-03 0.  1.
        -12    1    3    3    0    0 -0.37215095675E+00  0.20136257013E+01  0.45762887350E+01  0.50135420000E+01  0.00000000000E+00 0.  1.
</event>
<event>
 7    1  0.5601662E-013  0.5052886E+02  0.7816164E-02  0.1300439E+00
        -11   -1    0    0    0    0  0.00000000000E+00  0.00000000000E+00  0.45593999997E+02  0.45594000000E+02  0.51100000000E-03 0.  1.
         11   -1    0    0    0    0 -0.00000000000E+00 -0.00000000000E+00 -0.45593999997E+02  0.45594000000E+02  0.51100000000E-03 0. -1.
    9900012    2    1    2    0    0 -0.14715929727E+02  0.34550609911E+02 -0.15584048301E+02  0.50528858416E+02  0.29999995640E+02 0.  0.
        -12    1    1    2    0    0  0.14715929727E+02 -0.34550609911E+02  0.15584048301E+02  0.40659141584E+02  0.00000000000E+00 0.  1.
         11    1    3    3    0    0 -0.21947843492E+01  0.59623971107E+01 -0.85349723354E+01  0.10640160275E+02  0.51100000000E-03 0. -1.
        -11    1    3    3    0    0 -0.42840118977E+01  0.27884304107E+02 -0.11540036531E+02  0.30480479275E+02  0.51100000000E-03 0.  1.
        -12    1    3    3    0    0 -0.82371334799E+01  0.70390869344E+00  0.44909605659E+01  0.94082188654E+01  0.00000000000E+00 0.  1.
</event>
<event>
 7    1  0.5601662E-013  0.5052891E+02  0.7816164E-02  0.1300439E+00
        -11   -1    0    0    0    0  0.00000000000E+00  0.00000000000E+00  0.45593999997E+02  0.45594000000E+02  0.51100000000E-03 0.  1.
         11   -1    0    0    0    0 -0.00000000000E+00 -0.00000000000E+00 -0.45593999997E+02  0.45594000000E+02  0.51100000000E-03 0. -1.
    9900012    2    1    2    0    0 -0.35446251979E+02  0.10467153838E+02 -0.16945900539E+02  0.50528909578E+02  0.30000151153E+02 0.  0.
        -12    1    1    2    0    0  0.35446251979E+02 -0.10467153838E+02  0.16945900539E+02  0.40659090422E+02  0.00000000000E+00 0.  1.
         11    1    3    3    0    0 -0.13402740467E+02  0.25002412908E+01  0.28370545284E+01  0.13926002197E+02  0.51100000000E-03 0. -1.
        -11    1    3    3    0    0 -0.60757301538E+01  0.70811138978E+01  0.20367218056E+01  0.95501260154E+01  0.51100000000E-03 0.  1.
        -12    1    3    3    0    0 -0.15967781359E+02  0.88579864983E+00 -0.21819676873E+02  0.27052781365E+02  0.00000000000E+00 0.  1.
</event>
<event>
 7    1  0.5601662E-013  0.5052885E+02  0.7816164E-02  0.1300439E+00
        -11   -1    0    0    0    0  0.00000000000E+00  0.00000000000E+00  0.45593999997E+02  0.45594000000E+02  0.51100000000E-03 0. -1.
         11   -1    0    0    0    0 -0.00000000000E+00 -0.00000000000E+00 -0.45593999997E+02  0.45594000000E+02  0.51100000000E-03 0.  1.
    9900012    2    1    2    0    0 -0.16930261167E+02  0.36020026081E+02 -0.83120485286E+01  0.50528853762E+02  0.29999981495E+02 0.  0.
        -12    1    1    2    0    0  0.16930261167E+02 -0.36020026081E+02  0.83120485286E+01  0.40659146238E+02  0.00000000000E+00 0.  1.
         11    1    3    3    0    0  0.22995294385E+01  0.15537501150E+01  0.48043461629E+00  0.28165213900E+01  0.51100000000E-03 0. -1.
        -11    1    3    3    0    0 -0.17026179048E+02  0.97015260474E+01  0.36132715127E+01  0.19926517807E+02  0.51100000000E-03 0.  1.
         12    1    3    3    0    0 -0.22036115574E+01  0.24764749919E+02 -0.12405754658E+02  0.27785814565E+02  0.00000000000E+00 0. -1.
</event>
<event>
 7    1  0.5601662E-013  0.5052886E+02  0.7816164E-02  0.1300439E+00
        -11   -1    0    0    0    0  0.00000000000E+00  0.00000000000E+00  0.45593999997E+02  0.45594000000E+02  0.51100000000E-03 0. -1.
         11   -1    0    0    0    0 -0.00000000000E+00 -0.00000000000E+00 -0.45593999997E+02  0.45594000000E+02  0.51100000000E-03 0.  1.
    9900012    2    1    2    0    0 -0.71645456605E+01  0.15182115438E+02  0.37031582858E+02  0.50528862372E+02  0.30000007665E+02 0.  0.
        -12    1    1    2    0    0  0.71645456605E+01 -0.15182115438E+02 -0.37031582858E+02  0.40659137628E+02  0.00000000000E+00 0.  1.
         11    1    3    3    0    0 -0.60783465925E+01 -0.10321882409E+01  0.25284165489E+02  0.26025002105E+02  0.51100000000E-03 0. -1.
        -11    1    3    3    0    0  0.23622761709E+01  0.33057080338E+01  0.10290279831E+02  0.11063359055E+02  0.51100000000E-03 0.  1.
        -12    1    3    3    0    0 -0.34484752389E+01  0.12908595645E+02  0.14571375379E+01  0.13440501211E+02  0.00000000000E+00 0.  1.
</event>
<event>
 7    1  0.5601662E-013  0.5052881E+02  0.7816164E-02  0.1300439E+00
        -11   -1    0    0    0    0  0.00000000000E+00  0.00000000000E+00  0.45593999997E+02  0.45594000000E+02  0.51100000000E-03 0. -1.
         11   -1    0    0    0    0 -0.00000000000E+00 -0.00000000000E+00 -0.45593999997E+02  0.45594000000E+02  0.51100000000E-03 0.  1.
    9900012    2    1    2    0    0 -0.13473086876E+02  0.93336355868E+01  0.37209261812E+02  0.50528806847E+02  0.29999838893E+02 0.  0.
        -12    1    1    2    0    0  0.13473086876E+02 -0.93336355868E+01 -0.37209261812E+02  0.40659193153E+02  0.00000000000E+00 0.  1.
         11    1    3    3    0    0 -0.95552743310E+01 -0.24416482837E+01  0.15173135445E+02  0.18096655862E+02  0.51100000000E-03 0.  1.
        -11    1    3    3    0    0 -0.69742722313E+00 -0.56977075743E+01  0.33443390863E+01  0.66434088027E+01  0.51100000000E-03 0. -1.
         12    1    3    3    0    0 -0.32203853222E+01  0.17472991445E+02  0.18691787280E+02  0.25788742183E+02  0.00000000000E+00 0. -1.
</event>
<event>
 7    1  0.5601662E-013  0.5052886E+02  0.7816164E-02  0.1300439E+00
        -11   -1    0    0    0    0  0.00000000000E+00  0.00000000000E+00  0.45593999997E+02  0.45594000000E+02  0.51100000000E-03 0.  1.
         11   -1    0    0    0    0 -0.00000000000E+00 -0.00000000000E+00 -0.45593999997E+02  0.45594000000E+02  0.51100000000E-03 0. -1.
    9900012    2    1    2    0    0 -0.32628083200E+01 -0.62642218215E+00 -0.40523171083E+02  0.50528859360E+02  0.29999998512E+02 0.  0.
        -12    1    1    2    0    0  0.32628083200E+01  0.62642218215E+00  0.40523171083E+02  0.40659140640E+02  0.00000000000E+00 0.  1.
         11    1    3    3    0    0  0.42185506451E+01 -0.93786179750E+01 -0.50201405199E+01  0.11443620746E+02  0.51100000000E-03 0. -1.
        -11    1    3    3    0    0  0.16625869512E+01 -0.12509123431E+01 -0.99021627851E+01  0.10118389454E+02  0.51100000000E-03 0.  1.
         12    1    3    3    0    0 -0.91439459164E+01  0.10003108136E+02 -0.25600867778E+02  0.28966849161E+02  0.00000000000E+00 0. -1.
</event>
<event>
 7    1  0.5601662E-013  0.5052886E+02  0.7816164E-02  0.1300439E+00
        -11   -1    0    0    0    0  0.00000000000E+00  0.00000000000E+00  0.45593999997E+02  0.45594000000E+02  0.51100000000E-03 0.  1.
         11   -1    0    0    0    0 -0.00000000000E+00 -0.00000000000E+00 -0.45593999997E+02  0.45594000000E+02  0.51100000000E-03 0. -1.
    9900012    2    1    2    0    0 -0.23997899001E+02 -0.85942753752E+01 -0.31676567739E+02  0.50528859953E+02  0.30000000313E+02 0.  0.
        -12    1    1    2    0    0  0.23997899001E+02  0.85942753752E+01  0.31676567739E+02  0.40659140047E+02  0.00000000000E+00 0.  1.
         11    1    3    3    0    0 -0.60745101534E+01  0.25587730426E+01  0.17156894282E+01  0.68110633209E+01  0.51100000000E-03 0.  1.
        -11    1    3    3    0    0 -0.15624133040E+02 -0.10264537177E+02 -0.12066985724E+02  0.22250537105E+02  0.51100000000E-03 0. -1.
         12    1    3    3    0    0 -0.22992558068E+01 -0.88851124079E+00 -0.21325271443E+02  0.21467259527E+02  0.00000000000E+00 0. -1.
</event>
<event>
 7    1  0.5601662E-013  0.5052885E+02  0.7816164E-02  0.1300439E+00
        -11   -1    0    0    0    0  0.00000000000E+00  0.00000000000E+00  0.45593999997E+02  0.45594000000E+02  0.51100000000E-03 0.  1.
         11   -1    0    0    0    0 -0.00000000000E+00 -0.00000000000E+00 -0.45593999997E+02  0.45594000000E+02  0.51100000000E-03 0. -1.
    9900012    2    1    2    0    0  0.35166014544E+01  0.20893260116E+01 -0.40452866145E+02  0.50528854063E+02  0.29999982411E+02 0.  0.
        -12    1    1    2    0    0 -0.35166014544E+01 -0.20893260116E+01  0.40452866145E+02  0.40659145937E+02  0.00000000000E+00 0.  1.
         11    1    3    3    0    0  0.44135822196E+01 -0.56793899062E+01 -0.21931535115E+02  0.23080888424E+02  0.51100000000E-03 0. -1.
        -11    1    3    3    0    0 -0.25693488519E+01  0.61976091778E+01 -0.22156040651E+02  0.23149558325E+02  0.51100000000E-03 0.  1.
        -12    1    3    3    0    0  0.16723680867E+01  0.15711067399E+01  0.36347096211E+01  0.42984073138E+01  0.00000000000E+00 0.  1.
</event>
<event>
 7    1  0.5601662E-013  0.5052887E+02  0.7816164E-02  0.1300439E+00
        -11   -1    0    0    0    0  0.00000000000E+00  0.00000000000E+00  0.45593999997E+02  0.45594000000E+02  0.51100000000E-03 0.  1.
         11   -1    0    0    0    0 -0.00000000000E+00 -0.00000000000E+00 -0.45593999997E+02  0.45594000000E+02  0.51100000000E-03 0. -1.
    9900012    2    1    2    0    0  0.29424909051E+02 -0.13446721735E+02 -0.24627735323E+02  0.50528868858E+02  0.30000027381E+02 0.  0.
        -12    1    1    2    0    0 -0.29424909051E+02  0.13446721735E+02  0.24627735323E+02  0.40659131142E+02  0.00000000000E+00 0.  1.
         11    1    3    3    0    0  0.26772453819E+02 -0.15482931197E+02 -0.16158369066E+02  0.34893815112E+02  0.51100000000E-03 0. -1.
        -11    1    3    3    0    0  0.58342260251E+01 -0.30337492076E+01 -0.21201420257E+01  0.69091844697E+01  0.51100000000E-03 0.  1.
         12    1    3    3    0    0 -0.31817707933E+01  0.50699586691E+01 -0.63492242312E+01  0.87258692762E+01  0.00000000000E+00 0. -1.
</event>
<event>
 7    1  0.5601662E-013  0.5052885E+02  0.7816164E-02  0.1300439E+00
        -11   -1    0    0    0    0  0.00000000000E+00  0.00000000000E+00  0.45593999997E+02  0.45594000000E+02  0.51100000000E-03 0.  1.
         11   -1    0    0    0    0 -0.00000000000E+00 -0.00000000000E+00 -0.45593999997E+02  0.45594000000E+02  0.51100000000E-03 0. -1.
    9900012    2    1    2    0    0 -0.23922217811E+02  0.53064531665E+01 -0.32445880535E+02  0.50528854487E+02  0.29999983698E+02 0.  0.
        -12    1    1    2    0    0  0.23922217811E+02 -0.53064531665E+01  0.32445880535E+02  0.40659145513E+02  0.00000000000E+00 0.  1.
         11    1    3    3    0    0 -0.16566876266E+01  0.69645392125E+01 -0.10076095211E+02  0.12360304013E+02  0.51100000000E-03 0. -1.
        -11    1    3    3    0    0  0.39013849973E+01  0.50577610117E+00 -0.61682547488E+01  0.73160085613E+01  0.51100000000E-03 0.  1.
        -12    1    3    3    0    0 -0.26166915181E+02 -0.21638621471E+01 -0.16201530575E+02  0.30852541913E+02  0.00000000000E+00 0.  1.
</event>
<event>
 7    1  0.5601662E-013  0.5052886E+02  0.7816164E-02  0.1300439E+00
        -11   -1    0    0    0    0  0.00000000000E+00  0.00000000000E+00  0.45593999997E+02  0.45594000000E+02  0.51100000000E-03 0.  1.
         11   -1    0    0    0    0 -0.00000000000E+00 -0.00000000000E+00 -0.45593999997E+02  0.45594000000E+02  0.51100000000E-03 0. -1.
    9900012    2    1    2    0    0  0.32058640207E+02  0.82382517846E+01 -0.23612300939E+02  0.50528856379E+02  0.29999989449E+02 0.  0.
        -12    1    1    2    0    0 -0.32058640207E+02 -0.82382517846E+01  0.23612300939E+02  0.40659143621E+02  0.00000000000E+00 0.  1.
         11    1    3    3    0    0 -0.30296263336E+01  0.15315920427E+00  0.13644689984E+01  0.33262395241E+01  0.51100000000E-03 0.  1.
        -11    1    3    3    0    0  0.77286580184E+01 -0.24613110912E+01 -0.13429497038E+02  0.15688900471E+02  0.51100000000E-03 0. -1.
        -12    1    3    3    0    0  0.27359608522E+02  0.10546403672E+02 -0.11547272900E+02  0.31513716384E+02  0.00000000000E+00 0.  1.
</event>
<event>
 7    1  0.5601662E-013  0.5052890E+02  0.7816164E-02  0.1300439E+00
        -11   -1    0    0    0    0  0.00000000000E+00  0.00000000000E+00  0.45593999997E+02  0.45594000000E+02  0.51100000000E-03 0.  1.
         11   -1    0    0    0    0 -0.00000000000E+00 -0.00000000000E+00 -0.45593999997E+02  0.45594000000E+02  0.51100000000E-03 0. -1.
    9900012    2    1    2    0    0 -0.33246391808E+02 -0.22361957504E+02 -0.69124872721E+01  0.50528902717E+02  0.30000130297E+02 0.  0.
        -12    1    1    2    0    0  0.33246391808E+02  0.22361957504E+02  0.69124872721E+01  0.40659097283E+02  0.00000000000E+00 0.  1.
         11    1    3    3    0    0  0.11956514688E+01 -0.10197550202E+00 -0.49650228232E+01  0.51079774210E+01  0.51100000000E-03 0. -1.
        -11    1    3    3    0    0 -0.18708768531E+02 -0.16130582672E+02 -0.10079351833E+02  0.26679712347E+02  0.51100000000E-03 0.  1.
        -12    1    3    3    0    0 -0.15733274745E+02 -0.61293993294E+01  0.81318873841E+01  0.18741212948E+02  0.00000000000E+00 0.  1.
</event>
<event>
 7    1  0.5601662E-013  0.5052886E+02  0.7816164E-02  0.1300439E+00
        -11   -1    0    0    0    0  0.00000000000E+00  0.00000000000E+00  0.45593999997E+02  0.45594000000E+02  0.51100000000E-03 0.  1.
         11   -1    0    0    0    0 -0.00000000000E+00 -0.00000000000E+00 -0.45593999997E+02  0.45594000000E+02  0.51100000000E-03 0. -1.
    9900012    2    1    2    0    0  0.31578965244E+02  0.20058644969E+02 -0.15924359887E+02  0.50528861769E+02  0.30000005834E+02 0.  0.
        -12    1    1    2    0    0 -0.31578965244E+02 -0.20058644969E+02  0.15924359887E+02  0.40659138231E+02  0.00000000000E+00 0.  1.
         11    1    3    3    0    0  0.96630411092E+01  0.75489270570E+01 -0.68019143002E+01  0.14022364337E+02  0.51100000000E-03 0. -1.
        -11    1    3    3    0    0  0.23316918329E+02  0.13302855543E+02 -0.14765950862E+02  0.30637851607E+02  0.51100000000E-03 0.  1.
        -12    1    3    3    0    0 -0.14009941944E+01 -0.79313763137E+00  0.56435052750E+01  0.58686458254E+01  0.00000000000E+00 0.  1.
</event>
<event>
 7    1  0.5601662E-013  0.5052888E+02  0.7816164E-02  0.1300439E+00
        -11   -1    0    0    0    0  0.00000000000E+00  0.00000000000E+00  0.45593999997E+02  0.45594000000E+02  0.51100000000E-03 0.  1.
         11   -1    0    0    0    0 -0.00000000000E+00 -0.00000000000E+00 -0.45593999997E+02  0.45594000000E+02  0.51100000000E-03 0. -1.
    9900012    2    1    2    0    0  0.20369045908E+02  0.67016690775E+01  0.34544952574E+02  0.50528878662E+02  0.30000057182E+02 0.  0.
        -12    1    1    2    0    0 -0.20369045908E+02 -0.67016690775E+01 -0.34544952574E+02  0.40659121338E+02  0.00000000000E+00 0.  1.
         11    1    3    3    0    0  0.10600166528E+02 -0.36120999234E+00 -0.22875267378E+00  0.10608785564E+02  0.51100000000E-03 0. -1.
        -11    1    3    3    0    0  0.13836032157E+02  0.45638965729E+01  0.23132709014E+02  0.27338382621E+02  0.51100000000E-03 0.  1.
        -12    1    3    3    0    0 -0.40671527767E+01  0.24989824970E+01  0.11640996233E+02  0.12581710477E+02  0.00000000000E+00 0.  1.
</event>
<event>
 7    1  0.5601662E-013  0.5052886E+02  0.7816164E-02  0.1300439E+00
        -11   -1    0    0    0    0  0.00000000000E+00  0.00000000000E+00  0.45593999997E+02  0.45594000000E+02  0.51100000000E-03 0.  1.
         11   -1    0    0    0    0 -0.00000000000E+00 -0.00000000000E+00 -0.45593999997E+02  0.45594000000E+02  0.51100000000E-03 0. -1.
    9900012    2    1    2    0    0 -0.42968888385E+01  0.12562668815E+02 -0.38430218028E+02  0.50528861309E+02  0.30000004434E+02 0.  0.
        -12    1    1    2    0    0  0.42968888385E+01 -0.12562668815E+02  0.38430218028E+02  0.40659138691E+02  0.00000000000E+00 0.  1.
         11    1    3    3    0    0 -0.76420946436E+01  0.10790442494E+02 -0.33513904356E+02  0.36028003625E+02  0.51100000000E-03 0. -1.
        -11    1    3    3    0    0 -0.18467256438E+01  0.56036759197E+01  0.70627534211E+00  0.59422558457E+01  0.51100000000E-03 0.  1.
         12    1    3    3    0    0  0.51919314489E+01 -0.38314495991E+01 -0.56225890140E+01  0.85586018380E+01  0.00000000000E+00 0. -1.
</event>
<event>
 7    1  0.5601662E-013  0.5052886E+02  0.7816164E-02  0.1300439E+00
        -11   -1    0    0    0    0  0.00000000000E+00  0.00000000000E+00  0.45593999997E+02  0.45594000000E+02  0.51100000000E-03 0.  1.
         11   -1    0    0    0    0 -0.00000000000E+00 -0.00000000000E+00 -0.45593999997E+02  0.45594000000E+02  0.51100000000E-03 0. -1.
    9900012    2    1    2    0    0  0.96968366674E+01 -0.27406549499E+02 -0.28425658775E+02  0.50528859901E+02  0.30000000155E+02 0.  0.
        -12    1    1    2    0    0 -0.96968366674E+01  0.27406549499E+02  0.28425658775E+02  0.40659140099E+02  0.00000000000E+00 0.  1.
         11    1    3    3    0    0 -0.19442518859E+01  0.12741950518E+01 -0.11732562746E+02  0.11960631976E+02  0.51100000000E-03 0. -1.
        -11    1    3    3    0    0 -0.57745630199E+00  0.98551383512E+00 -0.38386761245E+01  0.40050128527E+01  0.51100000000E-03 0.  1.
        -12    1    3    3    0    0  0.12218544855E+02 -0.29666258386E+02 -0.12854419905E+02  0.34563215072E+02  0.00000000000E+00 0.  1.
</event>
<event>
 7    1  0.5601662E-013  0.5052886E+02  0.7816164E-02  0.1300439E+00
        -11   -1    0    0    0    0  0.00000000000E+00  0.00000000000E+00  0.45593999997E+02  0.45594000000E+02  0.51100000000E-03 0.  1.
         11   -1    0    0    0    0 -0.00000000000E+00 -0.00000000000E+00 -0.45593999997E+02  0.45594000000E+02  0.51100000000E-03 0. -1.
    9900012    2    1    2    0    0  0.20729424829E+02 -0.12322684453E+02 -0.32735420139E+02  0.50528864034E+02  0.30000012717E+02 0.  0.
        -12    1    1    2    0    0 -0.20729424829E+02  0.12322684453E+02  0.32735420139E+02  0.40659135966E+02  0.00000000000E+00 0.  1.
         11    1    3    3    0    0 -0.73162120064E+00  0.25549339370E+01  0.13785020586E+01  0.29938645912E+01  0.51100000000E-03 0. -1.
        -11    1    3    3    0    0  0.23372109648E+01 -0.29811557705E+01  0.25070879211E+01  0.45426132267E+01  0.51100000000E-03 0.  1.
        -12    1    3    3    0    0  0.19123835065E+02 -0.11896462619E+02 -0.36621010119E+02  0.42992386216E+02  0.00000000000E+00 0.  1.
</event>
<event>
 7    1  0.5601662E-013  0.5052888E+02  0.7816164E-02  0.1300439E+00
        -11   -1    0    0    0    0  0.00000000000E+00  0.00000000000E+00  0.45593999997E+02  0.45594000000E+02  0.51100000000E-03 0.  1.
         11   -1    0    0    0    0 -0.00000000000E+00 -0.00000000000E+00 -0.45593999997E+02  0.45594000000E+02  0.51100000000E-03 0. -1.
    9900012    2    1    2    0    0  0.97949445277E+01  0.23598118285E+01 -0.39391047101E+02  0.50528877507E+02  0.30000053670E+02 0.  0.
        -12    1    1    2    0    0 -0.97949445277E+01 -0.23598118285E+01  0.39391047101E+02  0.40659122493E+02  0.00000000000E+00 0.  1.
         11    1    3    3    0    0 -0.22874339542E+01 -0.70263744136E-01  0.22907925646E+01  0.32380583570E+01  0.51100000000E-03 0. -1.
        -11    1    3    3    0    0  0.20867294307E+01  0.61705400866E+01 -0.30143354862E+01  0.71774802934E+01  0.51100000000E-03 0.  1.
         12    1    3    3    0    0  0.99956490512E+01 -0.37404645139E+01 -0.38667504180E+02  0.40113338857E+02  0.00000000000E+00 0. -1.
</event>
<event>
 7    1  0.5749820E-013  0.5052886E+02  0.7816164E-02  0.1300439E+00
        -11   -1    0    0    0    0  0.00000000000E+00  0.00000000000E+00  0.45593999997E+02  0.45594000000E+02  0.51100000000E-03 0. -1.
         11   -1    0    0    0    0 -0.00000000000E+00 -0.00000000000E+00 -0.45593999997E+02  0.45594000000E+02  0.51100000000E-03 0.  1.
    9900012    2    1    2    0    0 -0.19843512705E+02 -0.30992311054E+02  0.17288077932E+02  0.50528856139E+02  0.29999988721E+02 0.  0.
        -12    1    1    2    0    0  0.19843512705E+02  0.30992311054E+02 -0.17288077932E+02  0.40659143861E+02  0.00000000000E+00 0.  1.
         11    1    3    3    0    0 -0.11377686486E+02 -0.15351230741E+02  0.10655088365E+02  0.21877909940E+02  0.51100000000E-03 0. -1.
        -11    1    3    3    0    0 -0.93611706551E+01 -0.43936037282E+01  0.12263137080E+02  0.16041190762E+02  0.51100000000E-03 0.  1.
        -12    1    3    3    0    0  0.89534443607E+00 -0.11247476585E+02 -0.56301475127E+01  0.12609755438E+02  0.00000000000E+00 0.  1.
</event>
<event>
 7    1  0.5601662E-013  0.5052885E+02  0.7816164E-02  0.1300439E+00
        -11   -1    0    0    0    0  0.00000000000E+00  0.00000000000E+00  0.45593999997E+02  0.45594000000E+02  0.51100000000E-03 0.  1.
         11   -1    0    0    0    0 -0.00000000000E+00 -0.00000000000E+00 -0.45593999997E+02  0.45594000000E+02  0.51100000000E-03 0. -1.
    9900012    2    1    2    0    0  0.54916164112E+01 -0.21745143139E+02 -0.33913968658E+02  0.50528851324E+02  0.29999974085E+02 0.  0.
        -12    1    1    2    0    0 -0.54916164112E+01  0.21745143139E+02  0.33913968658E+02  0.40659148676E+02  0.00000000000E+00 0.  1.
         11    1    3    3    0    0  0.56274896186E+01 -0.19498655298E+02 -0.21931213917E+02  0.29880501033E+02  0.51100000000E-03 0. -1.
        -11    1    3    3    0    0  0.81652537089E+01  0.43049582941E-01 -0.65377593681E+01  0.10460187341E+02  0.51100000000E-03 0.  1.
         12    1    3    3    0    0 -0.83011269163E+01 -0.22895374236E+01 -0.54449953729E+01  0.10188162951E+02  0.00000000000E+00 0. -1.
</event>
<event>
 7    1  0.5601662E-013  0.5052886E+02  0.7816164E-02  0.1300439E+00
        -11   -1    0    0    0    0  0.00000000000E+00  0.00000000000E+00  0.45593999997E+02  0.45594000000E+02  0.51100000000E-03 0.  1.
         11   -1    0    0    0    0 -0.00000000000E+00 -0.00000000000E+00 -0.45593999997E+02  0.45594000000E+02  0.51100000000E-03 0. -1.
    9900012    2    1    2    0    0  0.16998454940E+01  0.11860708220E+02 -0.38853570218E+02  0.50528858435E+02  0.29999995698E+02 0.  0.
        -12    1    1    2    0    0 -0.16998454940E+01 -0.11860708220E+02  0.38853570218E+02  0.40659141565E+02  0.00000000000E+00 0.  1.
         11    1    3    3    0    0  0.78790495321E-01 -0.31922724714E+01 -0.15819825552E+02  0.16138887577E+02  0.51100000000E-03 0. -1.
        -11    1    3    3    0    0  0.16831797216E+01  0.82806802984E-01  0.35224785948E+01  0.39048439986E+01  0.51100000000E-03 0.  1.
         12    1    3    3    0    0 -0.62124722916E-01  0.14970173889E+02 -0.26556223261E+02  0.30485126859E+02  0.00000000000E+00 0. -1.
</event>
<event>
 7    1  0.5601662E-013  0.5052887E+02  0.7816164E-02  0.1300439E+00
        -11   -1    0    0    0    0  0.00000000000E+00  0.00000000000E+00  0.45593999997E+02  0.45594000000E+02  0.51100000000E-03 0.  1.
         11   -1    0    0    0    0 -0.00000000000E+00 -0.00000000000E+00 -0.45593999997E+02  0.45594000000E+02  0.51100000000E-03 0. -1.
    9900012    2    1    2    0    0 -0.64853736023E+01  0.75838773020E+01 -0.39415598087E+02  0.50528872633E+02  0.30000038855E+02 0.  0.
        -12    1    1    2    0    0  0.64853736023E+01 -0.75838773020E+01  0.39415598087E+02  0.40659127367E+02  0.00000000000E+00 0.  1.
         11    1    3    3    0    0  0.16855265033E+01  0.21346973618E+01 -0.49292095449E+01  0.56298347594E+01  0.51100000000E-03 0. -1.
        -11    1    3    3    0    0 -0.18087453004E-01 -0.10655028735E+02 -0.14035112970E+02  0.17621417674E+02  0.51100000000E-03 0.  1.
         12    1    3    3    0    0 -0.81528126526E+01  0.16104208675E+02 -0.20451275572E+02  0.27277620199E+02  0.00000000000E+00 0. -1.
</event>
<event>
 7    1  0.5601662E-013  0.5052886E+02  0.7816164E-02  0.1300439E+00
        -11   -1    0    0    0    0  0.00000000000E+00  0.00000000000E+00  0.45593999997E+02  0.45594000000E+02  0.51100000000E-03 0.  1.
         11   -1    0    0    0    0 -0.00000000000E+00 -0.00000000000E+00 -0.45593999997E+02  0.45594000000E+02  0.51100000000E-03 0. -1.
    9900012    2    1    2    0    0  0.38877838353E+02  0.78090826199E+01 -0.89831784684E+01  0.50528861031E+02  0.30000003589E+02 0.  0.
        -12    1    1    2    0    0 -0.38877838353E+02 -0.78090826199E+01  0.89831784684E+01  0.40659138969E+02  0.00000000000E+00 0.  1.
         11    1    3    3    0    0  0.14367667448E+01  0.23034329134E+01  0.14315922381E+01  0.30691299195E+01  0.51100000000E-03 0. -1.
        -11    1    3    3    0    0  0.11589493407E+02  0.12103644434E+02  0.38663112289E+01  0.17197759412E+02  0.51100000000E-03 0.  1.
         12    1    3    3    0    0  0.25851578200E+02 -0.65979947273E+01 -0.14281081935E+02  0.30261971699E+02  0.00000000000E+00 0. -1.
</event>
<event>
 7    1  0.5601662E-013  0.5052886E+02  0.7816164E-02  0.1300439E+00
        -11   -1    0    0    0    0  0.00000000000E+00  0.00000000000E+00  0.45593999997E+02  0.45594000000E+02  0.51100000000E-03 0.  1.
         11   -1    0    0    0    0 -0.00000000000E+00 -0.00000000000E+00 -0.45593999997E+02  0.45594000000E+02  0.51100000000E-03 0. -1.
    9900012    2    1    2    0    0  0.11124544541E+02 -0.36426222622E+02 -0.14231666557E+02  0.50528861806E+02  0.30000005944E+02 0.  0.
        -12    1    1    2    0    0 -0.11124544541E+02  0.36426222622E+02  0.14231666557E+02  0.40659138194E+02  0.00000000000E+00 0.  1.
         11    1    3    3    0    0  0.20377873847E+01 -0.11032133461E+01  0.98147410803E+00  0.25165350779E+01  0.51100000000E-03 0.  1.
        -11    1    3    3    0    0 -0.90628540687E+01 -0.19285880217E+02 -0.66329670308E+01  0.22317633197E+02  0.51100000000E-03 0. -1.
         12    1    3    3    0    0  0.18149611225E+02 -0.16037129058E+02 -0.85801736341E+01  0.25694693531E+02  0.00000000000E+00 0. -1.
</event>
<event>
 7    1  0.5601662E-013  0.5052886E+02  0.7816164E-02  0.1300439E+00
        -11   -1    0    0    0    0  0.00000000000E+00  0.00000000000E+00  0.45593999997E+02  0.45594000000E+02  0.51100000000E-03 0.  1.
         11   -1    0    0    0    0 -0.00000000000E+00 -0.00000000000E+00 -0.45593999997E+02  0.45594000000E+02  0.51100000000E-03 0. -1.
    9900012    2    1    2    0    0 -0.17206193249E+02  0.22407197321E+02 -0.29240897984E+02  0.50528859665E+02  0.29999999437E+02 0.  0.
        -12    1    1    2    0    0  0.17206193249E+02 -0.22407197321E+02  0.29240897984E+02  0.40659140335E+02  0.00000000000E+00 0.  1.
         11    1    3    3    0    0 -0.90811644771E+01  0.15251855413E+01 -0.53369468865E+01  0.10643154679E+02  0.51100000000E-03 0. -1.
        -11    1    3    3    0    0 -0.13667893010E+02  0.10843856423E+02 -0.22289379819E+02  0.28305776344E+02  0.51100000000E-03 0.  1.
        -12    1    3    3    0    0  0.55428642383E+01  0.10038155357E+02 -0.16145712788E+01  0.11579928642E+02  0.00000000000E+00 0.  1.
</event>
<event>
 7    1  0.5601662E-013  0.5052887E+02  0.7816164E-02  0.1300439E+00
        -11   -1    0    0    0    0  0.00000000000E+00  0.00000000000E+00  0.45593999997E+02  0.45594000000E+02  0.51100000000E-03 0.  1.
         11   -1    0    0    0    0 -0.00000000000E+00 -0.00000000000E+00 -0.45593999997E+02  0.45594000000E+02  0.51100000000E-03 0. -1.
    9900012    2    1    2    0    0 -0.35970349535E+02  0.13472647119E+02 -0.13333675991E+02  0.50528865953E+02  0.30000018551E+02 0.  0.
        -12    1    1    2    0    0  0.35970349535E+02 -0.13472647119E+02  0.13333675991E+02  0.40659134047E+02  0.00000000000E+00 0.  1.
         11    1    3    3    0    0 -0.29655045163E+01 -0.41176324559E+00  0.62845544707E+01  0.69612779835E+01  0.51100000000E-03 0. -1.
        -11    1    3    3    0    0 -0.70943583268E+01  0.36311739547E+01  0.20960244351E+01  0.82406712744E+01  0.51100000000E-03 0.  1.
         12    1    3    3    0    0 -0.25910486692E+02  0.10253236409E+02 -0.21714254897E+02  0.35326916695E+02  0.00000000000E+00 0. -1.
</event>
<event>
 7    1  0.5601662E-013  0.5052886E+02  0.7816164E-02  0.1300439E+00
        -11   -1    0    0    0    0  0.00000000000E+00  0.00000000000E+00  0.45593999997E+02  0.45594000000E+02  0.51100000000E-03 0.  1.
         11   -1    0    0    0    0 -0.00000000000E+00 -0.00000000000E+00 -0.45593999997E+02  0.45594000000E+02  0.51100000000E-03 0. -1.
    9900012    2    1    2    0    0 -0.11762459891E+02  0.51252495390E+01 -0.38581624276E+02  0.50528863544E+02  0.30000011230E+02 0.  0.
        -12    1    1    2    0    0  0.11762459891E+02 -0.51252495390E+01  0.38581624276E+02  0.40659136456E+02  0.00000000000E+00 0.  1.
         11    1    3    3    0    0 -0.12878894656E+02  0.35681620870E+01 -0.28638608448E+02  0.31603284676E+02  0.51100000000E-03 0. -1.
        -11    1    3    3    0    0 -0.74017280060E+01  0.90207716744E-01 -0.37937172717E+01  0.83178125674E+01  0.51100000000E-03 0.  1.
        -12    1    3    3    0    0  0.85181627710E+01  0.14668797353E+01 -0.61492985564E+01  0.10607766301E+02  0.00000000000E+00 0.  1.
</event>
<event>
 7    1  0.5601662E-013  0.5052886E+02  0.7816164E-02  0.1300439E+00
        -11   -1    0    0    0    0  0.00000000000E+00  0.00000000000E+00  0.45593999997E+02  0.45594000000E+02  0.51100000000E-03 0.  1.
         11   -1    0    0    0    0 -0.00000000000E+00 -0.00000000000E+00 -0.45593999997E+02  0.45594000000E+02  0.51100000000E-03 0. -1.
    9900012    2    1    2    0    0 -0.16629135002E+02  0.36783443206E+02  0.48596108261E+01  0.50528860285E+02  0.30000001322E+02 0.  0.
        -12    1    1    2    0    0  0.16629135002E+02 -0.36783443206E+02 -0.48596108261E+01  0.40659139715E+02  0.00000000000E+00 0.  1.
         11    1    3    3    0    0 -0.61904235404E+01  0.32144146588E+02  0.95301530411E+01  0.34093860455E+02  0.51100000000E-03 0. -1.
        -11    1    3    3    0    0 -0.72931553681E+01  0.25026705798E+01  0.26767452403E+01  0.81620120434E+01  0.51100000000E-03 0.  1.
        -12    1    3    3    0    0 -0.31455560935E+01  0.21366260377E+01 -0.73472874553E+01  0.82729877863E+01  0.00000000000E+00 0.  1.
</event>
<event>
 7    1  0.5601662E-013  0.5052887E+02  0.7816164E-02  0.1300439E+00
        -11   -1    0    0    0    0  0.00000000000E+00  0.00000000000E+00  0.45593999997E+02  0.45594000000E+02  0.51100000000E-03 0. -1.
         11   -1    0    0    0    0 -0.00000000000E+00 -0.00000000000E+00 -0.45593999997E+02  0.45594000000E+02  0.51100000000E-03 0.  1.
    9900012    2    1    2    0    0  0.94029945402E+00 -0.40478966630E+02  0.37059811311E+01  0.50528865742E+02  0.30000017909E+02 0.  0.
        -12    1    1    2    0    0 -0.94029945402E+00  0.40478966630E+02 -0.37059811311E+01  0.40659134258E+02  0.00000000000E+00 0.  1.
         11    1    3    3    0    0  0.47763001901E+00 -0.20727473816E+01  0.35588715147E+01  0.41460799392E+01  0.51100000000E-03 0. -1.
        -11    1    3    3    0    0  0.70041554415E+01 -0.28732521305E+02  0.98801908890E+01  0.31180669432E+02  0.51100000000E-03 0.  1.
        -12    1    3    3    0    0 -0.65414860065E+01 -0.96736979433E+01 -0.97330812726E+01  0.15202116370E+02  0.00000000000E+00 0.  1.
</event>
<event>
 7    1  0.5601662E-013  0.5052884E+02  0.7816164E-02  0.1300439E+00
        -11   -1    0    0    0    0  0.00000000000E+00  0.00000000000E+00  0.45593999997E+02  0.45594000000E+02  0.51100000000E-03 0.  1.
         11   -1    0    0    0    0 -0.00000000000E+00 -0.00000000000E+00 -0.45593999997E+02  0.45594000000E+02  0.51100000000E-03 0. -1.
    9900012    2    1    2    0    0 -0.24827987328E+02  0.57135938476E+01 -0.31687426911E+02  0.50528841946E+02  0.29999945580E+02 0.  0.
        -12    1    1    2    0    0  0.24827987328E+02 -0.57135938476E+01  0.31687426911E+02  0.40659158054E+02  0.00000000000E+00 0.  1.
         11    1    3    3    0    0 -0.16053353848E+02  0.84135923874E+01 -0.32302742679E+02  0.37040057930E+02  0.51100000000E-03 0. -1.
        -11    1    3    3    0    0 -0.77410071553E+00 -0.13327190712E+01 -0.39051821285E+01  0.41983115366E+01  0.51100000000E-03 0.  1.
        -12    1    3    3    0    0 -0.80005327648E+01 -0.13672794686E+01  0.45204978964E+01  0.92904724798E+01  0.00000000000E+00 0.  1.
</event>
<event>
 7    1  0.5601662E-013  0.5052886E+02  0.7816164E-02  0.1300439E+00
        -11   -1    0    0    0    0  0.00000000000E+00  0.00000000000E+00  0.45593999997E+02  0.45594000000E+02  0.51100000000E-03 0. -1.
         11   -1    0    0    0    0 -0.00000000000E+00 -0.00000000000E+00 -0.45593999997E+02  0.45594000000E+02  0.51100000000E-03 0.  1.
    9900012    2    1    2    0    0 -0.34270228728E+02  0.14584250825E+02 -0.16310015315E+02  0.50528861436E+02  0.30000004820E+02 0.  0.
        -12    1    1    2    0    0  0.34270228728E+02 -0.14584250825E+02  0.16310015315E+02  0.40659138564E+02  0.00000000000E+00 0.  1.
         11    1    3    3    0    0 -0.42487985828E+01 -0.35470594877E+01 -0.46019543225E+01  0.71980486421E+01  0.51100000000E-03 0. -1.
        -11    1    3    3    0    0 -0.20519569877E+02 -0.47509334330E+00 -0.32016697471E+01  0.20773279737E+02  0.51100000000E-03 0.  1.
        -12    1    3    3    0    0 -0.95018602687E+01  0.18606403656E+02 -0.85063912456E+01  0.22557533057E+02  0.00000000000E+00 0.  1.
</event>
<event>
 7    1  0.5601662E-013  0.5052886E+02  0.7816164E-02  0.1300439E+00
        -11   -1    0    0    0    0  0.00000000000E+00  0.00000000000E+00  0.45593999997E+02  0.45594000000E+02  0.51100000000E-03 0. -1.
         11   -1    0    0    0    0 -0.00000000000E+00 -0.00000000000E+00 -0.45593999997E+02  0.45594000000E+02  0.51100000000E-03 0.  1.
    9900012    2    1    2    0    0  0.24379621253E+02 -0.22496447848E+02 -0.23509767712E+02  0.50528864789E+02  0.30000015012E+02 0.  0.
        -12    1    1    2    0    0 -0.24379621253E+02  0.22496447848E+02  0.23509767712E+02  0.40659135211E+02  0.00000000000E+00 0.  1.
         11    1    3    3    0    0  0.94099253554E+01 -0.86755879944E+01 -0.69688392503E+01  0.14573168599E+02  0.51100000000E-03 0. -1.
        -11    1    3    3    0    0  0.18030334974E+02 -0.16394616410E+02 -0.66103997407E+01  0.25250223989E+02  0.51100000000E-03 0.  1.
        -12    1    3    3    0    0 -0.30606390766E+01  0.25737565562E+01 -0.99305287212E+01  0.10705472201E+02  0.00000000000E+00 0.  1.
</event>
<event>
 7    1  0.5601662E-013  0.5052886E+02  0.7816164E-02  0.1300439E+00
        -11   -1    0    0    0    0  0.00000000000E+00  0.00000000000E+00  0.45593999997E+02  0.45594000000E+02  0.51100000000E-03 0. -1.
         11   -1    0    0    0    0 -0.00000000000E+00 -0.00000000000E+00 -0.45593999997E+02  0.45594000000E+02  0.51100000000E-03 0.  1.
    9900012    2    1    2    0    0  0.17918265846E+02 -0.28896767485E+02 -0.22295252584E+02  0.50528859456E+02  0.29999998803E+02 0.  0.
        -12    1    1    2    0    0 -0.17918265846E+02  0.28896767485E+02  0.22295252584E+02  0.40659140544E+02  0.00000000000E+00 0.  1.
         11    1    3    3    0    0  0.53458587846E+01 -0.64555010303E+01  0.36030757948E+01  0.91232590197E+01  0.51100000000E-03 0. -1.
        -11    1    3    3    0    0 -0.18770989572E+01  0.16933014571E+01  0.77131604008E+00  0.26430472971E+01  0.51100000000E-03 0.  1.
        -12    1    3    3    0    0  0.14449506018E+02 -0.24134567912E+02 -0.26669644419E+02  0.38762553139E+02  0.00000000000E+00 0.  1.
</event>
<event>
 7    1  0.5601662E-013  0.5052883E+02  0.7816164E-02  0.1300439E+00
        -11   -1    0    0    0    0  0.00000000000E+00  0.00000000000E+00  0.45593999997E+02  0.45594000000E+02  0.51100000000E-03 0.  1.
         11   -1    0    0    0    0 -0.00000000000E+00 -0.00000000000E+00 -0.45593999997E+02  0.45594000000E+02  0.51100000000E-03 0. -1.
    9900012    2    1    2    0    0  0.16070012352E+02 -0.16631454106E+02 -0.33441258926E+02  0.50528826850E+02  0.29999899693E+02 0.  0.
        -12    1    1    2    0    0 -0.16070012352E+02  0.16631454106E+02  0.33441258926E+02  0.40659173150E+02  0.00000000000E+00 0.  1.
         11    1    3    3    0    0  0.30503345814E+01 -0.10588645334E+02 -0.26097008232E+02  0.28328038937E+02  0.51100000000E-03 0. -1.
        -11    1    3    3    0    0 -0.17261058265E+01 -0.44518646143E+01  0.14098893715E+01  0.49785869652E+01  0.51100000000E-03 0.  1.
         12    1    3    3    0    0  0.14745783597E+02 -0.15909441581E+01 -0.87541400652E+01  0.17222200948E+02  0.00000000000E+00 0. -1.
</event>
<event>
 7    1  0.5601662E-013  0.5052887E+02  0.7816164E-02  0.1300439E+00
        -11   -1    0    0    0    0  0.00000000000E+00  0.00000000000E+00  0.45593999997E+02  0.45594000000E+02  0.51100000000E-03 0. -1.
         11   -1    0    0    0    0 -0.00000000000E+00 -0.00000000000E+00 -0.45593999997E+02  0.45594000000E+02  0.51100000000E-03 0.  1.
    9900012    2    1    2    0    0  0.28543151490E+02  0.14815932784E+02  0.24878533106E+02  0.50528871003E+02  0.30000033901E+02 0.  0.
        -12    1    1    2    0    0 -0.28543151490E+02 -0.14815932784E+02 -0.24878533106E+02  0.40659128997E+02  0.00000000000E+00 0.  1.
         11    1    3    3    0    0  0.17194380897E+01 -0.42380330456E+01  0.11337336722E+02  0.12225080599E+02  0.51100000000E-03 0. -1.
        -11    1    3    3    0    0  0.15948898687E+02  0.50359715314E+01  0.11817092116E+02  0.20478575266E+02  0.51100000000E-03 0.  1.
        -12    1    3    3    0    0  0.10874814714E+02  0.14017994298E+02  0.17241042683E+01  0.17825215138E+02  0.00000000000E+00 0.  1.
</event>
<event>
 7    1  0.5601662E-013  0.5052886E+02  0.7816164E-02  0.1300439E+00
        -11   -1    0    0    0    0  0.00000000000E+00  0.00000000000E+00  0.45593999997E+02  0.45594000000E+02  0.51100000000E-03 0. -1.
         11   -1    0    0    0    0 -0.00000000000E+00 -0.00000000000E+00 -0.45593999997E+02  0.45594000000E+02  0.51100000000E-03 0.  1.
    9900012    2    1    2    0    0 -0.13355359210E+01 -0.26552854968E+02  0.30762445765E+02  0.50528857946E+02  0.29999994211E+02 0.  0.
        -12    1    1    2    0    0  0.13355359210E+01  0.26552854968E+02 -0.30762445765E+02  0.40659142054E+02  0.00000000000E+00 0.  1.
         11    1    3    3    0    0  0.83274329722E+00  0.43669680773E+00 -0.12542726199E+01  0.15675986626E+01  0.51100000000E-03 0.  1.
        -11    1    3    3    0    0  0.24268320423E+01  0.39916090289E+01  0.79712032787E+00  0.47389721965E+01  0.51100000000E-03 0. -1.
         12    1    3    3    0    0 -0.45951112606E+01 -0.30981160805E+02  0.31219598057E+02  0.44222287086E+02  0.00000000000E+00 0. -1.
</event>
<event>
 7    1  0.5601662E-013  0.5052888E+02  0.7816164E-02  0.1300439E+00
        -11   -1    0    0    0    0  0.00000000000E+00  0.00000000000E+00  0.45593999997E+02  0.45594000000E+02  0.51100000000E-03 0. -1.
         11   -1    0    0    0    0 -0.00000000000E+00 -0.00000000000E+00 -0.45593999997E+02  0.45594000000E+02  0.51100000000E-03 0.  1.
    9900012    2    1    2    0    0 -0.10761202662E+02 -0.36417361843E+02  0.14530524788E+02  0.50528881995E+02  0.30000067311E+02 0.  0.
        -12    1    1    2    0    0  0.10761202662E+02  0.36417361843E+02 -0.14530524788E+02  0.40659118005E+02  0.00000000000E+00 0.  1.
         11    1    3    3    0    0 -0.13706654316E+02 -0.91200406929E+01  0.87025394285E+01  0.18622075812E+02  0.51100000000E-03 0.  1.
        -11    1    3    3    0    0 -0.53401146286E+01 -0.11430752637E+02  0.60803593500E+01  0.14005345415E+02  0.51100000000E-03 0. -1.
        -12    1    3    3    0    0  0.82855662828E+01 -0.15866568513E+02 -0.25237399028E+00  0.17901460768E+02  0.00000000000E+00 0.  1.
</event>
