<event>
 8    1  0.6019723E-011  0.9118800E+02  0.7816164E-02  0.1184000E+00
        -11   -1    0    0    0    0  0.00000000000E+00  0.00000000000E+00  0.45593999997E+02  0.45594000000E+02  0.51100000000E-03 0. -1.
         11   -1    0    0    0    0 -0.00000000000E+00 -0.00000000000E+00 -0.45593999997E+02  0.45594000000E+02  0.51100000000E-03 0.  1.
         23    2    1    2    0    0 -0.88817841970E-15  0.71054273576E-14 -0.17763568394E-14  0.91188000000E+02  0.91188000000E+02 0.  0.
    9900012    2    3    3    0    0 -0.36629292862E+01  0.43008721353E+02 -0.45227923751E+01  0.47787276339E+02  0.20000024142E+02 0.  0.
         12    1    3    3    0    0  0.36629292862E+01 -0.43008721353E+02  0.45227923751E+01  0.43400723661E+02  0.00000000000E+00 0. -1.
         11    1    4    4    0    0 -0.10290195688E+01  0.25230432731E+02 -0.97496623384E+01  0.27068238455E+02  0.51100000000E-03 0. -1.
        -11    1    4    4    0    0  0.14924583790E+01  0.98942133421E+01 -0.69470625505E+00  0.10030229644E+02  0.51100000000E-03 0.  1.
         12    1    4    4    0    0 -0.41263680963E+01  0.78840752798E+01  0.59215762184E+01  0.10688808240E+02  0.00000000000E+00 0. -1.
</event>
<event>
 8    1  0.6019723E-011  0.9118800E+02  0.7816164E-02  0.1184000E+00
        -11   -1    0    0    0    0  0.00000000000E+00  0.00000000000E+00  0.45593999997E+02  0.45594000000E+02  0.51100000000E-03 0. -1.
         11   -1    0    0    0    0 -0.00000000000E+00 -0.00000000000E+00 -0.45593999997E+02  0.45594000000E+02  0.51100000000E-03 0.  1.
         23    2    1    2    0    0 -0.17763568394E-14 -0.35527136788E-14  0.00000000000E+00  0.91188000000E+02  0.91188000000E+02 0.  0.
    9900012    2    3    3    0    0  0.13666417674E+02 -0.25630369131E+02  0.32248049338E+02  0.47787268671E+02  0.19999989178E+02 0.  0.
        -12    1    3    3    0    0 -0.13666417674E+02  0.25630369131E+02 -0.32248049338E+02  0.43400731329E+02  0.00000000000E+00 0.  1.
         11    1    4    4    0    0  0.13822092148E+02 -0.96179817965E+01  0.14638486960E+02  0.22312353214E+02  0.51100000000E-03 0. -1.
        -11    1    4    4    0    0 -0.45251430251E+01 -0.93010444838E+01  0.89270074810E+01  0.13663008846E+02  0.51100000000E-03 0.  1.
        -12    1    4    4    0    0  0.43694685505E+01 -0.67113428504E+01  0.86825548967E+01  0.11811906612E+02  0.00000000000E+00 0.  1.
</event>
<event>
 8    1  0.6019723E-011  0.9118800E+02  0.7816164E-02  0.1184000E+00
        -11   -1    0    0    0    0  0.00000000000E+00  0.00000000000E+00  0.45593999997E+02  0.45594000000E+02  0.51100000000E-03 0. -1.
         11   -1    0    0    0    0 -0.00000000000E+00 -0.00000000000E+00 -0.45593999997E+02  0.45594000000E+02  0.51100000000E-03 0.  1.
         23    2    1    2    0    0  0.00000000000E+00  0.00000000000E+00  0.00000000000E+00  0.91188000000E+02  0.91188000000E+02 0.  0.
    9900012    2    3    3    0    0 -0.42140635976E+02 -0.40163910359E+01  0.95738530572E+01  0.47787271207E+02  0.20000000740E+02 0.  0.
        -12    1    3    3    0    0  0.42140635976E+02  0.40163910359E+01 -0.95738530572E+01  0.43400728793E+02  0.00000000000E+00 0.  1.
         11    1    4    4    0    0 -0.49807992256E+01 -0.28614105649E+01 -0.19371422076E+01  0.60620583584E+01  0.51100000000E-03 0. -1.
        -11    1    4    4    0    0 -0.26138589669E+02  0.42577584531E+01  0.27167319067E+01  0.26622077481E+02  0.51100000000E-03 0.  1.
        -12    1    4    4    0    0 -0.11021247082E+02 -0.54127389241E+01  0.87942633582E+01  0.15103135367E+02  0.00000000000E+00 0.  1.
</event>
<event>
 8    1  0.6019723E-011  0.9118800E+02  0.7816164E-02  0.1184000E+00
        -11   -1    0    0    0    0  0.00000000000E+00  0.00000000000E+00  0.45593999997E+02  0.45594000000E+02  0.51100000000E-03 0. -1.
         11   -1    0    0    0    0 -0.00000000000E+00 -0.00000000000E+00 -0.45593999997E+02  0.45594000000E+02  0.51100000000E-03 0.  1.
         23    2    1    2    0    0  0.00000000000E+00  0.00000000000E+00  0.00000000000E+00  0.91188000000E+02  0.91188000000E+02 0.  0.
    9900012    2    3    3    0    0 -0.12191999446E+02  0.10120066993E+02  0.40404985472E+02  0.47787268930E+02  0.19999990359E+02 0.  0.
        -12    1    3    3    0    0  0.12191999446E+02 -0.10120066993E+02 -0.40404985472E+02  0.43400731070E+02  0.00000000000E+00 0.  1.
         11    1    4    4    0    0 -0.99179853946E+01 -0.25799271270E+01  0.13591449502E+02  0.17022043299E+02  0.51100000000E-03 0. -1.
        -11    1    4    4    0    0 -0.40963602164E+01  0.26814651892E+01  0.83264528889E+01  0.96592049650E+01  0.51100000000E-03 0.  1.
         12    1    4    4    0    0  0.18223461647E+01  0.10018528931E+02  0.18487083081E+02  0.21106020665E+02  0.00000000000E+00 0. -1.
</event>
<event>
 8    1  0.6019723E-011  0.9118800E+02  0.7816164E-02  0.1184000E+00
        -11   -1    0    0    0    0  0.00000000000E+00  0.00000000000E+00  0.45593999997E+02  0.45594000000E+02  0.51100000000E-03 0.  1.
         11   -1    0    0    0    0 -0.00000000000E+00 -0.00000000000E+00 -0.45593999997E+02  0.45594000000E+02  0.51100000000E-03 0. -1.
         23    2    1    2    0    0 -0.88817841970E-15  0.00000000000E+00  0.00000000000E+00  0.91188000000E+02  0.91188000000E+02 0.  0.
    9900012    2    3    3    0    0 -0.71709443712E+01  0.38859930356E+02  0.17947334780E+02  0.47787268945E+02  0.19999990426E+02 0.  0.
         12    1    3    3    0    0  0.71709443712E+01 -0.38859930356E+02 -0.17947334780E+02  0.43400731055E+02  0.00000000000E+00 0. -1.
         11    1    4    4    0    0 -0.21722864584E+01  0.90141328637E+00 -0.22864608356E+01  0.32801338058E+01  0.51100000000E-03 0. -1.
        -11    1    4    4    0    0  0.19026188368E+01  0.22548209892E+02  0.98065415008E+01  0.24661913637E+02  0.51100000000E-03 0.  1.
        -12    1    4    4    0    0 -0.69012767496E+01  0.15410307178E+02  0.10427254115E+02  0.19845221502E+02  0.00000000000E+00 0.  1.
</event>
<event>
 8    1  0.6797382E-011  0.9118800E+02  0.7816164E-02  0.1184000E+00
        -11   -1    0    0    0    0  0.00000000000E+00  0.00000000000E+00  0.45593999997E+02  0.45594000000E+02  0.51100000000E-03 0. -1.
         11   -1    0    0    0    0 -0.00000000000E+00 -0.00000000000E+00 -0.45593999997E+02  0.45594000000E+02  0.51100000000E-03 0.  1.
         23    2    1    2    0    0  0.44408920985E-15  0.00000000000E+00  0.00000000000E+00  0.91188000000E+02  0.91188000000E+02 0.  0.
    9900012    2    3    3    0    0 -0.22608975210E+01 -0.26621658849E+02 -0.34202332719E+02  0.47787263360E+02  0.19999964965E+02 0.  0.
         12    1    3    3    0    0  0.22608975210E+01  0.26621658849E+02  0.34202332719E+02  0.43400736640E+02  0.00000000000E+00 0. -1.
         11    1    4    4    0    0 -0.55793701763E+01 -0.17798825973E+01 -0.27999172572E+01  0.64912934406E+01  0.51100000000E-03 0. -1.
        -11    1    4    4    0    0 -0.17654431336E+01 -0.17232039187E+02 -0.23566506442E+02  0.29247909158E+02  0.51100000000E-03 0.  1.
         12    1    4    4    0    0  0.50839157889E+01 -0.76097370650E+01 -0.78359090194E+01  0.12048060761E+02  0.00000000000E+00 0. -1.
</event>
<event>
 8    1  0.6019723E-011  0.9118800E+02  0.7816164E-02  0.1184000E+00
        -11   -1    0    0    0    0  0.00000000000E+00  0.00000000000E+00  0.45593999997E+02  0.45594000000E+02  0.51100000000E-03 0. -1.
         11   -1    0    0    0    0 -0.00000000000E+00 -0.00000000000E+00 -0.45593999997E+02  0.45594000000E+02  0.51100000000E-03 0.  1.
         23    2    1    2    0    0  0.00000000000E+00  0.00000000000E+00  0.00000000000E+00  0.91188000000E+02  0.91188000000E+02 0.  0.
    9900012    2    3    3    0    0 -0.19341454729E+02  0.25537614074E+02  0.29280727781E+02  0.47787278543E+02  0.20000034190E+02 0.  0.
        -12    1    3    3    0    0  0.19341454729E+02 -0.25537614074E+02 -0.29280727781E+02  0.43400721457E+02  0.00000000000E+00 0.  1.
         11    1    4    4    0    0 -0.14572232281E+02  0.17293608218E+02  0.24965388327E+02  0.33685151824E+02  0.51100000000E-03 0. -1.
        -11    1    4    4    0    0 -0.27850059587E+01  0.96022789877E+01  0.10586233525E+01  0.10053889974E+02  0.51100000000E-03 0.  1.
        -12    1    4    4    0    0 -0.19842164891E+01 -0.13582731322E+01  0.32567161012E+01  0.40482367447E+01  0.00000000000E+00 0.  1.
</event>
<event>
 8    1  0.6019723E-011  0.9118800E+02  0.7816164E-02  0.1184000E+00
        -11   -1    0    0    0    0  0.00000000000E+00  0.00000000000E+00  0.45593999997E+02  0.45594000000E+02  0.51100000000E-03 0.  1.
         11   -1    0    0    0    0 -0.00000000000E+00 -0.00000000000E+00 -0.45593999997E+02  0.45594000000E+02  0.51100000000E-03 0. -1.
         23    2    1    2    0    0 -0.17763568394E-14  0.35527136788E-14  0.00000000000E+00  0.91188000000E+02  0.91188000000E+02 0.  0.
    9900012    2    3    3    0    0  0.15257598080E+02 -0.30024726682E+02 -0.27374159980E+02  0.47787272516E+02  0.20000006709E+02 0.  0.
         12    1    3    3    0    0 -0.15257598080E+02  0.30024726682E+02  0.27374159980E+02  0.43400727484E+02  0.00000000000E+00 0. -1.
         11    1    4    4    0    0 -0.28989804029E+01 -0.96080536793E+01 -0.32563725132E+01  0.10550959439E+02  0.51100000000E-03 0. -1.
        -11    1    4    4    0    0  0.13317673608E+02 -0.14381744614E+02 -0.21442877218E+02  0.29051540271E+02  0.51100000000E-03 0.  1.
        -12    1    4    4    0    0  0.48389048742E+01 -0.60349283887E+01 -0.26749102496E+01  0.81847728057E+01  0.00000000000E+00 0.  1.
</event>
<event>
 8    1  0.6019723E-011  0.9118800E+02  0.7816164E-02  0.1184000E+00
        -11   -1    0    0    0    0  0.00000000000E+00  0.00000000000E+00  0.45593999997E+02  0.45594000000E+02  0.51100000000E-03 0. -1.
         11   -1    0    0    0    0 -0.00000000000E+00 -0.00000000000E+00 -0.45593999997E+02  0.45594000000E+02  0.51100000000E-03 0.  1.
         23    2    1    2    0    0  0.00000000000E+00 -0.17763568394E-14  0.00000000000E+00  0.91188000000E+02  0.91188000000E+02 0.  0.
    9900012    2    3    3    0    0  0.13649333552E+02  0.10628492135E+02 -0.39803924704E+02  0.47787290636E+02  0.20000089326E+02 0.  0.
         12    1    3    3    0    0 -0.13649333552E+02 -0.10628492135E+02  0.39803924704E+02  0.43400709364E+02  0.00000000000E+00 0. -1.
         11    1    4    4    0    0  0.46598493904E+01  0.37856246620E+01 -0.30597058127E+02  0.31180524638E+02  0.51100000000E-03 0. -1.
        -11    1    4    4    0    0 -0.83595404839E+00  0.22795690694E+01 -0.37735607946E+01  0.44872057725E+01  0.51100000000E-03 0.  1.
         12    1    4    4    0    0  0.98254382099E+01  0.45632984036E+01 -0.54333057824E+01  0.12119560226E+02  0.00000000000E+00 0. -1.
</event>
<event>
 8    1  0.6019723E-011  0.9118800E+02  0.7816164E-02  0.1184000E+00
        -11   -1    0    0    0    0  0.00000000000E+00  0.00000000000E+00  0.45593999997E+02  0.45594000000E+02  0.51100000000E-03 0. -1.
         11   -1    0    0    0    0 -0.00000000000E+00 -0.00000000000E+00 -0.45593999997E+02  0.45594000000E+02  0.51100000000E-03 0.  1.
         23    2    1    2    0    0 -0.33306690739E-15  0.17763568394E-14  0.00000000000E+00  0.91188000000E+02  0.91188000000E+02 0.  0.
    9900012    2    3    3    0    0  0.20521976820E+00 -0.10289123388E+02 -0.42162958540E+02  0.47787271341E+02  0.20000001353E+02 0.  0.
         12    1    3    3    0    0 -0.20521976820E+00  0.10289123388E+02  0.42162958540E+02  0.43400728659E+02  0.00000000000E+00 0. -1.
         11    1    4    4    0    0 -0.58949945413E+01 -0.26254923863E+01 -0.12527334766E+02  0.14091780849E+02  0.51100000000E-03 0. -1.
        -11    1    4    4    0    0  0.52191746732E+01 -0.10711362008E+02 -0.17637933166E+02  0.21285435090E+02  0.51100000000E-03 0.  1.
        -12    1    4    4    0    0  0.88103963625E+00  0.30477310070E+01 -0.11997690609E+02  0.12410055402E+02  0.00000000000E+00 0.  1.
</event>
<event>
 8    1  0.6019723E-011  0.9118800E+02  0.7816164E-02  0.1184000E+00
        -11   -1    0    0    0    0  0.00000000000E+00  0.00000000000E+00  0.45593999997E+02  0.45594000000E+02  0.51100000000E-03 0. -1.
         11   -1    0    0    0    0 -0.00000000000E+00 -0.00000000000E+00 -0.45593999997E+02  0.45594000000E+02  0.51100000000E-03 0.  1.
         23    2    1    2    0    0  0.00000000000E+00 -0.44408920985E-15  0.00000000000E+00  0.91188000000E+02  0.91188000000E+02 0.  0.
    9900012    2    3    3    0    0  0.17997930479E+02  0.35496467814E+01  0.39333164776E+02  0.47787270224E+02  0.19999996260E+02 0.  0.
        -12    1    3    3    0    0 -0.17997930479E+02 -0.35496467814E+01 -0.39333164776E+02  0.43400729776E+02  0.00000000000E+00 0.  1.
         11    1    4    4    0    0  0.73080451028E+01 -0.66653387362E+00  0.36752475429E+01  0.82072672305E+01  0.51100000000E-03 0. -1.
        -11    1    4    4    0    0  0.12323792861E+01  0.23878757394E+01  0.45161332882E-01  0.26875172667E+01  0.51100000000E-03 0.  1.
         12    1    4    4    0    0  0.94575060896E+01  0.18283049156E+01  0.35612755900E+02  0.36892485727E+02  0.00000000000E+00 0. -1.
</event>
<event>
 8    1  0.6019723E-011  0.9118800E+02  0.7816164E-02  0.1184000E+00
        -11   -1    0    0    0    0  0.00000000000E+00  0.00000000000E+00  0.45593999997E+02  0.45594000000E+02  0.51100000000E-03 0. -1.
         11   -1    0    0    0    0 -0.00000000000E+00 -0.00000000000E+00 -0.45593999997E+02  0.45594000000E+02  0.51100000000E-03 0.  1.
         23    2    1    2    0    0  0.00000000000E+00 -0.17763568394E-14 -0.71054273576E-14  0.91188000000E+02  0.91188000000E+02 0.  0.
    9900012    2    3    3    0    0  0.16148815888E+02 -0.13807066724E+02 -0.37844468695E+02  0.47787272392E+02  0.20000006143E+02 0.  0.
         12    1    3    3    0    0 -0.16148815888E+02  0.13807066724E+02  0.37844468695E+02  0.43400727608E+02  0.00000000000E+00 0. -1.
         11    1    4    4    0    0  0.12000740870E+02 -0.99480405465E+01 -0.34047026947E+02  0.37445711855E+02  0.51100000000E-03 0. -1.
        -11    1    4    4    0    0  0.62599311959E+01 -0.38896728543E+01 -0.21934098650E+01  0.76894304463E+01  0.51100000000E-03 0.  1.
         12    1    4    4    0    0 -0.21118561776E+01  0.30646676544E-01 -0.16040318829E+01  0.26521300901E+01  0.00000000000E+00 0. -1.
</event>
<event>
 8    1  0.6019723E-011  0.9118800E+02  0.7816164E-02  0.1184000E+00
        -11   -1    0    0    0    0  0.00000000000E+00  0.00000000000E+00  0.45593999997E+02  0.45594000000E+02  0.51100000000E-03 0. -1.
         11   -1    0    0    0    0 -0.00000000000E+00 -0.00000000000E+00 -0.45593999997E+02  0.45594000000E+02  0.51100000000E-03 0.  1.
         23    2    1    2    0    0 -0.88817841970E-15  0.71054273576E-14  0.00000000000E+00  0.91188000000E+02  0.91188000000E+02 0.  0.
    9900012    2    3    3    0    0 -0.79000410332E+01  0.21864654614E+02  0.36649018288E+02  0.47787259094E+02  0.19999945512E+02 0.  0.
        -12    1    3    3    0    0  0.79000410332E+01 -0.21864654614E+02 -0.36649018288E+02  0.43400740906E+02  0.00000000000E+00 0.  1.
         11    1    4    4    0    0 -0.27904466489E+01  0.18451172335E+02  0.22489336051E+02  0.29223322695E+02  0.51100000000E-03 0. -1.
        -11    1    4    4    0    0 -0.20018717113E+01 -0.12070231375E+01 -0.90221805570E+00  0.25056721422E+01  0.51100000000E-03 0.  1.
        -12    1    4    4    0    0 -0.31077226729E+01  0.46205054167E+01  0.15061900293E+02  0.16058264257E+02  0.00000000000E+00 0.  1.
</event>
<event>
 8    1  0.6019723E-011  0.9118800E+02  0.7816164E-02  0.1184000E+00
        -11   -1    0    0    0    0  0.00000000000E+00  0.00000000000E+00  0.45593999997E+02  0.45594000000E+02  0.51100000000E-03 0. -1.
         11   -1    0    0    0    0 -0.00000000000E+00 -0.00000000000E+00 -0.45593999997E+02  0.45594000000E+02  0.51100000000E-03 0.  1.
         23    2    1    2    0    0  0.71054273576E-14 -0.71054273576E-14 -0.17763568394E-14  0.91188000000E+02  0.91188000000E+02 0.  0.
    9900012    2    3    3    0    0  0.29490800187E+02 -0.31306296412E+02 -0.58165157054E+01  0.47787270218E+02  0.19999996231E+02 0.  0.
         12    1    3    3    0    0 -0.29490800187E+02  0.31306296412E+02  0.58165157054E+01  0.43400729782E+02  0.00000000000E+00 0. -1.
         11    1    4    4    0    0  0.26949438330E+01  0.10154211776E+01 -0.42073288481E+01  0.50985702631E+01  0.51100000000E-03 0. -1.
        -11    1    4    4    0    0  0.11018219961E+02 -0.17783813470E+02  0.16626306346E+01  0.20986413069E+02  0.51100000000E-03 0.  1.
        -12    1    4    4    0    0  0.15777636393E+02 -0.14537904120E+02 -0.32718174919E+01  0.21702286885E+02  0.00000000000E+00 0.  1.
</event>
<event>
 8    1  0.6019723E-011  0.9118800E+02  0.7816164E-02  0.1184000E+00
        -11   -1    0    0    0    0  0.00000000000E+00  0.00000000000E+00  0.45593999997E+02  0.45594000000E+02  0.51100000000E-03 0. -1.
         11   -1    0    0    0    0 -0.00000000000E+00 -0.00000000000E+00 -0.45593999997E+02  0.45594000000E+02  0.51100000000E-03 0.  1.
         23    2    1    2    0    0 -0.22204460493E-15 -0.22204460493E-15  0.00000000000E+00  0.91188000000E+02  0.91188000000E+02 0.  0.
    9900012    2    3    3    0    0 -0.12463000164E+01  0.11871412821E+01 -0.43366585445E+02  0.47787270729E+02  0.19999998560E+02 0.  0.
         12    1    3    3    0    0  0.12463000164E+01 -0.11871412821E+01  0.43366585445E+02  0.43400729271E+02  0.00000000000E+00 0. -1.
         11    1    4    4    0    0 -0.49350739681E+01  0.17792517183E+01 -0.41986316506E+01  0.67193154224E+01  0.51100000000E-03 0. -1.
        -11    1    4    4    0    0  0.75445899403E+01 -0.26213300400E+01 -0.24921228909E+02  0.26169827267E+02  0.51100000000E-03 0.  1.
         12    1    4    4    0    0 -0.38558159885E+01  0.20292196039E+01 -0.14246724885E+02  0.14898128040E+02  0.00000000000E+00 0. -1.
</event>
<event>
 8    1  0.6019723E-011  0.9118800E+02  0.7816164E-02  0.1184000E+00
        -11   -1    0    0    0    0  0.00000000000E+00  0.00000000000E+00  0.45593999997E+02  0.45594000000E+02  0.51100000000E-03 0. -1.
         11   -1    0    0    0    0 -0.00000000000E+00 -0.00000000000E+00 -0.45593999997E+02  0.45594000000E+02  0.51100000000E-03 0.  1.
         23    2    1    2    0    0  0.00000000000E+00  0.00000000000E+00 -0.71054273576E-14  0.91188000000E+02  0.91188000000E+02 0.  0.
    9900012    2    3    3    0    0 -0.22603199514E+02 -0.21131866053E+02 -0.30432921850E+02  0.47787272777E+02  0.20000007898E+02 0.  0.
         12    1    3    3    0    0  0.22603199514E+02  0.21131866053E+02  0.30432921850E+02  0.43400727223E+02  0.00000000000E+00 0. -1.
         11    1    4    4    0    0 -0.11093336376E+01 -0.37889471409E+01 -0.15488477431E+01  0.42409516796E+01  0.51100000000E-03 0. -1.
        -11    1    4    4    0    0  0.29545825315E+01 -0.18948572575E+01 -0.18942229699E+01  0.39884988257E+01  0.51100000000E-03 0.  1.
        -12    1    4    4    0    0 -0.24448448408E+02 -0.15448061654E+02 -0.26989851137E+02  0.39557822271E+02  0.00000000000E+00 0.  1.
</event>
<event>
 8    1  0.6019723E-011  0.9118800E+02  0.7816164E-02  0.1184000E+00
        -11   -1    0    0    0    0  0.00000000000E+00  0.00000000000E+00  0.45593999997E+02  0.45594000000E+02  0.51100000000E-03 0. -1.
         11   -1    0    0    0    0 -0.00000000000E+00 -0.00000000000E+00 -0.45593999997E+02  0.45594000000E+02  0.51100000000E-03 0.  1.
         23    2    1    2    0    0 -0.35527136788E-14 -0.35527136788E-14  0.00000000000E+00  0.91188000000E+02  0.91188000000E+02 0.  0.
    9900012    2    3    3    0    0  0.19746404624E+02  0.19054771363E+02 -0.33624674141E+02  0.47787268227E+02  0.19999987156E+02 0.  0.
         12    1    3    3    0    0 -0.19746404624E+02 -0.19054771363E+02  0.33624674141E+02  0.43400731773E+02  0.00000000000E+00 0. -1.
         11    1    4    4    0    0  0.12659853336E+01 -0.17716870407E+01 -0.10036740220E+01  0.23976979873E+01  0.51100000000E-03 0. -1.
        -11    1    4    4    0    0  0.18930551322E+02  0.22556147566E+02 -0.32024554957E+02  0.43505375379E+02  0.51100000000E-03 0.  1.
        -12    1    4    4    0    0 -0.45013203232E+00 -0.17296891621E+01 -0.59644516289E+00  0.18841948616E+01  0.00000000000E+00 0.  1.
</event>
<event>
 8    1  0.6019723E-011  0.9118800E+02  0.7816164E-02  0.1184000E+00
        -11   -1    0    0    0    0  0.00000000000E+00  0.00000000000E+00  0.45593999997E+02  0.45594000000E+02  0.51100000000E-03 0. -1.
         11   -1    0    0    0    0 -0.00000000000E+00 -0.00000000000E+00 -0.45593999997E+02  0.45594000000E+02  0.51100000000E-03 0.  1.
         23    2    1    2    0    0  0.00000000000E+00  0.00000000000E+00 -0.35527136788E-14  0.91188000000E+02  0.91188000000E+02 0.  0.
    9900012    2    3    3    0    0  0.15448716924E+01  0.29368100315E+02 -0.31917880701E+02  0.47787273588E+02  0.20000011596E+02 0.  0.
         12    1    3    3    0    0 -0.15448716924E+01 -0.29368100315E+02  0.31917880701E+02  0.43400726412E+02  0.00000000000E+00 0. -1.
         11    1    4    4    0    0 -0.20219330776E+01  0.88549451258E+01 -0.64926061943E+01  0.11164775054E+02  0.51100000000E-03 0. -1.
        -11    1    4    4    0    0  0.30303908683E+01  0.20117274722E+02 -0.27634143424E+02  0.34315213741E+02  0.51100000000E-03 0.  1.
        -12    1    4    4    0    0  0.53641390167E+00  0.39588046734E+00  0.22088689176E+01  0.23072847925E+01  0.00000000000E+00 0.  1.
</event>
<event>
 8    1  0.6019723E-011  0.9118800E+02  0.7816164E-02  0.1184000E+00
        -11   -1    0    0    0    0  0.00000000000E+00  0.00000000000E+00  0.45593999997E+02  0.45594000000E+02  0.51100000000E-03 0. -1.
         11   -1    0    0    0    0 -0.00000000000E+00 -0.00000000000E+00 -0.45593999997E+02  0.45594000000E+02  0.51100000000E-03 0.  1.
         23    2    1    2    0    0  0.00000000000E+00  0.00000000000E+00  0.00000000000E+00  0.91188000000E+02  0.91188000000E+02 0.  0.
    9900012    2    3    3    0    0  0.98833319025E+01  0.40992068465E+02  0.10275863337E+02  0.47787270814E+02  0.19999998949E+02 0.  0.
        -12    1    3    3    0    0 -0.98833319025E+01 -0.40992068465E+02 -0.10275863337E+02  0.43400729186E+02  0.00000000000E+00 0.  1.
         11    1    4    4    0    0  0.11959215084E+02  0.16694648634E+02  0.74759348656E+01  0.21854604110E+02  0.51100000000E-03 0. -1.
        -11    1    4    4    0    0 -0.21676766477E+01  0.24319370663E+02  0.39893090414E+01  0.24739547255E+02  0.51100000000E-03 0.  1.
        -12    1    4    4    0    0  0.91793466610E-01 -0.21950831665E-01 -0.11893805699E+01  0.11931194490E+01  0.00000000000E+00 0.  1.
</event>
<event>
 8    1  0.6019723E-011  0.9118800E+02  0.7816164E-02  0.1184000E+00
        -11   -1    0    0    0    0  0.00000000000E+00  0.00000000000E+00  0.45593999997E+02  0.45594000000E+02  0.51100000000E-03 0. -1.
         11   -1    0    0    0    0 -0.00000000000E+00 -0.00000000000E+00 -0.45593999997E+02  0.45594000000E+02  0.51100000000E-03 0.  1.
         23    2    1    2    0    0  0.00000000000E+00  0.00000000000E+00  0.00000000000E+00  0.91188000000E+02  0.91188000000E+02 0.  0.
    9900012    2    3    3    0    0 -0.19055261754E+02  0.22635345904E+02 -0.31751557444E+02  0.47787270919E+02  0.19999999426E+02 0.  0.
         12    1    3    3    0    0  0.19055261754E+02 -0.22635345904E+02  0.31751557444E+02  0.43400729081E+02  0.00000000000E+00 0. -1.
         11    1    4    4    0    0 -0.18266225329E+02  0.11626813269E+02 -0.15270826292E+02  0.26495960267E+02  0.51100000000E-03 0. -1.
        -11    1    4    4    0    0 -0.16641914088E+01  0.96140580100E+01 -0.16968960455E+02  0.19574096752E+02  0.51100000000E-03 0.  1.
        -12    1    4    4    0    0  0.87515498434E+00  0.13944746254E+01  0.48822930278E+00  0.17172139004E+01  0.00000000000E+00 0.  1.
</event>
<event>
 8    1  0.6019723E-011  0.9118800E+02  0.7816164E-02  0.1184000E+00
        -11   -1    0    0    0    0  0.00000000000E+00  0.00000000000E+00  0.45593999997E+02  0.45594000000E+02  0.51100000000E-03 0. -1.
         11   -1    0    0    0    0 -0.00000000000E+00 -0.00000000000E+00 -0.45593999997E+02  0.45594000000E+02  0.51100000000E-03 0.  1.
         23    2    1    2    0    0  0.44408920985E-15  0.00000000000E+00  0.00000000000E+00  0.91188000000E+02  0.91188000000E+02 0.  0.
    9900012    2    3    3    0    0 -0.24471128759E+01 -0.20715773273E+02 -0.38059055572E+02  0.47787270343E+02  0.19999996803E+02 0.  0.
         12    1    3    3    0    0  0.24471128759E+01  0.20715773273E+02  0.38059055572E+02  0.43400729657E+02  0.00000000000E+00 0. -1.
         11    1    4    4    0    0  0.44885863715E+01 -0.13481153130E+02 -0.91662233444E+01  0.16908830473E+02  0.51100000000E-03 0. -1.
        -11    1    4    4    0    0 -0.60341749526E+01 -0.33448094951E+01 -0.18013059724E+02  0.19289098963E+02  0.51100000000E-03 0.  1.
         12    1    4    4    0    0 -0.90152429470E+00 -0.38898106479E+01 -0.10879772503E+02  0.11589340907E+02  0.00000000000E+00 0. -1.
</event>
<event>
 8    1  0.6019723E-011  0.9118800E+02  0.7816164E-02  0.1184000E+00
        -11   -1    0    0    0    0  0.00000000000E+00  0.00000000000E+00  0.45593999997E+02  0.45594000000E+02  0.51100000000E-03 0. -1.
         11   -1    0    0    0    0 -0.00000000000E+00 -0.00000000000E+00 -0.45593999997E+02  0.45594000000E+02  0.51100000000E-03 0.  1.
         23    2    1    2    0    0 -0.17763568394E-14  0.00000000000E+00  0.00000000000E+00  0.91188000000E+02  0.91188000000E+02 0.  0.
    9900012    2    3    3    0    0 -0.15592612796E+02  0.48370875124E+01  0.40213144972E+02  0.47787262472E+02  0.19999960914E+02 0.  0.
        -12    1    3    3    0    0  0.15592612796E+02 -0.48370875124E+01 -0.40213144972E+02  0.43400737528E+02  0.00000000000E+00 0.  1.
         11    1    4    4    0    0 -0.12446766848E+02  0.91262880349E+01  0.29145651678E+02  0.32979996213E+02  0.51100000000E-03 0. -1.
        -11    1    4    4    0    0 -0.40864760109E+00 -0.49045715849E+01  0.10943221564E+02  0.11998996364E+02  0.51100000000E-03 0.  1.
         12    1    4    4    0    0 -0.27371983470E+01  0.61537106236E+00  0.12427173084E+00  0.28082698941E+01  0.00000000000E+00 0. -1.
</event>
<event>
 8    1  0.9135835E-011  0.9118800E+02  0.7816164E-02  0.1184000E+00
        -11   -1    0    0    0    0  0.00000000000E+00  0.00000000000E+00  0.45593999997E+02  0.45594000000E+02  0.51100000000E-03 0. -1.
         11   -1    0    0    0    0 -0.00000000000E+00 -0.00000000000E+00 -0.45593999997E+02  0.45594000000E+02  0.51100000000E-03 0.  1.
         23    2    1    2    0    0 -0.35527136788E-14  0.17763568394E-14 -0.71054273576E-14  0.91188000000E+02  0.91188000000E+02 0.  0.
    9900012    2    3    3    0    0 -0.17228148429E+02  0.92075678717E+01 -0.38756106068E+02  0.47787260814E+02  0.19999953354E+02 0.  0.
         12    1    3    3    0    0  0.17228148429E+02 -0.92075678717E+01  0.38756106068E+02  0.43400739186E+02  0.00000000000E+00 0. -1.
         11    1    4    4    0    0  0.19971566260E+01 -0.94087979777E+00 -0.28113076927E+00  0.22255166036E+01  0.51100000000E-03 0. -1.
        -11    1    4    4    0    0 -0.14992959510E+02  0.22577572266E+01 -0.27446889319E+02  0.31356307756E+02  0.51100000000E-03 0.  1.
         12    1    4    4    0    0 -0.42323455448E+01  0.78906904428E+01 -0.11028085979E+02  0.14205436454E+02  0.00000000000E+00 0. -1.
</event>
<event>
 8    1  0.6019723E-011  0.9118800E+02  0.7816164E-02  0.1184000E+00
        -11   -1    0    0    0    0  0.00000000000E+00  0.00000000000E+00  0.45593999997E+02  0.45594000000E+02  0.51100000000E-03 0. -1.
         11   -1    0    0    0    0 -0.00000000000E+00 -0.00000000000E+00 -0.45593999997E+02  0.45594000000E+02  0.51100000000E-03 0.  1.
         23    2    1    2    0    0  0.35527136788E-14 -0.88817841970E-15 -0.71054273576E-14  0.91188000000E+02  0.91188000000E+02 0.  0.
    9900012    2    3    3    0    0  0.23436446059E+02 -0.29954867311E+01 -0.36405815468E+02  0.47787270231E+02  0.19999996290E+02 0.  0.
         12    1    3    3    0    0 -0.23436446059E+02  0.29954867311E+01  0.36405815468E+02  0.43400729769E+02  0.00000000000E+00 0. -1.
         11    1    4    4    0    0  0.46963222683E+01  0.44935051350E+01 -0.13830118028E+02  0.15281334895E+02  0.51100000000E-03 0. -1.
        -11    1    4    4    0    0  0.55623564625E+01 -0.11357112396E+01 -0.14985393571E+02  0.16024720596E+02  0.51100000000E-03 0.  1.
         12    1    4    4    0    0  0.13177767328E+02 -0.63532806265E+01 -0.75903038689E+01  0.16481214740E+02  0.00000000000E+00 0. -1.
</event>
<event>
 8    1 -0.6019723E-011  0.9118800E+02  0.7816164E-02  0.1184000E+00
        -11   -1    0    0    0    0  0.00000000000E+00  0.00000000000E+00  0.45593999997E+02  0.45594000000E+02  0.51100000000E-03 0. -1.
         11   -1    0    0    0    0 -0.00000000000E+00 -0.00000000000E+00 -0.45593999997E+02  0.45594000000E+02  0.51100000000E-03 0.  1.
         23    2    1    2    0    0  0.00000000000E+00 -0.35527136788E-14  0.00000000000E+00  0.91188000000E+02  0.91188000000E+02 0.  0.
    9900012    2    3    3    0    0 -0.18214250009E+02  0.22518774048E+02 -0.32322888258E+02  0.47787271972E+02  0.20000004231E+02 0.  0.
         12    1    3    3    0    0  0.18214250009E+02 -0.22518774048E+02  0.32322888258E+02  0.43400728028E+02  0.00000000000E+00 0. -1.
         11    1    4    4    0    0 -0.34065611792E+01  0.84503878244E+01 -0.66749524261E+01  0.11294631628E+02  0.51100000000E-03 0. -1.
        -11    1    4    4    0    0 -0.79096538398E+01  0.87220775614E+01 -0.25128021203E+02  0.27749859651E+02  0.51100000000E-03 0.  1.
        -12    1    4    4    0    0 -0.68980349896E+01  0.53463086626E+01 -0.51991462888E+00  0.87427806935E+01  0.00000000000E+00 0.  1.
</event>
<event>
 8    1  0.6019723E-011  0.9118800E+02  0.7816164E-02  0.1184000E+00
        -11   -1    0    0    0    0  0.00000000000E+00  0.00000000000E+00  0.45593999997E+02  0.45594000000E+02  0.51100000000E-03 0.  1.
         11   -1    0    0    0    0 -0.00000000000E+00 -0.00000000000E+00 -0.45593999997E+02  0.45594000000E+02  0.51100000000E-03 0. -1.
         23    2    1    2    0    0 -0.71054273576E-14  0.00000000000E+00  0.35527136788E-14  0.91188000000E+02  0.91188000000E+02 0.  0.
    9900012    2    3    3    0    0  0.22812440787E+02  0.30407921370E+02 -0.20942159308E+02  0.47787272204E+02  0.20000005289E+02 0.  0.
         12    1    3    3    0    0 -0.22812440787E+02 -0.30407921370E+02  0.20942159308E+02  0.43400727796E+02  0.00000000000E+00 0. -1.
         11    1    4    4    0    0  0.24764252226E+00  0.53980218147E+01 -0.97700026684E+01  0.11164807152E+02  0.51100000000E-03 0. -1.
        -11    1    4    4    0    0  0.60789996118E+01  0.11413582654E+02 -0.10410631217E+01  0.12973354152E+02  0.51100000000E-03 0.  1.
         12    1    4    4    0    0  0.16485798653E+02  0.13596316902E+02 -0.10131093518E+02  0.23649110900E+02  0.00000000000E+00 0. -1.
</event>
<event>
 8    1  0.6244859E-011  0.9118800E+02  0.7816164E-02  0.1184000E+00
        -11   -1    0    0    0    0  0.00000000000E+00  0.00000000000E+00  0.45593999997E+02  0.45594000000E+02  0.51100000000E-03 0. -1.
         11   -1    0    0    0    0 -0.00000000000E+00 -0.00000000000E+00 -0.45593999997E+02  0.45594000000E+02  0.51100000000E-03 0.  1.
         23    2    1    2    0    0 -0.44408920985E-15  0.88817841970E-15  0.00000000000E+00  0.91188000000E+02  0.91188000000E+02 0.  0.
    9900012    2    3    3    0    0 -0.23758762561E+01 -0.74254750466E+01 -0.42694740071E+02  0.47787270773E+02  0.19999998764E+02 0.  0.
         12    1    3    3    0    0  0.23758762561E+01  0.74254750466E+01  0.42694740071E+02  0.43400729227E+02  0.00000000000E+00 0. -1.
         11    1    4    4    0    0 -0.10554713012E+01 -0.54855094208E+01 -0.78066395604E+00  0.56404139695E+01  0.51100000000E-03 0. -1.
        -11    1    4    4    0    0  0.95686376852E+00 -0.19210524271E+01 -0.20416257842E+02  0.20528750942E+02  0.51100000000E-03 0.  1.
         12    1    4    4    0    0 -0.22772687234E+01 -0.18913198739E-01 -0.21497818273E+02  0.21618105862E+02  0.00000000000E+00 0. -1.
</event>
<event>
 8    1  0.6019723E-011  0.9118800E+02  0.7816164E-02  0.1184000E+00
        -11   -1    0    0    0    0  0.00000000000E+00  0.00000000000E+00  0.45593999997E+02  0.45594000000E+02  0.51100000000E-03 0. -1.
         11   -1    0    0    0    0 -0.00000000000E+00 -0.00000000000E+00 -0.45593999997E+02  0.45594000000E+02  0.51100000000E-03 0.  1.
         23    2    1    2    0    0  0.00000000000E+00  0.00000000000E+00  0.00000000000E+00  0.91188000000E+02  0.91188000000E+02 0.  0.
    9900012    2    3    3    0    0  0.19353988021E+02 -0.19579148695E+02 -0.33551505479E+02  0.47787269178E+02  0.19999991492E+02 0.  0.
         12    1    3    3    0    0 -0.19353988021E+02  0.19579148695E+02  0.33551505479E+02  0.43400730822E+02  0.00000000000E+00 0. -1.
         11    1    4    4    0    0  0.10457200002E+02 -0.71858819841E+01 -0.24808919071E+02  0.27865254306E+02  0.51100000000E-03 0.  1.
        -11    1    4    4    0    0  0.39035095296E+01 -0.75498119629E+00  0.81187488603E+00  0.40578965420E+01  0.51100000000E-03 0. -1.
         12    1    4    4    0    0  0.49932784888E+01 -0.11638285514E+02 -0.95544612940E+01  0.15864118330E+02  0.00000000000E+00 0. -1.
</event>
<event>
 8    1  0.6019723E-011  0.9118800E+02  0.7816164E-02  0.1184000E+00
        -11   -1    0    0    0    0  0.00000000000E+00  0.00000000000E+00  0.45593999997E+02  0.45594000000E+02  0.51100000000E-03 0. -1.
         11   -1    0    0    0    0 -0.00000000000E+00 -0.00000000000E+00 -0.45593999997E+02  0.45594000000E+02  0.51100000000E-03 0.  1.
         23    2    1    2    0    0  0.00000000000E+00  0.00000000000E+00 -0.71054273576E-14  0.91188000000E+02  0.91188000000E+02 0.  0.
    9900012    2    3    3    0    0  0.19907832309E+02  0.94101018481E+01 -0.37399888116E+02  0.47787269187E+02  0.19999991530E+02 0.  0.
         12    1    3    3    0    0 -0.19907832309E+02 -0.94101018481E+01  0.37399888116E+02  0.43400730813E+02  0.00000000000E+00 0. -1.
         11    1    4    4    0    0 -0.18736585178E+00  0.37956737289E+00  0.19818027989E+01  0.20265043666E+01  0.51100000000E-03 0. -1.
        -11    1    4    4    0    0  0.19536215552E+02  0.69619505740E+01 -0.32503969373E+02  0.38556977309E+02  0.51100000000E-03 0.  1.
        -12    1    4    4    0    0  0.55898260918E+00  0.20685839012E+01 -0.68777215413E+01  0.72037875117E+01  0.00000000000E+00 0.  1.
</event>
<event>
 8    1  0.6019723E-011  0.9118800E+02  0.7816164E-02  0.1184000E+00
        -11   -1    0    0    0    0  0.00000000000E+00  0.00000000000E+00  0.45593999997E+02  0.45594000000E+02  0.51100000000E-03 0. -1.
         11   -1    0    0    0    0 -0.00000000000E+00 -0.00000000000E+00 -0.45593999997E+02  0.45594000000E+02  0.51100000000E-03 0.  1.
         23    2    1    2    0    0  0.00000000000E+00  0.17763568394E-14  0.00000000000E+00  0.91188000000E+02  0.91188000000E+02 0.  0.
    9900012    2    3    3    0    0 -0.36663769872E+02 -0.90995285938E+01  0.21367849807E+02  0.47787326650E+02  0.20000253526E+02 0.  0.
        -12    1    3    3    0    0  0.36663769872E+02  0.90995285938E+01 -0.21367849807E+02  0.43400673350E+02  0.00000000000E+00 0.  1.
         11    1    4    4    0    0 -0.18064557503E+02 -0.12699732615E+02  0.11160375265E+02  0.24741976933E+02  0.51100000000E-03 0. -1.
        -11    1    4    4    0    0 -0.15294800039E+00  0.80498104661E+00 -0.99084023074E+00  0.12857496647E+01  0.51100000000E-03 0.  1.
         12    1    4    4    0    0 -0.18446264369E+02  0.27952229749E+01  0.11198314773E+02  0.21759600052E+02  0.00000000000E+00 0. -1.
</event>
<event>
 8    1  0.6019723E-011  0.9118800E+02  0.7816164E-02  0.1184000E+00
        -11   -1    0    0    0    0  0.00000000000E+00  0.00000000000E+00  0.45593999997E+02  0.45594000000E+02  0.51100000000E-03 0. -1.
         11   -1    0    0    0    0 -0.00000000000E+00 -0.00000000000E+00 -0.45593999997E+02  0.45594000000E+02  0.51100000000E-03 0.  1.
         23    2    1    2    0    0  0.00000000000E+00  0.00000000000E+00 -0.71054273576E-14  0.91188000000E+02  0.91188000000E+02 0.  0.
    9900012    2    3    3    0    0  0.16025692640E+02 -0.91077251302E+01 -0.39291854275E+02  0.47787270813E+02  0.19999998943E+02 0.  0.
         12    1    3    3    0    0 -0.16025692640E+02  0.91077251302E+01  0.39291854275E+02  0.43400729187E+02  0.00000000000E+00 0. -1.
         11    1    4    4    0    0  0.13968845623E+02  0.12569191465E+01 -0.26495430482E+02  0.29978597874E+02  0.51100000000E-03 0.  1.
        -11    1    4    4    0    0 -0.18454098873E+01 -0.90860924640E+00 -0.30541023059E+01  0.36822071602E+01  0.51100000000E-03 0. -1.
         12    1    4    4    0    0  0.39022569041E+01 -0.94560350302E+01 -0.97423214867E+01  0.14126465778E+02  0.00000000000E+00 0. -1.
</event>
<event>
 8    1  0.6019723E-011  0.9118800E+02  0.7816164E-02  0.1184000E+00
        -11   -1    0    0    0    0  0.00000000000E+00  0.00000000000E+00  0.45593999997E+02  0.45594000000E+02  0.51100000000E-03 0. -1.
         11   -1    0    0    0    0 -0.00000000000E+00 -0.00000000000E+00 -0.45593999997E+02  0.45594000000E+02  0.51100000000E-03 0.  1.
         23    2    1    2    0    0  0.00000000000E+00  0.00000000000E+00  0.00000000000E+00  0.91188000000E+02  0.91188000000E+02 0.  0.
    9900012    2    3    3    0    0  0.12434016154E+02  0.30731972926E+02 -0.28010082511E+02  0.47787266827E+02  0.19999980772E+02 0.  0.
         12    1    3    3    0    0 -0.12434016154E+02 -0.30731972926E+02  0.28010082511E+02  0.43400733173E+02  0.00000000000E+00 0. -1.
         11    1    4    4    0    0  0.16278324825E+01  0.17778400768E+01  0.23850327201E+01  0.33910080016E+01  0.51100000000E-03 0. -1.
        -11    1    4    4    0    0  0.10648580127E+02  0.19721934534E+02 -0.25483973231E+02  0.33937882262E+02  0.51100000000E-03 0.  1.
        -12    1    4    4    0    0  0.15760354376E+00  0.92321983154E+01 -0.49111419998E+01  0.10458376564E+02  0.00000000000E+00 0.  1.
</event>
<event>
 8    1  0.6019723E-011  0.9118800E+02  0.7816164E-02  0.1184000E+00
        -11   -1    0    0    0    0  0.00000000000E+00  0.00000000000E+00  0.45593999997E+02  0.45594000000E+02  0.51100000000E-03 0. -1.
         11   -1    0    0    0    0 -0.00000000000E+00 -0.00000000000E+00 -0.45593999997E+02  0.45594000000E+02  0.51100000000E-03 0.  1.
         23    2    1    2    0    0  0.00000000000E+00  0.17763568394E-14  0.17763568394E-14  0.91188000000E+02  0.91188000000E+02 0.  0.
    9900012    2    3    3    0    0  0.37976463708E+02 -0.15624369610E+02 -0.14046026030E+02  0.47787267648E+02  0.19999984513E+02 0.  0.
         12    1    3    3    0    0 -0.37976463708E+02  0.15624369610E+02  0.14046026030E+02  0.43400732352E+02  0.00000000000E+00 0. -1.
         11    1    4    4    0    0  0.14037119038E+02 -0.12797325309E+02 -0.98684488743E+01  0.21405572391E+02  0.51100000000E-03 0. -1.
        -11    1    4    4    0    0  0.16363779137E+02 -0.20488385538E+01  0.19509495101E+01  0.16606541220E+02  0.51100000000E-03 0.  1.
         12    1    4    4    0    0  0.75755655332E+01 -0.77820574719E+00 -0.61285266660E+01  0.97751540361E+01  0.00000000000E+00 0. -1.
</event>
<event>
 8    1  0.6019723E-011  0.9118800E+02  0.7816164E-02  0.1184000E+00
        -11   -1    0    0    0    0  0.00000000000E+00  0.00000000000E+00  0.45593999997E+02  0.45594000000E+02  0.51100000000E-03 0.  1.
         11   -1    0    0    0    0 -0.00000000000E+00 -0.00000000000E+00 -0.45593999997E+02  0.45594000000E+02  0.51100000000E-03 0. -1.
         23    2    1    2    0    0 -0.44408920985E-15  0.00000000000E+00  0.00000000000E+00  0.91188000000E+02  0.91188000000E+02 0.  0.
    9900012    2    3    3    0    0  0.20411351135E+01  0.39490565552E+02  0.17887209840E+02  0.47787271019E+02  0.19999999884E+02 0.  0.
        -12    1    3    3    0    0 -0.20411351135E+01 -0.39490565552E+02 -0.17887209840E+02  0.43400728981E+02  0.00000000000E+00 0.  1.
         11    1    4    4    0    0  0.10027494234E+01  0.30019495730E+02  0.76164988446E+01  0.30986879243E+02  0.51100000000E-03 0. -1.
        -11    1    4    4    0    0  0.92719722468E+00  0.84662032992E+01  0.12048789595E+02  0.14754986410E+02  0.51100000000E-03 0.  1.
         12    1    4    4    0    0  0.11118846543E+00  0.10048665233E+01 -0.17780785996E+01  0.20454053659E+01  0.00000000000E+00 0. -1.
</event>
<event>
 8    1  0.6019723E-011  0.9118800E+02  0.7816164E-02  0.1184000E+00
        -11   -1    0    0    0    0  0.00000000000E+00  0.00000000000E+00  0.45593999997E+02  0.45594000000E+02  0.51100000000E-03 0. -1.
         11   -1    0    0    0    0 -0.00000000000E+00 -0.00000000000E+00 -0.45593999997E+02  0.45594000000E+02  0.51100000000E-03 0.  1.
         23    2    1    2    0    0  0.00000000000E+00  0.00000000000E+00  0.00000000000E+00  0.91188000000E+02  0.91188000000E+02 0.  0.
    9900012    2    3    3    0    0  0.19663891746E+02 -0.85035486192E+01 -0.37744465056E+02  0.47787267056E+02  0.19999981814E+02 0.  0.
         12    1    3    3    0    0 -0.19663891746E+02  0.85035486192E+01  0.37744465056E+02  0.43400732944E+02  0.00000000000E+00 0. -1.
         11    1    4    4    0    0  0.12572096302E+02  0.32128357815E+01 -0.15372104204E+02  0.20116697221E+02  0.51100000000E-03 0. -1.
        -11    1    4    4    0    0  0.70879244191E+01 -0.57315505552E+01 -0.81001962380E+01  0.12194364423E+02  0.51100000000E-03 0.  1.
         12    1    4    4    0    0  0.38710257448E-02 -0.59848338455E+01 -0.14272164615E+02  0.15476205411E+02  0.00000000000E+00 0. -1.
</event>
<event>
 8    1  0.6019723E-011  0.9118800E+02  0.7816164E-02  0.1184000E+00
        -11   -1    0    0    0    0  0.00000000000E+00  0.00000000000E+00  0.45593999997E+02  0.45594000000E+02  0.51100000000E-03 0. -1.
         11   -1    0    0    0    0 -0.00000000000E+00 -0.00000000000E+00 -0.45593999997E+02  0.45594000000E+02  0.51100000000E-03 0.  1.
         23    2    1    2    0    0  0.00000000000E+00  0.00000000000E+00 -0.71054273576E-14  0.91188000000E+02  0.91188000000E+02 0.  0.
    9900012    2    3    3    0    0 -0.83906039495E+01  0.13104860719E+02  0.40515225262E+02  0.47787273196E+02  0.20000009809E+02 0.  0.
        -12    1    3    3    0    0  0.83906039495E+01 -0.13104860719E+02 -0.40515225262E+02  0.43400726804E+02  0.00000000000E+00 0.  1.
         11    1    4    4    0    0  0.42127404014E+01  0.21820998301E+01  0.46815593857E+01  0.66652636783E+01  0.51100000000E-03 0. -1.
        -11    1    4    4    0    0 -0.25303834228E+01  0.44825706991E+01  0.25265326970E+01  0.57340777871E+01  0.51100000000E-03 0.  1.
        -12    1    4    4    0    0 -0.10072960928E+02  0.64401901900E+01  0.33307133179E+02  0.35387931730E+02  0.00000000000E+00 0.  1.
</event>
<event>
 8    1  0.6019723E-011  0.9118800E+02  0.7816164E-02  0.1184000E+00
        -11   -1    0    0    0    0  0.00000000000E+00  0.00000000000E+00  0.45593999997E+02  0.45594000000E+02  0.51100000000E-03 0. -1.
         11   -1    0    0    0    0 -0.00000000000E+00 -0.00000000000E+00 -0.45593999997E+02  0.45594000000E+02  0.51100000000E-03 0.  1.
         23    2    1    2    0    0  0.00000000000E+00 -0.44408920985E-15  0.00000000000E+00  0.91188000000E+02  0.91188000000E+02 0.  0.
    9900012    2    3    3    0    0 -0.36792916014E+01 -0.21892341196E+01 -0.43189043892E+02  0.47787269072E+02  0.19999991008E+02 0.  0.
         12    1    3    3    0    0  0.36792916014E+01  0.21892341196E+01  0.43189043892E+02  0.43400730928E+02  0.00000000000E+00 0. -1.
         11    1    4    4    0    0  0.13478103051E+01 -0.30812858925E+01 -0.39824471250E+01  0.52125618206E+01  0.51100000000E-03 0. -1.
        -11    1    4    4    0    0  0.37571839270E+01  0.12800727873E+01 -0.28243761565E+02  0.28521309314E+02  0.51100000000E-03 0.  1.
        -12    1    4    4    0    0 -0.87842858335E+01 -0.38802101447E+00 -0.10962835202E+02  0.14053397937E+02  0.00000000000E+00 0.  1.
</event>
<event>
 8    1  0.6019723E-011  0.9118800E+02  0.7816164E-02  0.1184000E+00
        -11   -1    0    0    0    0  0.00000000000E+00  0.00000000000E+00  0.45593999997E+02  0.45594000000E+02  0.51100000000E-03 0. -1.
         11   -1    0    0    0    0 -0.00000000000E+00 -0.00000000000E+00 -0.45593999997E+02  0.45594000000E+02  0.51100000000E-03 0.  1.
         23    2    1    2    0    0  0.00000000000E+00  0.00000000000E+00  0.00000000000E+00  0.91188000000E+02  0.91188000000E+02 0.  0.
    9900012    2    3    3    0    0  0.43793751949E+00  0.35245523199E+02  0.25321612586E+02  0.47787276978E+02  0.20000027053E+02 0.  0.
        -12    1    3    3    0    0 -0.43793751949E+00 -0.35245523199E+02 -0.25321612586E+02  0.43400723022E+02  0.00000000000E+00 0.  1.
         11    1    4    4    0    0  0.69443766506E+00  0.26126504689E+02  0.23918908641E+02  0.35428670336E+02  0.51100000000E-03 0. -1.
        -11    1    4    4    0    0 -0.16883914798E+01 -0.98945837509E+00  0.85197483816E+00  0.21343746276E+01  0.51100000000E-03 0.  1.
         12    1    4    4    0    0  0.14318913342E+01  0.10108476885E+02  0.55072910696E+00  0.10224232014E+02  0.00000000000E+00 0. -1.
</event>
<event>
 8    1  0.6019723E-011  0.9118800E+02  0.7816164E-02  0.1184000E+00
        -11   -1    0    0    0    0  0.00000000000E+00  0.00000000000E+00  0.45593999997E+02  0.45594000000E+02  0.51100000000E-03 0. -1.
         11   -1    0    0    0    0 -0.00000000000E+00 -0.00000000000E+00 -0.45593999997E+02  0.45594000000E+02  0.51100000000E-03 0.  1.
         23    2    1    2    0    0  0.71054273576E-14  0.00000000000E+00 -0.35527136788E-14  0.91188000000E+02  0.91188000000E+02 0.  0.
    9900012    2    3    3    0    0  0.28134725977E+02 -0.12307788825E+02 -0.30668856965E+02  0.47787271215E+02  0.20000000777E+02 0.  0.
         12    1    3    3    0    0 -0.28134725977E+02  0.12307788825E+02  0.30668856965E+02  0.43400728785E+02  0.00000000000E+00 0. -1.
         11    1    4    4    0    0  0.10119683231E+02  0.12280293216E+01 -0.18249338916E+01  0.10355985162E+02  0.51100000000E-03 0. -1.
        -11    1    4    4    0    0  0.39969135966E+01  0.42560510037E+00 -0.58424435276E+01  0.70915868911E+01  0.51100000000E-03 0.  1.
         12    1    4    4    0    0  0.14018129149E+02 -0.13961423247E+02 -0.23001479546E+02  0.30339699162E+02  0.00000000000E+00 0. -1.
</event>
<event>
 8    1  0.6019723E-011  0.9118800E+02  0.7816164E-02  0.1184000E+00
        -11   -1    0    0    0    0  0.00000000000E+00  0.00000000000E+00  0.45593999997E+02  0.45594000000E+02  0.51100000000E-03 0. -1.
         11   -1    0    0    0    0 -0.00000000000E+00 -0.00000000000E+00 -0.45593999997E+02  0.45594000000E+02  0.51100000000E-03 0.  1.
         23    2    1    2    0    0 -0.35527136788E-14  0.35527136788E-14  0.00000000000E+00  0.91188000000E+02  0.91188000000E+02 0.  0.
    9900012    2    3    3    0    0  0.26657898199E+02 -0.18633176949E+02  0.28736452323E+02  0.47787279825E+02  0.20000040034E+02 0.  0.
        -12    1    3    3    0    0 -0.26657898199E+02  0.18633176949E+02 -0.28736452323E+02  0.43400720175E+02  0.00000000000E+00 0.  1.
         11    1    4    4    0    0  0.37077650079E+01  0.69713112706E-02 -0.21236060836E-01  0.37078324105E+01  0.51100000000E-03 0. -1.
        -11    1    4    4    0    0  0.17195663520E+02 -0.16182438399E+02  0.29490902424E+02  0.37779299656E+02  0.51100000000E-03 0.  1.
        -12    1    4    4    0    0  0.57544696708E+01 -0.24577098613E+01 -0.73321403990E+00  0.63001477588E+01  0.00000000000E+00 0.  1.
</event>
<event>
 8    1  0.6019723E-011  0.9118800E+02  0.7816164E-02  0.1184000E+00
        -11   -1    0    0    0    0  0.00000000000E+00  0.00000000000E+00  0.45593999997E+02  0.45594000000E+02  0.51100000000E-03 0. -1.
         11   -1    0    0    0    0 -0.00000000000E+00 -0.00000000000E+00 -0.45593999997E+02  0.45594000000E+02  0.51100000000E-03 0.  1.
         23    2    1    2    0    0  0.00000000000E+00  0.00000000000E+00  0.00000000000E+00  0.91188000000E+02  0.91188000000E+02 0.  0.
    9900012    2    3    3    0    0 -0.34543261194E+02 -0.17324223664E+02  0.19754926435E+02  0.47787277219E+02  0.20000028154E+02 0.  0.
        -12    1    3    3    0    0  0.34543261194E+02  0.17324223664E+02 -0.19754926435E+02  0.43400722781E+02  0.00000000000E+00 0.  1.
         11    1    4    4    0    0 -0.79103965690E+01 -0.31476577611E+01  0.12780698918E+02  0.15356704997E+02  0.51100000000E-03 0.  1.
        -11    1    4    4    0    0 -0.21429689400E+02 -0.11426455979E+02  0.94316660422E+01  0.26052865650E+02  0.51100000000E-03 0. -1.
        -12    1    4    4    0    0 -0.52031752250E+01 -0.27501099242E+01 -0.24574385258E+01  0.63777065725E+01  0.00000000000E+00 0.  1.
</event>
<event>
 8    1  0.6019723E-011  0.9118800E+02  0.7816164E-02  0.1184000E+00
        -11   -1    0    0    0    0  0.00000000000E+00  0.00000000000E+00  0.45593999997E+02  0.45594000000E+02  0.51100000000E-03 0.  1.
         11   -1    0    0    0    0 -0.00000000000E+00 -0.00000000000E+00 -0.45593999997E+02  0.45594000000E+02  0.51100000000E-03 0. -1.
         23    2    1    2    0    0  0.00000000000E+00 -0.17763568394E-14 -0.35527136788E-14  0.91188000000E+02  0.91188000000E+02 0.  0.
    9900012    2    3    3    0    0  0.38116187200E+02  0.57408156320E+01  0.19945492133E+02  0.47787270200E+02  0.19999996149E+02 0.  0.
        -12    1    3    3    0    0 -0.38116187200E+02 -0.57408156320E+01 -0.19945492133E+02  0.43400729800E+02  0.00000000000E+00 0.  1.
         11    1    4    4    0    0  0.28357495281E+02 -0.30058498125E+01  0.10101152529E+02  0.30252536329E+02  0.51100000000E-03 0. -1.
        -11    1    4    4    0    0  0.10166605884E+02  0.83251549332E+01  0.75251615630E+01  0.15142527420E+02  0.51100000000E-03 0.  1.
         12    1    4    4    0    0 -0.40791396477E+00  0.42151051134E+00  0.23191780411E+01  0.23922064501E+01  0.00000000000E+00 0. -1.
</event>
<event>
 8    1  0.6019723E-011  0.9118800E+02  0.7816164E-02  0.1184000E+00
        -11   -1    0    0    0    0  0.00000000000E+00  0.00000000000E+00  0.45593999997E+02  0.45594000000E+02  0.51100000000E-03 0. -1.
         11   -1    0    0    0    0 -0.00000000000E+00 -0.00000000000E+00 -0.45593999997E+02  0.45594000000E+02  0.51100000000E-03 0.  1.
         23    2    1    2    0    0 -0.17763568394E-14  0.00000000000E+00  0.00000000000E+00  0.91188000000E+02  0.91188000000E+02 0.  0.
    9900012    2    3    3    0    0 -0.95313906405E+01 -0.17790126383E+02  0.38422483556E+02  0.47787271356E+02  0.20000001420E+02 0.  0.
        -12    1    3    3    0    0  0.95313906405E+01  0.17790126383E+02 -0.38422483556E+02  0.43400728644E+02  0.00000000000E+00 0.  1.
         11    1    4    4    0    0 -0.82319141549E+01 -0.11311143157E+02  0.23976238680E+02  0.27759077645E+02  0.51100000000E-03 0. -1.
        -11    1    4    4    0    0  0.42280660757E+01 -0.92185729533E+00  0.10275498266E+02  0.11149539385E+02  0.51100000000E-03 0.  1.
        -12    1    4    4    0    0 -0.55275425613E+01 -0.55571259300E+01  0.41707466092E+01  0.88786543263E+01  0.00000000000E+00 0.  1.
</event>
<event>
 8    1  0.6019723E-011  0.9118800E+02  0.7816164E-02  0.1184000E+00
        -11   -1    0    0    0    0  0.00000000000E+00  0.00000000000E+00  0.45593999997E+02  0.45594000000E+02  0.51100000000E-03 0. -1.
         11   -1    0    0    0    0 -0.00000000000E+00 -0.00000000000E+00 -0.45593999997E+02  0.45594000000E+02  0.51100000000E-03 0.  1.
         23    2    1    2    0    0  0.17763568394E-14  0.00000000000E+00  0.00000000000E+00  0.91188000000E+02  0.91188000000E+02 0.  0.
    9900012    2    3    3    0    0  0.10189029389E+02 -0.35852114198E+02 -0.22235838003E+02  0.47787275305E+02  0.20000019426E+02 0.  0.
         12    1    3    3    0    0 -0.10189029389E+02  0.35852114198E+02  0.22235838003E+02  0.43400724695E+02  0.00000000000E+00 0. -1.
         11    1    4    4    0    0  0.46957865413E+01 -0.10699274593E+02 -0.58820221705E+01  0.13081401803E+02  0.51100000000E-03 0. -1.
        -11    1    4    4    0    0 -0.45844567419E+01 -0.10273411412E+02 -0.11507324510E+02  0.16092816512E+02  0.51100000000E-03 0.  1.
        -12    1    4    4    0    0  0.10077699589E+02 -0.14879428193E+02 -0.48464913217E+01  0.18613056989E+02  0.00000000000E+00 0.  1.
</event>
<event>
 8    1  0.6019723E-011  0.9118800E+02  0.7816164E-02  0.1184000E+00
        -11   -1    0    0    0    0  0.00000000000E+00  0.00000000000E+00  0.45593999997E+02  0.45594000000E+02  0.51100000000E-03 0. -1.
         11   -1    0    0    0    0 -0.00000000000E+00 -0.00000000000E+00 -0.45593999997E+02  0.45594000000E+02  0.51100000000E-03 0.  1.
         23    2    1    2    0    0  0.00000000000E+00  0.00000000000E+00  0.00000000000E+00  0.91188000000E+02  0.91188000000E+02 0.  0.
    9900012    2    3    3    0    0 -0.41489480713E+01  0.77911251154E+01  0.42493624675E+02  0.47787267993E+02  0.19999986089E+02 0.  0.
        -12    1    3    3    0    0  0.41489480713E+01 -0.77911251154E+01 -0.42493624675E+02  0.43400732007E+02  0.00000000000E+00 0.  1.
         11    1    4    4    0    0  0.65220309600E+01  0.77988327431E+00  0.13622942849E+02  0.15123811619E+02  0.51100000000E-03 0. -1.
        -11    1    4    4    0    0 -0.85260773436E+01  0.86632184875E+01  0.20150777873E+02  0.23532938588E+02  0.51100000000E-03 0.  1.
        -12    1    4    4    0    0 -0.21449016877E+01 -0.16519766464E+01  0.87199039534E+01  0.91305177864E+01  0.00000000000E+00 0.  1.
</event>
<event>
 8    1  0.6019723E-011  0.9118800E+02  0.7816164E-02  0.1184000E+00
        -11   -1    0    0    0    0  0.00000000000E+00  0.00000000000E+00  0.45593999997E+02  0.45594000000E+02  0.51100000000E-03 0.  1.
         11   -1    0    0    0    0 -0.00000000000E+00 -0.00000000000E+00 -0.45593999997E+02  0.45594000000E+02  0.51100000000E-03 0. -1.
         23    2    1    2    0    0  0.00000000000E+00  0.71054273576E-14  0.00000000000E+00  0.91188000000E+02  0.91188000000E+02 0.  0.
    9900012    2    3    3    0    0  0.22348376589E+02  0.37157265498E+02  0.18736015337E+01  0.47787277677E+02  0.20000030241E+02 0.  0.
        -12    1    3    3    0    0 -0.22348376589E+02 -0.37157265498E+02 -0.18736015337E+01  0.43400722323E+02  0.00000000000E+00 0.  1.
         11    1    4    4    0    0  0.12682874636E+02  0.20307780786E+02 -0.74727479806E+01  0.25081930390E+02  0.51100000000E-03 0. -1.
        -11    1    4    4    0    0  0.93115821275E+01  0.16077204389E+02  0.10447122769E+02  0.21314887687E+02  0.51100000000E-03 0.  1.
         12    1    4    4    0    0  0.35391982556E+00  0.77228032300E+00 -0.11007732549E+01  0.13904595999E+01  0.00000000000E+00 0. -1.
</event>
<event>
 8    1  0.6019723E-011  0.9118800E+02  0.7816164E-02  0.1184000E+00
        -11   -1    0    0    0    0  0.00000000000E+00  0.00000000000E+00  0.45593999997E+02  0.45594000000E+02  0.51100000000E-03 0. -1.
         11   -1    0    0    0    0 -0.00000000000E+00 -0.00000000000E+00 -0.45593999997E+02  0.45594000000E+02  0.51100000000E-03 0.  1.
         23    2    1    2    0    0  0.17763568394E-14  0.00000000000E+00  0.00000000000E+00  0.91188000000E+02  0.91188000000E+02 0.  0.
    9900012    2    3    3    0    0  0.12447418030E+02  0.22068830605E+02  0.35237079012E+02  0.47787271467E+02  0.20000001926E+02 0.  0.
        -12    1    3    3    0    0 -0.12447418030E+02 -0.22068830605E+02 -0.35237079012E+02  0.43400728533E+02  0.00000000000E+00 0.  1.
         11    1    4    4    0    0 -0.22950020473E+01  0.73666930637E+01  0.20996016342E+02  0.22368904837E+02  0.51100000000E-03 0. -1.
        -11    1    4    4    0    0  0.73831624000E+01  0.53183480787E+01  0.54966865556E+01  0.10630591548E+02  0.51100000000E-03 0.  1.
         12    1    4    4    0    0  0.73592576771E+01  0.93837894627E+01  0.87443761144E+01  0.14787775082E+02  0.00000000000E+00 0. -1.
</event>
<event>
 8    1  0.6019723E-011  0.9118800E+02  0.7816164E-02  0.1184000E+00
        -11   -1    0    0    0    0  0.00000000000E+00  0.00000000000E+00  0.45593999997E+02  0.45594000000E+02  0.51100000000E-03 0. -1.
         11   -1    0    0    0    0 -0.00000000000E+00 -0.00000000000E+00 -0.45593999997E+02  0.45594000000E+02  0.51100000000E-03 0.  1.
         23    2    1    2    0    0  0.00000000000E+00  0.17763568394E-14  0.00000000000E+00  0.91188000000E+02  0.91188000000E+02 0.  0.
    9900012    2    3    3    0    0  0.20859262241E+02 -0.80404402688E+01  0.37200341829E+02  0.47787274970E+02  0.20000017896E+02 0.  0.
        -12    1    3    3    0    0 -0.20859262241E+02  0.80404402688E+01 -0.37200341829E+02  0.43400725030E+02  0.00000000000E+00 0.  1.
         11    1    4    4    0    0  0.65207830642E+01  0.29329868574E+01  0.22310759036E+02  0.23428465437E+02  0.51100000000E-03 0. -1.
        -11    1    4    4    0    0  0.33309532832E+01 -0.60884110228E+01  0.34560760467E+01  0.77529646239E+01  0.51100000000E-03 0.  1.
         12    1    4    4    0    0  0.11007525894E+02 -0.48850161034E+01  0.11433506746E+02  0.16605844909E+02  0.00000000000E+00 0. -1.
</event>
<event>
 8    1  0.6019723E-011  0.9118800E+02  0.7816164E-02  0.1184000E+00
        -11   -1    0    0    0    0  0.00000000000E+00  0.00000000000E+00  0.45593999997E+02  0.45594000000E+02  0.51100000000E-03 0. -1.
         11   -1    0    0    0    0 -0.00000000000E+00 -0.00000000000E+00 -0.45593999997E+02  0.45594000000E+02  0.51100000000E-03 0.  1.
         23    2    1    2    0    0  0.00000000000E+00  0.00000000000E+00  0.00000000000E+00  0.91188000000E+02  0.91188000000E+02 0.  0.
    9900012    2    3    3    0    0  0.43437689530E+01  0.10880331476E+02  0.41789640274E+02  0.47787262956E+02  0.19999963122E+02 0.  0.
        -12    1    3    3    0    0 -0.43437689530E+01 -0.10880331476E+02 -0.41789640274E+02  0.43400737044E+02  0.00000000000E+00 0.  1.
         11    1    4    4    0    0  0.13951301979E+01  0.11732669491E+01  0.53184422593E+01  0.56221679030E+01  0.51100000000E-03 0. -1.
        -11    1    4    4    0    0  0.10051144841E+02  0.13345032581E+01  0.16196547602E+02  0.19108494604E+02  0.51100000000E-03 0.  1.
        -12    1    4    4    0    0 -0.71025060859E+01  0.83725612686E+01  0.20274650413E+02  0.23056600449E+02  0.00000000000E+00 0.  1.
</event>
<event>
 8    1  0.6019723E-011  0.9118800E+02  0.7816164E-02  0.1184000E+00
        -11   -1    0    0    0    0  0.00000000000E+00  0.00000000000E+00  0.45593999997E+02  0.45594000000E+02  0.51100000000E-03 0. -1.
         11   -1    0    0    0    0 -0.00000000000E+00 -0.00000000000E+00 -0.45593999997E+02  0.45594000000E+02  0.51100000000E-03 0.  1.
         23    2    1    2    0    0  0.00000000000E+00  0.00000000000E+00  0.00000000000E+00  0.91188000000E+02  0.91188000000E+02 0.  0.
    9900012    2    3    3    0    0  0.48641268752E+01  0.62147751913E+01 -0.42677168724E+02  0.47787263932E+02  0.19999967573E+02 0.  0.
         12    1    3    3    0    0 -0.48641268752E+01 -0.62147751913E+01  0.42677168724E+02  0.43400736068E+02  0.00000000000E+00 0. -1.
         11    1    4    4    0    0  0.55156916078E+01 -0.92896346444E+00 -0.27412425142E+02  0.27977256468E+02  0.51100000000E-03 0. -1.
        -11    1    4    4    0    0 -0.51999014005E+01  0.37622866054E+01 -0.10928632243E+02  0.12673940904E+02  0.51100000000E-03 0.  1.
         12    1    4    4    0    0  0.45483366680E+01  0.33814520503E+01 -0.43361113383E+01  0.71360665603E+01  0.00000000000E+00 0. -1.
</event>
<event>
 8    1  0.6019723E-011  0.9118800E+02  0.7816164E-02  0.1184000E+00
        -11   -1    0    0    0    0  0.00000000000E+00  0.00000000000E+00  0.45593999997E+02  0.45594000000E+02  0.51100000000E-03 0. -1.
         11   -1    0    0    0    0 -0.00000000000E+00 -0.00000000000E+00 -0.45593999997E+02  0.45594000000E+02  0.51100000000E-03 0.  1.
         23    2    1    2    0    0 -0.17763568394E-14 -0.71054273576E-14  0.00000000000E+00  0.91188000000E+02  0.91188000000E+02 0.  0.
    9900012    2    3    3    0    0 -0.11596466223E+02 -0.32531911430E+02 -0.26283456171E+02  0.47787270070E+02  0.19999995559E+02 0.  0.
         12    1    3    3    0    0  0.11596466223E+02  0.32531911430E+02  0.26283456171E+02  0.43400729930E+02  0.00000000000E+00 0. -1.
         11    1    4    4    0    0 -0.25957540136E+01 -0.14315301037E+00 -0.68853075297E+01  0.73597480747E+01  0.51100000000E-03 0. -1.
        -11    1    4    4    0    0 -0.48600622092E+01 -0.61946372191E+01 -0.89597837893E+01  0.11927760090E+02  0.51100000000E-03 0.  1.
         12    1    4    4    0    0 -0.41406499998E+01 -0.26194121201E+02 -0.10438364852E+02  0.28499761906E+02  0.00000000000E+00 0. -1.
</event>
<event>
 8    1  0.6019723E-011  0.9118800E+02  0.7816164E-02  0.1184000E+00
        -11   -1    0    0    0    0  0.00000000000E+00  0.00000000000E+00  0.45593999997E+02  0.45594000000E+02  0.51100000000E-03 0. -1.
         11   -1    0    0    0    0 -0.00000000000E+00 -0.00000000000E+00 -0.45593999997E+02  0.45594000000E+02  0.51100000000E-03 0.  1.
         23    2    1    2    0    0  0.88817841970E-15  0.17763568394E-14  0.00000000000E+00  0.91188000000E+02  0.91188000000E+02 0.  0.
    9900012    2    3    3    0    0 -0.77213126841E+01  0.87790955052E+01 -0.41796318106E+02  0.47787269653E+02  0.19999993654E+02 0.  0.
         12    1    3    3    0    0  0.77213126841E+01 -0.87790955052E+01  0.41796318106E+02  0.43400730347E+02  0.00000000000E+00 0. -1.
         11    1    4    4    0    0 -0.41885863190E+01 -0.71315510562E+00 -0.23154367938E+00  0.42551684212E+01  0.51100000000E-03 0. -1.
        -11    1    4    4    0    0  0.14791230982E+01  0.71403584235E+01 -0.26392314107E+02  0.27381138905E+02  0.51100000000E-03 0.  1.
        -12    1    4    4    0    0 -0.50118494632E+01  0.23518921873E+01 -0.15172460320E+02  0.16150962326E+02  0.00000000000E+00 0.  1.
</event>
<event>
 8    1  0.6019723E-011  0.9118800E+02  0.7816164E-02  0.1184000E+00
        -11   -1    0    0    0    0  0.00000000000E+00  0.00000000000E+00  0.45593999997E+02  0.45594000000E+02  0.51100000000E-03 0. -1.
         11   -1    0    0    0    0 -0.00000000000E+00 -0.00000000000E+00 -0.45593999997E+02  0.45594000000E+02  0.51100000000E-03 0.  1.
         23    2    1    2    0    0  0.00000000000E+00  0.00000000000E+00  0.00000000000E+00  0.91188000000E+02  0.91188000000E+02 0.  0.
    9900012    2    3    3    0    0 -0.24785769860E+02 -0.31229239922E+02  0.17147277647E+02  0.47787205717E+02  0.19999702144E+02 0.  0.
        -12    1    3    3    0    0  0.24785769860E+02  0.31229239922E+02 -0.17147277647E+02  0.43400794283E+02  0.00000000000E+00 0.  1.
         11    1    4    4    0    0 -0.85223971411E+01 -0.61549645759E+01  0.12689551147E+01  0.10588913509E+02  0.51100000000E-03 0. -1.
        -11    1    4    4    0    0 -0.18059116300E+02 -0.19072857712E+02  0.86964387816E+01  0.27668278418E+02  0.51100000000E-03 0.  1.
        -12    1    4    4    0    0  0.17957435813E+01 -0.60014176342E+01  0.71818837508E+01  0.95300137901E+01  0.00000000000E+00 0.  1.
</event>
<event>
 8    1  0.6019723E-011  0.9118800E+02  0.7816164E-02  0.1184000E+00
        -11   -1    0    0    0    0  0.00000000000E+00  0.00000000000E+00  0.45593999997E+02  0.45594000000E+02  0.51100000000E-03 0. -1.
         11   -1    0    0    0    0 -0.00000000000E+00 -0.00000000000E+00 -0.45593999997E+02  0.45594000000E+02  0.51100000000E-03 0.  1.
         23    2    1    2    0    0  0.35527136788E-14  0.88817841970E-15  0.35527136788E-14  0.91188000000E+02  0.91188000000E+02 0.  0.
    9900012    2    3    3    0    0  0.30285532535E+02  0.59846222635E+01  0.30505631541E+02  0.47787277192E+02  0.20000028027E+02 0.  0.
        -12    1    3    3    0    0 -0.30285532535E+02 -0.59846222635E+01 -0.30505631541E+02  0.43400722808E+02  0.00000000000E+00 0.  1.
         11    1    4    4    0    0  0.24213668841E+02 -0.44313658283E+00  0.17610738332E+02  0.29943884745E+02  0.51100000000E-03 0. -1.
        -11    1    4    4    0    0  0.43809224915E+01  0.67636871135E+01  0.44123380614E+01  0.91874192609E+01  0.51100000000E-03 0.  1.
        -12    1    4    4    0    0  0.16909412023E+01 -0.33592826718E+00  0.84825551476E+01  0.86559731852E+01  0.00000000000E+00 0.  1.
</event>
<event>
 8    1  0.6019723E-011  0.9118800E+02  0.7816164E-02  0.1184000E+00
        -11   -1    0    0    0    0  0.00000000000E+00  0.00000000000E+00  0.45593999997E+02  0.45594000000E+02  0.51100000000E-03 0. -1.
         11   -1    0    0    0    0 -0.00000000000E+00 -0.00000000000E+00 -0.45593999997E+02  0.45594000000E+02  0.51100000000E-03 0.  1.
         23    2    1    2    0    0  0.00000000000E+00  0.00000000000E+00  0.00000000000E+00  0.91188000000E+02  0.91188000000E+02 0.  0.
    9900012    2    3    3    0    0 -0.90584445781E+01  0.53348643205E+01  0.42108278934E+02  0.47787270164E+02  0.19999995985E+02 0.  0.
        -12    1    3    3    0    0  0.90584445781E+01 -0.53348643205E+01 -0.42108278934E+02  0.43400729836E+02  0.00000000000E+00 0.  1.
         11    1    4    4    0    0 -0.65834346446E+01  0.11795975043E+02  0.23342750772E+02  0.26969810025E+02  0.51100000000E-03 0. -1.
        -11    1    4    4    0    0 -0.23426273072E+01 -0.56263699197E+01  0.18989142109E+02  0.19943205848E+02  0.51100000000E-03 0.  1.
         12    1    4    4    0    0 -0.13238262628E+00 -0.83474080264E+00 -0.22361394738E+00  0.87425429069E+00  0.00000000000E+00 0. -1.
</event>
<event>
 8    1  0.6019723E-011  0.9118800E+02  0.7816164E-02  0.1184000E+00
        -11   -1    0    0    0    0  0.00000000000E+00  0.00000000000E+00  0.45593999997E+02  0.45594000000E+02  0.51100000000E-03 0. -1.
         11   -1    0    0    0    0 -0.00000000000E+00 -0.00000000000E+00 -0.45593999997E+02  0.45594000000E+02  0.51100000000E-03 0.  1.
         23    2    1    2    0    0 -0.17763568394E-14  0.00000000000E+00  0.71054273576E-14  0.91188000000E+02  0.91188000000E+02 0.  0.
    9900012    2    3    3    0    0 -0.10453051702E+02  0.17725398708E+02  0.38212135161E+02  0.47787270481E+02  0.19999997430E+02 0.  0.
        -12    1    3    3    0    0  0.10453051702E+02 -0.17725398708E+02 -0.38212135161E+02  0.43400729519E+02  0.00000000000E+00 0.  1.
         11    1    4    4    0    0 -0.34835850771E+01  0.63694397413E+01  0.15103974631E+01  0.74152834312E+01  0.51100000000E-03 0. -1.
        -11    1    4    4    0    0 -0.38339017462E+01  0.36496285928E+00  0.18367704850E+02  0.18767114381E+02  0.51100000000E-03 0.  1.
        -12    1    4    4    0    0 -0.31355648783E+01  0.10990996108E+02  0.18334032848E+02  0.21604872669E+02  0.00000000000E+00 0.  1.
</event>
<event>
 8    1  0.6019723E-011  0.9118800E+02  0.7816164E-02  0.1184000E+00
        -11   -1    0    0    0    0  0.00000000000E+00  0.00000000000E+00  0.45593999997E+02  0.45594000000E+02  0.51100000000E-03 0. -1.
         11   -1    0    0    0    0 -0.00000000000E+00 -0.00000000000E+00 -0.45593999997E+02  0.45594000000E+02  0.51100000000E-03 0.  1.
         23    2    1    2    0    0  0.00000000000E+00  0.00000000000E+00 -0.35527136788E-14  0.91188000000E+02  0.91188000000E+02 0.  0.
    9900012    2    3    3    0    0 -0.14532605862E+02 -0.32251561315E+02  0.25144848838E+02  0.47787271165E+02  0.20000000549E+02 0.  0.
        -12    1    3    3    0    0  0.14532605862E+02  0.32251561315E+02 -0.25144848838E+02  0.43400728835E+02  0.00000000000E+00 0.  1.
         11    1    4    4    0    0 -0.20661801306E+01 -0.27118142895E+01 -0.25252753832E+01  0.42426469444E+01  0.51100000000E-03 0. -1.
        -11    1    4    4    0    0  0.99294567084E+00  0.35112729458E-01  0.16096058708E+01  0.18915616113E+01  0.51100000000E-03 0.  1.
         12    1    4    4    0    0 -0.13459371402E+02 -0.29574859755E+02  0.26060518350E+02  0.41653062609E+02  0.00000000000E+00 0. -1.
</event>
<event>
 8    1  0.6019723E-011  0.9118800E+02  0.7816164E-02  0.1184000E+00
        -11   -1    0    0    0    0  0.00000000000E+00  0.00000000000E+00  0.45593999997E+02  0.45594000000E+02  0.51100000000E-03 0. -1.
         11   -1    0    0    0    0 -0.00000000000E+00 -0.00000000000E+00 -0.45593999997E+02  0.45594000000E+02  0.51100000000E-03 0.  1.
         23    2    1    2    0    0  0.00000000000E+00  0.00000000000E+00 -0.35527136788E-14  0.91188000000E+02  0.91188000000E+02 0.  0.
    9900012    2    3    3    0    0  0.19294102373E+01  0.40236668059E+02  0.16152739763E+02  0.47787273253E+02  0.20000010068E+02 0.  0.
        -12    1    3    3    0    0 -0.19294102373E+01 -0.40236668059E+02 -0.16152739763E+02  0.43400726747E+02  0.00000000000E+00 0.  1.
         11    1    4    4    0    0 -0.34967481735E+01  0.14642092643E+02  0.18856907702E+01  0.15171484921E+02  0.51100000000E-03 0. -1.
        -11    1    4    4    0    0  0.53724762137E+01  0.12546135220E+02  0.14018383298E+02  0.19564868519E+02  0.51100000000E-03 0.  1.
        -12    1    4    4    0    0  0.53682197042E-01  0.13048440196E+02  0.24866569486E+00  0.13050919813E+02  0.00000000000E+00 0.  1.
</event>
<event>
 8    1  0.6019723E-011  0.9118800E+02  0.7816164E-02  0.1184000E+00
        -11   -1    0    0    0    0  0.00000000000E+00  0.00000000000E+00  0.45593999997E+02  0.45594000000E+02  0.51100000000E-03 0. -1.
         11   -1    0    0    0    0 -0.00000000000E+00 -0.00000000000E+00 -0.45593999997E+02  0.45594000000E+02  0.51100000000E-03 0.  1.
         23    2    1    2    0    0  0.00000000000E+00  0.17763568394E-14  0.00000000000E+00  0.91188000000E+02  0.91188000000E+02 0.  0.
    9900012    2    3    3    0    0  0.27663726903E+02 -0.15034505943E+02 -0.29871478952E+02  0.47787269478E+02  0.19999992856E+02 0.  0.
         12    1    3    3    0    0 -0.27663726903E+02  0.15034505943E+02  0.29871478952E+02  0.43400730522E+02  0.00000000000E+00 0. -1.
         11    1    4    4    0    0  0.15748359431E+02 -0.21339062046E+01 -0.12224419428E+02  0.20049957882E+02  0.51100000000E-03 0. -1.
        -11    1    4    4    0    0  0.12133813207E+02 -0.14644874668E+02 -0.17697199951E+02  0.25978696337E+02  0.51100000000E-03 0.  1.
        -12    1    4    4    0    0 -0.21844573493E+00  0.17442749291E+01  0.50140427393E-01  0.17586152591E+01  0.00000000000E+00 0.  1.
</event>
<event>
 8    1  0.6019723E-011  0.9118800E+02  0.7816164E-02  0.1184000E+00
        -11   -1    0    0    0    0  0.00000000000E+00  0.00000000000E+00  0.45593999997E+02  0.45594000000E+02  0.51100000000E-03 0. -1.
         11   -1    0    0    0    0 -0.00000000000E+00 -0.00000000000E+00 -0.45593999997E+02  0.45594000000E+02  0.51100000000E-03 0.  1.
         23    2    1    2    0    0  0.44408920985E-15  0.71054273576E-14  0.00000000000E+00  0.91188000000E+02  0.91188000000E+02 0.  0.
    9900012    2    3    3    0    0  0.13114739858E+01  0.37798897529E+02  0.21287260722E+02  0.47787261672E+02  0.19999957266E+02 0.  0.
        -12    1    3    3    0    0 -0.13114739858E+01 -0.37798897529E+02 -0.21287260722E+02  0.43400738328E+02  0.00000000000E+00 0.  1.
         11    1    4    4    0    0  0.76323940406E+01  0.21463704189E+02  0.18390276635E+02  0.29277061179E+02  0.51100000000E-03 0. -1.
        -11    1    4    4    0    0 -0.26833863464E+01  0.47143848177E+01 -0.13916421364E+01  0.56002370120E+01  0.51100000000E-03 0.  1.
        -12    1    4    4    0    0 -0.36375337084E+01  0.11620808523E+02  0.42886262229E+01  0.12909963481E+02  0.00000000000E+00 0.  1.
</event>
<event>
 8    1  0.6019723E-011  0.9118800E+02  0.7816164E-02  0.1184000E+00
        -11   -1    0    0    0    0  0.00000000000E+00  0.00000000000E+00  0.45593999997E+02  0.45594000000E+02  0.51100000000E-03 0. -1.
         11   -1    0    0    0    0 -0.00000000000E+00 -0.00000000000E+00 -0.45593999997E+02  0.45594000000E+02  0.51100000000E-03 0.  1.
         23    2    1    2    0    0 -0.35527136788E-14  0.17763568394E-14  0.00000000000E+00  0.91188000000E+02  0.91188000000E+02 0.  0.
    9900012    2    3    3    0    0 -0.30189023767E+02 -0.15134647840E+02  0.27261489812E+02  0.47787267886E+02  0.19999985601E+02 0.  0.
        -12    1    3    3    0    0  0.30189023767E+02  0.15134647840E+02 -0.27261489812E+02  0.43400732114E+02  0.00000000000E+00 0.  1.
         11    1    4    4    0    0 -0.12278956327E+02 -0.65063906869E+01  0.20900406899E+02  0.25098464038E+02  0.51100000000E-03 0. -1.
        -11    1    4    4    0    0 -0.17998453091E+02 -0.57504985224E+01  0.56829966448E+01  0.19730914779E+02  0.51100000000E-03 0.  1.
         12    1    4    4    0    0  0.88385650667E-01 -0.28777586305E+01  0.67808626833E+00  0.29578890693E+01  0.00000000000E+00 0. -1.
</event>
<event>
 8    1  0.6019723E-011  0.9118800E+02  0.7816164E-02  0.1184000E+00
        -11   -1    0    0    0    0  0.00000000000E+00  0.00000000000E+00  0.45593999997E+02  0.45594000000E+02  0.51100000000E-03 0. -1.
         11   -1    0    0    0    0 -0.00000000000E+00 -0.00000000000E+00 -0.45593999997E+02  0.45594000000E+02  0.51100000000E-03 0.  1.
         23    2    1    2    0    0  0.22204460493E-15  0.00000000000E+00  0.71054273576E-14  0.91188000000E+02  0.91188000000E+02 0.  0.
    9900012    2    3    3    0    0 -0.18602247311E+01  0.15964012528E+02  0.40315169705E+02  0.47787273735E+02  0.20000012265E+02 0.  0.
        -12    1    3    3    0    0  0.18602247311E+01 -0.15964012528E+02 -0.40315169705E+02  0.43400726265E+02  0.00000000000E+00 0.  1.
         11    1    4    4    0    0  0.47816088953E+00  0.41134545139E+01  0.21744833828E+02  0.22135648722E+02  0.51100000000E-03 0. -1.
        -11    1    4    4    0    0 -0.23503094397E+00 -0.13586455725E+01  0.92423105683E+01  0.93445953491E+01  0.51100000000E-03 0.  1.
         12    1    4    4    0    0 -0.21033546767E+01  0.13209203587E+02  0.93280253085E+01  0.16307029663E+02  0.00000000000E+00 0. -1.
</event>
<event>
 8    1  0.6019723E-011  0.9118800E+02  0.7816164E-02  0.1184000E+00
        -11   -1    0    0    0    0  0.00000000000E+00  0.00000000000E+00  0.45593999997E+02  0.45594000000E+02  0.51100000000E-03 0. -1.
         11   -1    0    0    0    0 -0.00000000000E+00 -0.00000000000E+00 -0.45593999997E+02  0.45594000000E+02  0.51100000000E-03 0.  1.
         23    2    1    2    0    0 -0.17763568394E-14  0.44408920985E-15  0.71054273576E-14  0.91188000000E+02  0.91188000000E+02 0.  0.
    9900012    2    3    3    0    0 -0.81918274026E+01  0.34621015275E+01  0.42479771796E+02  0.47787271953E+02  0.20000004141E+02 0.  0.
        -12    1    3    3    0    0  0.81918274026E+01 -0.34621015275E+01 -0.42479771796E+02  0.43400728047E+02  0.00000000000E+00 0.  1.
         11    1    4    4    0    0 -0.67028069977E+01  0.59299305581E+01  0.14639870846E+02  0.17158598915E+02  0.51100000000E-03 0. -1.
        -11    1    4    4    0    0 -0.13951439335E+01 -0.60912471634E+01  0.66280976323E+01  0.91094125543E+01  0.51100000000E-03 0.  1.
         12    1    4    4    0    0 -0.93876471379E-01  0.36234181328E+01  0.21211803318E+02  0.21519260483E+02  0.00000000000E+00 0. -1.
</event>
<event>
 8    1  0.6019723E-011  0.9118800E+02  0.7816164E-02  0.1184000E+00
        -11   -1    0    0    0    0  0.00000000000E+00  0.00000000000E+00  0.45593999997E+02  0.45594000000E+02  0.51100000000E-03 0. -1.
         11   -1    0    0    0    0 -0.00000000000E+00 -0.00000000000E+00 -0.45593999997E+02  0.45594000000E+02  0.51100000000E-03 0.  1.
         23    2    1    2    0    0 -0.17763568394E-14  0.35527136788E-14  0.00000000000E+00  0.91188000000E+02  0.91188000000E+02 0.  0.
    9900012    2    3    3    0    0 -0.12688238663E+02  0.25759720313E+02 -0.32543339806E+02  0.47787267786E+02  0.19999985145E+02 0.  0.
         12    1    3    3    0    0  0.12688238663E+02 -0.25759720313E+02  0.32543339806E+02  0.43400732214E+02  0.00000000000E+00 0. -1.
         11    1    4    4    0    0 -0.23203026761E+01  0.49497724284E+01 -0.81865321107E+01  0.98439504195E+01  0.51100000000E-03 0. -1.
        -11    1    4    4    0    0 -0.95108544476E+01  0.23904481384E+02 -0.22793938380E+02  0.34372142932E+02  0.51100000000E-03 0.  1.
        -12    1    4    4    0    0 -0.85708153928E+00 -0.30945335002E+01 -0.15628693155E+01  0.35711744351E+01  0.00000000000E+00 0.  1.
</event>
<event>
 8    1  0.6019723E-011  0.9118800E+02  0.7816164E-02  0.1184000E+00
        -11   -1    0    0    0    0  0.00000000000E+00  0.00000000000E+00  0.45593999997E+02  0.45594000000E+02  0.51100000000E-03 0.  1.
         11   -1    0    0    0    0 -0.00000000000E+00 -0.00000000000E+00 -0.45593999997E+02  0.45594000000E+02  0.51100000000E-03 0. -1.
         23    2    1    2    0    0  0.00000000000E+00  0.00000000000E+00  0.17763568394E-14  0.91188000000E+02  0.91188000000E+02 0.  0.
    9900012    2    3    3    0    0  0.33071566421E+02  0.24001317912E+02 -0.14622917693E+02  0.47787291608E+02  0.20000093759E+02 0.  0.
         12    1    3    3    0    0 -0.33071566421E+02 -0.24001317912E+02  0.14622917693E+02  0.43400708392E+02  0.00000000000E+00 0. -1.
         11    1    4    4    0    0  0.60399568045E+01  0.96695646548E+01  0.26480959078E+01  0.11704442362E+02  0.51100000000E-03 0. -1.
        -11    1    4    4    0    0  0.11650501793E+02  0.84564815044E+01 -0.40169520728E+01  0.14945975233E+02  0.51100000000E-03 0.  1.
         12    1    4    4    0    0  0.15381107824E+02  0.58752717530E+01 -0.13254061528E+02  0.21136874013E+02  0.00000000000E+00 0. -1.
</event>
<event>
 8    1  0.6019723E-011  0.9118800E+02  0.7816164E-02  0.1184000E+00
        -11   -1    0    0    0    0  0.00000000000E+00  0.00000000000E+00  0.45593999997E+02  0.45594000000E+02  0.51100000000E-03 0. -1.
         11   -1    0    0    0    0 -0.00000000000E+00 -0.00000000000E+00 -0.45593999997E+02  0.45594000000E+02  0.51100000000E-03 0.  1.
         23    2    1    2    0    0  0.00000000000E+00  0.35527136788E-14  0.00000000000E+00  0.91188000000E+02  0.91188000000E+02 0.  0.
    9900012    2    3    3    0    0 -0.26659293672E+02 -0.24094412657E+02 -0.24338538491E+02  0.47787272860E+02  0.20000008278E+02 0.  0.
         12    1    3    3    0    0  0.26659293672E+02  0.24094412657E+02  0.24338538491E+02  0.43400727140E+02  0.00000000000E+00 0. -1.
         11    1    4    4    0    0 -0.13553913309E+02 -0.56405517255E+01 -0.19269932242E+02  0.24225083666E+02  0.51100000000E-03 0. -1.
        -11    1    4    4    0    0 -0.74171363798E+01 -0.12840879058E+02 -0.47241882056E+01  0.15563419981E+02  0.51100000000E-03 0.  1.
         12    1    4    4    0    0 -0.56882439829E+01 -0.56129818743E+01 -0.34441804417E+00  0.79987692128E+01  0.00000000000E+00 0. -1.
</event>
<event>
 8    1  0.8790662E-011  0.9118800E+02  0.7816164E-02  0.1184000E+00
        -11   -1    0    0    0    0  0.00000000000E+00  0.00000000000E+00  0.45593999997E+02  0.45594000000E+02  0.51100000000E-03 0. -1.
         11   -1    0    0    0    0 -0.00000000000E+00 -0.00000000000E+00 -0.45593999997E+02  0.45594000000E+02  0.51100000000E-03 0.  1.
         23    2    1    2    0    0  0.00000000000E+00  0.35527136788E-14  0.00000000000E+00  0.91188000000E+02  0.91188000000E+02 0.  0.
    9900012    2    3    3    0    0  0.30315365891E+00 -0.24983318662E+02 -0.35487535191E+02  0.47787271118E+02  0.20000000338E+02 0.  0.
         12    1    3    3    0    0 -0.30315365891E+00  0.24983318662E+02  0.35487535191E+02  0.43400728882E+02  0.00000000000E+00 0. -1.
         11    1    4    4    0    0  0.43994241847E+01 -0.13572768874E+02 -0.85745143375E+01  0.16646239348E+02  0.51100000000E-03 0. -1.
        -11    1    4    4    0    0  0.45237523788E+00 -0.88979490709E+01 -0.22910232498E+02  0.24581637342E+02  0.51100000000E-03 0.  1.
         12    1    4    4    0    0 -0.45486457637E+01 -0.25126007174E+01 -0.40027883553E+01  0.65593944283E+01  0.00000000000E+00 0. -1.
</event>
<event>
 8    1  0.6019723E-011  0.9118800E+02  0.7816164E-02  0.1184000E+00
        -11   -1    0    0    0    0  0.00000000000E+00  0.00000000000E+00  0.45593999997E+02  0.45594000000E+02  0.51100000000E-03 0.  1.
         11   -1    0    0    0    0 -0.00000000000E+00 -0.00000000000E+00 -0.45593999997E+02  0.45594000000E+02  0.51100000000E-03 0. -1.
         23    2    1    2    0    0  0.00000000000E+00  0.71054273576E-14  0.44408920985E-15  0.91188000000E+02  0.91188000000E+02 0.  0.
    9900012    2    3    3    0    0  0.90094615332E+01  0.42405314182E+02 -0.20593774799E+01  0.47787284527E+02  0.20000061472E+02 0.  0.
         12    1    3    3    0    0 -0.90094615332E+01 -0.42405314182E+02  0.20593774799E+01  0.43400715473E+02  0.00000000000E+00 0. -1.
         11    1    4    4    0    0 -0.44616461078E+01  0.11078973178E+02 -0.21080230871E+00  0.11945474899E+02  0.51100000000E-03 0. -1.
        -11    1    4    4    0    0  0.10440507716E+02  0.18755770902E+02 -0.59517321712E+01  0.22275687634E+02  0.51100000000E-03 0.  1.
        -12    1    4    4    0    0  0.30305999248E+01  0.12570570102E+02  0.41031570000E+01  0.13566121994E+02  0.00000000000E+00 0.  1.
</event>
<event>
 8    1  0.6019723E-011  0.9118800E+02  0.7816164E-02  0.1184000E+00
        -11   -1    0    0    0    0  0.00000000000E+00  0.00000000000E+00  0.45593999997E+02  0.45594000000E+02  0.51100000000E-03 0. -1.
         11   -1    0    0    0    0 -0.00000000000E+00 -0.00000000000E+00 -0.45593999997E+02  0.45594000000E+02  0.51100000000E-03 0.  1.
         23    2    1    2    0    0  0.00000000000E+00 -0.35527136788E-14 -0.35527136788E-14  0.91188000000E+02  0.91188000000E+02 0.  0.
    9900012    2    3    3    0    0  0.33267754874E+02 -0.16001176542E+02 -0.22821963584E+02  0.47787272046E+02  0.20000004567E+02 0.  0.
         12    1    3    3    0    0 -0.33267754874E+02  0.16001176542E+02  0.22821963584E+02  0.43400727954E+02  0.00000000000E+00 0. -1.
         11    1    4    4    0    0 -0.14976653431E+01 -0.76959584858E+00 -0.64081605277E-01  0.16850477629E+01  0.51100000000E-03 0. -1.
        -11    1    4    4    0    0  0.35829121676E+02 -0.14856985072E+02 -0.22765035073E+02  0.44974468175E+02  0.51100000000E-03 0.  1.
        -12    1    4    4    0    0 -0.10637014585E+01 -0.37459562096E+00  0.71530943387E-02  0.11277561078E+01  0.00000000000E+00 0.  1.
</event>
<event>
 8    1  0.6019723E-011  0.9118800E+02  0.7816164E-02  0.1184000E+00
        -11   -1    0    0    0    0  0.00000000000E+00  0.00000000000E+00  0.45593999997E+02  0.45594000000E+02  0.51100000000E-03 0. -1.
         11   -1    0    0    0    0 -0.00000000000E+00 -0.00000000000E+00 -0.45593999997E+02  0.45594000000E+02  0.51100000000E-03 0.  1.
         23    2    1    2    0    0  0.00000000000E+00  0.35527136788E-14  0.00000000000E+00  0.91188000000E+02  0.91188000000E+02 0.  0.
    9900012    2    3    3    0    0  0.18945734781E+02 -0.21067827705E+02 -0.32875956583E+02  0.47787277059E+02  0.20000027421E+02 0.  0.
         12    1    3    3    0    0 -0.18945734781E+02  0.21067827705E+02  0.32875956583E+02  0.43400722941E+02  0.00000000000E+00 0. -1.
         11    1    4    4    0    0  0.10256263875E+02 -0.21499523977E+02 -0.28430041122E+02  0.37090264469E+02  0.51100000000E-03 0. -1.
        -11    1    4    4    0    0  0.65084443832E+01 -0.16438713913E+01 -0.28989185591E+01  0.73120373709E+01  0.51100000000E-03 0.  1.
         12    1    4    4    0    0  0.21810265227E+01  0.20755676632E+01 -0.15469969020E+01  0.33849752189E+01  0.00000000000E+00 0. -1.
</event>
<event>
 8    1  0.6019723E-011  0.9118800E+02  0.7816164E-02  0.1184000E+00
        -11   -1    0    0    0    0  0.00000000000E+00  0.00000000000E+00  0.45593999997E+02  0.45594000000E+02  0.51100000000E-03 0. -1.
         11   -1    0    0    0    0 -0.00000000000E+00 -0.00000000000E+00 -0.45593999997E+02  0.45594000000E+02  0.51100000000E-03 0.  1.
         23    2    1    2    0    0  0.17763568394E-14  0.17763568394E-14  0.71054273576E-14  0.91188000000E+02  0.91188000000E+02 0.  0.
    9900012    2    3    3    0    0 -0.13290129865E+02  0.65520877402E+01  0.40792964569E+02  0.47787270007E+02  0.19999995270E+02 0.  0.
        -12    1    3    3    0    0  0.13290129865E+02 -0.65520877402E+01 -0.40792964569E+02  0.43400729993E+02  0.00000000000E+00 0.  1.
         11    1    4    4    0    0 -0.16718198471E+02  0.96424193868E+01  0.32928796050E+02  0.38167787744E+02  0.51100000000E-03 0. -1.
        -11    1    4    4    0    0  0.14154914779E+01 -0.38529079194E+00  0.55195857971E+00  0.15673939049E+01  0.51100000000E-03 0.  1.
         12    1    4    4    0    0  0.20125771278E+01 -0.27050408547E+01  0.73122099397E+01  0.80520883578E+01  0.00000000000E+00 0. -1.
</event>
<event>
 8    1  0.6019723E-011  0.9118800E+02  0.7816164E-02  0.1184000E+00
        -11   -1    0    0    0    0  0.00000000000E+00  0.00000000000E+00  0.45593999997E+02  0.45594000000E+02  0.51100000000E-03 0. -1.
         11   -1    0    0    0    0 -0.00000000000E+00 -0.00000000000E+00 -0.45593999997E+02  0.45594000000E+02  0.51100000000E-03 0.  1.
         23    2    1    2    0    0 -0.35527136788E-14  0.00000000000E+00  0.00000000000E+00  0.91188000000E+02  0.91188000000E+02 0.  0.
    9900012    2    3    3    0    0  0.21804771830E+02  0.86961967839E+01  0.36504119376E+02  0.47787278295E+02  0.20000033059E+02 0.  0.
        -12    1    3    3    0    0 -0.21804771830E+02 -0.86961967839E+01 -0.36504119376E+02  0.43400721705E+02  0.00000000000E+00 0.  1.
         11    1    4    4    0    0  0.22263115468E+02  0.64758236262E+01  0.23858704004E+02  0.33268909796E+02  0.51100000000E-03 0. -1.
        -11    1    4    4    0    0  0.55533208040E+00  0.18199913743E+01  0.78675704093E-01  0.19044559458E+01  0.51100000000E-03 0.  1.
         12    1    4    4    0    0 -0.10136757180E+01  0.40038178342E+00  0.12566739668E+02  0.12613912554E+02  0.00000000000E+00 0. -1.
</event>
<event>
 8    1  0.6019723E-011  0.9118800E+02  0.7816164E-02  0.1184000E+00
        -11   -1    0    0    0    0  0.00000000000E+00  0.00000000000E+00  0.45593999997E+02  0.45594000000E+02  0.51100000000E-03 0.  1.
         11   -1    0    0    0    0 -0.00000000000E+00 -0.00000000000E+00 -0.45593999997E+02  0.45594000000E+02  0.51100000000E-03 0. -1.
         23    2    1    2    0    0  0.00000000000E+00  0.00000000000E+00  0.44408920985E-15  0.91188000000E+02  0.91188000000E+02 0.  0.
    9900012    2    3    3    0    0  0.34540731918E+02  0.26044645403E+02 -0.34982502808E+01  0.47787268778E+02  0.19999989665E+02 0.  0.
        -12    1    3    3    0    0 -0.34540731918E+02 -0.26044645403E+02  0.34982502808E+01  0.43400731222E+02  0.00000000000E+00 0.  1.
         11    1    4    4    0    0  0.20428331640E+02  0.10457361842E+02 -0.92872216764E+01  0.24757335014E+02  0.51100000000E-03 0. -1.
        -11    1    4    4    0    0  0.12216290393E+02  0.92234203041E+01  0.58565014067E+01  0.16389259961E+02  0.51100000000E-03 0.  1.
         12    1    4    4    0    0  0.18961098850E+01  0.63638632568E+01 -0.67530011053E-01  0.66406738024E+01  0.00000000000E+00 0. -1.
</event>
<event>
 8    1  0.6019723E-011  0.9118800E+02  0.7816164E-02  0.1184000E+00
        -11   -1    0    0    0    0  0.00000000000E+00  0.00000000000E+00  0.45593999997E+02  0.45594000000E+02  0.51100000000E-03 0. -1.
         11   -1    0    0    0    0 -0.00000000000E+00 -0.00000000000E+00 -0.45593999997E+02  0.45594000000E+02  0.51100000000E-03 0.  1.
         23    2    1    2    0    0  0.00000000000E+00  0.00000000000E+00  0.00000000000E+00  0.91188000000E+02  0.91188000000E+02 0.  0.
    9900012    2    3    3    0    0 -0.14504007639E+02 -0.12227494673E+02  0.39035160513E+02  0.47787290100E+02  0.20000086882E+02 0.  0.
        -12    1    3    3    0    0  0.14504007639E+02  0.12227494673E+02 -0.39035160513E+02  0.43400709900E+02  0.00000000000E+00 0.  1.
         11    1    4    4    0    0 -0.44880171757E+00  0.19898876427E+01  0.77961056151E+01  0.80585568705E+01  0.51100000000E-03 0. -1.
        -11    1    4    4    0    0 -0.85566825988E+01 -0.12309697830E+02  0.30337232936E+02  0.33839225468E+02  0.51100000000E-03 0.  1.
        -12    1    4    4    0    0 -0.54985233227E+01 -0.19076844853E+01  0.90182196118E+00  0.58895077617E+01  0.00000000000E+00 0.  1.
</event>
<event>
 8    1  0.6019723E-011  0.9118800E+02  0.7816164E-02  0.1184000E+00
        -11   -1    0    0    0    0  0.00000000000E+00  0.00000000000E+00  0.45593999997E+02  0.45594000000E+02  0.51100000000E-03 0. -1.
         11   -1    0    0    0    0 -0.00000000000E+00 -0.00000000000E+00 -0.45593999997E+02  0.45594000000E+02  0.51100000000E-03 0.  1.
         23    2    1    2    0    0  0.00000000000E+00  0.00000000000E+00  0.71054273576E-14  0.91188000000E+02  0.91188000000E+02 0.  0.
    9900012    2    3    3    0    0 -0.20134668975E+02 -0.16873449943E+02  0.34547140907E+02  0.47787272442E+02  0.20000006372E+02 0.  0.
        -12    1    3    3    0    0  0.20134668975E+02  0.16873449943E+02 -0.34547140907E+02  0.43400727558E+02  0.00000000000E+00 0.  1.
         11    1    4    4    0    0 -0.11574426911E+02 -0.10853256791E+02  0.21159925280E+02  0.26448118636E+02  0.51100000000E-03 0. -1.
        -11    1    4    4    0    0 -0.10015315414E+02 -0.24147396151E+01  0.37780210684E+01  0.10973192503E+02  0.51100000000E-03 0.  1.
        -12    1    4    4    0    0  0.14550733501E+01 -0.36054535370E+01  0.96091945587E+01  0.10365961303E+02  0.00000000000E+00 0.  1.
</event>
<event>
 8    1  0.6019723E-011  0.9118800E+02  0.7816164E-02  0.1184000E+00
        -11   -1    0    0    0    0  0.00000000000E+00  0.00000000000E+00  0.45593999997E+02  0.45594000000E+02  0.51100000000E-03 0. -1.
         11   -1    0    0    0    0 -0.00000000000E+00 -0.00000000000E+00 -0.45593999997E+02  0.45594000000E+02  0.51100000000E-03 0.  1.
         23    2    1    2    0    0  0.00000000000E+00  0.00000000000E+00 -0.71054273576E-14  0.91188000000E+02  0.91188000000E+02 0.  0.
    9900012    2    3    3    0    0 -0.21213028111E+02  0.17285887943E+02  0.33687223134E+02  0.47787268600E+02  0.19999988856E+02 0.  0.
        -12    1    3    3    0    0  0.21213028111E+02 -0.17285887943E+02 -0.33687223134E+02  0.43400731400E+02  0.00000000000E+00 0.  1.
         11    1    4    4    0    0  0.10026391397E+01  0.67106837974E+01  0.47240596003E+01  0.82677265098E+01  0.51100000000E-03 0. -1.
        -11    1    4    4    0    0  0.38212542287E+00  0.79880343415E+00 -0.58209226616E+00  0.10596878940E+01  0.51100000000E-03 0.  1.
         12    1    4    4    0    0 -0.22597792673E+02  0.97764007110E+01  0.29545255799E+02  0.38459854196E+02  0.00000000000E+00 0. -1.
</event>
<event>
 8    1  0.6019723E-011  0.9118800E+02  0.7816164E-02  0.1184000E+00
        -11   -1    0    0    0    0  0.00000000000E+00  0.00000000000E+00  0.45593999997E+02  0.45594000000E+02  0.51100000000E-03 0. -1.
         11   -1    0    0    0    0 -0.00000000000E+00 -0.00000000000E+00 -0.45593999997E+02  0.45594000000E+02  0.51100000000E-03 0.  1.
         23    2    1    2    0    0  0.00000000000E+00 -0.35527136788E-14  0.00000000000E+00  0.91188000000E+02  0.91188000000E+02 0.  0.
    9900012    2    3    3    0    0 -0.25066031701E+02 -0.27612606707E+02 -0.22200489346E+02  0.47787265887E+02  0.19999976484E+02 0.  0.
         12    1    3    3    0    0  0.25066031701E+02  0.27612606707E+02  0.22200489346E+02  0.43400734113E+02  0.00000000000E+00 0. -1.
         11    1    4    4    0    0 -0.11540947167E+02 -0.42360374134E+01 -0.40875943401E+01  0.12955535582E+02  0.51100000000E-03 0. -1.
        -11    1    4    4    0    0  0.20162986405E+00 -0.98186536698E+01 -0.28351128092E+01  0.10221764984E+02  0.51100000000E-03 0.  1.
        -12    1    4    4    0    0 -0.13726714398E+02 -0.13557915623E+02 -0.15277782197E+02  0.24609965320E+02  0.00000000000E+00 0.  1.
</event>
<event>
 8    1  0.6019723E-011  0.9118800E+02  0.7816164E-02  0.1184000E+00
        -11   -1    0    0    0    0  0.00000000000E+00  0.00000000000E+00  0.45593999997E+02  0.45594000000E+02  0.51100000000E-03 0.  1.
         11   -1    0    0    0    0 -0.00000000000E+00 -0.00000000000E+00 -0.45593999997E+02  0.45594000000E+02  0.51100000000E-03 0. -1.
         23    2    1    2    0    0  0.71054273576E-14 -0.35527136788E-14  0.00000000000E+00  0.91188000000E+02  0.91188000000E+02 0.  0.
    9900012    2    3    3    0    0 -0.36590639991E+02  0.19924310967E+02 -0.12156061471E+02  0.47787274972E+02  0.20000017909E+02 0.  0.
        -12    1    3    3    0    0  0.36590639991E+02 -0.19924310967E+02  0.12156061471E+02  0.43400725028E+02  0.00000000000E+00 0.  1.
         11    1    4    4    0    0 -0.20823780933E+01 -0.18980100618E+01  0.26393759737E+01  0.38607054420E+01  0.51100000000E-03 0.  1.
        -11    1    4    4    0    0 -0.26423498082E+02  0.16177131404E+02 -0.14104728989E+02  0.34041800943E+02  0.51100000000E-03 0. -1.
         12    1    4    4    0    0 -0.80847638153E+01  0.56451896249E+01 -0.69070845658E+00  0.98847685872E+01  0.00000000000E+00 0. -1.
</event>
<event>
 8    1  0.6019723E-011  0.9118800E+02  0.7816164E-02  0.1184000E+00
        -11   -1    0    0    0    0  0.00000000000E+00  0.00000000000E+00  0.45593999997E+02  0.45594000000E+02  0.51100000000E-03 0. -1.
         11   -1    0    0    0    0 -0.00000000000E+00 -0.00000000000E+00 -0.45593999997E+02  0.45594000000E+02  0.51100000000E-03 0.  1.
         23    2    1    2    0    0  0.35527136788E-14  0.00000000000E+00  0.00000000000E+00  0.91188000000E+02  0.91188000000E+02 0.  0.
    9900012    2    3    3    0    0  0.30897574382E+02 -0.48846908752E+01 -0.30084926954E+02  0.47787272616E+02  0.20000007166E+02 0.  0.
         12    1    3    3    0    0 -0.30897574382E+02  0.48846908752E+01  0.30084926954E+02  0.43400727384E+02  0.00000000000E+00 0. -1.
         11    1    4    4    0    0  0.21739962629E+02 -0.69937255857E+01 -0.18296352983E+02  0.29262513655E+02  0.51100000000E-03 0. -1.
        -11    1    4    4    0    0  0.96257946020E+01 -0.13304969787E+01 -0.50653065915E+01  0.10958260585E+02  0.51100000000E-03 0.  1.
         12    1    4    4    0    0 -0.46818284863E+00  0.34395316892E+01 -0.67232673787E+01  0.75664983754E+01  0.00000000000E+00 0. -1.
</event>
<event>
 8    1  0.6019723E-011  0.9118800E+02  0.7816164E-02  0.1184000E+00
        -11   -1    0    0    0    0  0.00000000000E+00  0.00000000000E+00  0.45593999997E+02  0.45594000000E+02  0.51100000000E-03 0. -1.
         11   -1    0    0    0    0 -0.00000000000E+00 -0.00000000000E+00 -0.45593999997E+02  0.45594000000E+02  0.51100000000E-03 0.  1.
         23    2    1    2    0    0  0.00000000000E+00  0.17763568394E-14  0.00000000000E+00  0.91188000000E+02  0.91188000000E+02 0.  0.
    9900012    2    3    3    0    0 -0.31801512398E+01  0.14936336218E+02  0.40625307743E+02  0.47787272694E+02  0.20000007521E+02 0.  0.
        -12    1    3    3    0    0  0.31801512398E+01 -0.14936336218E+02 -0.40625307743E+02  0.43400727306E+02  0.00000000000E+00 0.  1.
         11    1    4    4    0    0 -0.37673600332E+01  0.17438545199E+02  0.26027258630E+02  0.31554937052E+02  0.51100000000E-03 0. -1.
        -11    1    4    4    0    0 -0.75368103571E+00 -0.41820930271E+01  0.12601464017E+02  0.13298677860E+02  0.51100000000E-03 0.  1.
         12    1    4    4    0    0  0.13408898292E+01  0.16798840452E+01  0.19965850959E+01  0.29336577824E+01  0.00000000000E+00 0. -1.
</event>
<event>
 8    1  0.6019723E-011  0.9118800E+02  0.7816164E-02  0.1184000E+00
        -11   -1    0    0    0    0  0.00000000000E+00  0.00000000000E+00  0.45593999997E+02  0.45594000000E+02  0.51100000000E-03 0. -1.
         11   -1    0    0    0    0 -0.00000000000E+00 -0.00000000000E+00 -0.45593999997E+02  0.45594000000E+02  0.51100000000E-03 0.  1.
         23    2    1    2    0    0  0.00000000000E+00  0.00000000000E+00 -0.35527136788E-14  0.91188000000E+02  0.91188000000E+02 0.  0.
    9900012    2    3    3    0    0 -0.23386312737E+02  0.28366858594E+02  0.23065660417E+02  0.47787274425E+02  0.20000015414E+02 0.  0.
        -12    1    3    3    0    0  0.23386312737E+02 -0.28366858594E+02 -0.23065660417E+02  0.43400725575E+02  0.00000000000E+00 0.  1.
         11    1    4    4    0    0 -0.16940086608E+02  0.26556959283E+02  0.22996779276E+02  0.39001159958E+02  0.51100000000E-03 0. -1.
        -11    1    4    4    0    0 -0.15993047631E+01  0.16028621805E+01 -0.24363797297E+01  0.33260922031E+01  0.51100000000E-03 0.  1.
         12    1    4    4    0    0 -0.48469213656E+01  0.20703713027E+00  0.25052608707E+01  0.54600222644E+01  0.00000000000E+00 0. -1.
</event>
<event>
 8    1  0.6019723E-011  0.9118800E+02  0.7816164E-02  0.1184000E+00
        -11   -1    0    0    0    0  0.00000000000E+00  0.00000000000E+00  0.45593999997E+02  0.45594000000E+02  0.51100000000E-03 0.  1.
         11   -1    0    0    0    0 -0.00000000000E+00 -0.00000000000E+00 -0.45593999997E+02  0.45594000000E+02  0.51100000000E-03 0. -1.
         23    2    1    2    0    0 -0.71054273576E-14 -0.88817841970E-15  0.00000000000E+00  0.91188000000E+02  0.91188000000E+02 0.  0.
    9900012    2    3    3    0    0  0.42301547352E+02  0.57627524705E+01 -0.78098137551E+01  0.47787269415E+02  0.19999992572E+02 0.  0.
        -12    1    3    3    0    0 -0.42301547352E+02 -0.57627524705E+01  0.78098137551E+01  0.43400730585E+02  0.00000000000E+00 0.  1.
         11    1    4    4    0    0 -0.90958870953E+00  0.20048145949E+01 -0.33586248425E+01  0.40158429096E+01  0.51100000000E-03 0. -1.
        -11    1    4    4    0    0  0.20223912261E+02  0.14710078080E+01 -0.17397532924E+00  0.20278085678E+02  0.51100000000E-03 0.  1.
         12    1    4    4    0    0  0.22987223801E+02  0.22869300676E+01 -0.42772135833E+01  0.23493340827E+02  0.00000000000E+00 0. -1.
</event>
<event>
 8    1  0.6019723E-011  0.9118800E+02  0.7816164E-02  0.1184000E+00
        -11   -1    0    0    0    0  0.00000000000E+00  0.00000000000E+00  0.45593999997E+02  0.45594000000E+02  0.51100000000E-03 0. -1.
         11   -1    0    0    0    0 -0.00000000000E+00 -0.00000000000E+00 -0.45593999997E+02  0.45594000000E+02  0.51100000000E-03 0.  1.
         23    2    1    2    0    0  0.00000000000E+00  0.00000000000E+00  0.00000000000E+00  0.91188000000E+02  0.91188000000E+02 0.  0.
    9900012    2    3    3    0    0 -0.95595480161E+01  0.16208504644E+02  0.39109113455E+02  0.47787270325E+02  0.19999996721E+02 0.  0.
        -12    1    3    3    0    0  0.95595480161E+01 -0.16208504644E+02 -0.39109113455E+02  0.43400729675E+02  0.00000000000E+00 0.  1.
         11    1    4    4    0    0  0.41511454931E+01 -0.36334146142E+00  0.39593095416E+01  0.57480569091E+01  0.51100000000E-03 0. -1.
        -11    1    4    4    0    0 -0.59505378737E+01  0.81619769530E+01  0.91352074823E+01  0.13619059614E+02  0.51100000000E-03 0.  1.
         12    1    4    4    0    0 -0.77601556355E+01  0.84098691522E+01  0.26014596431E+02  0.28420153802E+02  0.00000000000E+00 0. -1.
</event>
<event>
 8    1  0.6019723E-011  0.9118800E+02  0.7816164E-02  0.1184000E+00
        -11   -1    0    0    0    0  0.00000000000E+00  0.00000000000E+00  0.45593999997E+02  0.45594000000E+02  0.51100000000E-03 0.  1.
         11   -1    0    0    0    0 -0.00000000000E+00 -0.00000000000E+00 -0.45593999997E+02  0.45594000000E+02  0.51100000000E-03 0. -1.
         23    2    1    2    0    0  0.00000000000E+00  0.35527136788E-14  0.88817841970E-15  0.91188000000E+02  0.91188000000E+02 0.  0.
    9900012    2    3    3    0    0 -0.37331681162E+02 -0.21519909096E+02 -0.51829282876E+01  0.47787266694E+02  0.19999980164E+02 0.  0.
         12    1    3    3    0    0  0.37331681162E+02  0.21519909096E+02  0.51829282876E+01  0.43400733306E+02  0.00000000000E+00 0. -1.
         11    1    4    4    0    0 -0.13828181142E+02 -0.37401850306E+01 -0.49471332328E+01  0.15155253387E+02  0.51100000000E-03 0. -1.
        -11    1    4    4    0    0 -0.16202222026E+02 -0.16199868968E+02  0.50741112204E+01  0.23466877895E+02  0.51100000000E-03 0.  1.
        -12    1    4    4    0    0 -0.73012779936E+01 -0.15798550975E+01 -0.53099062752E+01  0.91651354120E+01  0.00000000000E+00 0.  1.
</event>
<event>
 8    1  0.6019723E-011  0.9118800E+02  0.7816164E-02  0.1184000E+00
        -11   -1    0    0    0    0  0.00000000000E+00  0.00000000000E+00  0.45593999997E+02  0.45594000000E+02  0.51100000000E-03 0. -1.
         11   -1    0    0    0    0 -0.00000000000E+00 -0.00000000000E+00 -0.45593999997E+02  0.45594000000E+02  0.51100000000E-03 0.  1.
         23    2    1    2    0    0  0.00000000000E+00  0.00000000000E+00  0.00000000000E+00  0.91188000000E+02  0.91188000000E+02 0.  0.
    9900012    2    3    3    0    0 -0.20859219766E+02  0.32860966843E+00  0.38057961491E+02  0.47787268827E+02  0.19999989889E+02 0.  0.
        -12    1    3    3    0    0  0.20859219766E+02 -0.32860966843E+00 -0.38057961491E+02  0.43400731173E+02  0.00000000000E+00 0.  1.
         11    1    4    4    0    0 -0.36534681501E+01  0.58877705699E+01  0.54583323768E+01  0.88208312762E+01  0.51100000000E-03 0.  1.
        -11    1    4    4    0    0 -0.13232648556E+02 -0.46714421454E+00  0.28193617171E+02  0.31148053888E+02  0.51100000000E-03 0. -1.
        -12    1    4    4    0    0 -0.39731030592E+01 -0.50920166869E+01  0.44060119427E+01  0.78183836628E+01  0.00000000000E+00 0.  1.
</event>
<event>
 8    1  0.6019723E-011  0.9118800E+02  0.7816164E-02  0.1184000E+00
        -11   -1    0    0    0    0  0.00000000000E+00  0.00000000000E+00  0.45593999997E+02  0.45594000000E+02  0.51100000000E-03 0. -1.
         11   -1    0    0    0    0 -0.00000000000E+00 -0.00000000000E+00 -0.45593999997E+02  0.45594000000E+02  0.51100000000E-03 0.  1.
         23    2    1    2    0    0  0.17763568394E-14  0.35527136788E-14 -0.71054273576E-14  0.91188000000E+02  0.91188000000E+02 0.  0.
    9900012    2    3    3    0    0 -0.97593997406E+01  0.22974926320E+02  0.35503939910E+02  0.47787275677E+02  0.20000021119E+02 0.  0.
        -12    1    3    3    0    0  0.97593997406E+01 -0.22974926320E+02 -0.35503939910E+02  0.43400724323E+02  0.00000000000E+00 0.  1.
         11    1    4    4    0    0 -0.70362739442E+01  0.21303535767E+02  0.19615840290E+02  0.29801526433E+02  0.51100000000E-03 0. -1.
        -11    1    4    4    0    0 -0.14637713200E+01  0.96407820176E+00  0.16369637257E+02  0.16463204349E+02  0.51100000000E-03 0.  1.
        -12    1    4    4    0    0 -0.12593544765E+01  0.70731235114E+00 -0.48153763728E+00  0.15225448945E+01  0.00000000000E+00 0.  1.
</event>
<event>
 8    1  0.6019723E-011  0.9118800E+02  0.7816164E-02  0.1184000E+00
        -11   -1    0    0    0    0  0.00000000000E+00  0.00000000000E+00  0.45593999997E+02  0.45594000000E+02  0.51100000000E-03 0. -1.
         11   -1    0    0    0    0 -0.00000000000E+00 -0.00000000000E+00 -0.45593999997E+02  0.45594000000E+02  0.51100000000E-03 0.  1.
         23    2    1    2    0    0 -0.35527136788E-14 -0.44408920985E-15 -0.71054273576E-14  0.91188000000E+02  0.91188000000E+02 0.  0.
    9900012    2    3    3    0    0  0.19832282604E+02 -0.81637462328E+00  0.38595817878E+02  0.47787273526E+02  0.20000011315E+02 0.  0.
        -12    1    3    3    0    0 -0.19832282604E+02  0.81637462328E+00 -0.38595817878E+02  0.43400726474E+02  0.00000000000E+00 0.  1.
         11    1    4    4    0    0  0.10757382352E+02  0.39863409482E+01  0.27088023987E+02  0.29417226807E+02  0.51100000000E-03 0. -1.
        -11    1    4    4    0    0  0.42585802326E+01  0.11715564315E+01 -0.14295370508E+00  0.44191046710E+01  0.51100000000E-03 0.  1.
         12    1    4    4    0    0  0.48163200197E+01 -0.59742720031E+01  0.11650747596E+02  0.13950942048E+02  0.00000000000E+00 0. -1.
</event>
<event>
 8    1  0.6019723E-011  0.9118800E+02  0.7816164E-02  0.1184000E+00
        -11   -1    0    0    0    0  0.00000000000E+00  0.00000000000E+00  0.45593999997E+02  0.45594000000E+02  0.51100000000E-03 0. -1.
         11   -1    0    0    0    0 -0.00000000000E+00 -0.00000000000E+00 -0.45593999997E+02  0.45594000000E+02  0.51100000000E-03 0.  1.
         23    2    1    2    0    0  0.00000000000E+00 -0.27755575616E-16  0.00000000000E+00  0.91188000000E+02  0.91188000000E+02 0.  0.
    9900012    2    3    3    0    0  0.11494793976E+02 -0.17086477907E+00  0.41850499001E+02  0.47787265560E+02  0.19999974993E+02 0.  0.
        -12    1    3    3    0    0 -0.11494793976E+02  0.17086477907E+00 -0.41850499001E+02  0.43400734440E+02  0.00000000000E+00 0.  1.
         11    1    4    4    0    0  0.37389798650E+01 -0.75759512882E+01  0.25245711567E+02  0.26621813633E+02  0.51100000000E-03 0. -1.
        -11    1    4    4    0    0  0.67389899319E+01  0.86237395701E+01  0.16159580931E+02  0.19517041928E+02  0.51100000000E-03 0.  1.
         12    1    4    4    0    0  0.10168241787E+01 -0.12186530610E+01  0.44520650293E+00  0.16484099987E+01  0.00000000000E+00 0. -1.
</event>
<event>
 8    1  0.6019723E-011  0.9118800E+02  0.7816164E-02  0.1184000E+00
        -11   -1    0    0    0    0  0.00000000000E+00  0.00000000000E+00  0.45593999997E+02  0.45594000000E+02  0.51100000000E-03 0. -1.
         11   -1    0    0    0    0 -0.00000000000E+00 -0.00000000000E+00 -0.45593999997E+02  0.45594000000E+02  0.51100000000E-03 0.  1.
         23    2    1    2    0    0  0.00000000000E+00  0.88817841970E-15 -0.71054273576E-14  0.91188000000E+02  0.91188000000E+02 0.  0.
    9900012    2    3    3    0    0  0.20303468974E+02  0.40239085627E+01 -0.38147098637E+02  0.47787264673E+02  0.19999970949E+02 0.  0.
         12    1    3    3    0    0 -0.20303468974E+02 -0.40239085627E+01  0.38147098637E+02  0.43400735327E+02  0.00000000000E+00 0. -1.
         11    1    4    4    0    0  0.48284301038E+01 -0.53243526018E+01 -0.12923801319E+02  0.14788073191E+02  0.51100000000E-03 0. -1.
        -11    1    4    4    0    0  0.16388972491E+02  0.10747150414E+02 -0.23478221135E+02  0.30583108561E+02  0.51100000000E-03 0.  1.
         12    1    4    4    0    0 -0.91393362107E+00 -0.13988892495E+01 -0.17450761833E+01  0.24160829211E+01  0.00000000000E+00 0. -1.
</event>
<event>
 8    1  0.6019723E-011  0.9118800E+02  0.7816164E-02  0.1184000E+00
        -11   -1    0    0    0    0  0.00000000000E+00  0.00000000000E+00  0.45593999997E+02  0.45594000000E+02  0.51100000000E-03 0. -1.
         11   -1    0    0    0    0 -0.00000000000E+00 -0.00000000000E+00 -0.45593999997E+02  0.45594000000E+02  0.51100000000E-03 0.  1.
         23    2    1    2    0    0 -0.35527136788E-14  0.88817841970E-15  0.00000000000E+00  0.91188000000E+02  0.91188000000E+02 0.  0.
    9900012    2    3    3    0    0 -0.16020279834E+02 -0.36403006411E+01 -0.40171160757E+02  0.47787270613E+02  0.19999998034E+02 0.  0.
         12    1    3    3    0    0  0.16020279834E+02  0.36403006411E+01  0.40171160757E+02  0.43400729387E+02  0.00000000000E+00 0. -1.
         11    1    4    4    0    0 -0.10575758098E+02  0.47341986594E+01 -0.28716911528E+02  0.30966438353E+02  0.51100000000E-03 0. -1.
        -11    1    4    4    0    0 -0.67401107824E+01 -0.50810770120E+01 -0.97396900889E+01  0.12888289268E+02  0.51100000000E-03 0.  1.
         12    1    4    4    0    0  0.12955890456E+01 -0.32934222885E+01 -0.17145591403E+01  0.39325429928E+01  0.00000000000E+00 0. -1.
</event>
<event>
 8    1  0.6191596E-011  0.9118800E+02  0.7816164E-02  0.1184000E+00
        -11   -1    0    0    0    0  0.00000000000E+00  0.00000000000E+00  0.45593999997E+02  0.45594000000E+02  0.51100000000E-03 0. -1.
         11   -1    0    0    0    0 -0.00000000000E+00 -0.00000000000E+00 -0.45593999997E+02  0.45594000000E+02  0.51100000000E-03 0.  1.
         23    2    1    2    0    0  0.00000000000E+00  0.17763568394E-14  0.71054273576E-14  0.91188000000E+02  0.91188000000E+02 0.  0.
    9900012    2    3    3    0    0  0.22693248841E+02 -0.14873729350E+02 -0.33873467052E+02  0.47787272612E+02  0.20000007146E+02 0.  0.
         12    1    3    3    0    0 -0.22693248841E+02  0.14873729350E+02  0.33873467052E+02  0.43400727388E+02  0.00000000000E+00 0. -1.
         11    1    4    4    0    0  0.10635688762E+02 -0.13163547931E+01 -0.30380454303E+01  0.11139137565E+02  0.51100000000E-03 0. -1.
        -11    1    4    4    0    0  0.82705819564E+01 -0.40881064640E+01 -0.18249516703E+02  0.20448960867E+02  0.51100000000E-03 0.  1.
         12    1    4    4    0    0  0.37869781218E+01 -0.94692680926E+01 -0.12585904918E+02  0.16199174180E+02  0.00000000000E+00 0. -1.
</event>
<event>
 8    1  0.6019723E-011  0.9118800E+02  0.7816164E-02  0.1184000E+00
        -11   -1    0    0    0    0  0.00000000000E+00  0.00000000000E+00  0.45593999997E+02  0.45594000000E+02  0.51100000000E-03 0. -1.
         11   -1    0    0    0    0 -0.00000000000E+00 -0.00000000000E+00 -0.45593999997E+02  0.45594000000E+02  0.51100000000E-03 0.  1.
         23    2    1    2    0    0  0.00000000000E+00 -0.17763568394E-14  0.71054273576E-14  0.91188000000E+02  0.91188000000E+02 0.  0.
    9900012    2    3    3    0    0  0.26330879167E+02 -0.37282078477E+01 -0.34298763040E+02  0.47787310172E+02  0.20000178398E+02 0.  0.
         12    1    3    3    0    0 -0.26330879167E+02  0.37282078477E+01  0.34298763040E+02  0.43400689828E+02  0.00000000000E+00 0. -1.
         11    1    4    4    0    0  0.15944366081E+02 -0.90856276713E+01 -0.24926438468E+02  0.30953170675E+02  0.51100000000E-03 0. -1.
        -11    1    4    4    0    0  0.46609838444E+01  0.14329991746E+01  0.34923510443E+00  0.48887853759E+01  0.51100000000E-03 0.  1.
         12    1    4    4    0    0  0.57255292416E+01  0.39244206490E+01 -0.97215596765E+01  0.11945354121E+02  0.00000000000E+00 0. -1.
</event>
<event>
 8    1  0.6019723E-011  0.9118800E+02  0.7816164E-02  0.1184000E+00
        -11   -1    0    0    0    0  0.00000000000E+00  0.00000000000E+00  0.45593999997E+02  0.45594000000E+02  0.51100000000E-03 0.  1.
         11   -1    0    0    0    0 -0.00000000000E+00 -0.00000000000E+00 -0.45593999997E+02  0.45594000000E+02  0.51100000000E-03 0. -1.
         23    2    1    2    0    0  0.00000000000E+00  0.00000000000E+00  0.00000000000E+00  0.91188000000E+02  0.91188000000E+02 0.  0.
    9900012    2    3    3    0    0  0.33316311556E+02 -0.18459193606E+02  0.20806363052E+02  0.47787272037E+02  0.20000004523E+02 0.  0.
        -12    1    3    3    0    0 -0.33316311556E+02  0.18459193606E+02 -0.20806363052E+02  0.43400727963E+02  0.00000000000E+00 0.  1.
         11    1    4    4    0    0  0.16587090489E+02 -0.10953352720E+02  0.14032023559E+02  0.24331156818E+02  0.51100000000E-03 0. -1.
        -11    1    4    4    0    0  0.37981558774E+01 -0.50546252707E+01 -0.30621773506E+01  0.70251089019E+01  0.51100000000E-03 0.  1.
         12    1    4    4    0    0  0.12931065190E+02 -0.24512156148E+01  0.98365168439E+01  0.16431006316E+02  0.00000000000E+00 0. -1.
</event>
<event>
 8    1  0.6019723E-011  0.9118800E+02  0.7816164E-02  0.1184000E+00
        -11   -1    0    0    0    0  0.00000000000E+00  0.00000000000E+00  0.45593999997E+02  0.45594000000E+02  0.51100000000E-03 0. -1.
         11   -1    0    0    0    0 -0.00000000000E+00 -0.00000000000E+00 -0.45593999997E+02  0.45594000000E+02  0.51100000000E-03 0.  1.
         23    2    1    2    0    0  0.00000000000E+00 -0.71054273576E-14  0.35527136788E-14  0.91188000000E+02  0.91188000000E+02 0.  0.
    9900012    2    3    3    0    0  0.64674457893E+01 -0.31110550195E+02  0.29562293142E+02  0.47787270003E+02  0.19999995252E+02 0.  0.
        -12    1    3    3    0    0 -0.64674457893E+01  0.31110550195E+02 -0.29562293142E+02  0.43400729997E+02  0.00000000000E+00 0.  1.
         11    1    4    4    0    0  0.78807393969E+01 -0.73613180531E+01  0.18835676410E+01  0.10947277481E+02  0.51100000000E-03 0. -1.
        -11    1    4    4    0    0 -0.37757564919E-02 -0.10080058580E+01  0.33911479001E+01  0.35377923070E+01  0.51100000000E-03 0.  1.
         12    1    4    4    0    0 -0.14095178511E+01 -0.22741226284E+02  0.24287577601E+02  0.33302200215E+02  0.00000000000E+00 0. -1.
</event>
<event>
 8    1  0.6019723E-011  0.9118800E+02  0.7816164E-02  0.1184000E+00
        -11   -1    0    0    0    0  0.00000000000E+00  0.00000000000E+00  0.45593999997E+02  0.45594000000E+02  0.51100000000E-03 0. -1.
         11   -1    0    0    0    0 -0.00000000000E+00 -0.00000000000E+00 -0.45593999997E+02  0.45594000000E+02  0.51100000000E-03 0.  1.
         23    2    1    2    0    0  0.71054273576E-14 -0.44408920985E-15  0.00000000000E+00  0.91188000000E+02  0.91188000000E+02 0.  0.
    9900012    2    3    3    0    0  0.21262186553E+02  0.37221592555E+01  0.37652201332E+02  0.47787270609E+02  0.19999998015E+02 0.  0.
        -12    1    3    3    0    0 -0.21262186553E+02 -0.37221592555E+01 -0.37652201332E+02  0.43400729391E+02  0.00000000000E+00 0.  1.
         11    1    4    4    0    0  0.15904575485E+02  0.80994260463E+01  0.20310288519E+02  0.27038196013E+02  0.51100000000E-03 0. -1.
        -11    1    4    4    0    0 -0.40436736128E+00 -0.50822857464E+01  0.51553794521E+01  0.72505916260E+01  0.51100000000E-03 0.  1.
        -12    1    4    4    0    0  0.57619784285E+01  0.70501895566E+00  0.12186533361E+02  0.13498482970E+02  0.00000000000E+00 0.  1.
</event>
<event>
 8    1  0.6019723E-011  0.9118800E+02  0.7816164E-02  0.1184000E+00
        -11   -1    0    0    0    0  0.00000000000E+00  0.00000000000E+00  0.45593999997E+02  0.45594000000E+02  0.51100000000E-03 0. -1.
         11   -1    0    0    0    0 -0.00000000000E+00 -0.00000000000E+00 -0.45593999997E+02  0.45594000000E+02  0.51100000000E-03 0.  1.
         23    2    1    2    0    0  0.00000000000E+00  0.17763568394E-14  0.00000000000E+00  0.91188000000E+02  0.91188000000E+02 0.  0.
    9900012    2    3    3    0    0 -0.20407570166E+02 -0.11527052895E+02  0.36527827519E+02  0.47787262083E+02  0.19999959139E+02 0.  0.
        -12    1    3    3    0    0  0.20407570166E+02  0.11527052895E+02 -0.36527827519E+02  0.43400737917E+02  0.00000000000E+00 0.  1.
         11    1    4    4    0    0 -0.69613363815E+01 -0.23131241759E+01  0.10238871504E+02  0.12595445113E+02  0.51100000000E-03 0. -1.
        -11    1    4    4    0    0 -0.12414748749E+02 -0.50032732164E+01  0.27590199431E+02  0.30665580612E+02  0.51100000000E-03 0.  1.
        -12    1    4    4    0    0 -0.10314850353E+01 -0.42106555026E+01 -0.13012434150E+01  0.45262363576E+01  0.00000000000E+00 0.  1.
</event>
<event>
 8    1  0.6019723E-011  0.9118800E+02  0.7816164E-02  0.1184000E+00
        -11   -1    0    0    0    0  0.00000000000E+00  0.00000000000E+00  0.45593999997E+02  0.45594000000E+02  0.51100000000E-03 0. -1.
         11   -1    0    0    0    0 -0.00000000000E+00 -0.00000000000E+00 -0.45593999997E+02  0.45594000000E+02  0.51100000000E-03 0.  1.
         23    2    1    2    0    0  0.00000000000E+00  0.35527136788E-14  0.00000000000E+00  0.91188000000E+02  0.91188000000E+02 0.  0.
    9900012    2    3    3    0    0 -0.16089878094E+02  0.25707635903E+02  0.31046044346E+02  0.47787267398E+02  0.19999983376E+02 0.  0.
        -12    1    3    3    0    0  0.16089878094E+02 -0.25707635903E+02 -0.31046044346E+02  0.43400732602E+02  0.00000000000E+00 0.  1.
         11    1    4    4    0    0 -0.14957385771E+02  0.21360077703E+02  0.15347724865E+02  0.30257709222E+02  0.51100000000E-03 0. -1.
        -11    1    4    4    0    0 -0.17136850963E+00  0.48312115699E+01  0.15726999171E+02  0.16453220827E+02  0.51100000000E-03 0.  1.
         12    1    4    4    0    0 -0.96112381269E+00 -0.48365336930E+00 -0.28679689485E-01  0.10763373493E+01  0.00000000000E+00 0. -1.
</event>
<event>
 8    1  0.6019723E-011  0.9118800E+02  0.7816164E-02  0.1184000E+00
        -11   -1    0    0    0    0  0.00000000000E+00  0.00000000000E+00  0.45593999997E+02  0.45594000000E+02  0.51100000000E-03 0. -1.
         11   -1    0    0    0    0 -0.00000000000E+00 -0.00000000000E+00 -0.45593999997E+02  0.45594000000E+02  0.51100000000E-03 0.  1.
         23    2    1    2    0    0  0.88817841970E-15  0.11102230246E-15  0.71054273576E-14  0.91188000000E+02  0.91188000000E+02 0.  0.
    9900012    2    3    3    0    0 -0.58884086104E+01 -0.73991685352E+00 -0.42993054603E+02  0.47787267553E+02  0.19999984079E+02 0.  0.
         12    1    3    3    0    0  0.58884086104E+01  0.73991685352E+00  0.42993054603E+02  0.43400732447E+02  0.00000000000E+00 0. -1.
         11    1    4    4    0    0 -0.20888048144E+01 -0.40881300688E+01 -0.55138240202E+01  0.71748288201E+01  0.51100000000E-03 0. -1.
        -11    1    4    4    0    0  0.49935383889E+01  0.31335782137E+01 -0.86242892971E+01  0.10446679099E+02  0.51100000000E-03 0.  1.
        -12    1    4    4    0    0 -0.87931421850E+01  0.21463500157E+00 -0.28854941285E+02  0.30165759633E+02  0.00000000000E+00 0.  1.
</event>
<event>
 8    1  0.6019723E-011  0.9118800E+02  0.7816164E-02  0.1184000E+00
        -11   -1    0    0    0    0  0.00000000000E+00  0.00000000000E+00  0.45593999997E+02  0.45594000000E+02  0.51100000000E-03 0. -1.
         11   -1    0    0    0    0 -0.00000000000E+00 -0.00000000000E+00 -0.45593999997E+02  0.45594000000E+02  0.51100000000E-03 0.  1.
         23    2    1    2    0    0  0.00000000000E+00 -0.44408920985E-15  0.00000000000E+00  0.91188000000E+02  0.91188000000E+02 0.  0.
    9900012    2    3    3    0    0  0.92442477678E+01  0.30785808513E+01 -0.42292894275E+02  0.47787277851E+02  0.20000031035E+02 0.  0.
         12    1    3    3    0    0 -0.92442477678E+01 -0.30785808513E+01  0.42292894275E+02  0.43400722149E+02  0.00000000000E+00 0. -1.
         11    1    4    4    0    0  0.24450485827E+01 -0.34988445729E+01 -0.71191113530E+01  0.83007181999E+01  0.51100000000E-03 0. -1.
        -11    1    4    4    0    0  0.11062329658E+02  0.47749530655E+01 -0.30980412309E+02  0.33240957588E+02  0.51100000000E-03 0.  1.
        -12    1    4    4    0    0 -0.42631304733E+01  0.18024723588E+01 -0.41933706133E+01  0.62456020636E+01  0.00000000000E+00 0.  1.
</event>
<event>
 8    1  0.6019723E-011  0.9118800E+02  0.7816164E-02  0.1184000E+00
        -11   -1    0    0    0    0  0.00000000000E+00  0.00000000000E+00  0.45593999997E+02  0.45594000000E+02  0.51100000000E-03 0. -1.
         11   -1    0    0    0    0 -0.00000000000E+00 -0.00000000000E+00 -0.45593999997E+02  0.45594000000E+02  0.51100000000E-03 0.  1.
         23    2    1    2    0    0  0.00000000000E+00  0.88817841970E-15 -0.71054273576E-14  0.91188000000E+02  0.91188000000E+02 0.  0.
    9900012    2    3    3    0    0  0.86120183728E+01  0.42695992822E+01 -0.42322883639E+02  0.47787276296E+02  0.20000023943E+02 0.  0.
         12    1    3    3    0    0 -0.86120183728E+01 -0.42695992822E+01  0.42322883639E+02  0.43400723704E+02  0.00000000000E+00 0. -1.
         11    1    4    4    0    0  0.87515190464E+01  0.10617079255E+01 -0.34475266333E+02  0.35584551400E+02  0.51100000000E-03 0. -1.
        -11    1    4    4    0    0 -0.40025167239E+01 -0.17277691771E-01 -0.50539617213E+01  0.64469347744E+01  0.51100000000E-03 0.  1.
         12    1    4    4    0    0  0.38630160503E+01  0.32251690485E+01 -0.27936555853E+01  0.57557901217E+01  0.00000000000E+00 0. -1.
</event>
<event>
 8    1  0.6019723E-011  0.9118800E+02  0.7816164E-02  0.1184000E+00
        -11   -1    0    0    0    0  0.00000000000E+00  0.00000000000E+00  0.45593999997E+02  0.45594000000E+02  0.51100000000E-03 0. -1.
         11   -1    0    0    0    0 -0.00000000000E+00 -0.00000000000E+00 -0.45593999997E+02  0.45594000000E+02  0.51100000000E-03 0.  1.
         23    2    1    2    0    0  0.00000000000E+00  0.44408920985E-15  0.00000000000E+00  0.91188000000E+02  0.91188000000E+02 0.  0.
    9900012    2    3    3    0    0  0.69934185471E+01 -0.31427435292E+01  0.42718119170E+02  0.47787280590E+02  0.20000043521E+02 0.  0.
        -12    1    3    3    0    0 -0.69934185471E+01  0.31427435292E+01 -0.42718119170E+02  0.43400719410E+02  0.00000000000E+00 0.  1.
         11    1    4    4    0    0  0.35161141295E+01  0.23071656925E+01  0.14100594498E+02  0.14714375201E+02  0.51100000000E-03 0.  1.
        -11    1    4    4    0    0  0.80700796324E+01 -0.49400298255E+01  0.26203136776E+02  0.27859189815E+02  0.51100000000E-03 0. -1.
        -12    1    4    4    0    0 -0.45927752148E+01 -0.50987939628E+00  0.24143878958E+01  0.52137155738E+01  0.00000000000E+00 0.  1.
</event>
<event>
 8    1  0.6019723E-011  0.9118800E+02  0.7816164E-02  0.1184000E+00
        -11   -1    0    0    0    0  0.00000000000E+00  0.00000000000E+00  0.45593999997E+02  0.45594000000E+02  0.51100000000E-03 0. -1.
         11   -1    0    0    0    0 -0.00000000000E+00 -0.00000000000E+00 -0.45593999997E+02  0.45594000000E+02  0.51100000000E-03 0.  1.
         23    2    1    2    0    0 -0.44408920985E-15  0.00000000000E+00  0.00000000000E+00  0.91188000000E+02  0.91188000000E+02 0.  0.
    9900012    2    3    3    0    0  0.37617478080E+01  0.42781826153E+02 -0.62600438457E+01  0.47787267927E+02  0.19999985786E+02 0.  0.
        -12    1    3    3    0    0 -0.37617478080E+01 -0.42781826153E+02  0.62600438457E+01  0.43400732073E+02  0.00000000000E+00 0.  1.
         11    1    4    4    0    0 -0.60644715653E+01  0.17253268628E+02 -0.22757857591E+01  0.18429115410E+02  0.51100000000E-03 0. -1.
        -11    1    4    4    0    0  0.10743894130E+02  0.16775915056E+02 -0.60361339118E+00  0.19930552838E+02  0.51100000000E-03 0.  1.
        -12    1    4    4    0    0 -0.91767475682E+00  0.87526424695E+01 -0.33806446953E+01  0.94275996794E+01  0.00000000000E+00 0.  1.
</event>
<event>
 8    1  0.6019723E-011  0.9118800E+02  0.7816164E-02  0.1184000E+00
        -11   -1    0    0    0    0  0.00000000000E+00  0.00000000000E+00  0.45593999997E+02  0.45594000000E+02  0.51100000000E-03 0. -1.
         11   -1    0    0    0    0 -0.00000000000E+00 -0.00000000000E+00 -0.45593999997E+02  0.45594000000E+02  0.51100000000E-03 0.  1.
         23    2    1    2    0    0  0.35527136788E-14 -0.35527136788E-14  0.00000000000E+00  0.91188000000E+02  0.91188000000E+02 0.  0.
    9900012    2    3    3    0    0  0.23105538834E+02 -0.25259256162E+02 -0.26678217293E+02  0.47787271612E+02  0.20000002588E+02 0.  0.
         12    1    3    3    0    0 -0.23105538834E+02  0.25259256162E+02  0.26678217293E+02  0.43400728388E+02  0.00000000000E+00 0. -1.
         11    1    4    4    0    0 -0.15120342092E+01  0.14102100976E+01 -0.14098800746E+01  0.25025391216E+01  0.51100000000E-03 0. -1.
        -11    1    4    4    0    0  0.23047212638E+02 -0.21320070976E+02 -0.18226935020E+02  0.36303451589E+02  0.51100000000E-03 0.  1.
         12    1    4    4    0    0  0.15703604044E+01 -0.53493952842E+01 -0.70414021985E+01  0.89812809012E+01  0.00000000000E+00 0. -1.
</event>
<event>
 8    1  0.6019723E-011  0.9118800E+02  0.7816164E-02  0.1184000E+00
        -11   -1    0    0    0    0  0.00000000000E+00  0.00000000000E+00  0.45593999997E+02  0.45594000000E+02  0.51100000000E-03 0. -1.
         11   -1    0    0    0    0 -0.00000000000E+00 -0.00000000000E+00 -0.45593999997E+02  0.45594000000E+02  0.51100000000E-03 0.  1.
         23    2    1    2    0    0  0.17763568394E-14 -0.44408920985E-15 -0.71054273576E-14  0.91188000000E+02  0.91188000000E+02 0.  0.
    9900012    2    3    3    0    0 -0.12964340824E+02 -0.29240134470E+01 -0.41315844798E+02  0.47787273981E+02  0.20000013387E+02 0.  0.
         12    1    3    3    0    0  0.12964340824E+02  0.29240134470E+01  0.41315844798E+02  0.43400726019E+02  0.00000000000E+00 0. -1.
         11    1    4    4    0    0 -0.48397070874E+01 -0.87220760732E+01 -0.19496173866E+02  0.21899729939E+02  0.51100000000E-03 0. -1.
        -11    1    4    4    0    0 -0.56327069308E+01 -0.15733890489E+01 -0.67776423367E+01  0.89520598955E+01  0.51100000000E-03 0.  1.
         12    1    4    4    0    0 -0.24919268061E+01  0.73714516751E+01 -0.15042028595E+02  0.16935484146E+02  0.00000000000E+00 0. -1.
</event>
<event>
 8    1  0.6019723E-011  0.9118800E+02  0.7816164E-02  0.1184000E+00
        -11   -1    0    0    0    0  0.00000000000E+00  0.00000000000E+00  0.45593999997E+02  0.45594000000E+02  0.51100000000E-03 0. -1.
         11   -1    0    0    0    0 -0.00000000000E+00 -0.00000000000E+00 -0.45593999997E+02  0.45594000000E+02  0.51100000000E-03 0.  1.
         23    2    1    2    0    0  0.88817841970E-15  0.00000000000E+00  0.00000000000E+00  0.91188000000E+02  0.91188000000E+02 0.  0.
    9900012    2    3    3    0    0 -0.59106252393E+01  0.47716219053E+01 -0.42730777962E+02  0.47787271301E+02  0.20000001171E+02 0.  0.
         12    1    3    3    0    0  0.59106252393E+01 -0.47716219053E+01  0.42730777962E+02  0.43400728699E+02  0.00000000000E+00 0. -1.
         11    1    4    4    0    0  0.97778943044E+00  0.64505476075E+00 -0.49696750676E+00  0.12724561991E+01  0.51100000000E-03 0. -1.
        -11    1    4    4    0    0 -0.16651921886E+00  0.54193116066E+01 -0.38172415627E+02  0.38555544115E+02  0.51100000000E-03 0.  1.
        -12    1    4    4    0    0 -0.67218954509E+01 -0.12927444620E+01 -0.40613948286E+01  0.79592709874E+01  0.00000000000E+00 0.  1.
</event>
<event>
 8    1  0.6019723E-011  0.9118800E+02  0.7816164E-02  0.1184000E+00
        -11   -1    0    0    0    0  0.00000000000E+00  0.00000000000E+00  0.45593999997E+02  0.45594000000E+02  0.51100000000E-03 0. -1.
         11   -1    0    0    0    0 -0.00000000000E+00 -0.00000000000E+00 -0.45593999997E+02  0.45594000000E+02  0.51100000000E-03 0.  1.
         23    2    1    2    0    0 -0.55511151231E-15  0.00000000000E+00  0.71054273576E-14  0.91188000000E+02  0.91188000000E+02 0.  0.
    9900012    2    3    3    0    0 -0.73780021919E+00  0.59671035610E+01  0.42982232994E+02  0.47787273886E+02  0.20000012955E+02 0.  0.
        -12    1    3    3    0    0  0.73780021919E+00 -0.59671035610E+01 -0.42982232994E+02  0.43400726114E+02  0.00000000000E+00 0.  1.
         11    1    4    4    0    0  0.67486612780E+01  0.39124085205E+01  0.30814738052E+02  0.31786781073E+02  0.51100000000E-03 0. -1.
        -11    1    4    4    0    0 -0.75471810568E+01  0.17823519357E+01  0.12991811628E+02  0.15130230995E+02  0.51100000000E-03 0.  1.
         12    1    4    4    0    0  0.60719559575E-01  0.27234310475E+00 -0.82431668635E+00  0.87026181751E+00  0.00000000000E+00 0. -1.
</event>
<event>
 8    1  0.6019723E-011  0.9118800E+02  0.7816164E-02  0.1184000E+00
        -11   -1    0    0    0    0  0.00000000000E+00  0.00000000000E+00  0.45593999997E+02  0.45594000000E+02  0.51100000000E-03 0. -1.
         11   -1    0    0    0    0 -0.00000000000E+00 -0.00000000000E+00 -0.45593999997E+02  0.45594000000E+02  0.51100000000E-03 0.  1.
         23    2    1    2    0    0  0.00000000000E+00  0.11102230246E-15  0.00000000000E+00  0.91188000000E+02  0.91188000000E+02 0.  0.
    9900012    2    3    3    0    0  0.35333557464E+02 -0.91893000847E+00  0.25185684109E+02  0.47787269598E+02  0.19999993405E+02 0.  0.
        -12    1    3    3    0    0 -0.35333557464E+02  0.91893000847E+00 -0.25185684109E+02  0.43400730402E+02  0.00000000000E+00 0.  1.
         11    1    4    4    0    0  0.20843937058E+02  0.65007316439E+01  0.17256623223E+02  0.27830204262E+02  0.51100000000E-03 0. -1.
        -11    1    4    4    0    0  0.82526553899E+01 -0.29158275136E+00  0.12137565762E+01  0.83465290254E+01  0.51100000000E-03 0.  1.
         12    1    4    4    0    0  0.62369650161E+01 -0.71280789010E+01  0.67153043101E+01  0.11610536310E+02  0.00000000000E+00 0. -1.
</event>
<event>
 8    1  0.6019723E-011  0.9118800E+02  0.7816164E-02  0.1184000E+00
        -11   -1    0    0    0    0  0.00000000000E+00  0.00000000000E+00  0.45593999997E+02  0.45594000000E+02  0.51100000000E-03 0. -1.
         11   -1    0    0    0    0 -0.00000000000E+00 -0.00000000000E+00 -0.45593999997E+02  0.45594000000E+02  0.51100000000E-03 0.  1.
         23    2    1    2    0    0  0.00000000000E+00  0.00000000000E+00  0.71054273576E-14  0.91188000000E+02  0.91188000000E+02 0.  0.
    9900012    2    3    3    0    0 -0.22652909519E+02 -0.44992178762E+01  0.36745420169E+02  0.47787272189E+02  0.20000005216E+02 0.  0.
        -12    1    3    3    0    0  0.22652909519E+02  0.44992178762E+01 -0.36745420169E+02  0.43400727811E+02  0.00000000000E+00 0.  1.
         11    1    4    4    0    0 -0.20678474325E+02 -0.53769750546E+01  0.19769331576E+02  0.29109064436E+02  0.51100000000E-03 0. -1.
        -11    1    4    4    0    0 -0.76275650203E+00 -0.17345550327E+01  0.15150744377E+02  0.15268776444E+02  0.51100000000E-03 0.  1.
         12    1    4    4    0    0 -0.12116786919E+01  0.26123122111E+01  0.18253442161E+01  0.34094313085E+01  0.00000000000E+00 0. -1.
</event>
<event>
 8    1  0.6019723E-011  0.9118800E+02  0.7816164E-02  0.1184000E+00
        -11   -1    0    0    0    0  0.00000000000E+00  0.00000000000E+00  0.45593999997E+02  0.45594000000E+02  0.51100000000E-03 0. -1.
         11   -1    0    0    0    0 -0.00000000000E+00 -0.00000000000E+00 -0.45593999997E+02  0.45594000000E+02  0.51100000000E-03 0.  1.
         23    2    1    2    0    0  0.00000000000E+00  0.35527136788E-14  0.00000000000E+00  0.91188000000E+02  0.91188000000E+02 0.  0.
    9900012    2    3    3    0    0 -0.28825841860E+02 -0.31321933993E+02 -0.84634725033E+01  0.47787273338E+02  0.20000010456E+02 0.  0.
         12    1    3    3    0    0  0.28825841860E+02  0.31321933993E+02  0.84634725033E+01  0.43400726662E+02  0.00000000000E+00 0. -1.
         11    1    4    4    0    0 -0.25891167040E+02 -0.18985625587E+02 -0.55950236165E+01  0.32590041411E+02  0.51100000000E-03 0. -1.
        -11    1    4    4    0    0  0.59782187678E+00 -0.68545485959E+01  0.18770388361E+01  0.71320055036E+01  0.51100000000E-03 0.  1.
         12    1    4    4    0    0 -0.35324966966E+01 -0.54817598099E+01 -0.47454877229E+01  0.80652264230E+01  0.00000000000E+00 0. -1.
</event>
<event>
 8    1  0.6019723E-011  0.9118800E+02  0.7816164E-02  0.1184000E+00
        -11   -1    0    0    0    0  0.00000000000E+00  0.00000000000E+00  0.45593999997E+02  0.45594000000E+02  0.51100000000E-03 0. -1.
         11   -1    0    0    0    0 -0.00000000000E+00 -0.00000000000E+00 -0.45593999997E+02  0.45594000000E+02  0.51100000000E-03 0.  1.
         23    2    1    2    0    0  0.00000000000E+00  0.00000000000E+00  0.00000000000E+00  0.91188000000E+02  0.91188000000E+02 0.  0.
    9900012    2    3    3    0    0 -0.12479478490E+02 -0.15134636606E+02 -0.38714707622E+02  0.47787271955E+02  0.20000004151E+02 0.  0.
         12    1    3    3    0    0  0.12479478490E+02  0.15134636606E+02  0.38714707622E+02  0.43400728045E+02  0.00000000000E+00 0. -1.
         11    1    4    4    0    0 -0.52598244421E+01 -0.34411112293E+01 -0.22844449572E+02  0.23693371988E+02  0.51100000000E-03 0. -1.
        -11    1    4    4    0    0 -0.13293292640E+01 -0.84047158451E+01 -0.15061938727E+02  0.17299374648E+02  0.51100000000E-03 0.  1.
         12    1    4    4    0    0 -0.58903247834E+01 -0.32888095317E+01 -0.80831932412E+00  0.67945253197E+01  0.00000000000E+00 0. -1.
</event>
<event>
 8    1  0.6019723E-011  0.9118800E+02  0.7816164E-02  0.1184000E+00
        -11   -1    0    0    0    0  0.00000000000E+00  0.00000000000E+00  0.45593999997E+02  0.45594000000E+02  0.51100000000E-03 0. -1.
         11   -1    0    0    0    0 -0.00000000000E+00 -0.00000000000E+00 -0.45593999997E+02  0.45594000000E+02  0.51100000000E-03 0.  1.
         23    2    1    2    0    0  0.00000000000E+00  0.00000000000E+00  0.35527136788E-14  0.91188000000E+02  0.91188000000E+02 0.  0.
    9900012    2    3    3    0    0  0.20825730085E+02  0.30084166031E+02 -0.23342105294E+02  0.47787286193E+02  0.20000069070E+02 0.  0.
         12    1    3    3    0    0 -0.20825730085E+02 -0.30084166031E+02  0.23342105294E+02  0.43400713807E+02  0.00000000000E+00 0. -1.
         11    1    4    4    0    0  0.98827620825E+01  0.32088601324E+01 -0.87118457955E+01  0.13559573266E+02  0.51100000000E-03 0. -1.
        -11    1    4    4    0    0  0.10234511082E+02  0.11621415085E+02 -0.92466605583E+01  0.18036164709E+02  0.51100000000E-03 0.  1.
         12    1    4    4    0    0  0.70845692078E+00  0.15253890813E+02 -0.53835989404E+01  0.16191548218E+02  0.00000000000E+00 0. -1.
</event>
<event>
 8    1  0.6019723E-011  0.9118800E+02  0.7816164E-02  0.1184000E+00
        -11   -1    0    0    0    0  0.00000000000E+00  0.00000000000E+00  0.45593999997E+02  0.45594000000E+02  0.51100000000E-03 0. -1.
         11   -1    0    0    0    0 -0.00000000000E+00 -0.00000000000E+00 -0.45593999997E+02  0.45594000000E+02  0.51100000000E-03 0.  1.
         23    2    1    2    0    0  0.00000000000E+00  0.00000000000E+00  0.00000000000E+00  0.91188000000E+02  0.91188000000E+02 0.  0.
    9900012    2    3    3    0    0 -0.36182847538E+02  0.11477187305E+02  0.21040413303E+02  0.47787271016E+02  0.19999999872E+02 0.  0.
        -12    1    3    3    0    0  0.36182847538E+02 -0.11477187305E+02 -0.21040413303E+02  0.43400728984E+02  0.00000000000E+00 0.  1.
         11    1    4    4    0    0 -0.33730918187E+02  0.96216835962E+01  0.13709651464E+02  0.37660406005E+02  0.51100000000E-03 0. -1.
        -11    1    4    4    0    0  0.95839732621E+00  0.26033101352E+01  0.10993039020E+01  0.29839937039E+01  0.51100000000E-03 0.  1.
         12    1    4    4    0    0 -0.34103266773E+01 -0.74780642667E+00  0.62314579367E+01  0.71428713074E+01  0.00000000000E+00 0. -1.
</event>
<event>
 8    1  0.6019723E-011  0.9118800E+02  0.7816164E-02  0.1184000E+00
        -11   -1    0    0    0    0  0.00000000000E+00  0.00000000000E+00  0.45593999997E+02  0.45594000000E+02  0.51100000000E-03 0. -1.
         11   -1    0    0    0    0 -0.00000000000E+00 -0.00000000000E+00 -0.45593999997E+02  0.45594000000E+02  0.51100000000E-03 0.  1.
         23    2    1    2    0    0  0.00000000000E+00 -0.35527136788E-14  0.00000000000E+00  0.91188000000E+02  0.91188000000E+02 0.  0.
    9900012    2    3    3    0    0  0.87406602034E+01 -0.20416521064E+02 -0.37287921060E+02  0.47787279612E+02  0.20000039065E+02 0.  0.
         12    1    3    3    0    0 -0.87406602034E+01  0.20416521064E+02  0.37287921060E+02  0.43400720388E+02  0.00000000000E+00 0. -1.
         11    1    4    4    0    0 -0.71859005463E+00 -0.13736386825E+02 -0.10847121403E+02  0.17517555128E+02  0.51100000000E-03 0. -1.
        -11    1    4    4    0    0  0.25143096600E+01 -0.44826654543E+01 -0.19649871842E+02  0.20310920863E+02  0.51100000000E-03 0.  1.
         12    1    4    4    0    0  0.69449405981E+01 -0.21974687852E+01 -0.67909278156E+01  0.99588036214E+01  0.00000000000E+00 0. -1.
</event>
<event>
 8    1  0.6019723E-011  0.9118800E+02  0.7816164E-02  0.1184000E+00
        -11   -1    0    0    0    0  0.00000000000E+00  0.00000000000E+00  0.45593999997E+02  0.45594000000E+02  0.51100000000E-03 0. -1.
         11   -1    0    0    0    0 -0.00000000000E+00 -0.00000000000E+00 -0.45593999997E+02  0.45594000000E+02  0.51100000000E-03 0.  1.
         23    2    1    2    0    0  0.00000000000E+00  0.00000000000E+00 -0.35527136788E-14  0.91188000000E+02  0.91188000000E+02 0.  0.
    9900012    2    3    3    0    0 -0.22831990605E+02 -0.18779153705E+02 -0.31775256382E+02  0.47787270432E+02  0.19999997206E+02 0.  0.
         12    1    3    3    0    0  0.22831990605E+02  0.18779153705E+02  0.31775256382E+02  0.43400729568E+02  0.00000000000E+00 0. -1.
         11    1    4    4    0    0  0.28328107305E+01 -0.93665040687E+00 -0.16300778394E+01  0.33998947989E+01  0.51100000000E-03 0. -1.
        -11    1    4    4    0    0 -0.13513325201E+02 -0.38662061978E+01 -0.12617172115E+02  0.18887841083E+02  0.51100000000E-03 0.  1.
         12    1    4    4    0    0 -0.12151476135E+02 -0.13976297101E+02 -0.17528006428E+02  0.25499534550E+02  0.00000000000E+00 0. -1.
</event>
<event>
 8    1  0.6019723E-011  0.9118800E+02  0.7816164E-02  0.1184000E+00
        -11   -1    0    0    0    0  0.00000000000E+00  0.00000000000E+00  0.45593999997E+02  0.45594000000E+02  0.51100000000E-03 0.  1.
         11   -1    0    0    0    0 -0.00000000000E+00 -0.00000000000E+00 -0.45593999997E+02  0.45594000000E+02  0.51100000000E-03 0. -1.
         23    2    1    2    0    0  0.00000000000E+00  0.00000000000E+00  0.00000000000E+00  0.91188000000E+02  0.91188000000E+02 0.  0.
    9900012    2    3    3    0    0 -0.37909797770E+02  0.19380170371E+02 -0.84190183164E+01  0.47787266827E+02  0.19999980770E+02 0.  0.
         12    1    3    3    0    0  0.37909797770E+02 -0.19380170371E+02  0.84190183164E+01  0.43400733173E+02  0.00000000000E+00 0. -1.
         11    1    4    4    0    0 -0.12886812766E+02  0.39021265936E+01  0.15796794720E+01  0.13556987966E+02  0.51100000000E-03 0.  1.
        -11    1    4    4    0    0 -0.92179221045E+01 -0.26453448734E+00 -0.72973164862E+01  0.11759714902E+02  0.51100000000E-03 0. -1.
        -12    1    4    4    0    0 -0.15805062899E+02  0.15742578265E+02 -0.27013813022E+01  0.22470563958E+02  0.00000000000E+00 0.  1.
</event>
<event>
 8    1  0.6019723E-011  0.9118800E+02  0.7816164E-02  0.1184000E+00
        -11   -1    0    0    0    0  0.00000000000E+00  0.00000000000E+00  0.45593999997E+02  0.45594000000E+02  0.51100000000E-03 0.  1.
         11   -1    0    0    0    0 -0.00000000000E+00 -0.00000000000E+00 -0.45593999997E+02  0.45594000000E+02  0.51100000000E-03 0. -1.
         23    2    1    2    0    0  0.00000000000E+00  0.17763568394E-14 -0.88817841970E-15  0.91188000000E+02  0.91188000000E+02 0.  0.
    9900012    2    3    3    0    0 -0.42430011145E+02  0.90093179792E+01  0.14660795010E+01  0.47787273678E+02  0.20000012006E+02 0.  0.
        -12    1    3    3    0    0  0.42430011145E+02 -0.90093179792E+01 -0.14660795010E+01  0.43400726322E+02  0.00000000000E+00 0.  1.
         11    1    4    4    0    0 -0.21570951051E+02  0.19282698352E+01  0.48952583429E+01  0.22203326514E+02  0.51100000000E-03 0. -1.
        -11    1    4    4    0    0 -0.41203548913E+01  0.11600871226E+01  0.44362597675E+01  0.61647001183E+01  0.51100000000E-03 0.  1.
         12    1    4    4    0    0 -0.16738705203E+02  0.59209610215E+01 -0.78654386094E+01  0.19419247045E+02  0.00000000000E+00 0. -1.
</event>
<event>
 8    1  0.6019723E-011  0.9118800E+02  0.7816164E-02  0.1184000E+00
        -11   -1    0    0    0    0  0.00000000000E+00  0.00000000000E+00  0.45593999997E+02  0.45594000000E+02  0.51100000000E-03 0. -1.
         11   -1    0    0    0    0 -0.00000000000E+00 -0.00000000000E+00 -0.45593999997E+02  0.45594000000E+02  0.51100000000E-03 0.  1.
         23    2    1    2    0    0  0.72164496601E-15  0.00000000000E+00  0.00000000000E+00  0.91188000000E+02  0.91188000000E+02 0.  0.
    9900012    2    3    3    0    0 -0.28914827714E+00 -0.27501884425E+02  0.33573589718E+02  0.47787272124E+02  0.20000004921E+02 0.  0.
        -12    1    3    3    0    0  0.28914827714E+00  0.27501884425E+02 -0.33573589718E+02  0.43400727876E+02  0.00000000000E+00 0.  1.
         11    1    4    4    0    0 -0.64685525770E+01 -0.10423614775E+02  0.10921738168E+02  0.16424928684E+02  0.51100000000E-03 0. -1.
        -11    1    4    4    0    0  0.62895523835E+01 -0.17806403713E+02  0.23559206453E+02  0.30193752522E+02  0.51100000000E-03 0.  1.
        -12    1    4    4    0    0 -0.11014808369E+00  0.72813406215E+00 -0.90735490343E+00  0.11685909180E+01  0.00000000000E+00 0.  1.
</event>
<event>
 8    1  0.6019723E-011  0.9118800E+02  0.7816164E-02  0.1184000E+00
        -11   -1    0    0    0    0  0.00000000000E+00  0.00000000000E+00  0.45593999997E+02  0.45594000000E+02  0.51100000000E-03 0. -1.
         11   -1    0    0    0    0 -0.00000000000E+00 -0.00000000000E+00 -0.45593999997E+02  0.45594000000E+02  0.51100000000E-03 0.  1.
         23    2    1    2    0    0  0.00000000000E+00  0.35527136788E-14 -0.71054273576E-14  0.91188000000E+02  0.91188000000E+02 0.  0.
    9900012    2    3    3    0    0  0.44747959354E+01 -0.24866826811E+02  0.35287958416E+02  0.47787275542E+02  0.20000020507E+02 0.  0.
        -12    1    3    3    0    0 -0.44747959354E+01  0.24866826811E+02 -0.35287958416E+02  0.43400724458E+02  0.00000000000E+00 0.  1.
         11    1    4    4    0    0  0.29180781838E+01 -0.25351660939E+01  0.23884715137E+01  0.45439018302E+01  0.51100000000E-03 0. -1.
        -11    1    4    4    0    0  0.80413536949E+01 -0.11944894111E+02  0.24419729578E+02  0.28349022161E+02  0.51100000000E-03 0.  1.
        -12    1    4    4    0    0 -0.64846359433E+01 -0.10386766606E+02  0.84797573245E+01  0.14894351551E+02  0.00000000000E+00 0.  1.
</event>
<event>
 8    1  0.6019723E-011  0.9118800E+02  0.7816164E-02  0.1184000E+00
        -11   -1    0    0    0    0  0.00000000000E+00  0.00000000000E+00  0.45593999997E+02  0.45594000000E+02  0.51100000000E-03 0. -1.
         11   -1    0    0    0    0 -0.00000000000E+00 -0.00000000000E+00 -0.45593999997E+02  0.45594000000E+02  0.51100000000E-03 0.  1.
         23    2    1    2    0    0  0.00000000000E+00  0.00000000000E+00  0.00000000000E+00  0.91188000000E+02  0.91188000000E+02 0.  0.
    9900012    2    3    3    0    0  0.12020307667E+02  0.15258246738E+02 -0.38811357646E+02  0.47787269911E+02  0.19999994834E+02 0.  0.
         12    1    3    3    0    0 -0.12020307667E+02 -0.15258246738E+02  0.38811357646E+02  0.43400730089E+02  0.00000000000E+00 0. -1.
         11    1    4    4    0    0  0.15325799098E+01 -0.85771771851E+00 -0.38945051664E+00  0.17989310244E+01  0.51100000000E-03 0. -1.
        -11    1    4    4    0    0 -0.84424968410E+00  0.35306998709E+01 -0.22342866240E+02  0.22635862502E+02  0.51100000000E-03 0.  1.
        -12    1    4    4    0    0  0.11331977441E+02  0.12585264586E+02 -0.16079040889E+02  0.23352476385E+02  0.00000000000E+00 0.  1.
</event>
<event>
 8    1  0.6019723E-011  0.9118800E+02  0.7816164E-02  0.1184000E+00
        -11   -1    0    0    0    0  0.00000000000E+00  0.00000000000E+00  0.45593999997E+02  0.45594000000E+02  0.51100000000E-03 0. -1.
         11   -1    0    0    0    0 -0.00000000000E+00 -0.00000000000E+00 -0.45593999997E+02  0.45594000000E+02  0.51100000000E-03 0.  1.
         23    2    1    2    0    0  0.17763568394E-14 -0.17763568394E-14 -0.71054273576E-14  0.91188000000E+02  0.91188000000E+02 0.  0.
    9900012    2    3    3    0    0  0.97286662081E+01 -0.14123977716E+02 -0.39868419850E+02  0.47787255835E+02  0.19999930655E+02 0.  0.
         12    1    3    3    0    0 -0.97286662081E+01  0.14123977716E+02  0.39868419850E+02  0.43400744165E+02  0.00000000000E+00 0. -1.
         11    1    4    4    0    0  0.45385559222E+01  0.71094643491E+00 -0.17000051348E+02  0.17609817739E+02  0.51100000000E-03 0. -1.
        -11    1    4    4    0    0 -0.11526237169E+00 -0.17982802160E+01 -0.12666752156E+02  0.12794284177E+02  0.51100000000E-03 0.  1.
         12    1    4    4    0    0  0.53053726575E+01 -0.13036643935E+02 -0.10201616346E+02  0.17383153919E+02  0.00000000000E+00 0. -1.
</event>
<event>
 8    1  0.6019723E-011  0.9118800E+02  0.7816164E-02  0.1184000E+00
        -11   -1    0    0    0    0  0.00000000000E+00  0.00000000000E+00  0.45593999997E+02  0.45594000000E+02  0.51100000000E-03 0. -1.
         11   -1    0    0    0    0 -0.00000000000E+00 -0.00000000000E+00 -0.45593999997E+02  0.45594000000E+02  0.51100000000E-03 0.  1.
         23    2    1    2    0    0  0.88817841970E-15 -0.88817841970E-15  0.71054273576E-14  0.91188000000E+02  0.91188000000E+02 0.  0.
    9900012    2    3    3    0    0 -0.48449256123E+01 -0.61989263612E+01  0.42681648271E+02  0.47787273147E+02  0.20000009586E+02 0.  0.
        -12    1    3    3    0    0  0.48449256123E+01  0.61989263612E+01 -0.42681648271E+02  0.43400726853E+02  0.00000000000E+00 0.  1.
         11    1    4    4    0    0 -0.18013849885E+01 -0.62732167437E+01  0.27686478771E+02  0.28445374724E+02  0.51100000000E-03 0. -1.
        -11    1    4    4    0    0  0.60704293199E+00  0.55784173155E+01  0.67713521382E+01  0.87942282725E+01  0.51100000000E-03 0.  1.
        -12    1    4    4    0    0 -0.36505835558E+01 -0.55041269331E+01  0.82238173622E+01  0.10547670150E+02  0.00000000000E+00 0.  1.
</event>
<event>
 8    1  0.6019723E-011  0.9118800E+02  0.7816164E-02  0.1184000E+00
        -11   -1    0    0    0    0  0.00000000000E+00  0.00000000000E+00  0.45593999997E+02  0.45594000000E+02  0.51100000000E-03 0. -1.
         11   -1    0    0    0    0 -0.00000000000E+00 -0.00000000000E+00 -0.45593999997E+02  0.45594000000E+02  0.51100000000E-03 0.  1.
         23    2    1    2    0    0  0.17763568394E-14  0.00000000000E+00 -0.71054273576E-14  0.91188000000E+02  0.91188000000E+02 0.  0.
    9900012    2    3    3    0    0  0.98802916752E+01 -0.62909762493E+01  0.41790277679E+02  0.47787264359E+02  0.19999969517E+02 0.  0.
        -12    1    3    3    0    0 -0.98802916752E+01  0.62909762493E+01 -0.41790277679E+02  0.43400735641E+02  0.00000000000E+00 0.  1.
         11    1    4    4    0    0  0.50434178501E+01 -0.27223716674E+01  0.29895542432E+02  0.30439954479E+02  0.51100000000E-03 0. -1.
        -11    1    4    4    0    0 -0.32440797350E+01 -0.23879234790E+01  0.19392206691E+01  0.44706609056E+01  0.51100000000E-03 0.  1.
        -12    1    4    4    0    0  0.80809535601E+01 -0.11806811028E+01  0.99555145772E+01  0.12876648974E+02  0.00000000000E+00 0.  1.
</event>
<event>
 8    1  0.6019723E-011  0.9118800E+02  0.7816164E-02  0.1184000E+00
        -11   -1    0    0    0    0  0.00000000000E+00  0.00000000000E+00  0.45593999997E+02  0.45594000000E+02  0.51100000000E-03 0. -1.
         11   -1    0    0    0    0 -0.00000000000E+00 -0.00000000000E+00 -0.45593999997E+02  0.45594000000E+02  0.51100000000E-03 0.  1.
         23    2    1    2    0    0  0.00000000000E+00 -0.88817841970E-15  0.00000000000E+00  0.91188000000E+02  0.91188000000E+02 0.  0.
    9900012    2    3    3    0    0 -0.14006696159E+02  0.56024909260E+01  0.40694579984E+02  0.47787259431E+02  0.19999947050E+02 0.  0.
        -12    1    3    3    0    0  0.14006696159E+02 -0.56024909260E+01 -0.40694579984E+02  0.43400740569E+02  0.00000000000E+00 0.  1.
         11    1    4    4    0    0 -0.52274072269E+01  0.75101673462E+00  0.23297453831E+02  0.23888515393E+02  0.51100000000E-03 0. -1.
        -11    1    4    4    0    0 -0.90545964698E+01  0.81988011238E+01  0.10041415979E+02  0.15812529596E+02  0.51100000000E-03 0.  1.
         12    1    4    4    0    0  0.27530753802E+00 -0.33473269324E+01  0.73557101740E+01  0.80862144417E+01  0.00000000000E+00 0. -1.
</event>
<event>
 8    1  0.1290129E-010  0.9118800E+02  0.7816164E-02  0.1184000E+00
        -11   -1    0    0    0    0  0.00000000000E+00  0.00000000000E+00  0.45593999997E+02  0.45594000000E+02  0.51100000000E-03 0. -1.
         11   -1    0    0    0    0 -0.00000000000E+00 -0.00000000000E+00 -0.45593999997E+02  0.45594000000E+02  0.51100000000E-03 0.  1.
         23    2    1    2    0    0  0.35527136788E-14  0.44408920985E-15  0.35527136788E-14  0.91188000000E+02  0.91188000000E+02 0.  0.
    9900012    2    3    3    0    0  0.29896376613E+02 -0.21512196974E+01 -0.31387942686E+02  0.47787262370E+02  0.19999960448E+02 0.  0.
         12    1    3    3    0    0 -0.29896376613E+02  0.21512196974E+01  0.31387942686E+02  0.43400737630E+02  0.00000000000E+00 0. -1.
         11    1    4    4    0    0  0.12750099317E+01 -0.44566717122E+01 -0.74834637678E+01  0.88028292782E+01  0.51100000000E-03 0. -1.
        -11    1    4    4    0    0  0.23708267741E+02  0.11470160310E+01 -0.24239290799E+02  0.33925518769E+02  0.51100000000E-03 0.  1.
         12    1    4    4    0    0  0.49130989405E+01  0.11584359838E+01  0.33481188029E+00  0.50589143226E+01  0.00000000000E+00 0. -1.
</event>
<event>
 8    1  0.6019723E-011  0.9118800E+02  0.7816164E-02  0.1184000E+00
        -11   -1    0    0    0    0  0.00000000000E+00  0.00000000000E+00  0.45593999997E+02  0.45594000000E+02  0.51100000000E-03 0. -1.
         11   -1    0    0    0    0 -0.00000000000E+00 -0.00000000000E+00 -0.45593999997E+02  0.45594000000E+02  0.51100000000E-03 0.  1.
         23    2    1    2    0    0 -0.88817841970E-15  0.00000000000E+00  0.00000000000E+00  0.91188000000E+02  0.91188000000E+02 0.  0.
    9900012    2    3    3    0    0 -0.20770201283E+01 -0.67688547824E+01  0.42819292174E+02  0.47787272012E+02  0.20000004410E+02 0.  0.
        -12    1    3    3    0    0  0.20770201283E+01  0.67688547824E+01 -0.42819292174E+02  0.43400727988E+02  0.00000000000E+00 0.  1.
         11    1    4    4    0    0 -0.32727952083E+01  0.29471871571E+01  0.27626347684E+02  0.27975206653E+02  0.51100000000E-03 0. -1.
        -11    1    4    4    0    0  0.87291688533E+00 -0.10704421549E+02  0.10552737069E+02  0.15056788652E+02  0.51100000000E-03 0.  1.
        -12    1    4    4    0    0  0.32285819470E+00  0.98837960912E+00  0.46402074197E+01  0.47552767074E+01  0.00000000000E+00 0.  1.
</event>
<event>
 8    1  0.6019723E-011  0.9118800E+02  0.7816164E-02  0.1184000E+00
        -11   -1    0    0    0    0  0.00000000000E+00  0.00000000000E+00  0.45593999997E+02  0.45594000000E+02  0.51100000000E-03 0. -1.
         11   -1    0    0    0    0 -0.00000000000E+00 -0.00000000000E+00 -0.45593999997E+02  0.45594000000E+02  0.51100000000E-03 0.  1.
         23    2    1    2    0    0  0.17763568394E-14 -0.35527136788E-14  0.71054273576E-14  0.91188000000E+02  0.91188000000E+02 0.  0.
    9900012    2    3    3    0    0  0.99223075117E+01 -0.26248403284E+02  0.33108795443E+02  0.47787271930E+02  0.20000004038E+02 0.  0.
        -12    1    3    3    0    0 -0.99223075117E+01  0.26248403284E+02 -0.33108795443E+02  0.43400728070E+02  0.00000000000E+00 0.  1.
         11    1    4    4    0    0  0.97231967755E+01 -0.15496882087E+02  0.27662174540E+02  0.33164586692E+02  0.51100000000E-03 0. -1.
        -11    1    4    4    0    0 -0.78066103991E+00 -0.11409558324E+02  0.28733681393E+01  0.11791679165E+02  0.51100000000E-03 0.  1.
        -12    1    4    4    0    0  0.97977177619E+00  0.65803712715E+00  0.25732527639E+01  0.28310060722E+01  0.00000000000E+00 0.  1.
</event>
<event>
 8    1  0.6019723E-011  0.9118800E+02  0.7816164E-02  0.1184000E+00
        -11   -1    0    0    0    0  0.00000000000E+00  0.00000000000E+00  0.45593999997E+02  0.45594000000E+02  0.51100000000E-03 0. -1.
         11   -1    0    0    0    0 -0.00000000000E+00 -0.00000000000E+00 -0.45593999997E+02  0.45594000000E+02  0.51100000000E-03 0.  1.
         23    2    1    2    0    0 -0.11102230246E-15  0.22204460493E-15  0.00000000000E+00  0.91188000000E+02  0.91188000000E+02 0.  0.
    9900012    2    3    3    0    0  0.64530459846E+00 -0.15911963839E+01  0.43366749689E+02  0.47787270714E+02  0.19999998494E+02 0.  0.
        -12    1    3    3    0    0 -0.64530459846E+00  0.15911963839E+01 -0.43366749689E+02  0.43400729286E+02  0.00000000000E+00 0.  1.
         11    1    4    4    0    0 -0.30301019396E+01 -0.68978401777E+01  0.17901227196E+02  0.19422040374E+02  0.51100000000E-03 0. -1.
        -11    1    4    4    0    0  0.67784635204E+01  0.76722763179E+00  0.11721441075E+02  0.13562020022E+02  0.51100000000E-03 0.  1.
        -12    1    4    4    0    0 -0.31030569823E+01  0.45394161620E+01  0.13744081417E+02  0.14803210318E+02  0.00000000000E+00 0.  1.
</event>
<event>
 8    1  0.6636331E-011  0.9118800E+02  0.7816164E-02  0.1184000E+00
        -11   -1    0    0    0    0  0.00000000000E+00  0.00000000000E+00  0.45593999997E+02  0.45594000000E+02  0.51100000000E-03 0. -1.
         11   -1    0    0    0    0 -0.00000000000E+00 -0.00000000000E+00 -0.45593999997E+02  0.45594000000E+02  0.51100000000E-03 0.  1.
         23    2    1    2    0    0  0.00000000000E+00 -0.35527136788E-14  0.00000000000E+00  0.91188000000E+02  0.91188000000E+02 0.  0.
    9900012    2    3    3    0    0 -0.64488850381E+01  0.27033215670E+02 -0.33335265936E+02  0.47787276242E+02  0.20000023697E+02 0.  0.
         12    1    3    3    0    0  0.64488850381E+01 -0.27033215670E+02  0.33335265936E+02  0.43400723758E+02  0.00000000000E+00 0. -1.
         11    1    4    4    0    0 -0.28635407585E+00 -0.18872889773E+01  0.61001462847E+00  0.20039901319E+01  0.51100000000E-03 0. -1.
        -11    1    4    4    0    0 -0.18926918656E+01  0.11697325416E+02 -0.19866605041E+02  0.23132049207E+02  0.51100000000E-03 0.  1.
         12    1    4    4    0    0 -0.42698390967E+01  0.17223179231E+02 -0.14078675523E+02  0.22651236903E+02  0.00000000000E+00 0. -1.
</event>
<event>
 8    1  0.6019723E-011  0.9118800E+02  0.7816164E-02  0.1184000E+00
        -11   -1    0    0    0    0  0.00000000000E+00  0.00000000000E+00  0.45593999997E+02  0.45594000000E+02  0.51100000000E-03 0. -1.
         11   -1    0    0    0    0 -0.00000000000E+00 -0.00000000000E+00 -0.45593999997E+02  0.45594000000E+02  0.51100000000E-03 0.  1.
         23    2    1    2    0    0 -0.22204460493E-15 -0.35527136788E-14  0.71054273576E-14  0.91188000000E+02  0.91188000000E+02 0.  0.
    9900012    2    3    3    0    0  0.18971097530E+01  0.14830864367E+02 -0.40743952417E+02  0.47787271644E+02  0.20000002735E+02 0.  0.
         12    1    3    3    0    0 -0.18971097530E+01 -0.14830864367E+02  0.40743952417E+02  0.43400728356E+02  0.00000000000E+00 0. -1.
         11    1    4    4    0    0  0.77260149250E+01  0.65413003280E+01 -0.94801511920E+01  0.13869145016E+02  0.51100000000E-03 0. -1.
        -11    1    4    4    0    0 -0.58594661080E+01  0.39976293090E+01 -0.10215463576E+02  0.12436642613E+02  0.51100000000E-03 0.  1.
        -12    1    4    4    0    0  0.30560935991E-01  0.42919347296E+01 -0.21048337649E+02  0.21481484015E+02  0.00000000000E+00 0.  1.
</event>
<event>
 8    1  0.6019723E-011  0.9118800E+02  0.7816164E-02  0.1184000E+00
        -11   -1    0    0    0    0  0.00000000000E+00  0.00000000000E+00  0.45593999997E+02  0.45594000000E+02  0.51100000000E-03 0. -1.
         11   -1    0    0    0    0 -0.00000000000E+00 -0.00000000000E+00 -0.45593999997E+02  0.45594000000E+02  0.51100000000E-03 0.  1.
         23    2    1    2    0    0 -0.35527136788E-14  0.00000000000E+00  0.35527136788E-14  0.91188000000E+02  0.91188000000E+02 0.  0.
    9900012    2    3    3    0    0  0.12040628151E+02  0.29466408427E+02 -0.29502157252E+02  0.47787271499E+02  0.20000002073E+02 0.  0.
         12    1    3    3    0    0 -0.12040628151E+02 -0.29466408427E+02  0.29502157252E+02  0.43400728501E+02  0.00000000000E+00 0. -1.
         11    1    4    4    0    0 -0.50913914249E+01  0.88490960217E+01 -0.47221650238E+01  0.11248449218E+02  0.51100000000E-03 0. -1.
        -11    1    4    4    0    0  0.15356326933E+02  0.18207043514E+02 -0.22614262276E+02  0.32843843699E+02  0.51100000000E-03 0.  1.
         12    1    4    4    0    0  0.17756926427E+01  0.24102688917E+01 -0.21657299521E+01  0.36949785814E+01  0.00000000000E+00 0. -1.
</event>
<event>
 8    1  0.6019723E-011  0.9118800E+02  0.7816164E-02  0.1184000E+00
        -11   -1    0    0    0    0  0.00000000000E+00  0.00000000000E+00  0.45593999997E+02  0.45594000000E+02  0.51100000000E-03 0. -1.
         11   -1    0    0    0    0 -0.00000000000E+00 -0.00000000000E+00 -0.45593999997E+02  0.45594000000E+02  0.51100000000E-03 0.  1.
         23    2    1    2    0    0  0.44408920985E-15  0.00000000000E+00  0.00000000000E+00  0.91188000000E+02  0.91188000000E+02 0.  0.
    9900012    2    3    3    0    0 -0.39867539446E+01 -0.38430678710E+02  0.19768991753E+02  0.47787259129E+02  0.19999945675E+02 0.  0.
        -12    1    3    3    0    0  0.39867539446E+01  0.38430678710E+02 -0.19768991753E+02  0.43400740871E+02  0.00000000000E+00 0.  1.
         11    1    4    4    0    0 -0.20412154560E+01 -0.23863198311E+01  0.91448558913E+01  0.96689954187E+01  0.51100000000E-03 0.  1.
        -11    1    4    4    0    0 -0.30745915138E+01 -0.29169467769E+02  0.65711004310E+01  0.30058115777E+02  0.51100000000E-03 0. -1.
        -12    1    4    4    0    0  0.11290530252E+01 -0.68748911101E+01  0.40530354311E+01  0.80601479338E+01  0.00000000000E+00 0.  1.
</event>
<event>
 8    1  0.6019723E-011  0.9118800E+02  0.7816164E-02  0.1184000E+00
        -11   -1    0    0    0    0  0.00000000000E+00  0.00000000000E+00  0.45593999997E+02  0.45594000000E+02  0.51100000000E-03 0. -1.
         11   -1    0    0    0    0 -0.00000000000E+00 -0.00000000000E+00 -0.45593999997E+02  0.45594000000E+02  0.51100000000E-03 0.  1.
         23    2    1    2    0    0 -0.17763568394E-14 -0.11102230246E-15  0.00000000000E+00  0.91188000000E+02  0.91188000000E+02 0.  0.
    9900012    2    3    3    0    0  0.94706308397E+01 -0.85586763483E+00 -0.42346166192E+02  0.47787272483E+02  0.20000006558E+02 0.  0.
         12    1    3    3    0    0 -0.94706308397E+01  0.85586763483E+00  0.42346166192E+02  0.43400727517E+02  0.00000000000E+00 0. -1.
         11    1    4    4    0    0  0.29427916871E+00 -0.45209965828E+01 -0.11130409136E+02  0.12017155159E+02  0.51100000000E-03 0. -1.
        -11    1    4    4    0    0  0.45631772899E+01  0.90784238380E+01 -0.20915331248E+02  0.23252772906E+02  0.51100000000E-03 0.  1.
        -12    1    4    4    0    0  0.46131743810E+01 -0.54132948900E+01 -0.10300425808E+02  0.12517344417E+02  0.00000000000E+00 0.  1.
</event>
<event>
 8    1  0.6019723E-011  0.9118800E+02  0.7816164E-02  0.1184000E+00
        -11   -1    0    0    0    0  0.00000000000E+00  0.00000000000E+00  0.45593999997E+02  0.45594000000E+02  0.51100000000E-03 0. -1.
         11   -1    0    0    0    0 -0.00000000000E+00 -0.00000000000E+00 -0.45593999997E+02  0.45594000000E+02  0.51100000000E-03 0.  1.
         23    2    1    2    0    0  0.00000000000E+00  0.00000000000E+00  0.00000000000E+00  0.91188000000E+02  0.91188000000E+02 0.  0.
    9900012    2    3    3    0    0  0.11114690311E+02  0.15578660854E+02  0.38953725817E+02  0.47787265332E+02  0.19999973956E+02 0.  0.
        -12    1    3    3    0    0 -0.11114690311E+02 -0.15578660854E+02 -0.38953725817E+02  0.43400734668E+02  0.00000000000E+00 0.  1.
         11    1    4    4    0    0  0.35473757488E+01  0.14876263192E+01  0.21088019604E+02  0.21435985582E+02  0.51100000000E-03 0. -1.
        -11    1    4    4    0    0  0.94440638603E+01  0.76995720882E+01  0.84938749559E+01  0.14853271174E+02  0.51100000000E-03 0.  1.
        -12    1    4    4    0    0 -0.18767492978E+01  0.63914624463E+01  0.93718312563E+01  0.11498008577E+02  0.00000000000E+00 0.  1.
</event>
<event>
 8    1  0.6019723E-011  0.9118800E+02  0.7816164E-02  0.1184000E+00
        -11   -1    0    0    0    0  0.00000000000E+00  0.00000000000E+00  0.45593999997E+02  0.45594000000E+02  0.51100000000E-03 0. -1.
         11   -1    0    0    0    0 -0.00000000000E+00 -0.00000000000E+00 -0.45593999997E+02  0.45594000000E+02  0.51100000000E-03 0.  1.
         23    2    1    2    0    0 -0.16098233857E-14  0.00000000000E+00  0.00000000000E+00  0.91188000000E+02  0.91188000000E+02 0.  0.
    9900012    2    3    3    0    0 -0.10817575281E+00 -0.29461692181E+02  0.31868798739E+02  0.47787270269E+02  0.19999996462E+02 0.  0.
        -12    1    3    3    0    0  0.10817575281E+00  0.29461692181E+02 -0.31868798739E+02  0.43400729731E+02  0.00000000000E+00 0.  1.
         11    1    4    4    0    0 -0.51705833858E+00 -0.89276655050E+01  0.11165066143E+02  0.14304868504E+02  0.51100000000E-03 0. -1.
        -11    1    4    4    0    0  0.80697475704E+01 -0.67387392194E+01  0.76279547088E+01  0.12989115652E+02  0.51100000000E-03 0.  1.
        -12    1    4    4    0    0 -0.76608649846E+01 -0.13795287456E+02  0.13075777888E+02  0.20493286112E+02  0.00000000000E+00 0.  1.
</event>
<event>
 8    1  0.6019723E-011  0.9118800E+02  0.7816164E-02  0.1184000E+00
        -11   -1    0    0    0    0  0.00000000000E+00  0.00000000000E+00  0.45593999997E+02  0.45594000000E+02  0.51100000000E-03 0. -1.
         11   -1    0    0    0    0 -0.00000000000E+00 -0.00000000000E+00 -0.45593999997E+02  0.45594000000E+02  0.51100000000E-03 0.  1.
         23    2    1    2    0    0  0.17763568394E-14 -0.35527136788E-14  0.00000000000E+00  0.91188000000E+02  0.91188000000E+02 0.  0.
    9900012    2    3    3    0    0  0.88649651064E+01 -0.29076514018E+02  0.30977286983E+02  0.47787267487E+02  0.19999983782E+02 0.  0.
        -12    1    3    3    0    0 -0.88649651064E+01  0.29076514018E+02 -0.30977286983E+02  0.43400732513E+02  0.00000000000E+00 0.  1.
         11    1    4    4    0    0 -0.10646261922E+01 -0.14561044615E+01  0.10939008098E+01  0.21095706613E+01  0.51100000000E-03 0.  1.
        -11    1    4    4    0    0  0.23755076155E+01 -0.26380102366E+02  0.25911279492E+02  0.37053302720E+02  0.51100000000E-03 0. -1.
        -12    1    4    4    0    0  0.75540836831E+01 -0.12403071911E+01  0.39721066811E+01  0.86243941066E+01  0.00000000000E+00 0.  1.
</event>
<event>
 8    1  0.6019723E-011  0.9118800E+02  0.7816164E-02  0.1184000E+00
        -11   -1    0    0    0    0  0.00000000000E+00  0.00000000000E+00  0.45593999997E+02  0.45594000000E+02  0.51100000000E-03 0. -1.
         11   -1    0    0    0    0 -0.00000000000E+00 -0.00000000000E+00 -0.45593999997E+02  0.45594000000E+02  0.51100000000E-03 0.  1.
         23    2    1    2    0    0  0.00000000000E+00  0.00000000000E+00  0.00000000000E+00  0.91188000000E+02  0.91188000000E+02 0.  0.
    9900012    2    3    3    0    0 -0.14801965087E+02  0.19923315868E+02  0.35603182975E+02  0.47787270472E+02  0.19999997390E+02 0.  0.
        -12    1    3    3    0    0  0.14801965087E+02 -0.19923315868E+02 -0.35603182975E+02  0.43400729528E+02  0.00000000000E+00 0.  1.
         11    1    4    4    0    0 -0.97800115606E+01  0.68657703755E+01  0.11350892153E+02  0.16481206931E+02  0.51100000000E-03 0. -1.
        -11    1    4    4    0    0  0.23831624657E+01  0.51848520973E+01  0.11790428680E+01  0.58268599567E+01  0.51100000000E-03 0.  1.
        -12    1    4    4    0    0 -0.74051159921E+01  0.78726933955E+01  0.23073247954E+02  0.25479203584E+02  0.00000000000E+00 0.  1.
</event>
<event>
 8    1  0.6019723E-011  0.9118800E+02  0.7816164E-02  0.1184000E+00
        -11   -1    0    0    0    0  0.00000000000E+00  0.00000000000E+00  0.45593999997E+02  0.45594000000E+02  0.51100000000E-03 0. -1.
         11   -1    0    0    0    0 -0.00000000000E+00 -0.00000000000E+00 -0.45593999997E+02  0.45594000000E+02  0.51100000000E-03 0.  1.
         23    2    1    2    0    0 -0.88817841970E-15  0.00000000000E+00 -0.35527136788E-14  0.91188000000E+02  0.91188000000E+02 0.  0.
    9900012    2    3    3    0    0 -0.62229544258E+01 -0.31024093135E+02  0.29705296213E+02  0.47787261069E+02  0.19999954520E+02 0.  0.
        -12    1    3    3    0    0  0.62229544258E+01  0.31024093135E+02 -0.29705296213E+02  0.43400738931E+02  0.00000000000E+00 0.  1.
         11    1    4    4    0    0 -0.34286104173E+01 -0.13144886256E+02  0.59643083454E+01  0.14836319570E+02  0.51100000000E-03 0. -1.
        -11    1    4    4    0    0 -0.71868631493E+01 -0.47279265903E+01  0.12102088595E+02  0.14848058472E+02  0.51100000000E-03 0.  1.
        -12    1    4    4    0    0  0.43925191408E+01 -0.13151280289E+02  0.11638899273E+02  0.18102883028E+02  0.00000000000E+00 0.  1.
</event>
<event>
 8    1  0.6019723E-011  0.9118800E+02  0.7816164E-02  0.1184000E+00
        -11   -1    0    0    0    0  0.00000000000E+00  0.00000000000E+00  0.45593999997E+02  0.45594000000E+02  0.51100000000E-03 0. -1.
         11   -1    0    0    0    0 -0.00000000000E+00 -0.00000000000E+00 -0.45593999997E+02  0.45594000000E+02  0.51100000000E-03 0.  1.
         23    2    1    2    0    0  0.00000000000E+00  0.00000000000E+00  0.00000000000E+00  0.91188000000E+02  0.91188000000E+02 0.  0.
    9900012    2    3    3    0    0 -0.41204446574E+02  0.44304306031E+01  0.12891396137E+02  0.47787271582E+02  0.20000002451E+02 0.  0.
        -12    1    3    3    0    0  0.41204446574E+02 -0.44304306031E+01 -0.12891396137E+02  0.43400728418E+02  0.00000000000E+00 0.  1.
         11    1    4    4    0    0 -0.75744126396E+01 -0.41091311374E-01  0.90028446526E+01  0.11765399587E+02  0.51100000000E-03 0. -1.
        -11    1    4    4    0    0 -0.27440863869E+02 -0.70262059460E+00  0.10498567583E+01  0.27469926921E+02  0.51100000000E-03 0.  1.
        -12    1    4    4    0    0 -0.61891700660E+01  0.51741425090E+01  0.28386947264E+01  0.85519450746E+01  0.00000000000E+00 0.  1.
</event>
<event>
 8    1  0.6019723E-011  0.9118800E+02  0.7816164E-02  0.1184000E+00
        -11   -1    0    0    0    0  0.00000000000E+00  0.00000000000E+00  0.45593999997E+02  0.45594000000E+02  0.51100000000E-03 0.  1.
         11   -1    0    0    0    0 -0.00000000000E+00 -0.00000000000E+00 -0.45593999997E+02  0.45594000000E+02  0.51100000000E-03 0. -1.
         23    2    1    2    0    0 -0.71054273576E-14 -0.17763568394E-14 -0.88817841970E-15  0.91188000000E+02  0.91188000000E+02 0.  0.
    9900012    2    3    3    0    0 -0.41381928814E+02 -0.12298981445E+02 -0.44602837543E+01  0.47787272954E+02  0.20000008708E+02 0.  0.
        -12    1    3    3    0    0  0.41381928814E+02  0.12298981445E+02  0.44602837543E+01  0.43400727046E+02  0.00000000000E+00 0.  1.
         11    1    4    4    0    0 -0.32574487851E+02 -0.91419291653E+01 -0.63211327039E+01  0.34418437596E+02  0.51100000000E-03 0. -1.
        -11    1    4    4    0    0 -0.33227332304E+01  0.33514191003E+01  0.88686300259E+00  0.48019883749E+01  0.51100000000E-03 0.  1.
         12    1    4    4    0    0 -0.54847077322E+01 -0.65084713804E+01  0.97398594702E+00  0.85668469837E+01  0.00000000000E+00 0. -1.
</event>
<event>
 8    1  0.6019723E-011  0.9118800E+02  0.7816164E-02  0.1184000E+00
        -11   -1    0    0    0    0  0.00000000000E+00  0.00000000000E+00  0.45593999997E+02  0.45594000000E+02  0.51100000000E-03 0. -1.
         11   -1    0    0    0    0 -0.00000000000E+00 -0.00000000000E+00 -0.45593999997E+02  0.45594000000E+02  0.51100000000E-03 0.  1.
         23    2    1    2    0    0  0.00000000000E+00  0.00000000000E+00  0.00000000000E+00  0.91188000000E+02  0.91188000000E+02 0.  0.
    9900012    2    3    3    0    0  0.24724594665E+02 -0.14512479648E+02  0.32583824194E+02  0.47787271366E+02  0.20000001467E+02 0.  0.
        -12    1    3    3    0    0 -0.24724594665E+02  0.14512479648E+02 -0.32583824194E+02  0.43400728634E+02  0.00000000000E+00 0.  1.
         11    1    4    4    0    0  0.10582330368E+02 -0.10679593127E+02  0.24689326115E+02  0.28906785530E+02  0.51100000000E-03 0. -1.
        -11    1    4    4    0    0  0.30687620734E+01 -0.41891904917E+01 -0.13968580853E+00  0.51948176123E+01  0.51100000000E-03 0.  1.
         12    1    4    4    0    0  0.11073502223E+02  0.35630397114E+00  0.80341838868E+01  0.13685668224E+02  0.00000000000E+00 0. -1.
</event>
<event>
 8    1  0.6019723E-011  0.9118800E+02  0.7816164E-02  0.1184000E+00
        -11   -1    0    0    0    0  0.00000000000E+00  0.00000000000E+00  0.45593999997E+02  0.45594000000E+02  0.51100000000E-03 0. -1.
         11   -1    0    0    0    0 -0.00000000000E+00 -0.00000000000E+00 -0.45593999997E+02  0.45594000000E+02  0.51100000000E-03 0.  1.
         23    2    1    2    0    0  0.00000000000E+00 -0.71054273576E-14  0.00000000000E+00  0.91188000000E+02  0.91188000000E+02 0.  0.
    9900012    2    3    3    0    0 -0.43007265000E+01 -0.36966921985E+02 -0.22328763873E+02  0.47787271140E+02  0.20000000438E+02 0.  0.
         12    1    3    3    0    0  0.43007265000E+01  0.36966921985E+02  0.22328763873E+02  0.43400728860E+02  0.00000000000E+00 0. -1.
         11    1    4    4    0    0 -0.34593086782E+01 -0.58161206597E+01 -0.26264263102E+01  0.72589387298E+01  0.51100000000E-03 0. -1.
        -11    1    4    4    0    0 -0.49244287708E+01 -0.10613344655E+02  0.11120769864E+00  0.11700660276E+02  0.51100000000E-03 0.  1.
        -12    1    4    4    0    0  0.40830109489E+01 -0.20537456670E+02 -0.19813545261E+02  0.28827672135E+02  0.00000000000E+00 0.  1.
</event>
<event>
 8    1  0.6019723E-011  0.9118800E+02  0.7816164E-02  0.1184000E+00
        -11   -1    0    0    0    0  0.00000000000E+00  0.00000000000E+00  0.45593999997E+02  0.45594000000E+02  0.51100000000E-03 0.  1.
         11   -1    0    0    0    0 -0.00000000000E+00 -0.00000000000E+00 -0.45593999997E+02  0.45594000000E+02  0.51100000000E-03 0. -1.
         23    2    1    2    0    0 -0.53290705182E-14 -0.71054273576E-14  0.00000000000E+00  0.91188000000E+02  0.91188000000E+02 0.  0.
    9900012    2    3    3    0    0 -0.12656086794E+02 -0.41477248783E+02  0.17562349575E+01  0.47787273500E+02  0.20000011195E+02 0.  0.
        -12    1    3    3    0    0  0.12656086794E+02  0.41477248783E+02 -0.17562349575E+01  0.43400726500E+02  0.00000000000E+00 0.  1.
         11    1    4    4    0    0 -0.12116931628E+02 -0.21701065620E+02 -0.19567264369E+00  0.24855473626E+02  0.51100000000E-03 0. -1.
        -11    1    4    4    0    0  0.29256268446E+01 -0.17609958048E+02  0.40989057212E+01  0.18315865889E+02  0.51100000000E-03 0.  1.
        -12    1    4    4    0    0 -0.34647820102E+01 -0.21662251150E+01 -0.21469981200E+01  0.46159339851E+01  0.00000000000E+00 0.  1.
</event>
<event>
 8    1  0.6019723E-011  0.9118800E+02  0.7816164E-02  0.1184000E+00
        -11   -1    0    0    0    0  0.00000000000E+00  0.00000000000E+00  0.45593999997E+02  0.45594000000E+02  0.51100000000E-03 0. -1.
         11   -1    0    0    0    0 -0.00000000000E+00 -0.00000000000E+00 -0.45593999997E+02  0.45594000000E+02  0.51100000000E-03 0.  1.
         23    2    1    2    0    0 -0.44408920985E-15 -0.88817841970E-15 -0.71054273576E-14  0.91188000000E+02  0.91188000000E+02 0.  0.
    9900012    2    3    3    0    0  0.22722818977E+01 -0.29047679123E+01 -0.43243757901E+02  0.47787267990E+02  0.19999986073E+02 0.  0.
         12    1    3    3    0    0 -0.22722818977E+01  0.29047679123E+01  0.43243757901E+02  0.43400732010E+02  0.00000000000E+00 0. -1.
         11    1    4    4    0    0  0.54665074385E+00  0.41935420939E+01 -0.80710572897E+01  0.91118926883E+01  0.51100000000E-03 0. -1.
        -11    1    4    4    0    0 -0.60654299103E+01 -0.52328241739E+01 -0.15902160119E+02  0.17805914341E+02  0.51100000000E-03 0.  1.
        -12    1    4    4    0    0  0.77910610641E+01 -0.18654858322E+01 -0.19270540492E+02  0.20869460960E+02  0.00000000000E+00 0.  1.
</event>
<event>
 8    1  0.6019723E-011  0.9118800E+02  0.7816164E-02  0.1184000E+00
        -11   -1    0    0    0    0  0.00000000000E+00  0.00000000000E+00  0.45593999997E+02  0.45594000000E+02  0.51100000000E-03 0. -1.
         11   -1    0    0    0    0 -0.00000000000E+00 -0.00000000000E+00 -0.45593999997E+02  0.45594000000E+02  0.51100000000E-03 0.  1.
         23    2    1    2    0    0  0.55511151231E-15  0.00000000000E+00  0.00000000000E+00  0.91188000000E+02  0.91188000000E+02 0.  0.
    9900012    2    3    3    0    0  0.85198671379E+00  0.11404828866E+02 -0.41866779197E+02  0.47787271859E+02  0.20000003713E+02 0.  0.
         12    1    3    3    0    0 -0.85198671379E+00 -0.11404828866E+02  0.41866779197E+02  0.43400728141E+02  0.00000000000E+00 0. -1.
         11    1    4    4    0    0 -0.39383590908E+01 -0.18043363528E+01 -0.94604226050E+00  0.44341062484E+01  0.51100000000E-03 0. -1.
        -11    1    4    4    0    0  0.25091484490E+01  0.98757269213E+01 -0.31370655698E+02  0.32983993805E+02  0.51100000000E-03 0.  1.
         12    1    4    4    0    0  0.22811973556E+01  0.33334382972E+01 -0.95500812389E+01  0.10369171805E+02  0.00000000000E+00 0. -1.
</event>
<event>
 8    1  0.6019723E-011  0.9118800E+02  0.7816164E-02  0.1184000E+00
        -11   -1    0    0    0    0  0.00000000000E+00  0.00000000000E+00  0.45593999997E+02  0.45594000000E+02  0.51100000000E-03 0. -1.
         11   -1    0    0    0    0 -0.00000000000E+00 -0.00000000000E+00 -0.45593999997E+02  0.45594000000E+02  0.51100000000E-03 0.  1.
         23    2    1    2    0    0  0.00000000000E+00  0.88817841970E-15 -0.71054273576E-14  0.91188000000E+02  0.91188000000E+02 0.  0.
    9900012    2    3    3    0    0 -0.20806067997E+02 -0.74772562085E+01  0.37347254579E+02  0.47787317396E+02  0.20000211333E+02 0.  0.
        -12    1    3    3    0    0  0.20806067997E+02  0.74772562085E+01 -0.37347254579E+02  0.43400682604E+02  0.00000000000E+00 0.  1.
         11    1    4    4    0    0 -0.16996764566E+02 -0.34562358081E+01  0.16930509117E+02  0.24237939494E+02  0.51100000000E-03 0. -1.
        -11    1    4    4    0    0  0.26326730512E+01 -0.13866827884E+01  0.13794247628E+01  0.32797361918E+01  0.51100000000E-03 0.  1.
        -12    1    4    4    0    0 -0.64419764822E+01 -0.26343376120E+01  0.19037320700E+02  0.20269641710E+02  0.00000000000E+00 0.  1.
</event>
<event>
 8    1  0.6019723E-011  0.9118800E+02  0.7816164E-02  0.1184000E+00
        -11   -1    0    0    0    0  0.00000000000E+00  0.00000000000E+00  0.45593999997E+02  0.45594000000E+02  0.51100000000E-03 0. -1.
         11   -1    0    0    0    0 -0.00000000000E+00 -0.00000000000E+00 -0.45593999997E+02  0.45594000000E+02  0.51100000000E-03 0.  1.
         23    2    1    2    0    0  0.00000000000E+00  0.44408920985E-15  0.00000000000E+00  0.91188000000E+02  0.91188000000E+02 0.  0.
    9900012    2    3    3    0    0  0.39655939425E+02  0.38621562905E+01  0.17207945902E+02  0.47787272067E+02  0.20000004664E+02 0.  0.
        -12    1    3    3    0    0 -0.39655939425E+02 -0.38621562905E+01 -0.17207945902E+02  0.43400727933E+02  0.00000000000E+00 0.  1.
         11    1    4    4    0    0  0.11581497133E+02 -0.61463672377E+01  0.48718807449E+00  0.13120451919E+02  0.51100000000E-03 0. -1.
        -11    1    4    4    0    0  0.75015481634E+01  0.47724179079E+01  0.70118660321E+01  0.11323226707E+02  0.51100000000E-03 0.  1.
         12    1    4    4    0    0  0.20572894128E+02  0.52361056203E+01  0.97088917959E+01  0.23343593442E+02  0.00000000000E+00 0. -1.
</event>
<event>
 8    1  0.6019723E-011  0.9118800E+02  0.7816164E-02  0.1184000E+00
        -11   -1    0    0    0    0  0.00000000000E+00  0.00000000000E+00  0.45593999997E+02  0.45594000000E+02  0.51100000000E-03 0.  1.
         11   -1    0    0    0    0 -0.00000000000E+00 -0.00000000000E+00 -0.45593999997E+02  0.45594000000E+02  0.51100000000E-03 0. -1.
         23    2    1    2    0    0  0.71054273576E-14  0.00000000000E+00  0.71054273576E-14  0.91188000000E+02  0.91188000000E+02 0.  0.
    9900012    2    3    3    0    0 -0.36761607572E+02 -0.15551179552E+02 -0.17040186213E+02  0.47787275088E+02  0.20000018437E+02 0.  0.
         12    1    3    3    0    0  0.36761607572E+02  0.15551179552E+02  0.17040186213E+02  0.43400724912E+02  0.00000000000E+00 0. -1.
         11    1    4    4    0    0 -0.79178029053E+01  0.12357623974E+01 -0.53190718914E+01  0.96182762279E+01  0.51100000000E-03 0. -1.
        -11    1    4    4    0    0 -0.38637451969E+01 -0.34577713611E+01  0.32714035981E+01  0.61308067573E+01  0.51100000000E-03 0.  1.
        -12    1    4    4    0    0 -0.24980059470E+02 -0.13329170588E+02 -0.14992517919E+02  0.32038192103E+02  0.00000000000E+00 0.  1.
</event>
<event>
 8    1  0.8331084E-011  0.9118800E+02  0.7816164E-02  0.1184000E+00
        -11   -1    0    0    0    0  0.00000000000E+00  0.00000000000E+00  0.45593999997E+02  0.45594000000E+02  0.51100000000E-03 0. -1.
         11   -1    0    0    0    0 -0.00000000000E+00 -0.00000000000E+00 -0.45593999997E+02  0.45594000000E+02  0.51100000000E-03 0.  1.
         23    2    1    2    0    0  0.35527136788E-14  0.00000000000E+00  0.00000000000E+00  0.91188000000E+02  0.91188000000E+02 0.  0.
    9900012    2    3    3    0    0 -0.29903424418E+02 -0.40656014178E+01 -0.31191012197E+02  0.47787272487E+02  0.20000006575E+02 0.  0.
         12    1    3    3    0    0  0.29903424418E+02  0.40656014178E+01  0.31191012197E+02  0.43400727513E+02  0.00000000000E+00 0. -1.
         11    1    4    4    0    0 -0.16735691756E+02 -0.90352934122E+00 -0.72635735646E+01  0.18266341861E+02  0.51100000000E-03 0. -1.
        -11    1    4    4    0    0 -0.13464910564E+02 -0.57757652902E+01 -0.20612086548E+02  0.25288760217E+02  0.51100000000E-03 0.  1.
         12    1    4    4    0    0  0.29717790150E+00  0.26136932136E+01 -0.33153520845E+01  0.42321704082E+01  0.00000000000E+00 0. -1.
</event>
<event>
 8    1  0.6019723E-011  0.9118800E+02  0.7816164E-02  0.1184000E+00
        -11   -1    0    0    0    0  0.00000000000E+00  0.00000000000E+00  0.45593999997E+02  0.45594000000E+02  0.51100000000E-03 0. -1.
         11   -1    0    0    0    0 -0.00000000000E+00 -0.00000000000E+00 -0.45593999997E+02  0.45594000000E+02  0.51100000000E-03 0.  1.
         23    2    1    2    0    0  0.00000000000E+00 -0.14210854715E-13  0.17763568394E-14  0.91188000000E+02  0.91188000000E+02 0.  0.
    9900012    2    3    3    0    0 -0.23752742171E+02  0.34160796487E+02 -0.12347862344E+02  0.47787280170E+02  0.20000041608E+02 0.  0.
         12    1    3    3    0    0  0.23752742171E+02 -0.34160796487E+02  0.12347862344E+02  0.43400719830E+02  0.00000000000E+00 0. -1.
         11    1    4    4    0    0 -0.25124927317E+01  0.82141788711E+01 -0.16290734374E+01  0.87429534357E+01  0.51100000000E-03 0. -1.
        -11    1    4    4    0    0 -0.10898298058E+02  0.21140667504E+01 -0.45544933532E+00  0.11110788142E+02  0.51100000000E-03 0.  1.
        -12    1    4    4    0    0 -0.10341951381E+02  0.23832550865E+02 -0.10263339572E+02  0.27933538592E+02  0.00000000000E+00 0.  1.
</event>
<event>
 8    1  0.6019723E-011  0.9118800E+02  0.7816164E-02  0.1184000E+00
        -11   -1    0    0    0    0  0.00000000000E+00  0.00000000000E+00  0.45593999997E+02  0.45594000000E+02  0.51100000000E-03 0. -1.
         11   -1    0    0    0    0 -0.00000000000E+00 -0.00000000000E+00 -0.45593999997E+02  0.45594000000E+02  0.51100000000E-03 0.  1.
         23    2    1    2    0    0  0.00000000000E+00  0.00000000000E+00  0.00000000000E+00  0.91188000000E+02  0.91188000000E+02 0.  0.
    9900012    2    3    3    0    0  0.25175746853E+02 -0.11611119637E+02 -0.33391441504E+02  0.47787254678E+02  0.19999925377E+02 0.  0.
         12    1    3    3    0    0 -0.25175746853E+02  0.11611119637E+02  0.33391441504E+02  0.43400745322E+02  0.00000000000E+00 0. -1.
         11    1    4    4    0    0  0.28191069254E+00 -0.33462506991E+01 -0.68539039503E+01  0.76323565823E+01  0.51100000000E-03 0. -1.
        -11    1    4    4    0    0  0.58032229785E+01  0.31457527469E+01 -0.17030541258E+01  0.68171512305E+01  0.51100000000E-03 0.  1.
        -12    1    4    4    0    0  0.19090613182E+02 -0.11410621685E+02 -0.24834483428E+02  0.33337746865E+02  0.00000000000E+00 0.  1.
</event>
<event>
 8    1  0.6019723E-011  0.9118800E+02  0.7816164E-02  0.1184000E+00
        -11   -1    0    0    0    0  0.00000000000E+00  0.00000000000E+00  0.45593999997E+02  0.45594000000E+02  0.51100000000E-03 0. -1.
         11   -1    0    0    0    0 -0.00000000000E+00 -0.00000000000E+00 -0.45593999997E+02  0.45594000000E+02  0.51100000000E-03 0.  1.
         23    2    1    2    0    0 -0.35527136788E-14  0.00000000000E+00  0.00000000000E+00  0.91188000000E+02  0.91188000000E+02 0.  0.
    9900012    2    3    3    0    0 -0.20712975337E+02 -0.88737975754E+01 -0.37092479338E+02  0.47787266663E+02  0.19999980025E+02 0.  0.
         12    1    3    3    0    0  0.20712975337E+02  0.88737975754E+01  0.37092479338E+02  0.43400733337E+02  0.00000000000E+00 0. -1.
         11    1    4    4    0    0 -0.40003376660E+01  0.42865020492E+01 -0.51946490692E+01  0.78333377607E+01  0.51100000000E-03 0. -1.
        -11    1    4    4    0    0 -0.31541421467E+01 -0.94298525974E+01 -0.11912785869E+02  0.15517254916E+02  0.51100000000E-03 0.  1.
        -12    1    4    4    0    0 -0.13558495524E+02 -0.37304470272E+01 -0.19985044400E+02  0.24436673987E+02  0.00000000000E+00 0.  1.
</event>
<event>
 8    1  0.6019723E-011  0.9118800E+02  0.7816164E-02  0.1184000E+00
        -11   -1    0    0    0    0  0.00000000000E+00  0.00000000000E+00  0.45593999997E+02  0.45594000000E+02  0.51100000000E-03 0. -1.
         11   -1    0    0    0    0 -0.00000000000E+00 -0.00000000000E+00 -0.45593999997E+02  0.45594000000E+02  0.51100000000E-03 0.  1.
         23    2    1    2    0    0  0.00000000000E+00  0.00000000000E+00 -0.35527136788E-14  0.91188000000E+02  0.91188000000E+02 0.  0.
    9900012    2    3    3    0    0  0.13169888785E+02 -0.35232192041E+02 -0.21653400114E+02  0.47787273472E+02  0.20000011068E+02 0.  0.
         12    1    3    3    0    0 -0.13169888785E+02  0.35232192041E+02  0.21653400114E+02  0.43400726528E+02  0.00000000000E+00 0. -1.
         11    1    4    4    0    0  0.45923382299E+01 -0.87654483301E+01  0.21774058309E+01  0.10132312237E+02  0.51100000000E-03 0. -1.
        -11    1    4    4    0    0  0.22245017963E+01 -0.19699118624E+02 -0.17222605923E+02  0.26260651894E+02  0.51100000000E-03 0.  1.
         12    1    4    4    0    0  0.63530487592E+01 -0.67676250866E+01 -0.66082000220E+01  0.11394309342E+02  0.00000000000E+00 0. -1.
</event>
<event>
 8    1  0.6019723E-011  0.9118800E+02  0.7816164E-02  0.1184000E+00
        -11   -1    0    0    0    0  0.00000000000E+00  0.00000000000E+00  0.45593999997E+02  0.45594000000E+02  0.51100000000E-03 0. -1.
         11   -1    0    0    0    0 -0.00000000000E+00 -0.00000000000E+00 -0.45593999997E+02  0.45594000000E+02  0.51100000000E-03 0.  1.
         23    2    1    2    0    0  0.00000000000E+00  0.00000000000E+00  0.00000000000E+00  0.91188000000E+02  0.91188000000E+02 0.  0.
    9900012    2    3    3    0    0  0.13497087928E+02 -0.20363502119E+02 -0.35871714078E+02  0.47787268762E+02  0.19999989594E+02 0.  0.
         12    1    3    3    0    0 -0.13497087928E+02  0.20363502119E+02  0.35871714078E+02  0.43400731238E+02  0.00000000000E+00 0. -1.
         11    1    4    4    0    0  0.80258677010E+01 -0.23209481428E+01 -0.20546832922E+02  0.22180480068E+02  0.51100000000E-03 0. -1.
        -11    1    4    4    0    0  0.17667854481E+01 -0.15322073249E+02 -0.92342849190E+01  0.17976636996E+02  0.51100000000E-03 0.  1.
        -12    1    4    4    0    0  0.37044347794E+01 -0.27204807272E+01 -0.60905962364E+01  0.76301516982E+01  0.00000000000E+00 0.  1.
</event>
<event>
 8    1  0.6019723E-011  0.9118800E+02  0.7816164E-02  0.1184000E+00
        -11   -1    0    0    0    0  0.00000000000E+00  0.00000000000E+00  0.45593999997E+02  0.45594000000E+02  0.51100000000E-03 0. -1.
         11   -1    0    0    0    0 -0.00000000000E+00 -0.00000000000E+00 -0.45593999997E+02  0.45594000000E+02  0.51100000000E-03 0.  1.
         23    2    1    2    0    0  0.35527136788E-14  0.00000000000E+00 -0.22204460493E-15  0.91188000000E+02  0.91188000000E+02 0.  0.
    9900012    2    3    3    0    0 -0.20010500559E+02  0.38470877312E+02  0.17872975418E+01  0.47787274588E+02  0.20000016156E+02 0.  0.
         12    1    3    3    0    0  0.20010500559E+02 -0.38470877312E+02 -0.17872975418E+01  0.43400725412E+02  0.00000000000E+00 0. -1.
         11    1    4    4    0    0 -0.28050078781E+01  0.54301922246E+01  0.76640151121E+01  0.98026621227E+01  0.51100000000E-03 0. -1.
        -11    1    4    4    0    0 -0.39306081411E+01  0.42699592013E+01 -0.29499555319E+00  0.58111319531E+01  0.51100000000E-03 0.  1.
         12    1    4    4    0    0 -0.13274884540E+02  0.28770725886E+02 -0.55817220170E+01  0.32173480512E+02  0.00000000000E+00 0. -1.
</event>
<event>
 8    1  0.6019723E-011  0.9118800E+02  0.7816164E-02  0.1184000E+00
        -11   -1    0    0    0    0  0.00000000000E+00  0.00000000000E+00  0.45593999997E+02  0.45594000000E+02  0.51100000000E-03 0. -1.
         11   -1    0    0    0    0 -0.00000000000E+00 -0.00000000000E+00 -0.45593999997E+02  0.45594000000E+02  0.51100000000E-03 0.  1.
         23    2    1    2    0    0  0.00000000000E+00 -0.22204460493E-15  0.00000000000E+00  0.91188000000E+02  0.91188000000E+02 0.  0.
    9900012    2    3    3    0    0 -0.23071832194E+02  0.11317692606E+01 -0.36742792776E+02  0.47787272317E+02  0.20000005801E+02 0.  0.
         12    1    3    3    0    0  0.23071832194E+02 -0.11317692606E+01  0.36742792776E+02  0.43400727683E+02  0.00000000000E+00 0. -1.
         11    1    4    4    0    0  0.24013869765E+01  0.21120886458E+01 -0.33146096912E+01  0.46058892219E+01  0.51100000000E-03 0. -1.
        -11    1    4    4    0    0 -0.51562659102E+01  0.32586519657E+01 -0.45081242267E+01  0.75847923555E+01  0.51100000000E-03 0.  1.
         12    1    4    4    0    0 -0.20316953260E+02 -0.42389713510E+01 -0.28920058858E+02  0.35596590739E+02  0.00000000000E+00 0. -1.
</event>
<event>
 8    1  0.6019723E-011  0.9118800E+02  0.7816164E-02  0.1184000E+00
        -11   -1    0    0    0    0  0.00000000000E+00  0.00000000000E+00  0.45593999997E+02  0.45594000000E+02  0.51100000000E-03 0. -1.
         11   -1    0    0    0    0 -0.00000000000E+00 -0.00000000000E+00 -0.45593999997E+02  0.45594000000E+02  0.51100000000E-03 0.  1.
         23    2    1    2    0    0  0.00000000000E+00  0.00000000000E+00  0.35527136788E-14  0.91188000000E+02  0.91188000000E+02 0.  0.
    9900012    2    3    3    0    0 -0.31235777779E+02  0.29714882591E+01 -0.29985324383E+02  0.47787271501E+02  0.20000002080E+02 0.  0.
         12    1    3    3    0    0  0.31235777779E+02 -0.29714882591E+01  0.29985324383E+02  0.43400728499E+02  0.00000000000E+00 0. -1.
         11    1    4    4    0    0 -0.97497222316E+01  0.32919492415E-01 -0.22303112152E+01  0.10001622652E+02  0.51100000000E-03 0. -1.
        -11    1    4    4    0    0 -0.40239155252E+01  0.36880592010E+01 -0.15516605621E+02  0.16448669463E+02  0.51100000000E-03 0.  1.
        -12    1    4    4    0    0 -0.17462140022E+02 -0.74949043430E+00 -0.12238407547E+02  0.21336979386E+02  0.00000000000E+00 0.  1.
</event>
<event>
 8    1  0.6019723E-011  0.9118800E+02  0.7816164E-02  0.1184000E+00
        -11   -1    0    0    0    0  0.00000000000E+00  0.00000000000E+00  0.45593999997E+02  0.45594000000E+02  0.51100000000E-03 0. -1.
         11   -1    0    0    0    0 -0.00000000000E+00 -0.00000000000E+00 -0.45593999997E+02  0.45594000000E+02  0.51100000000E-03 0.  1.
         23    2    1    2    0    0  0.35527136788E-14  0.17763568394E-14 -0.71054273576E-14  0.91188000000E+02  0.91188000000E+02 0.  0.
    9900012    2    3    3    0    0  0.19377974589E+02  0.13889433000E+02 -0.36265700923E+02  0.47787270609E+02  0.19999998014E+02 0.  0.
         12    1    3    3    0    0 -0.19377974589E+02 -0.13889433000E+02  0.36265700923E+02  0.43400729391E+02  0.00000000000E+00 0. -1.
         11    1    4    4    0    0  0.15590821429E+01 -0.19024436312E+01  0.98806192581E+00  0.26507160407E+01  0.51100000000E-03 0. -1.
        -11    1    4    4    0    0  0.10451318031E+02  0.13686080696E+02 -0.29967043952E+02  0.34562444602E+02  0.51100000000E-03 0.  1.
        -12    1    4    4    0    0  0.73675744152E+01  0.21057959356E+01 -0.72867188968E+01  0.10574109966E+02  0.00000000000E+00 0.  1.
</event>
<event>
 8    1  0.6019723E-011  0.9118800E+02  0.7816164E-02  0.1184000E+00
        -11   -1    0    0    0    0  0.00000000000E+00  0.00000000000E+00  0.45593999997E+02  0.45594000000E+02  0.51100000000E-03 0. -1.
         11   -1    0    0    0    0 -0.00000000000E+00 -0.00000000000E+00 -0.45593999997E+02  0.45594000000E+02  0.51100000000E-03 0.  1.
         23    2    1    2    0    0  0.88817841970E-15  0.00000000000E+00  0.00000000000E+00  0.91188000000E+02  0.91188000000E+02 0.  0.
    9900012    2    3    3    0    0  0.57451555792E+01  0.14021749310E+02 -0.40669467945E+02  0.47787286996E+02  0.20000072730E+02 0.  0.
         12    1    3    3    0    0 -0.57451555792E+01 -0.14021749310E+02  0.40669467945E+02  0.43400713004E+02  0.00000000000E+00 0. -1.
         11    1    4    4    0    0 -0.16434499474E+01  0.42186907749E+01 -0.11718665548E+00  0.45290189398E+01  0.51100000000E-03 0. -1.
        -11    1    4    4    0    0  0.78389211757E+01  0.35035982379E+01 -0.20214588748E+02  0.21962547310E+02  0.51100000000E-03 0.  1.
         12    1    4    4    0    0 -0.45031564903E+00  0.62994602970E+01 -0.20337692541E+02  0.21295720746E+02  0.00000000000E+00 0. -1.
</event>
<event>
 8    1  0.6019723E-011  0.9118800E+02  0.7816164E-02  0.1184000E+00
        -11   -1    0    0    0    0  0.00000000000E+00  0.00000000000E+00  0.45593999997E+02  0.45594000000E+02  0.51100000000E-03 0. -1.
         11   -1    0    0    0    0 -0.00000000000E+00 -0.00000000000E+00 -0.45593999997E+02  0.45594000000E+02  0.51100000000E-03 0.  1.
         23    2    1    2    0    0  0.00000000000E+00 -0.44408920985E-15  0.00000000000E+00  0.91188000000E+02  0.91188000000E+02 0.  0.
    9900012    2    3    3    0    0  0.88833009851E+01  0.33342850170E+01  0.42350834164E+02  0.47787266742E+02  0.19999980385E+02 0.  0.
        -12    1    3    3    0    0 -0.88833009851E+01 -0.33342850170E+01 -0.42350834164E+02  0.43400733258E+02  0.00000000000E+00 0.  1.
         11    1    4    4    0    0  0.10143474224E+01 -0.29045688456E+01 -0.78259886867E+00  0.31745680215E+01  0.51100000000E-03 0.  1.
        -11    1    4    4    0    0  0.68217118104E+01  0.71209554125E+01  0.34909925112E+02  0.36275978685E+02  0.51100000000E-03 0. -1.
        -12    1    4    4    0    0  0.10472417523E+01 -0.88210154981E+00  0.82235079206E+01  0.83367200356E+01  0.00000000000E+00 0.  1.
</event>
<event>
 8    1  0.6019723E-011  0.9118800E+02  0.7816164E-02  0.1184000E+00
        -11   -1    0    0    0    0  0.00000000000E+00  0.00000000000E+00  0.45593999997E+02  0.45594000000E+02  0.51100000000E-03 0. -1.
         11   -1    0    0    0    0 -0.00000000000E+00 -0.00000000000E+00 -0.45593999997E+02  0.45594000000E+02  0.51100000000E-03 0.  1.
         23    2    1    2    0    0  0.00000000000E+00  0.35527136788E-14  0.00000000000E+00  0.91188000000E+02  0.91188000000E+02 0.  0.
    9900012    2    3    3    0    0  0.26588819535E+02 -0.25676765844E+02  0.22745584523E+02  0.47787271391E+02  0.20000001581E+02 0.  0.
        -12    1    3    3    0    0 -0.26588819535E+02  0.25676765844E+02 -0.22745584523E+02  0.43400728609E+02  0.00000000000E+00 0.  1.
         11    1    4    4    0    0  0.60625208839E+01 -0.11885295131E+02  0.10357706843E+02  0.16890722043E+02  0.51100000000E-03 0. -1.
        -11    1    4    4    0    0  0.89235872091E+01  0.11017837942E+01  0.15392648776E+01  0.91221528617E+01  0.51100000000E-03 0.  1.
        -12    1    4    4    0    0  0.11602711442E+02 -0.14893254508E+02  0.10848612802E+02  0.21774396487E+02  0.00000000000E+00 0.  1.
</event>
<event>
 8    1  0.6019723E-011  0.9118800E+02  0.7816164E-02  0.1184000E+00
        -11   -1    0    0    0    0  0.00000000000E+00  0.00000000000E+00  0.45593999997E+02  0.45594000000E+02  0.51100000000E-03 0. -1.
         11   -1    0    0    0    0 -0.00000000000E+00 -0.00000000000E+00 -0.45593999997E+02  0.45594000000E+02  0.51100000000E-03 0.  1.
         23    2    1    2    0    0  0.17763568394E-14  0.17763568394E-14  0.00000000000E+00  0.91188000000E+02  0.91188000000E+02 0.  0.
    9900012    2    3    3    0    0 -0.15326458102E+02 -0.11456689959E+02 -0.38954682404E+02  0.47787270238E+02  0.19999996321E+02 0.  0.
         12    1    3    3    0    0  0.15326458102E+02  0.11456689959E+02  0.38954682404E+02  0.43400729762E+02  0.00000000000E+00 0. -1.
         11    1    4    4    0    0 -0.11546100543E+01  0.47665525305E+01 -0.35668374590E+01  0.60642787802E+01  0.51100000000E-03 0. -1.
        -11    1    4    4    0    0 -0.10706826150E+02 -0.10664703847E+02 -0.28230764814E+02  0.32021057394E+02  0.51100000000E-03 0.  1.
        -12    1    4    4    0    0 -0.34650218974E+01 -0.55585386421E+01 -0.71570801302E+01  0.97019340636E+01  0.00000000000E+00 0.  1.
</event>
<event>
 8    1  0.6019723E-011  0.9118800E+02  0.7816164E-02  0.1184000E+00
        -11   -1    0    0    0    0  0.00000000000E+00  0.00000000000E+00  0.45593999997E+02  0.45594000000E+02  0.51100000000E-03 0. -1.
         11   -1    0    0    0    0 -0.00000000000E+00 -0.00000000000E+00 -0.45593999997E+02  0.45594000000E+02  0.51100000000E-03 0.  1.
         23    2    1    2    0    0  0.00000000000E+00  0.35527136788E-14 -0.35527136788E-14  0.91188000000E+02  0.91188000000E+02 0.  0.
    9900012    2    3    3    0    0 -0.33757010851E+02 -0.14788544579E+02  0.22921248560E+02  0.47787303371E+02  0.20000147387E+02 0.  0.
        -12    1    3    3    0    0  0.33757010851E+02  0.14788544579E+02 -0.22921248560E+02  0.43400696629E+02  0.00000000000E+00 0.  1.
         11    1    4    4    0    0 -0.29182397006E+02 -0.13778799403E+02  0.15929093825E+02  0.35988937721E+02  0.51100000000E-03 0. -1.
        -11    1    4    4    0    0 -0.38305984121E+01 -0.44150251634E+01  0.32646848803E+01  0.66950802099E+01  0.51100000000E-03 0.  1.
         12    1    4    4    0    0 -0.74401543375E+00  0.34052799873E+01  0.37274698550E+01  0.51032854395E+01  0.00000000000E+00 0. -1.
</event>
<event>
 8    1  0.6019723E-011  0.9118800E+02  0.7816164E-02  0.1184000E+00
        -11   -1    0    0    0    0  0.00000000000E+00  0.00000000000E+00  0.45593999997E+02  0.45594000000E+02  0.51100000000E-03 0. -1.
         11   -1    0    0    0    0 -0.00000000000E+00 -0.00000000000E+00 -0.45593999997E+02  0.45594000000E+02  0.51100000000E-03 0.  1.
         23    2    1    2    0    0  0.00000000000E+00  0.88817841970E-15  0.71054273576E-14  0.91188000000E+02  0.91188000000E+02 0.  0.
    9900012    2    3    3    0    0 -0.93457833717E+01  0.79139300493E+01  0.41637114071E+02  0.47787271621E+02  0.20000002628E+02 0.  0.
        -12    1    3    3    0    0  0.93457833717E+01 -0.79139300493E+01 -0.41637114071E+02  0.43400728379E+02  0.00000000000E+00 0.  1.
         11    1    4    4    0    0 -0.16480461031E+01  0.79252608050E-01  0.16506068517E+01  0.23338466474E+01  0.51100000000E-03 0. -1.
        -11    1    4    4    0    0 -0.41595183151E+01  0.10770597149E+02  0.39102583837E+02  0.40771551584E+02  0.51100000000E-03 0.  1.
        -12    1    4    4    0    0 -0.35382189535E+01 -0.29359197074E+01  0.88392338289E+00  0.46818733898E+01  0.00000000000E+00 0.  1.
</event>
<event>
 8    1  0.6019723E-011  0.9118800E+02  0.7816164E-02  0.1184000E+00
        -11   -1    0    0    0    0  0.00000000000E+00  0.00000000000E+00  0.45593999997E+02  0.45594000000E+02  0.51100000000E-03 0. -1.
         11   -1    0    0    0    0 -0.00000000000E+00 -0.00000000000E+00 -0.45593999997E+02  0.45594000000E+02  0.51100000000E-03 0.  1.
         23    2    1    2    0    0  0.88817841970E-15  0.44408920985E-15  0.71054273576E-14  0.91188000000E+02  0.91188000000E+02 0.  0.
    9900012    2    3    3    0    0  0.77720451333E+01 -0.21544827760E+01 -0.42644773860E+02  0.47787271675E+02  0.20000002876E+02 0.  0.
         12    1    3    3    0    0 -0.77720451333E+01  0.21544827760E+01  0.42644773860E+02  0.43400728325E+02  0.00000000000E+00 0. -1.
         11    1    4    4    0    0  0.40274919476E+01  0.27345808635E+01 -0.26773914019E+02  0.27212884743E+02  0.51100000000E-03 0. -1.
        -11    1    4    4    0    0 -0.18386696956E+01 -0.60475471732E+01 -0.42116470982E+01  0.75954923871E+01  0.51100000000E-03 0.  1.
        -12    1    4    4    0    0  0.55832228814E+01  0.11584835336E+01 -0.11659212743E+02  0.12978894545E+02  0.00000000000E+00 0.  1.
</event>
<event>
 8    1  0.9467903E-011  0.9118800E+02  0.7816164E-02  0.1184000E+00
        -11   -1    0    0    0    0  0.00000000000E+00  0.00000000000E+00  0.45593999997E+02  0.45594000000E+02  0.51100000000E-03 0. -1.
         11   -1    0    0    0    0 -0.00000000000E+00 -0.00000000000E+00 -0.45593999997E+02  0.45594000000E+02  0.51100000000E-03 0.  1.
         23    2    1    2    0    0  0.88817841970E-15 -0.44408920985E-15  0.71054273576E-14  0.91188000000E+02  0.91188000000E+02 0.  0.
    9900012    2    3    3    0    0 -0.78754829720E+01  0.37950879086E+01 -0.42511144858E+02  0.47787270036E+02  0.19999995400E+02 0.  0.
         12    1    3    3    0    0  0.78754829720E+01 -0.37950879086E+01  0.42511144858E+02  0.43400729964E+02  0.00000000000E+00 0. -1.
         11    1    4    4    0    0 -0.15061841764E+01  0.33533077098E+01 -0.13262501029E+00  0.36784307828E+01  0.51100000000E-03 0. -1.
        -11    1    4    4    0    0 -0.98887678206E+00  0.45441736870E+01 -0.25573343005E+02  0.25992754077E+02  0.51100000000E-03 0.  1.
         12    1    4    4    0    0 -0.53804220135E+01 -0.41023934881E+01 -0.16805176843E+02  0.18116085176E+02  0.00000000000E+00 0. -1.
</event>
<event>
 8    1  0.6440658E-011  0.9118800E+02  0.7816164E-02  0.1184000E+00
        -11   -1    0    0    0    0  0.00000000000E+00  0.00000000000E+00  0.45593999997E+02  0.45594000000E+02  0.51100000000E-03 0. -1.
         11   -1    0    0    0    0 -0.00000000000E+00 -0.00000000000E+00 -0.45593999997E+02  0.45594000000E+02  0.51100000000E-03 0.  1.
         23    2    1    2    0    0  0.17763568394E-14  0.17763568394E-14  0.71054273576E-14  0.91188000000E+02  0.91188000000E+02 0.  0.
    9900012    2    3    3    0    0 -0.14513176855E+02 -0.74679085649E+01 -0.40214715246E+02  0.47787247898E+02  0.19999894464E+02 0.  0.
         12    1    3    3    0    0  0.14513176855E+02  0.74679085649E+01  0.40214715246E+02  0.43400752102E+02  0.00000000000E+00 0. -1.
         11    1    4    4    0    0  0.24916105637E+01 -0.15874970550E+01 -0.12230400023E+02  0.12582168139E+02  0.51100000000E-03 0. -1.
        -11    1    4    4    0    0 -0.14519933861E+02 -0.14102809316E+00 -0.23033623944E+02  0.27228591600E+02  0.51100000000E-03 0.  1.
         12    1    4    4    0    0 -0.24848535574E+01 -0.57393834167E+01 -0.49506912782E+01  0.79764881582E+01  0.00000000000E+00 0. -1.
</event>
<event>
 8    1  0.6019723E-011  0.9118800E+02  0.7816164E-02  0.1184000E+00
        -11   -1    0    0    0    0  0.00000000000E+00  0.00000000000E+00  0.45593999997E+02  0.45594000000E+02  0.51100000000E-03 0. -1.
         11   -1    0    0    0    0 -0.00000000000E+00 -0.00000000000E+00 -0.45593999997E+02  0.45594000000E+02  0.51100000000E-03 0.  1.
         23    2    1    2    0    0  0.00000000000E+00  0.00000000000E+00  0.17763568394E-14  0.91188000000E+02  0.91188000000E+02 0.  0.
    9900012    2    3    3    0    0 -0.94555486922E+01 -0.40370911400E+02 -0.12822069473E+02  0.47787270122E+02  0.19999995795E+02 0.  0.
         12    1    3    3    0    0  0.94555486922E+01  0.40370911400E+02  0.12822069473E+02  0.43400729878E+02  0.00000000000E+00 0. -1.
         11    1    4    4    0    0 -0.10101262300E+01 -0.61983407811E+01 -0.93994422589E+01  0.11304392884E+02  0.51100000000E-03 0. -1.
        -11    1    4    4    0    0 -0.41133806304E+01 -0.53182342440E+01 -0.28420900503E+01  0.72993829739E+01  0.51100000000E-03 0.  1.
         12    1    4    4    0    0 -0.43320418317E+01 -0.28854336375E+02 -0.58053716420E+00  0.29183494264E+02  0.00000000000E+00 0. -1.
</event>
<event>
 8    1  0.6019723E-011  0.9118800E+02  0.7816164E-02  0.1184000E+00
        -11   -1    0    0    0    0  0.00000000000E+00  0.00000000000E+00  0.45593999997E+02  0.45594000000E+02  0.51100000000E-03 0. -1.
         11   -1    0    0    0    0 -0.00000000000E+00 -0.00000000000E+00 -0.45593999997E+02  0.45594000000E+02  0.51100000000E-03 0.  1.
         23    2    1    2    0    0  0.35527136788E-14  0.35527136788E-14 -0.35527136788E-14  0.91188000000E+02  0.91188000000E+02 0.  0.
    9900012    2    3    3    0    0 -0.27287916798E+02 -0.20956014709E+02  0.26454462804E+02  0.47787267772E+02  0.19999985082E+02 0.  0.
        -12    1    3    3    0    0  0.27287916798E+02  0.20956014709E+02 -0.26454462804E+02  0.43400732228E+02  0.00000000000E+00 0.  1.
         11    1    4    4    0    0 -0.23267029850E+02 -0.23541738200E+02  0.24624510343E+02  0.41254510364E+02  0.51100000000E-03 0. -1.
        -11    1    4    4    0    0 -0.43007256770E+01  0.15156379645E+01  0.25387492539E+01  0.52190657998E+01  0.51100000000E-03 0.  1.
         12    1    4    4    0    0  0.27983872938E+00  0.10700855264E+01 -0.70879679271E+00  0.13136916083E+01  0.00000000000E+00 0. -1.
</event>
<event>
 8    1  0.6019723E-011  0.9118800E+02  0.7816164E-02  0.1184000E+00
        -11   -1    0    0    0    0  0.00000000000E+00  0.00000000000E+00  0.45593999997E+02  0.45594000000E+02  0.51100000000E-03 0. -1.
         11   -1    0    0    0    0 -0.00000000000E+00 -0.00000000000E+00 -0.45593999997E+02  0.45594000000E+02  0.51100000000E-03 0.  1.
         23    2    1    2    0    0  0.00000000000E+00  0.00000000000E+00  0.00000000000E+00  0.91188000000E+02  0.91188000000E+02 0.  0.
    9900012    2    3    3    0    0  0.73535587105E+01 -0.30651367866E+02 -0.29833574298E+02  0.47787270361E+02  0.19999996886E+02 0.  0.
         12    1    3    3    0    0 -0.73535587105E+01  0.30651367866E+02  0.29833574298E+02  0.43400729639E+02  0.00000000000E+00 0. -1.
         11    1    4    4    0    0  0.78352999167E+01 -0.96220302102E+01 -0.81416074907E+01  0.14841198164E+02  0.51100000000E-03 0. -1.
        -11    1    4    4    0    0 -0.56455705139E+01 -0.39001100662E+01 -0.69176441575E+01  0.97435684380E+01  0.51100000000E-03 0.  1.
         12    1    4    4    0    0  0.51638293077E+01 -0.17129227590E+02 -0.14774322650E+02  0.23202503759E+02  0.00000000000E+00 0. -1.
</event>
<event>
 8    1  0.7809674E-011  0.9118800E+02  0.7816164E-02  0.1184000E+00
        -11   -1    0    0    0    0  0.00000000000E+00  0.00000000000E+00  0.45593999997E+02  0.45594000000E+02  0.51100000000E-03 0. -1.
         11   -1    0    0    0    0 -0.00000000000E+00 -0.00000000000E+00 -0.45593999997E+02  0.45594000000E+02  0.51100000000E-03 0.  1.
         23    2    1    2    0    0 -0.35527136788E-14  0.17763568394E-14  0.00000000000E+00  0.91188000000E+02  0.91188000000E+02 0.  0.
    9900012    2    3    3    0    0  0.25260493638E+02  0.11580374617E+02 -0.33338049789E+02  0.47787272140E+02  0.20000004995E+02 0.  0.
         12    1    3    3    0    0 -0.25260493638E+02 -0.11580374617E+02  0.33338049789E+02  0.43400727860E+02  0.00000000000E+00 0. -1.
         11    1    4    4    0    0  0.26679814330E+01  0.35383205288E+01  0.10295793278E+01  0.45494912841E+01  0.51100000000E-03 0. -1.
        -11    1    4    4    0    0  0.19447280128E+02  0.42594679325E+01 -0.20736703856E+02  0.28746315565E+02  0.51100000000E-03 0.  1.
         12    1    4    4    0    0  0.31452320762E+01  0.37825861554E+01 -0.13630925260E+02  0.14491465291E+02  0.00000000000E+00 0. -1.
</event>
<event>
 8    1  0.6019723E-011  0.9118800E+02  0.7816164E-02  0.1184000E+00
        -11   -1    0    0    0    0  0.00000000000E+00  0.00000000000E+00  0.45593999997E+02  0.45594000000E+02  0.51100000000E-03 0.  1.
         11   -1    0    0    0    0 -0.00000000000E+00 -0.00000000000E+00 -0.45593999997E+02  0.45594000000E+02  0.51100000000E-03 0. -1.
         23    2    1    2    0    0  0.71054273576E-14  0.00000000000E+00  0.17763568394E-14  0.91188000000E+02  0.91188000000E+02 0.  0.
    9900012    2    3    3    0    0  0.40405052814E+02 -0.50037297923E+01  0.15033867399E+02  0.47787276806E+02  0.20000026271E+02 0.  0.
        -12    1    3    3    0    0 -0.40405052814E+02  0.50037297923E+01 -0.15033867399E+02  0.43400723194E+02  0.00000000000E+00 0.  1.
         11    1    4    4    0    0  0.24376435693E+02  0.10686011910E+01  0.53632670206E+00  0.24405740558E+02  0.51100000000E-03 0. -1.
        -11    1    4    4    0    0  0.13276133554E+02 -0.74740015119E+01  0.11631930428E+02  0.19168156575E+02  0.51100000000E-03 0.  1.
         12    1    4    4    0    0  0.27524835683E+01  0.14016705285E+01  0.28656102685E+01  0.42133796738E+01  0.00000000000E+00 0. -1.
</event>
<event>
 8    1  0.6019723E-011  0.9118800E+02  0.7816164E-02  0.1184000E+00
        -11   -1    0    0    0    0  0.00000000000E+00  0.00000000000E+00  0.45593999997E+02  0.45594000000E+02  0.51100000000E-03 0. -1.
         11   -1    0    0    0    0 -0.00000000000E+00 -0.00000000000E+00 -0.45593999997E+02  0.45594000000E+02  0.51100000000E-03 0.  1.
         23    2    1    2    0    0  0.71054273576E-14  0.00000000000E+00 -0.35527136788E-14  0.91188000000E+02  0.91188000000E+02 0.  0.
    9900012    2    3    3    0    0  0.34680389930E+02  0.99360913116E+01 -0.24128171158E+02  0.47787262683E+02  0.19999961876E+02 0.  0.
         12    1    3    3    0    0 -0.34680389930E+02 -0.99360913116E+01  0.24128171158E+02  0.43400737317E+02  0.00000000000E+00 0. -1.
         11    1    4    4    0    0  0.86969878268E+01 -0.39642147318E+01  0.10584267436E+00  0.95584412240E+01  0.51100000000E-03 0.  1.
        -11    1    4    4    0    0  0.10933805864E+01  0.11733850384E+01 -0.15110934601E+01  0.22035692096E+01  0.51100000000E-03 0. -1.
         12    1    4    4    0    0  0.24890021517E+02  0.12726921005E+02 -0.22722920372E+02  0.36025252249E+02  0.00000000000E+00 0. -1.
</event>
<event>
 8    1  0.6019723E-011  0.9118800E+02  0.7816164E-02  0.1184000E+00
        -11   -1    0    0    0    0  0.00000000000E+00  0.00000000000E+00  0.45593999997E+02  0.45594000000E+02  0.51100000000E-03 0.  1.
         11   -1    0    0    0    0 -0.00000000000E+00 -0.00000000000E+00 -0.45593999997E+02  0.45594000000E+02  0.51100000000E-03 0. -1.
         23    2    1    2    0    0  0.71054273576E-14  0.00000000000E+00 -0.35527136788E-14  0.91188000000E+02  0.91188000000E+02 0.  0.
    9900012    2    3    3    0    0 -0.30397670362E+02  0.16166140275E+02  0.26424614962E+02  0.47787277301E+02  0.20000028528E+02 0.  0.
        -12    1    3    3    0    0  0.30397670362E+02 -0.16166140275E+02 -0.26424614962E+02  0.43400722699E+02  0.00000000000E+00 0.  1.
         11    1    4    4    0    0 -0.28837571308E+02  0.19085701052E+02  0.23205610062E+02  0.41645766198E+02  0.51100000000E-03 0. -1.
        -11    1    4    4    0    0 -0.53248799233E+00  0.10097420589E+01  0.45563089633E+00  0.12291144219E+01  0.51100000000E-03 0.  1.
         12    1    4    4    0    0 -0.10276110624E+01 -0.39293028360E+01  0.27633740036E+01  0.49123966815E+01  0.00000000000E+00 0. -1.
</event>
<event>
 8    1  0.6019723E-011  0.9118800E+02  0.7816164E-02  0.1184000E+00
        -11   -1    0    0    0    0  0.00000000000E+00  0.00000000000E+00  0.45593999997E+02  0.45594000000E+02  0.51100000000E-03 0. -1.
         11   -1    0    0    0    0 -0.00000000000E+00 -0.00000000000E+00 -0.45593999997E+02  0.45594000000E+02  0.51100000000E-03 0.  1.
         23    2    1    2    0    0  0.71054273576E-14  0.35527136788E-14  0.00000000000E+00  0.91188000000E+02  0.91188000000E+02 0.  0.
    9900012    2    3    3    0    0 -0.30746986393E+02  0.16547197098E+02 -0.25776666479E+02  0.47787269144E+02  0.19999991336E+02 0.  0.
         12    1    3    3    0    0  0.30746986393E+02 -0.16547197098E+02  0.25776666479E+02  0.43400730856E+02  0.00000000000E+00 0. -1.
         11    1    4    4    0    0 -0.14836933518E+02  0.69083816394E+01 -0.10036198869E+01  0.16397182265E+02  0.51100000000E-03 0. -1.
        -11    1    4    4    0    0 -0.13433928609E+02  0.66551647070E+01 -0.22002566540E+02  0.26624698867E+02  0.51100000000E-03 0.  1.
        -12    1    4    4    0    0 -0.24761242660E+01  0.29836507520E+01 -0.27704800517E+01  0.47653880123E+01  0.00000000000E+00 0.  1.
</event>
<event>
 8    1  0.6019723E-011  0.9118800E+02  0.7816164E-02  0.1184000E+00
        -11   -1    0    0    0    0  0.00000000000E+00  0.00000000000E+00  0.45593999997E+02  0.45594000000E+02  0.51100000000E-03 0. -1.
         11   -1    0    0    0    0 -0.00000000000E+00 -0.00000000000E+00 -0.45593999997E+02  0.45594000000E+02  0.51100000000E-03 0.  1.
         23    2    1    2    0    0 -0.17763568394E-14  0.35527136788E-14  0.00000000000E+00  0.91188000000E+02  0.91188000000E+02 0.  0.
    9900012    2    3    3    0    0  0.94722479831E+01 -0.23691467830E+02 -0.35108609441E+02  0.47787267441E+02  0.19999983572E+02 0.  0.
         12    1    3    3    0    0 -0.94722479831E+01  0.23691467830E+02  0.35108609441E+02  0.43400732559E+02  0.00000000000E+00 0. -1.
         11    1    4    4    0    0  0.66651539747E+01 -0.52541290569E+01 -0.15745844053E+01  0.86318865819E+01  0.51100000000E-03 0. -1.
        -11    1    4    4    0    0 -0.90056826468E+00 -0.10132675267E+02 -0.11706046001E+02  0.15508502330E+02  0.51100000000E-03 0.  1.
         12    1    4    4    0    0  0.37076622731E+01 -0.83046635058E+01 -0.21827979034E+02  0.23646878530E+02  0.00000000000E+00 0. -1.
</event>
<event>
 8    1  0.6019723E-011  0.9118800E+02  0.7816164E-02  0.1184000E+00
        -11   -1    0    0    0    0  0.00000000000E+00  0.00000000000E+00  0.45593999997E+02  0.45594000000E+02  0.51100000000E-03 0. -1.
         11   -1    0    0    0    0 -0.00000000000E+00 -0.00000000000E+00 -0.45593999997E+02  0.45594000000E+02  0.51100000000E-03 0.  1.
         23    2    1    2    0    0  0.00000000000E+00  0.00000000000E+00  0.00000000000E+00  0.91188000000E+02  0.91188000000E+02 0.  0.
    9900012    2    3    3    0    0  0.23764157802E+02  0.20542080113E+02  0.29948472276E+02  0.47787271399E+02  0.20000001617E+02 0.  0.
        -12    1    3    3    0    0 -0.23764157802E+02 -0.20542080113E+02 -0.29948472276E+02  0.43400728601E+02  0.00000000000E+00 0.  1.
         11    1    4    4    0    0  0.93724635839E+01  0.89693383417E+01  0.22233137080E+02  0.25741105038E+02  0.51100000000E-03 0. -1.
        -11    1    4    4    0    0  0.15049138322E+02  0.12463315612E+02  0.71894084851E+01  0.20820624268E+02  0.51100000000E-03 0.  1.
        -12    1    4    4    0    0 -0.65744410398E+00 -0.89057384070E+00  0.52592671134E+00  0.12255420928E+01  0.00000000000E+00 0.  1.
</event>
<event>
 8    1  0.6019723E-011  0.9118800E+02  0.7816164E-02  0.1184000E+00
        -11   -1    0    0    0    0  0.00000000000E+00  0.00000000000E+00  0.45593999997E+02  0.45594000000E+02  0.51100000000E-03 0. -1.
         11   -1    0    0    0    0 -0.00000000000E+00 -0.00000000000E+00 -0.45593999997E+02  0.45594000000E+02  0.51100000000E-03 0.  1.
         23    2    1    2    0    0  0.00000000000E+00 -0.71054273576E-14  0.00000000000E+00  0.91188000000E+02  0.91188000000E+02 0.  0.
    9900012    2    3    3    0    0 -0.19838665109E+02  0.34040065998E+02  0.18202331285E+02  0.47787267395E+02  0.19999983361E+02 0.  0.
        -12    1    3    3    0    0  0.19838665109E+02 -0.34040065998E+02 -0.18202331285E+02  0.43400732605E+02  0.00000000000E+00 0.  1.
         11    1    4    4    0    0 -0.15577673851E+02  0.14059749792E+02  0.70315686943E+01  0.22131051611E+02  0.51100000000E-03 0. -1.
        -11    1    4    4    0    0  0.17918234276E+01  0.12892587955E+02  0.32289631169E+01  0.13411027494E+02  0.51100000000E-03 0.  1.
        -12    1    4    4    0    0 -0.60528146854E+01  0.70877282503E+01  0.79417994742E+01  0.12245188290E+02  0.00000000000E+00 0.  1.
</event>
<event>
 8    1  0.6019723E-011  0.9118800E+02  0.7816164E-02  0.1184000E+00
        -11   -1    0    0    0    0  0.00000000000E+00  0.00000000000E+00  0.45593999997E+02  0.45594000000E+02  0.51100000000E-03 0.  1.
         11   -1    0    0    0    0 -0.00000000000E+00 -0.00000000000E+00 -0.45593999997E+02  0.45594000000E+02  0.51100000000E-03 0. -1.
         23    2    1    2    0    0  0.00000000000E+00  0.00000000000E+00  0.00000000000E+00  0.91188000000E+02  0.91188000000E+02 0.  0.
    9900012    2    3    3    0    0 -0.23186795326E+01  0.40918026730E+02 -0.14281527074E+02  0.47787271874E+02  0.20000003783E+02 0.  0.
         12    1    3    3    0    0  0.23186795326E+01 -0.40918026730E+02  0.14281527074E+02  0.43400728126E+02  0.00000000000E+00 0. -1.
         11    1    4    4    0    0 -0.13482818373E+01  0.17833048005E+02 -0.10531888027E+02  0.20754665277E+02  0.51100000000E-03 0. -1.
        -11    1    4    4    0    0 -0.93153593206E+00  0.19057453523E+01  0.39611442347E+01  0.44933604852E+01  0.51100000000E-03 0.  1.
        -12    1    4    4    0    0 -0.38861763292E-01  0.21179233373E+02 -0.77107832819E+01  0.22539246112E+02  0.00000000000E+00 0.  1.
</event>
<event>
 8    1  0.6019723E-011  0.9118800E+02  0.7816164E-02  0.1184000E+00
        -11   -1    0    0    0    0  0.00000000000E+00  0.00000000000E+00  0.45593999997E+02  0.45594000000E+02  0.51100000000E-03 0. -1.
         11   -1    0    0    0    0 -0.00000000000E+00 -0.00000000000E+00 -0.45593999997E+02  0.45594000000E+02  0.51100000000E-03 0.  1.
         23    2    1    2    0    0  0.00000000000E+00  0.22204460493E-15  0.71054273576E-14  0.91188000000E+02  0.91188000000E+02 0.  0.
    9900012    2    3    3    0    0  0.21511532180E+02  0.11637260261E+01 -0.37676558845E+02  0.47787270036E+02  0.19999995401E+02 0.  0.
         12    1    3    3    0    0 -0.21511532180E+02 -0.11637260261E+01  0.37676558845E+02  0.43400729964E+02  0.00000000000E+00 0. -1.
         11    1    4    4    0    0  0.18475780954E+01  0.22567334361E+01 -0.13571264452E+02  0.13881124223E+02  0.51100000000E-03 0.  1.
        -11    1    4    4    0    0  0.45884160409E+01  0.12029554620E+01  0.69347547763E+00  0.47939098977E+01  0.51100000000E-03 0. -1.
        -12    1    4    4    0    0  0.15075538044E+02 -0.22959628720E+01 -0.24798769871E+02  0.29112235914E+02  0.00000000000E+00 0.  1.
</event>
<event>
 8    1  0.6019723E-011  0.9118800E+02  0.7816164E-02  0.1184000E+00
        -11   -1    0    0    0    0  0.00000000000E+00  0.00000000000E+00  0.45593999997E+02  0.45594000000E+02  0.51100000000E-03 0. -1.
         11   -1    0    0    0    0 -0.00000000000E+00 -0.00000000000E+00 -0.45593999997E+02  0.45594000000E+02  0.51100000000E-03 0.  1.
         23    2    1    2    0    0  0.00000000000E+00  0.00000000000E+00  0.00000000000E+00  0.91188000000E+02  0.91188000000E+02 0.  0.
    9900012    2    3    3    0    0 -0.14428512987E+02  0.25435442762E+02  0.32069906788E+02  0.47787278152E+02  0.20000032407E+02 0.  0.
        -12    1    3    3    0    0  0.14428512987E+02 -0.25435442762E+02 -0.32069906788E+02  0.43400721848E+02  0.00000000000E+00 0.  1.
         11    1    4    4    0    0 -0.12870329150E+02  0.18538318182E+02  0.13290537308E+02  0.26190704375E+02  0.51100000000E-03 0. -1.
        -11    1    4    4    0    0 -0.14674353621E+01 -0.12809190253E+01  0.69317653006E+01  0.72002423942E+01  0.51100000000E-03 0.  1.
         12    1    4    4    0    0 -0.90748474682E-01  0.81780436052E+01  0.11847604179E+02  0.14396331383E+02  0.00000000000E+00 0. -1.
</event>
<event>
 8    1  0.6019723E-011  0.9118800E+02  0.7816164E-02  0.1184000E+00
        -11   -1    0    0    0    0  0.00000000000E+00  0.00000000000E+00  0.45593999997E+02  0.45594000000E+02  0.51100000000E-03 0.  1.
         11   -1    0    0    0    0 -0.00000000000E+00 -0.00000000000E+00 -0.45593999997E+02  0.45594000000E+02  0.51100000000E-03 0. -1.
         23    2    1    2    0    0  0.00000000000E+00  0.00000000000E+00  0.00000000000E+00  0.91188000000E+02  0.91188000000E+02 0.  0.
    9900012    2    3    3    0    0 -0.10306700727E+02  0.37204291646E+02 -0.19830171360E+02  0.47787273129E+02  0.20000009503E+02 0.  0.
        -12    1    3    3    0    0  0.10306700727E+02 -0.37204291646E+02  0.19830171360E+02  0.43400726871E+02  0.00000000000E+00 0.  1.
         11    1    4    4    0    0 -0.85715747051E+01  0.27599693199E+02 -0.14757492913E+02  0.32449939213E+02  0.51100000000E-03 0. -1.
        -11    1    4    4    0    0  0.45182137976E+01  0.47108700293E+01 -0.20650134653E+01  0.68462276639E+01  0.51100000000E-03 0.  1.
         12    1    4    4    0    0 -0.62533398199E+01  0.48937284177E+01 -0.30076649821E+01  0.84911062515E+01  0.00000000000E+00 0. -1.
</event>
<event>
 8    1  0.6019723E-011  0.9118800E+02  0.7816164E-02  0.1184000E+00
        -11   -1    0    0    0    0  0.00000000000E+00  0.00000000000E+00  0.45593999997E+02  0.45594000000E+02  0.51100000000E-03 0. -1.
         11   -1    0    0    0    0 -0.00000000000E+00 -0.00000000000E+00 -0.45593999997E+02  0.45594000000E+02  0.51100000000E-03 0.  1.
         23    2    1    2    0    0  0.35527136788E-14  0.00000000000E+00  0.00000000000E+00  0.91188000000E+02  0.91188000000E+02 0.  0.
    9900012    2    3    3    0    0  0.10233800095E+02 -0.21057410695E+02 -0.36544193791E+02  0.47787270635E+02  0.19999998134E+02 0.  0.
         12    1    3    3    0    0 -0.10233800095E+02  0.21057410695E+02  0.36544193791E+02  0.43400729365E+02  0.00000000000E+00 0. -1.
         11    1    4    4    0    0  0.11462907435E+02 -0.17548879166E+02 -0.20237295938E+02  0.29136052477E+02  0.51100000000E-03 0. -1.
        -11    1    4    4    0    0 -0.37015995507E+01 -0.79997070801E+00 -0.29512781149E+01  0.48012326688E+01  0.51100000000E-03 0.  1.
        -12    1    4    4    0    0  0.24724922108E+01 -0.27085608219E+01 -0.13355619738E+02  0.13849985489E+02  0.00000000000E+00 0.  1.
</event>
<event>
 8    1  0.6019723E-011  0.9118800E+02  0.7816164E-02  0.1184000E+00
        -11   -1    0    0    0    0  0.00000000000E+00  0.00000000000E+00  0.45593999997E+02  0.45594000000E+02  0.51100000000E-03 0. -1.
         11   -1    0    0    0    0 -0.00000000000E+00 -0.00000000000E+00 -0.45593999997E+02  0.45594000000E+02  0.51100000000E-03 0.  1.
         23    2    1    2    0    0  0.35527136788E-14 -0.35527136788E-14  0.00000000000E+00  0.91188000000E+02  0.91188000000E+02 0.  0.
    9900012    2    3    3    0    0  0.16912828604E+02 -0.15822180385E+02 -0.36704804369E+02  0.47787218587E+02  0.19999760823E+02 0.  0.
         12    1    3    3    0    0 -0.16912828604E+02  0.15822180385E+02  0.36704804369E+02  0.43400781413E+02  0.00000000000E+00 0. -1.
         11    1    4    4    0    0 -0.19018528147E+01 -0.57079128674E+01 -0.73651681767E+01  0.95101533091E+01  0.51100000000E-03 0. -1.
        -11    1    4    4    0    0  0.15068626620E+02 -0.12025660873E+02 -0.18794308963E+02  0.26924079878E+02  0.51100000000E-03 0.  1.
        -12    1    4    4    0    0  0.37460547990E+01  0.19113933550E+01 -0.10545327229E+02  0.11352985399E+02  0.00000000000E+00 0.  1.
</event>
<event>
 8    1  0.6019723E-011  0.9118800E+02  0.7816164E-02  0.1184000E+00
        -11   -1    0    0    0    0  0.00000000000E+00  0.00000000000E+00  0.45593999997E+02  0.45594000000E+02  0.51100000000E-03 0. -1.
         11   -1    0    0    0    0 -0.00000000000E+00 -0.00000000000E+00 -0.45593999997E+02  0.45594000000E+02  0.51100000000E-03 0.  1.
         23    2    1    2    0    0  0.00000000000E+00  0.00000000000E+00  0.00000000000E+00  0.91188000000E+02  0.91188000000E+02 0.  0.
    9900012    2    3    3    0    0 -0.46153789878E+01 -0.26423821541E+02  0.34118961053E+02  0.47787267618E+02  0.19999984376E+02 0.  0.
        -12    1    3    3    0    0  0.46153789878E+01  0.26423821541E+02 -0.34118961053E+02  0.43400732382E+02  0.00000000000E+00 0.  1.
         11    1    4    4    0    0 -0.80391207600E+01 -0.20690839212E+02  0.34273574198E+02  0.40834007622E+02  0.51100000000E-03 0. -1.
        -11    1    4    4    0    0  0.30247163655E+01 -0.32654030037E+01 -0.15167401956E+00  0.44536244945E+01  0.51100000000E-03 0.  1.
         12    1    4    4    0    0  0.39902540674E+00 -0.24675793249E+01 -0.29391259877E-02  0.24996355011E+01  0.00000000000E+00 0. -1.
</event>
<event>
 8    1  0.6019723E-011  0.9118800E+02  0.7816164E-02  0.1184000E+00
        -11   -1    0    0    0    0  0.00000000000E+00  0.00000000000E+00  0.45593999997E+02  0.45594000000E+02  0.51100000000E-03 0. -1.
         11   -1    0    0    0    0 -0.00000000000E+00 -0.00000000000E+00 -0.45593999997E+02  0.45594000000E+02  0.51100000000E-03 0.  1.
         23    2    1    2    0    0  0.00000000000E+00 -0.13322676296E-14 -0.71054273576E-14  0.91188000000E+02  0.91188000000E+02 0.  0.
    9900012    2    3    3    0    0 -0.15853270694E+02  0.17110628022E+01 -0.40365441290E+02  0.47787276756E+02  0.20000026040E+02 0.  0.
         12    1    3    3    0    0  0.15853270694E+02 -0.17110628022E+01  0.40365441290E+02  0.43400723244E+02  0.00000000000E+00 0. -1.
         11    1    4    4    0    0  0.13550846853E+01 -0.25210000146E+01 -0.38344374839E+01  0.47848308912E+01  0.51100000000E-03 0. -1.
        -11    1    4    4    0    0 -0.96131894961E+01  0.73219155980E+01 -0.11572764047E+02  0.16731787958E+02  0.51100000000E-03 0.  1.
        -12    1    4    4    0    0 -0.75951658829E+01 -0.30898527812E+01 -0.24958239759E+02  0.26270657907E+02  0.00000000000E+00 0.  1.
</event>
<event>
 8    1  0.6019723E-011  0.9118800E+02  0.7816164E-02  0.1184000E+00
        -11   -1    0    0    0    0  0.00000000000E+00  0.00000000000E+00  0.45593999997E+02  0.45594000000E+02  0.51100000000E-03 0. -1.
         11   -1    0    0    0    0 -0.00000000000E+00 -0.00000000000E+00 -0.45593999997E+02  0.45594000000E+02  0.51100000000E-03 0.  1.
         23    2    1    2    0    0  0.00000000000E+00  0.00000000000E+00  0.71054273576E-14  0.91188000000E+02  0.91188000000E+02 0.  0.
    9900012    2    3    3    0    0 -0.44932723888E+01  0.10556728558E+02 -0.41856773845E+02  0.47787268078E+02  0.19999986475E+02 0.  0.
         12    1    3    3    0    0  0.44932723888E+01 -0.10556728558E+02  0.41856773845E+02  0.43400731922E+02  0.00000000000E+00 0. -1.
         11    1    4    4    0    0 -0.22171462189E+01  0.67506527570E+01 -0.10791120665E+02  0.12920345795E+02  0.51100000000E-03 0. -1.
        -11    1    4    4    0    0 -0.43829445395E+01 -0.50328463813E+01 -0.11547727512E+02  0.13337531873E+02  0.51100000000E-03 0.  1.
        -12    1    4    4    0    0  0.21068183695E+01  0.88389221822E+01 -0.19517925669E+02  0.21529390409E+02  0.00000000000E+00 0.  1.
</event>
<event>
 8    1  0.6019723E-011  0.9118800E+02  0.7816164E-02  0.1184000E+00
        -11   -1    0    0    0    0  0.00000000000E+00  0.00000000000E+00  0.45593999997E+02  0.45594000000E+02  0.51100000000E-03 0. -1.
         11   -1    0    0    0    0 -0.00000000000E+00 -0.00000000000E+00 -0.45593999997E+02  0.45594000000E+02  0.51100000000E-03 0.  1.
         23    2    1    2    0    0  0.00000000000E+00  0.71054273576E-14  0.00000000000E+00  0.91188000000E+02  0.91188000000E+02 0.  0.
    9900012    2    3    3    0    0 -0.23961539426E+01 -0.39032721194E+02  0.18823654918E+02  0.47787252748E+02  0.19999916580E+02 0.  0.
        -12    1    3    3    0    0  0.23961539426E+01  0.39032721194E+02 -0.18823654918E+02  0.43400747252E+02  0.00000000000E+00 0.  1.
         11    1    4    4    0    0 -0.31684771166E+01 -0.14352349613E+02  0.78717254122E+01  0.16673129516E+02  0.51100000000E-03 0. -1.
        -11    1    4    4    0    0  0.84815397243E+00 -0.24430954365E+02  0.47452527816E+01  0.24901974231E+02  0.51100000000E-03 0.  1.
        -12    1    4    4    0    0 -0.75830798431E-01 -0.24941721627E+00  0.62066767238E+01  0.62121490011E+01  0.00000000000E+00 0.  1.
</event>
<event>
 8    1  0.6019723E-011  0.9118800E+02  0.7816164E-02  0.1184000E+00
        -11   -1    0    0    0    0  0.00000000000E+00  0.00000000000E+00  0.45593999997E+02  0.45594000000E+02  0.51100000000E-03 0. -1.
         11   -1    0    0    0    0 -0.00000000000E+00 -0.00000000000E+00 -0.45593999997E+02  0.45594000000E+02  0.51100000000E-03 0.  1.
         23    2    1    2    0    0  0.35527136788E-14  0.17763568394E-14 -0.35527136788E-14  0.91188000000E+02  0.91188000000E+02 0.  0.
    9900012    2    3    3    0    0  0.26250506624E+02  0.14296432204E+02 -0.31466588516E+02  0.47787271151E+02  0.20000000486E+02 0.  0.
         12    1    3    3    0    0 -0.26250506624E+02 -0.14296432204E+02  0.31466588516E+02  0.43400728849E+02  0.00000000000E+00 0. -1.
         11    1    4    4    0    0  0.90590356932E+01 -0.33362685187E+01 -0.11654273881E+02  0.15133370916E+02  0.51100000000E-03 0. -1.
        -11    1    4    4    0    0  0.14779124388E+02  0.11590500688E+02 -0.11226086860E+02  0.21881207698E+02  0.51100000000E-03 0.  1.
        -12    1    4    4    0    0  0.24123465433E+01  0.60422000345E+01 -0.85862277750E+01  0.10772692537E+02  0.00000000000E+00 0.  1.
</event>
<event>
 8    1  0.6019723E-011  0.9118800E+02  0.7816164E-02  0.1184000E+00
        -11   -1    0    0    0    0  0.00000000000E+00  0.00000000000E+00  0.45593999997E+02  0.45594000000E+02  0.51100000000E-03 0. -1.
         11   -1    0    0    0    0 -0.00000000000E+00 -0.00000000000E+00 -0.45593999997E+02  0.45594000000E+02  0.51100000000E-03 0.  1.
         23    2    1    2    0    0  0.00000000000E+00  0.00000000000E+00  0.00000000000E+00  0.91188000000E+02  0.91188000000E+02 0.  0.
    9900012    2    3    3    0    0 -0.21446025761E+02  0.18156958875E+02  0.33075905580E+02  0.47787277581E+02  0.20000029803E+02 0.  0.
        -12    1    3    3    0    0  0.21446025761E+02 -0.18156958875E+02 -0.33075905580E+02  0.43400722419E+02  0.00000000000E+00 0.  1.
         11    1    4    4    0    0 -0.65762284855E+01  0.23353102205E+01  0.18611281453E+02  0.19876625783E+02  0.51100000000E-03 0. -1.
        -11    1    4    4    0    0 -0.15007188157E+02  0.13363532458E+02  0.15357961215E+02  0.25291632393E+02  0.51100000000E-03 0.  1.
        -12    1    4    4    0    0  0.13739088142E+00  0.24581161969E+01 -0.89333708843E+00  0.26190194053E+01  0.00000000000E+00 0.  1.
</event>
<event>
 8    1  0.6019723E-011  0.9118800E+02  0.7816164E-02  0.1184000E+00
        -11   -1    0    0    0    0  0.00000000000E+00  0.00000000000E+00  0.45593999997E+02  0.45594000000E+02  0.51100000000E-03 0. -1.
         11   -1    0    0    0    0 -0.00000000000E+00 -0.00000000000E+00 -0.45593999997E+02  0.45594000000E+02  0.51100000000E-03 0.  1.
         23    2    1    2    0    0 -0.35527136788E-14 -0.17763568394E-14 -0.35527136788E-14  0.91188000000E+02  0.91188000000E+02 0.  0.
    9900012    2    3    3    0    0  0.28707240344E+02  0.14444629849E+02  0.29169682452E+02  0.47787270121E+02  0.19999995790E+02 0.  0.
        -12    1    3    3    0    0 -0.28707240344E+02 -0.14444629849E+02 -0.29169682452E+02  0.43400729879E+02  0.00000000000E+00 0.  1.
         11    1    4    4    0    0  0.16923539363E+01  0.79728720101E+01  0.44905799069E+01  0.93057003012E+01  0.51100000000E-03 0. -1.
        -11    1    4    4    0    0  0.92510748599E+01 -0.16098309481E+01  0.11880905864E+02  0.15143641113E+02  0.51100000000E-03 0.  1.
         12    1    4    4    0    0  0.17763811548E+02  0.80815887870E+01  0.12798196682E+02  0.23337928707E+02  0.00000000000E+00 0. -1.
</event>
<event>
 8    1  0.6019723E-011  0.9118800E+02  0.7816164E-02  0.1184000E+00
        -11   -1    0    0    0    0  0.00000000000E+00  0.00000000000E+00  0.45593999997E+02  0.45594000000E+02  0.51100000000E-03 0. -1.
         11   -1    0    0    0    0 -0.00000000000E+00 -0.00000000000E+00 -0.45593999997E+02  0.45594000000E+02  0.51100000000E-03 0.  1.
         23    2    1    2    0    0 -0.88817841970E-15 -0.35527136788E-14  0.00000000000E+00  0.91188000000E+02  0.91188000000E+02 0.  0.
    9900012    2    3    3    0    0 -0.39397570884E+01 -0.28354927429E+02  0.32620541377E+02  0.47787270569E+02  0.19999997832E+02 0.  0.
        -12    1    3    3    0    0  0.39397570884E+01  0.28354927429E+02 -0.32620541377E+02  0.43400729431E+02  0.00000000000E+00 0.  1.
         11    1    4    4    0    0  0.45671118509E+01 -0.10609260658E+02  0.13471340620E+02  0.17745194863E+02  0.51100000000E-03 0. -1.
        -11    1    4    4    0    0 -0.92448227297E+01 -0.13403833671E+02  0.81805005171E+01  0.18222241721E+02  0.51100000000E-03 0.  1.
        -12    1    4    4    0    0  0.73795379034E+00 -0.43418331006E+01  0.10968700240E+02  0.11819833985E+02  0.00000000000E+00 0.  1.
</event>
<event>
 8    1  0.6019723E-011  0.9118800E+02  0.7816164E-02  0.1184000E+00
        -11   -1    0    0    0    0  0.00000000000E+00  0.00000000000E+00  0.45593999997E+02  0.45594000000E+02  0.51100000000E-03 0. -1.
         11   -1    0    0    0    0 -0.00000000000E+00 -0.00000000000E+00 -0.45593999997E+02  0.45594000000E+02  0.51100000000E-03 0.  1.
         23    2    1    2    0    0  0.00000000000E+00  0.00000000000E+00 -0.71054273576E-14  0.91188000000E+02  0.91188000000E+02 0.  0.
    9900012    2    3    3    0    0 -0.11666874444E+02 -0.22901515468E+02  0.34971833131E+02  0.47787257120E+02  0.19999936512E+02 0.  0.
        -12    1    3    3    0    0  0.11666874444E+02  0.22901515468E+02 -0.34971833131E+02  0.43400742880E+02  0.00000000000E+00 0.  1.
         11    1    4    4    0    0 -0.56790738813E+00  0.18914524578E+01  0.95626971760E+01  0.97644912178E+01  0.51100000000E-03 0. -1.
        -11    1    4    4    0    0 -0.75737066574E+01 -0.11509177363E+02  0.17110830326E+02  0.21968220474E+02  0.51100000000E-03 0.  1.
         12    1    4    4    0    0 -0.35252603988E+01 -0.13283790562E+02  0.82983056292E+01  0.16054545428E+02  0.00000000000E+00 0. -1.
</event>
<event>
 8    1  0.6019723E-011  0.9118800E+02  0.7816164E-02  0.1184000E+00
        -11   -1    0    0    0    0  0.00000000000E+00  0.00000000000E+00  0.45593999997E+02  0.45594000000E+02  0.51100000000E-03 0. -1.
         11   -1    0    0    0    0 -0.00000000000E+00 -0.00000000000E+00 -0.45593999997E+02  0.45594000000E+02  0.51100000000E-03 0.  1.
         23    2    1    2    0    0  0.00000000000E+00  0.00000000000E+00 -0.35527136788E-14  0.91188000000E+02  0.91188000000E+02 0.  0.
    9900012    2    3    3    0    0  0.32301270228E+02  0.17547613930E+02 -0.23072336339E+02  0.47787268242E+02  0.19999987224E+02 0.  0.
         12    1    3    3    0    0 -0.32301270228E+02 -0.17547613930E+02  0.23072336339E+02  0.43400731758E+02  0.00000000000E+00 0. -1.
         11    1    4    4    0    0  0.20841385526E+02  0.92487076226E+01 -0.37993783650E+01  0.23115735324E+02  0.51100000000E-03 0. -1.
        -11    1    4    4    0    0  0.10414797819E+02  0.44042845359E+01 -0.15147112538E+02  0.18902400757E+02  0.51100000000E-03 0.  1.
         12    1    4    4    0    0  0.10450868826E+01  0.38946217717E+01 -0.41258454361E+01  0.57691321617E+01  0.00000000000E+00 0. -1.
</event>
<event>
 8    1  0.6019723E-011  0.9118800E+02  0.7816164E-02  0.1184000E+00
        -11   -1    0    0    0    0  0.00000000000E+00  0.00000000000E+00  0.45593999997E+02  0.45594000000E+02  0.51100000000E-03 0. -1.
         11   -1    0    0    0    0 -0.00000000000E+00 -0.00000000000E+00 -0.45593999997E+02  0.45594000000E+02  0.51100000000E-03 0.  1.
         23    2    1    2    0    0  0.00000000000E+00  0.00000000000E+00  0.71054273576E-14  0.91188000000E+02  0.91188000000E+02 0.  0.
    9900012    2    3    3    0    0 -0.22927039673E+02  0.11152172098E+02  0.35122694107E+02  0.47787265766E+02  0.19999975934E+02 0.  0.
        -12    1    3    3    0    0  0.22927039673E+02 -0.11152172098E+02 -0.35122694107E+02  0.43400734234E+02  0.00000000000E+00 0.  1.
         11    1    4    4    0    0 -0.31368935967E+01  0.79607528530E+01  0.99311609251E+01  0.13108838431E+02  0.51100000000E-03 0. -1.
        -11    1    4    4    0    0 -0.20849201711E+02  0.49038045200E+01  0.24517336815E+02  0.32555127331E+02  0.51100000000E-03 0.  1.
        -12    1    4    4    0    0  0.10590556345E+01 -0.17123852752E+01  0.67419636730E+00  0.21233000046E+01  0.00000000000E+00 0.  1.
</event>
<event>
 8    1  0.6019723E-011  0.9118800E+02  0.7816164E-02  0.1184000E+00
        -11   -1    0    0    0    0  0.00000000000E+00  0.00000000000E+00  0.45593999997E+02  0.45594000000E+02  0.51100000000E-03 0. -1.
         11   -1    0    0    0    0 -0.00000000000E+00 -0.00000000000E+00 -0.45593999997E+02  0.45594000000E+02  0.51100000000E-03 0.  1.
         23    2    1    2    0    0  0.00000000000E+00  0.00000000000E+00  0.00000000000E+00  0.91188000000E+02  0.91188000000E+02 0.  0.
    9900012    2    3    3    0    0 -0.17920076435E+02 -0.10704574100E+02  0.38051333207E+02  0.47787297184E+02  0.20000119179E+02 0.  0.
        -12    1    3    3    0    0  0.17920076435E+02  0.10704574100E+02 -0.38051333207E+02  0.43400702816E+02  0.00000000000E+00 0.  1.
         11    1    4    4    0    0 -0.37624264267E+01 -0.24009952422E+01  0.62685004886E+01  0.76951107468E+01  0.51100000000E-03 0. -1.
        -11    1    4    4    0    0 -0.11971444240E+02 -0.13470428129E+02  0.19295048781E+02  0.26402023008E+02  0.51100000000E-03 0.  1.
        -12    1    4    4    0    0 -0.21862057683E+01  0.51668492711E+01  0.12487783937E+02  0.13690163429E+02  0.00000000000E+00 0.  1.
</event>
<event>
 8    1  0.6019723E-011  0.9118800E+02  0.7816164E-02  0.1184000E+00
        -11   -1    0    0    0    0  0.00000000000E+00  0.00000000000E+00  0.45593999997E+02  0.45594000000E+02  0.51100000000E-03 0.  1.
         11   -1    0    0    0    0 -0.00000000000E+00 -0.00000000000E+00 -0.45593999997E+02  0.45594000000E+02  0.51100000000E-03 0. -1.
         23    2    1    2    0    0 -0.17763568394E-14  0.00000000000E+00 -0.88817841970E-15  0.91188000000E+02  0.91188000000E+02 0.  0.
    9900012    2    3    3    0    0 -0.13056535566E+02 -0.41210922182E+02 -0.38484450184E+01  0.47787265477E+02  0.19999974617E+02 0.  0.
         12    1    3    3    0    0  0.13056535566E+02  0.41210922182E+02  0.38484450184E+01  0.43400734523E+02  0.00000000000E+00 0. -1.
         11    1    4    4    0    0 -0.25732151551E+01 -0.12301428793E+02  0.44938523681E+01  0.13346958303E+02  0.51100000000E-03 0. -1.
        -11    1    4    4    0    0 -0.20070757249E+01 -0.10635718230E+02 -0.93049950699E+01  0.14273394437E+02  0.51100000000E-03 0.  1.
        -12    1    4    4    0    0 -0.84762446862E+01 -0.18273775159E+02  0.96269768345E+00  0.20166912738E+02  0.00000000000E+00 0.  1.
</event>
<event>
 8    1  0.6019723E-011  0.9118800E+02  0.7816164E-02  0.1184000E+00
        -11   -1    0    0    0    0  0.00000000000E+00  0.00000000000E+00  0.45593999997E+02  0.45594000000E+02  0.51100000000E-03 0.  1.
         11   -1    0    0    0    0 -0.00000000000E+00 -0.00000000000E+00 -0.45593999997E+02  0.45594000000E+02  0.51100000000E-03 0. -1.
         23    2    1    2    0    0 -0.71054273576E-14  0.00000000000E+00 -0.17763568394E-14  0.91188000000E+02  0.91188000000E+02 0.  0.
    9900012    2    3    3    0    0 -0.40203621936E+02 -0.50622164842E+01 -0.15545592219E+02  0.47787277771E+02  0.20000030670E+02 0.  0.
         12    1    3    3    0    0  0.40203621936E+02  0.50622164842E+01  0.15545592219E+02  0.43400722229E+02  0.00000000000E+00 0. -1.
         11    1    4    4    0    0 -0.36599597699E+01  0.43558115462E+01 -0.40841266030E+01  0.70034627231E+01  0.51100000000E-03 0. -1.
        -11    1    4    4    0    0 -0.33608018718E+02 -0.64362048921E+01 -0.75198697345E+01  0.35035297867E+02  0.51100000000E-03 0.  1.
        -12    1    4    4    0    0 -0.29356434483E+01 -0.29818231383E+01 -0.39415958816E+01  0.57485171808E+01  0.00000000000E+00 0.  1.
</event>
<event>
 8    1  0.6019723E-011  0.9118800E+02  0.7816164E-02  0.1184000E+00
        -11   -1    0    0    0    0  0.00000000000E+00  0.00000000000E+00  0.45593999997E+02  0.45594000000E+02  0.51100000000E-03 0. -1.
         11   -1    0    0    0    0 -0.00000000000E+00 -0.00000000000E+00 -0.45593999997E+02  0.45594000000E+02  0.51100000000E-03 0.  1.
         23    2    1    2    0    0  0.35527136788E-14  0.00000000000E+00  0.00000000000E+00  0.91188000000E+02  0.91188000000E+02 0.  0.
    9900012    2    3    3    0    0  0.29929299021E+02  0.15995778115E+02 -0.27055404195E+02  0.47787277039E+02  0.20000027330E+02 0.  0.
         12    1    3    3    0    0 -0.29929299021E+02 -0.15995778115E+02  0.27055404195E+02  0.43400722961E+02  0.00000000000E+00 0. -1.
         11    1    4    4    0    0  0.62510690264E+01  0.10180198838E+02 -0.15392534187E+02  0.19484414831E+02  0.51100000000E-03 0.  1.
        -11    1    4    4    0    0  0.35946162587E+01  0.42955555980E+01 -0.32467808044E+01  0.64741524384E+01  0.51100000000E-03 0. -1.
         12    1    4    4    0    0  0.20083613736E+02  0.15200236791E+01 -0.84160892035E+01  0.21828709769E+02  0.00000000000E+00 0. -1.
</event>
<event>
 8    1  0.6019723E-011  0.9118800E+02  0.7816164E-02  0.1184000E+00
        -11   -1    0    0    0    0  0.00000000000E+00  0.00000000000E+00  0.45593999997E+02  0.45594000000E+02  0.51100000000E-03 0. -1.
         11   -1    0    0    0    0 -0.00000000000E+00 -0.00000000000E+00 -0.45593999997E+02  0.45594000000E+02  0.51100000000E-03 0.  1.
         23    2    1    2    0    0  0.17763568394E-14  0.00000000000E+00 -0.35527136788E-14  0.91188000000E+02  0.91188000000E+02 0.  0.
    9900012    2    3    3    0    0  0.14489632383E+02 -0.31208291153E+02 -0.26452165299E+02  0.47787263459E+02  0.19999965413E+02 0.  0.
         12    1    3    3    0    0 -0.14489632383E+02  0.31208291153E+02  0.26452165299E+02  0.43400736541E+02  0.00000000000E+00 0. -1.
         11    1    4    4    0    0 -0.87718791372E+00 -0.16654033238E+02 -0.52685571388E+01  0.17489539054E+02  0.51100000000E-03 0. -1.
        -11    1    4    4    0    0  0.12457242106E+02 -0.13500540746E+02 -0.16548077255E+02  0.24724205597E+02  0.51100000000E-03 0.  1.
        -12    1    4    4    0    0  0.29095781907E+01 -0.10537171694E+01 -0.46355309055E+01  0.55735188075E+01  0.00000000000E+00 0.  1.
</event>
<event>
 8    1  0.6019723E-011  0.9118800E+02  0.7816164E-02  0.1184000E+00
        -11   -1    0    0    0    0  0.00000000000E+00  0.00000000000E+00  0.45593999997E+02  0.45594000000E+02  0.51100000000E-03 0. -1.
         11   -1    0    0    0    0 -0.00000000000E+00 -0.00000000000E+00 -0.45593999997E+02  0.45594000000E+02  0.51100000000E-03 0.  1.
         23    2    1    2    0    0  0.17763568394E-14 -0.71054273576E-14  0.00000000000E+00  0.91188000000E+02  0.91188000000E+02 0.  0.
    9900012    2    3    3    0    0  0.99738016882E+01  0.41707521534E+02  0.66805871395E+01  0.47787259026E+02  0.19999945202E+02 0.  0.
        -12    1    3    3    0    0 -0.99738016882E+01 -0.41707521534E+02 -0.66805871395E+01  0.43400740974E+02  0.00000000000E+00 0.  1.
         11    1    4    4    0    0  0.10358545320E+02  0.34380522820E+02 -0.43374523996E-03  0.35907099729E+02  0.51100000000E-03 0. -1.
        -11    1    4    4    0    0  0.11342658308E+01  0.31401464024E+01  0.66331439569E+01  0.74260135616E+01  0.51100000000E-03 0.  1.
        -12    1    4    4    0    0 -0.15190094630E+01  0.41868523117E+01  0.47876927804E-01  0.44541457350E+01  0.00000000000E+00 0.  1.
</event>
<event>
 8    1  0.6019723E-011  0.9118800E+02  0.7816164E-02  0.1184000E+00
        -11   -1    0    0    0    0  0.00000000000E+00  0.00000000000E+00  0.45593999997E+02  0.45594000000E+02  0.51100000000E-03 0. -1.
         11   -1    0    0    0    0 -0.00000000000E+00 -0.00000000000E+00 -0.45593999997E+02  0.45594000000E+02  0.51100000000E-03 0.  1.
         23    2    1    2    0    0  0.44408920985E-15  0.35527136788E-14 -0.71054273576E-14  0.91188000000E+02  0.91188000000E+02 0.  0.
    9900012    2    3    3    0    0 -0.19087691242E+01 -0.30155942247E+02  0.31154438499E+02  0.47787270852E+02  0.19999999124E+02 0.  0.
        -12    1    3    3    0    0  0.19087691242E+01  0.30155942247E+02 -0.31154438499E+02  0.43400729148E+02  0.00000000000E+00 0.  1.
         11    1    4    4    0    0 -0.43117662286E+00 -0.85382889952E+01  0.37983831281E+01  0.93549990323E+01  0.51100000000E-03 0. -1.
        -11    1    4    4    0    0 -0.11283483657E+01 -0.22832039739E+02  0.18283651637E+02  0.29272292806E+02  0.51100000000E-03 0.  1.
        -12    1    4    4    0    0 -0.34924413568E+00  0.12143864880E+01  0.90724037347E+01  0.91599790138E+01  0.00000000000E+00 0.  1.
</event>
<event>
 8    1  0.6019723E-011  0.9118800E+02  0.7816164E-02  0.1184000E+00
        -11   -1    0    0    0    0  0.00000000000E+00  0.00000000000E+00  0.45593999997E+02  0.45594000000E+02  0.51100000000E-03 0. -1.
         11   -1    0    0    0    0 -0.00000000000E+00 -0.00000000000E+00 -0.45593999997E+02  0.45594000000E+02  0.51100000000E-03 0.  1.
         23    2    1    2    0    0  0.00000000000E+00  0.88817841970E-15  0.00000000000E+00  0.91188000000E+02  0.91188000000E+02 0.  0.
    9900012    2    3    3    0    0 -0.63565536713E+01 -0.63951301848E+01  0.42453728697E+02  0.47787279442E+02  0.20000038288E+02 0.  0.
        -12    1    3    3    0    0  0.63565536713E+01  0.63951301848E+01 -0.42453728697E+02  0.43400720558E+02  0.00000000000E+00 0.  1.
         11    1    4    4    0    0 -0.10371988230E+01  0.38429520541E+01  0.38331564763E+01  0.55260429533E+01  0.51100000000E-03 0. -1.
        -11    1    4    4    0    0 -0.38950546590E+01 -0.82810367534E+01  0.38770726091E+02  0.39836117059E+02  0.51100000000E-03 0.  1.
        -12    1    4    4    0    0 -0.14243001894E+01 -0.19570454854E+01 -0.15015386986E+00  0.24251194292E+01  0.00000000000E+00 0.  1.
</event>
<event>
 8    1  0.6019723E-011  0.9118800E+02  0.7816164E-02  0.1184000E+00
        -11   -1    0    0    0    0  0.00000000000E+00  0.00000000000E+00  0.45593999997E+02  0.45594000000E+02  0.51100000000E-03 0. -1.
         11   -1    0    0    0    0 -0.00000000000E+00 -0.00000000000E+00 -0.45593999997E+02  0.45594000000E+02  0.51100000000E-03 0.  1.
         23    2    1    2    0    0  0.00000000000E+00 -0.88817841970E-15  0.00000000000E+00  0.91188000000E+02  0.91188000000E+02 0.  0.
    9900012    2    3    3    0    0  0.20582093745E+02  0.52266360767E+01 -0.37850799427E+02  0.47787270457E+02  0.19999997320E+02 0.  0.
         12    1    3    3    0    0 -0.20582093745E+02 -0.52266360767E+01  0.37850799427E+02  0.43400729543E+02  0.00000000000E+00 0. -1.
         11    1    4    4    0    0 -0.93735849204E+00 -0.23227012502E+01 -0.23842894643E+01  0.34580946417E+01  0.51100000000E-03 0. -1.
        -11    1    4    4    0    0  0.18038692239E+02  0.83067666772E+01 -0.35599788454E+02  0.40764466494E+02  0.51100000000E-03 0.  1.
        -12    1    4    4    0    0  0.34807599983E+01 -0.75742935027E+00  0.13327849077E+00  0.35647093209E+01  0.00000000000E+00 0.  1.
</event>
<event>
 8    1  0.6019723E-011  0.9118800E+02  0.7816164E-02  0.1184000E+00
        -11   -1    0    0    0    0  0.00000000000E+00  0.00000000000E+00  0.45593999997E+02  0.45594000000E+02  0.51100000000E-03 0.  1.
         11   -1    0    0    0    0 -0.00000000000E+00 -0.00000000000E+00 -0.45593999997E+02  0.45594000000E+02  0.51100000000E-03 0. -1.
         23    2    1    2    0    0  0.00000000000E+00  0.71054273576E-14  0.35527136788E-14  0.91188000000E+02  0.91188000000E+02 0.  0.
    9900012    2    3    3    0    0 -0.96387890608E+01  0.37393074813E+02  0.19810984140E+02  0.47787269694E+02  0.19999993841E+02 0.  0.
         12    1    3    3    0    0  0.96387890608E+01 -0.37393074813E+02 -0.19810984140E+02  0.43400730306E+02  0.00000000000E+00 0. -1.
         11    1    4    4    0    0 -0.18450856682E+01  0.14700319160E+01  0.71472423543E+01  0.75265137008E+01  0.51100000000E-03 0. -1.
        -11    1    4    4    0    0 -0.16114913460E+01  0.11168436643E+02  0.91039607804E+01  0.14498723515E+02  0.51100000000E-03 0.  1.
         12    1    4    4    0    0 -0.61822120466E+01  0.24754606254E+02  0.35597810053E+01  0.25762032478E+02  0.00000000000E+00 0. -1.
</event>
<event>
 8    1  0.6019723E-011  0.9118800E+02  0.7816164E-02  0.1184000E+00
        -11   -1    0    0    0    0  0.00000000000E+00  0.00000000000E+00  0.45593999997E+02  0.45594000000E+02  0.51100000000E-03 0. -1.
         11   -1    0    0    0    0 -0.00000000000E+00 -0.00000000000E+00 -0.45593999997E+02  0.45594000000E+02  0.51100000000E-03 0.  1.
         23    2    1    2    0    0 -0.88817841970E-15  0.00000000000E+00  0.00000000000E+00  0.91188000000E+02  0.91188000000E+02 0.  0.
    9900012    2    3    3    0    0 -0.60873715221E+01  0.28225434241E+02  0.32402039062E+02  0.47787269989E+02  0.19999995187E+02 0.  0.
        -12    1    3    3    0    0  0.60873715221E+01 -0.28225434241E+02 -0.32402039062E+02  0.43400730011E+02  0.00000000000E+00 0.  1.
         11    1    4    4    0    0 -0.73467120421E+01  0.92171681046E+01  0.81237139310E+01  0.14315204993E+02  0.51100000000E-03 0. -1.
        -11    1    4    4    0    0  0.49730280937E+01  0.17579983623E+02  0.15993192488E+02  0.24281042787E+02  0.51100000000E-03 0.  1.
        -12    1    4    4    0    0 -0.37136875737E+01  0.14282825130E+01  0.82851326429E+01  0.91910222088E+01  0.00000000000E+00 0.  1.
</event>
<event>
 8    1  0.6019723E-011  0.9118800E+02  0.7816164E-02  0.1184000E+00
        -11   -1    0    0    0    0  0.00000000000E+00  0.00000000000E+00  0.45593999997E+02  0.45594000000E+02  0.51100000000E-03 0. -1.
         11   -1    0    0    0    0 -0.00000000000E+00 -0.00000000000E+00 -0.45593999997E+02  0.45594000000E+02  0.51100000000E-03 0.  1.
         23    2    1    2    0    0 -0.35527136788E-14  0.88817841970E-15  0.00000000000E+00  0.91188000000E+02  0.91188000000E+02 0.  0.
    9900012    2    3    3    0    0  0.27253424098E+02 -0.71877987408E+01 -0.33003174876E+02  0.47787272728E+02  0.20000007676E+02 0.  0.
         12    1    3    3    0    0 -0.27253424098E+02  0.71877987408E+01  0.33003174876E+02  0.43400727272E+02  0.00000000000E+00 0. -1.
         11    1    4    4    0    0 -0.24527911247E+01 -0.24865346776E+01 -0.49619680470E+01  0.60679622746E+01  0.51100000000E-03 0. -1.
        -11    1    4    4    0    0  0.27677843978E+02 -0.33430645198E+01 -0.23090912820E+02  0.36199853353E+02  0.51100000000E-03 0.  1.
         12    1    4    4    0    0  0.20283712452E+01 -0.13581995434E+01 -0.49502940088E+01  0.55194571002E+01  0.00000000000E+00 0. -1.
</event>
<event>
 8    1  0.6019723E-011  0.9118800E+02  0.7816164E-02  0.1184000E+00
        -11   -1    0    0    0    0  0.00000000000E+00  0.00000000000E+00  0.45593999997E+02  0.45594000000E+02  0.51100000000E-03 0. -1.
         11   -1    0    0    0    0 -0.00000000000E+00 -0.00000000000E+00 -0.45593999997E+02  0.45594000000E+02  0.51100000000E-03 0.  1.
         23    2    1    2    0    0  0.00000000000E+00  0.00000000000E+00  0.71054273576E-14  0.91188000000E+02  0.91188000000E+02 0.  0.
    9900012    2    3    3    0    0 -0.61381021235E+01 -0.22211080297E+02  0.36777913964E+02  0.47787270269E+02  0.19999996465E+02 0.  0.
        -12    1    3    3    0    0  0.61381021235E+01  0.22211080297E+02 -0.36777913964E+02  0.43400729731E+02  0.00000000000E+00 0.  1.
         11    1    4    4    0    0  0.16735778777E+01 -0.15855955533E+02  0.24761675538E+02  0.29450853374E+02  0.51100000000E-03 0. -1.
        -11    1    4    4    0    0 -0.46176956999E+01 -0.85644292898E+01  0.10031191935E+02  0.13974883704E+02  0.51100000000E-03 0.  1.
         12    1    4    4    0    0 -0.31939843012E+01  0.22093045259E+01  0.19850464907E+01  0.43615331908E+01  0.00000000000E+00 0. -1.
</event>
<event>
 8    1  0.6019723E-011  0.9118800E+02  0.7816164E-02  0.1184000E+00
        -11   -1    0    0    0    0  0.00000000000E+00  0.00000000000E+00  0.45593999997E+02  0.45594000000E+02  0.51100000000E-03 0. -1.
         11   -1    0    0    0    0 -0.00000000000E+00 -0.00000000000E+00 -0.45593999997E+02  0.45594000000E+02  0.51100000000E-03 0.  1.
         23    2    1    2    0    0  0.00000000000E+00  0.00000000000E+00  0.35527136788E-14  0.91188000000E+02  0.91188000000E+02 0.  0.
    9900012    2    3    3    0    0 -0.28403123291E+02  0.10422606655E+02  0.31116801125E+02  0.47787268964E+02  0.19999990516E+02 0.  0.
        -12    1    3    3    0    0  0.28403123291E+02 -0.10422606655E+02 -0.31116801125E+02  0.43400731036E+02  0.00000000000E+00 0.  1.
         11    1    4    4    0    0 -0.12940809482E+02  0.40640307865E+01  0.18818446974E+02  0.23197302496E+02  0.51100000000E-03 0. -1.
        -11    1    4    4    0    0 -0.62003271049E+01  0.95441630898E+01  0.53173619242E+01  0.12562222868E+02  0.51100000000E-03 0.  1.
        -12    1    4    4    0    0 -0.92619867047E+01 -0.31855872214E+01  0.69809922262E+01  0.12027743601E+02  0.00000000000E+00 0.  1.
</event>
<event>
 8    1  0.6019723E-011  0.9118800E+02  0.7816164E-02  0.1184000E+00
        -11   -1    0    0    0    0  0.00000000000E+00  0.00000000000E+00  0.45593999997E+02  0.45594000000E+02  0.51100000000E-03 0. -1.
         11   -1    0    0    0    0 -0.00000000000E+00 -0.00000000000E+00 -0.45593999997E+02  0.45594000000E+02  0.51100000000E-03 0.  1.
         23    2    1    2    0    0  0.00000000000E+00  0.00000000000E+00  0.00000000000E+00  0.91188000000E+02  0.91188000000E+02 0.  0.
    9900012    2    3    3    0    0  0.71905992849E+01  0.19563792882E+02 -0.38068045039E+02  0.47787276929E+02  0.20000026831E+02 0.  0.
         12    1    3    3    0    0 -0.71905992849E+01 -0.19563792882E+02  0.38068045039E+02  0.43400723071E+02  0.00000000000E+00 0. -1.
         11    1    4    4    0    0 -0.48907504032E+00  0.32792230355E+01 -0.26576848899E+01  0.42492102027E+01  0.51100000000E-03 0. -1.
        -11    1    4    4    0    0 -0.46320171506E-01  0.17180207518E+02 -0.20723249363E+02  0.26918668992E+02  0.51100000000E-03 0.  1.
        -12    1    4    4    0    0  0.77259944967E+01 -0.89563767156E+00 -0.14687110786E+02  0.16619397734E+02  0.00000000000E+00 0.  1.
</event>
<event>
 8    1  0.6019723E-011  0.9118800E+02  0.7816164E-02  0.1184000E+00
        -11   -1    0    0    0    0  0.00000000000E+00  0.00000000000E+00  0.45593999997E+02  0.45594000000E+02  0.51100000000E-03 0.  1.
         11   -1    0    0    0    0 -0.00000000000E+00 -0.00000000000E+00 -0.45593999997E+02  0.45594000000E+02  0.51100000000E-03 0. -1.
         23    2    1    2    0    0 -0.17763568394E-14  0.00000000000E+00  0.00000000000E+00  0.91188000000E+02  0.91188000000E+02 0.  0.
    9900012    2    3    3    0    0 -0.14745926324E+02  0.37154804280E+02  0.16902708537E+02  0.47787269821E+02  0.19999994421E+02 0.  0.
        -12    1    3    3    0    0  0.14745926324E+02 -0.37154804280E+02 -0.16902708537E+02  0.43400730179E+02  0.00000000000E+00 0.  1.
         11    1    4    4    0    0 -0.60397217825E+01  0.21404971253E+01  0.58690157905E+01  0.86893793658E+01  0.51100000000E-03 0.  1.
        -11    1    4    4    0    0 -0.18837099227E+01  0.25418348373E+02  0.96035701857E+01  0.27237278823E+02  0.51100000000E-03 0. -1.
         12    1    4    4    0    0 -0.68224946188E+01  0.95959587813E+01  0.14301225603E+01  0.11860611632E+02  0.00000000000E+00 0. -1.
</event>
<event>
 8    1  0.6019723E-011  0.9118800E+02  0.7816164E-02  0.1184000E+00
        -11   -1    0    0    0    0  0.00000000000E+00  0.00000000000E+00  0.45593999997E+02  0.45594000000E+02  0.51100000000E-03 0. -1.
         11   -1    0    0    0    0 -0.00000000000E+00 -0.00000000000E+00 -0.45593999997E+02  0.45594000000E+02  0.51100000000E-03 0.  1.
         23    2    1    2    0    0 -0.71054273576E-14  0.00000000000E+00  0.35527136788E-14  0.91188000000E+02  0.91188000000E+02 0.  0.
    9900012    2    3    3    0    0  0.37455243109E+02  0.17887371500E+02 -0.12679504485E+02  0.47787272708E+02  0.20000007584E+02 0.  0.
         12    1    3    3    0    0 -0.37455243109E+02 -0.17887371500E+02  0.12679504485E+02  0.43400727292E+02  0.00000000000E+00 0. -1.
         11    1    4    4    0    0  0.12830589685E+01  0.74226025594E+01 -0.66070611609E+00  0.75616004856E+01  0.51100000000E-03 0. -1.
        -11    1    4    4    0    0  0.10926604573E+02  0.46965255721E+01 -0.71463536140E+01  0.13875100367E+02  0.51100000000E-03 0.  1.
         12    1    4    4    0    0  0.25245579567E+02  0.57682433687E+01 -0.48724447547E+01  0.26350571855E+02  0.00000000000E+00 0. -1.
</event>
<event>
 8    1  0.6019723E-011  0.9118800E+02  0.7816164E-02  0.1184000E+00
        -11   -1    0    0    0    0  0.00000000000E+00  0.00000000000E+00  0.45593999997E+02  0.45594000000E+02  0.51100000000E-03 0. -1.
         11   -1    0    0    0    0 -0.00000000000E+00 -0.00000000000E+00 -0.45593999997E+02  0.45594000000E+02  0.51100000000E-03 0.  1.
         23    2    1    2    0    0  0.17763568394E-14 -0.35527136788E-14  0.00000000000E+00  0.91188000000E+02  0.91188000000E+02 0.  0.
    9900012    2    3    3    0    0 -0.11936119236E+02  0.30062301989E+02 -0.28938047948E+02  0.47787267721E+02  0.19999984849E+02 0.  0.
         12    1    3    3    0    0  0.11936119236E+02 -0.30062301989E+02  0.28938047948E+02  0.43400732279E+02  0.00000000000E+00 0. -1.
         11    1    4    4    0    0 -0.34677395571E+01  0.11060866270E+01 -0.39382155616E+01  0.53626660658E+01  0.51100000000E-03 0. -1.
        -11    1    4    4    0    0 -0.12847771956E+01  0.90924601733E+01  0.63935935028E+00  0.92050130410E+01  0.51100000000E-03 0.  1.
        -12    1    4    4    0    0 -0.71836024830E+01  0.19863755188E+02 -0.25639191737E+02  0.33219588615E+02  0.00000000000E+00 0.  1.
</event>
<event>
 8    1  0.6019723E-011  0.9118800E+02  0.7816164E-02  0.1184000E+00
        -11   -1    0    0    0    0  0.00000000000E+00  0.00000000000E+00  0.45593999997E+02  0.45594000000E+02  0.51100000000E-03 0. -1.
         11   -1    0    0    0    0 -0.00000000000E+00 -0.00000000000E+00 -0.45593999997E+02  0.45594000000E+02  0.51100000000E-03 0.  1.
         23    2    1    2    0    0 -0.35527136788E-14  0.00000000000E+00  0.00000000000E+00  0.91188000000E+02  0.91188000000E+02 0.  0.
    9900012    2    3    3    0    0 -0.23370116543E+02  0.11748854323E+02  0.34632722833E+02  0.47787269408E+02  0.19999992537E+02 0.  0.
        -12    1    3    3    0    0  0.23370116543E+02 -0.11748854323E+02 -0.34632722833E+02  0.43400730592E+02  0.00000000000E+00 0.  1.
         11    1    4    4    0    0 -0.16248317718E+02  0.14251310903E+02  0.32137762711E+02  0.38729103830E+02  0.51100000000E-03 0. -1.
        -11    1    4    4    0    0 -0.44666908365E+01 -0.92696103588E+00 -0.69998635810E+00  0.46152535091E+01  0.51100000000E-03 0.  1.
         12    1    4    4    0    0 -0.26551079889E+01 -0.15754955443E+01  0.31949464796E+01  0.44429120687E+01  0.00000000000E+00 0. -1.
</event>
<event>
 8    1  0.6019723E-011  0.9118800E+02  0.7816164E-02  0.1184000E+00
        -11   -1    0    0    0    0  0.00000000000E+00  0.00000000000E+00  0.45593999997E+02  0.45594000000E+02  0.51100000000E-03 0. -1.
         11   -1    0    0    0    0 -0.00000000000E+00 -0.00000000000E+00 -0.45593999997E+02  0.45594000000E+02  0.51100000000E-03 0.  1.
         23    2    1    2    0    0 -0.55511151231E-15 -0.35527136788E-14  0.00000000000E+00  0.91188000000E+02  0.91188000000E+02 0.  0.
    9900012    2    3    3    0    0 -0.48623685508E+00  0.20514233795E+02  0.38243341238E+02  0.47787270011E+02  0.19999995288E+02 0.  0.
        -12    1    3    3    0    0  0.48623685508E+00 -0.20514233795E+02 -0.38243341238E+02  0.43400729989E+02  0.00000000000E+00 0.  1.
         11    1    4    4    0    0 -0.89264959718E+01  0.88858368356E+01  0.23989438609E+02  0.27094899735E+02  0.51100000000E-03 0.  1.
        -11    1    4    4    0    0  0.75513206150E+01  0.11446000310E+02  0.14262114615E+02  0.19784875023E+02  0.51100000000E-03 0. -1.
        -12    1    4    4    0    0  0.88893850177E+00  0.18239664943E+00 -0.82119853991E-02  0.90749525307E+00  0.00000000000E+00 0.  1.
</event>
<event>
 8    1  0.6019723E-011  0.9118800E+02  0.7816164E-02  0.1184000E+00
        -11   -1    0    0    0    0  0.00000000000E+00  0.00000000000E+00  0.45593999997E+02  0.45594000000E+02  0.51100000000E-03 0. -1.
         11   -1    0    0    0    0 -0.00000000000E+00 -0.00000000000E+00 -0.45593999997E+02  0.45594000000E+02  0.51100000000E-03 0.  1.
         23    2    1    2    0    0  0.00000000000E+00  0.71054273576E-14 -0.17763568394E-14  0.91188000000E+02  0.91188000000E+02 0.  0.
    9900012    2    3    3    0    0  0.21042037512E+02 -0.35527339133E+02  0.13366503771E+02  0.47787278904E+02  0.20000035837E+02 0.  0.
        -12    1    3    3    0    0 -0.21042037512E+02  0.35527339133E+02 -0.13366503771E+02  0.43400721096E+02  0.00000000000E+00 0.  1.
         11    1    4    4    0    0  0.84555267012E+01 -0.97595380500E+01  0.13091622839E+02  0.18388450276E+02  0.51100000000E-03 0. -1.
        -11    1    4    4    0    0  0.62607704628E+00  0.29746089084E+00  0.19602246011E+00  0.72033361400E+00  0.51100000000E-03 0.  1.
         12    1    4    4    0    0  0.11960433765E+02 -0.26065261974E+02  0.78858471997E-01  0.28678495014E+02  0.00000000000E+00 0. -1.
</event>
<event>
 8    1  0.6019723E-011  0.9118800E+02  0.7816164E-02  0.1184000E+00
        -11   -1    0    0    0    0  0.00000000000E+00  0.00000000000E+00  0.45593999997E+02  0.45594000000E+02  0.51100000000E-03 0.  1.
         11   -1    0    0    0    0 -0.00000000000E+00 -0.00000000000E+00 -0.45593999997E+02  0.45594000000E+02  0.51100000000E-03 0. -1.
         23    2    1    2    0    0 -0.17763568394E-14  0.14210854715E-13 -0.71054273576E-14  0.91188000000E+02  0.91188000000E+02 0.  0.
    9900012    2    3    3    0    0  0.15544856569E+02 -0.33116709486E+02  0.23350905863E+02  0.47787264781E+02  0.19999971444E+02 0.  0.
        -12    1    3    3    0    0 -0.15544856569E+02  0.33116709486E+02 -0.23350905863E+02  0.43400735219E+02  0.00000000000E+00 0.  1.
         11    1    4    4    0    0  0.73872460128E+01 -0.18630572898E+02  0.15465928086E+02  0.25315303317E+02  0.51100000000E-03 0. -1.
        -11    1    4    4    0    0  0.52823003063E+01 -0.70733211891E+01 -0.27015602597E+01  0.92321718608E+01  0.51100000000E-03 0.  1.
        -12    1    4    4    0    0  0.28753102496E+01 -0.74128153984E+01  0.10586538036E+02  0.13239789604E+02  0.00000000000E+00 0.  1.
</event>
<event>
 8    1  0.6019723E-011  0.9118800E+02  0.7816164E-02  0.1184000E+00
        -11   -1    0    0    0    0  0.00000000000E+00  0.00000000000E+00  0.45593999997E+02  0.45594000000E+02  0.51100000000E-03 0. -1.
         11   -1    0    0    0    0 -0.00000000000E+00 -0.00000000000E+00 -0.45593999997E+02  0.45594000000E+02  0.51100000000E-03 0.  1.
         23    2    1    2    0    0 -0.35527136788E-14 -0.35527136788E-14  0.35527136788E-14  0.91188000000E+02  0.91188000000E+02 0.  0.
    9900012    2    3    3    0    0 -0.25397268729E+02 -0.21653318193E+02  0.27744116228E+02  0.47787269212E+02  0.19999991645E+02 0.  0.
        -12    1    3    3    0    0  0.25397268729E+02  0.21653318193E+02 -0.27744116228E+02  0.43400730788E+02  0.00000000000E+00 0.  1.
         11    1    4    4    0    0 -0.65534644087E+01 -0.54503755091E+01  0.97951755287E+00  0.85798568662E+01  0.51100000000E-03 0. -1.
        -11    1    4    4    0    0 -0.59187613216E+01 -0.75342802341E+01  0.20121290008E+02  0.22285946829E+02  0.51100000000E-03 0.  1.
         12    1    4    4    0    0 -0.12925042998E+02 -0.86686624501E+01  0.66433086676E+01  0.16921465517E+02  0.00000000000E+00 0. -1.
</event>
<event>
 8    1  0.6019723E-011  0.9118800E+02  0.7816164E-02  0.1184000E+00
        -11   -1    0    0    0    0  0.00000000000E+00  0.00000000000E+00  0.45593999997E+02  0.45594000000E+02  0.51100000000E-03 0.  1.
         11   -1    0    0    0    0 -0.00000000000E+00 -0.00000000000E+00 -0.45593999997E+02  0.45594000000E+02  0.51100000000E-03 0. -1.
         23    2    1    2    0    0  0.00000000000E+00  0.13322676296E-14  0.00000000000E+00  0.91188000000E+02  0.91188000000E+02 0.  0.
    9900012    2    3    3    0    0  0.34758605097E+02 -0.31808817021E+01 -0.25794277185E+02  0.47787269912E+02  0.19999994838E+02 0.  0.
         12    1    3    3    0    0 -0.34758605097E+02  0.31808817021E+01  0.25794277185E+02  0.43400730088E+02  0.00000000000E+00 0. -1.
         11    1    4    4    0    0  0.23223044298E+01  0.56323203978E+01 -0.20990617730E+01  0.64437715289E+01  0.51100000000E-03 0. -1.
        -11    1    4    4    0    0  0.17347578745E+02 -0.67812302028E+01 -0.13882357671E+02  0.23230226563E+02  0.51100000000E-03 0.  1.
        -12    1    4    4    0    0  0.15088721921E+02 -0.20319718971E+01 -0.98128577411E+01  0.18113271821E+02  0.00000000000E+00 0.  1.
</event>
<event>
 8    1  0.6019723E-011  0.9118800E+02  0.7816164E-02  0.1184000E+00
        -11   -1    0    0    0    0  0.00000000000E+00  0.00000000000E+00  0.45593999997E+02  0.45594000000E+02  0.51100000000E-03 0. -1.
         11   -1    0    0    0    0 -0.00000000000E+00 -0.00000000000E+00 -0.45593999997E+02  0.45594000000E+02  0.51100000000E-03 0.  1.
         23    2    1    2    0    0  0.00000000000E+00  0.00000000000E+00  0.00000000000E+00  0.91188000000E+02  0.91188000000E+02 0.  0.
    9900012    2    3    3    0    0 -0.13160518458E+01 -0.12893964735E+02  0.41420249017E+02  0.47787270194E+02  0.19999996123E+02 0.  0.
        -12    1    3    3    0    0  0.13160518458E+01  0.12893964735E+02 -0.41420249017E+02  0.43400729806E+02  0.00000000000E+00 0.  1.
         11    1    4    4    0    0  0.21438704673E+01 -0.16085597456E+02  0.27098771186E+02  0.31586168273E+02  0.51100000000E-03 0. -1.
        -11    1    4    4    0    0 -0.12063114400E+01  0.46318541658E+01  0.77857203559E+01  0.91392943942E+01  0.51100000000E-03 0.  1.
         12    1    4    4    0    0 -0.22536108731E+01 -0.14402214447E+01  0.65357574751E+01  0.70618075271E+01  0.00000000000E+00 0. -1.
</event>
<event>
 8    1  0.6019723E-011  0.9118800E+02  0.7816164E-02  0.1184000E+00
        -11   -1    0    0    0    0  0.00000000000E+00  0.00000000000E+00  0.45593999997E+02  0.45594000000E+02  0.51100000000E-03 0. -1.
         11   -1    0    0    0    0 -0.00000000000E+00 -0.00000000000E+00 -0.45593999997E+02  0.45594000000E+02  0.51100000000E-03 0.  1.
         23    2    1    2    0    0  0.00000000000E+00 -0.77715611724E-15  0.71054273576E-14  0.91188000000E+02  0.91188000000E+02 0.  0.
    9900012    2    3    3    0    0 -0.13352065786E+02 -0.78678594203E+00  0.41288337513E+02  0.47787268353E+02  0.19999987731E+02 0.  0.
        -12    1    3    3    0    0  0.13352065786E+02  0.78678594203E+00 -0.41288337513E+02  0.43400731647E+02  0.00000000000E+00 0.  1.
         11    1    4    4    0    0 -0.21959208289E+01  0.52037578460E+01  0.36101137193E+01  0.67032891430E+01  0.51100000000E-03 0. -1.
        -11    1    4    4    0    0 -0.32886924643E+01  0.29387891089E+01  0.11907994307E+02  0.12698515985E+02  0.51100000000E-03 0.  1.
        -12    1    4    4    0    0 -0.78674524931E+01 -0.89293328970E+01  0.25770229487E+02  0.28385463225E+02  0.00000000000E+00 0.  1.
</event>
<event>
 8    1  0.6019723E-011  0.9118800E+02  0.7816164E-02  0.1184000E+00
        -11   -1    0    0    0    0  0.00000000000E+00  0.00000000000E+00  0.45593999997E+02  0.45594000000E+02  0.51100000000E-03 0.  1.
         11   -1    0    0    0    0 -0.00000000000E+00 -0.00000000000E+00 -0.45593999997E+02  0.45594000000E+02  0.51100000000E-03 0. -1.
         23    2    1    2    0    0  0.71054273576E-14  0.35527136788E-14  0.17763568394E-14  0.91188000000E+02  0.91188000000E+02 0.  0.
    9900012    2    3    3    0    0  0.34215308363E+02  0.24273992786E+02  0.11122416945E+02  0.47787283292E+02  0.20000055840E+02 0.  0.
         12    1    3    3    0    0 -0.34215308363E+02 -0.24273992786E+02 -0.11122416945E+02  0.43400716708E+02  0.00000000000E+00 0. -1.
         11    1    4    4    0    0  0.97404977948E+00 -0.17073218714E+01  0.95717143078E+00  0.21862978650E+01  0.51100000000E-03 0. -1.
        -11    1    4    4    0    0  0.33943324571E+02  0.22418842497E+02  0.82917321001E+01  0.41515137038E+02  0.51100000000E-03 0.  1.
        -12    1    4    4    0    0 -0.70206598751E+00  0.35624721597E+01  0.18735134143E+01  0.40858483884E+01  0.00000000000E+00 0.  1.
</event>
<event>
 8    1  0.6019723E-011  0.9118800E+02  0.7816164E-02  0.1184000E+00
        -11   -1    0    0    0    0  0.00000000000E+00  0.00000000000E+00  0.45593999997E+02  0.45594000000E+02  0.51100000000E-03 0.  1.
         11   -1    0    0    0    0 -0.00000000000E+00 -0.00000000000E+00 -0.45593999997E+02  0.45594000000E+02  0.51100000000E-03 0. -1.
         23    2    1    2    0    0  0.00000000000E+00  0.35527136788E-14  0.44408920985E-15  0.91188000000E+02  0.91188000000E+02 0.  0.
    9900012    2    3    3    0    0 -0.33388278762E+02 -0.27473266296E+02 -0.37504497809E+01  0.47787269669E+02  0.19999993730E+02 0.  0.
        -12    1    3    3    0    0  0.33388278762E+02  0.27473266296E+02  0.37504497809E+01  0.43400730331E+02  0.00000000000E+00 0.  1.
         11    1    4    4    0    0 -0.74464714323E+01 -0.16377719764E+02  0.24416873653E+01  0.18156031475E+02  0.51100000000E-03 0. -1.
        -11    1    4    4    0    0 -0.22724408772E+02 -0.11768087959E+02 -0.46885023604E+01  0.26016700461E+02  0.51100000000E-03 0.  1.
         12    1    4    4    0    0 -0.32173985585E+01  0.67254142758E+00 -0.15036347858E+01  0.36145377333E+01  0.00000000000E+00 0. -1.
</event>
<event>
 8    1  0.6019723E-011  0.9118800E+02  0.7816164E-02  0.1184000E+00
        -11   -1    0    0    0    0  0.00000000000E+00  0.00000000000E+00  0.45593999997E+02  0.45594000000E+02  0.51100000000E-03 0. -1.
         11   -1    0    0    0    0 -0.00000000000E+00 -0.00000000000E+00 -0.45593999997E+02  0.45594000000E+02  0.51100000000E-03 0.  1.
         23    2    1    2    0    0  0.00000000000E+00 -0.35527136788E-14  0.35527136788E-14  0.91188000000E+02  0.91188000000E+02 0.  0.
    9900012    2    3    3    0    0 -0.10473778067E+02 -0.30484234361E+02  0.29062618867E+02  0.47787258221E+02  0.19999941532E+02 0.  0.
        -12    1    3    3    0    0  0.10473778067E+02  0.30484234361E+02 -0.29062618867E+02  0.43400741779E+02  0.00000000000E+00 0.  1.
         11    1    4    4    0    0  0.47872602919E+01 -0.12970776406E+02  0.82415845598E+01  0.16096043551E+02  0.51100000000E-03 0. -1.
        -11    1    4    4    0    0 -0.75024547517E+01 -0.54391989130E+01  0.58862300977E+01  0.10978133591E+02  0.51100000000E-03 0.  1.
         12    1    4    4    0    0 -0.77585836072E+01 -0.12074259041E+02  0.14934804210E+02  0.20713081079E+02  0.00000000000E+00 0. -1.
</event>
<event>
 8    1  0.6019723E-011  0.9118800E+02  0.7816164E-02  0.1184000E+00
        -11   -1    0    0    0    0  0.00000000000E+00  0.00000000000E+00  0.45593999997E+02  0.45594000000E+02  0.51100000000E-03 0. -1.
         11   -1    0    0    0    0 -0.00000000000E+00 -0.00000000000E+00 -0.45593999997E+02  0.45594000000E+02  0.51100000000E-03 0.  1.
         23    2    1    2    0    0 -0.35527136788E-14  0.00000000000E+00  0.00000000000E+00  0.91188000000E+02  0.91188000000E+02 0.  0.
    9900012    2    3    3    0    0  0.27210316761E+02  0.22331591322E+02 -0.25387383098E+02  0.47787302658E+02  0.20000144139E+02 0.  0.
         12    1    3    3    0    0 -0.27210316761E+02 -0.22331591322E+02  0.25387383098E+02  0.43400697342E+02  0.00000000000E+00 0. -1.
         11    1    4    4    0    0  0.70395447375E+01  0.56848908608E+01 -0.13858726179E+01  0.91538962953E+01  0.51100000000E-03 0. -1.
        -11    1    4    4    0    0  0.20531274467E+02  0.18932383283E+02 -0.21675425576E+02  0.35352403627E+02  0.51100000000E-03 0.  1.
        -12    1    4    4    0    0 -0.36050244440E+00 -0.22856828215E+01 -0.23260849042E+01  0.32810027361E+01  0.00000000000E+00 0.  1.
</event>
<event>
 8    1  0.8083453E-011  0.9118800E+02  0.7816164E-02  0.1184000E+00
        -11   -1    0    0    0    0  0.00000000000E+00  0.00000000000E+00  0.45593999997E+02  0.45594000000E+02  0.51100000000E-03 0. -1.
         11   -1    0    0    0    0 -0.00000000000E+00 -0.00000000000E+00 -0.45593999997E+02  0.45594000000E+02  0.51100000000E-03 0.  1.
         23    2    1    2    0    0 -0.35527136788E-14  0.71054273576E-14  0.71054273576E-14  0.91188000000E+02  0.91188000000E+02 0.  0.
    9900012    2    3    3    0    0 -0.13330411142E+02  0.24883925152E+02  0.32965340482E+02  0.47787271144E+02  0.20000000453E+02 0.  0.
        -12    1    3    3    0    0  0.13330411142E+02 -0.24883925152E+02 -0.32965340482E+02  0.43400728856E+02  0.00000000000E+00 0.  1.
         11    1    4    4    0    0 -0.32439120291E+01  0.10755209432E+02  0.67119220032E+01  0.13086152697E+02  0.51100000000E-03 0. -1.
        -11    1    4    4    0    0  0.37392580362E+01  0.25568277868E+01  0.68693343809E+01  0.82284369166E+01  0.51100000000E-03 0.  1.
        -12    1    4    4    0    0 -0.13825757149E+02  0.11571887933E+02  0.19384084097E+02  0.26472681530E+02  0.00000000000E+00 0.  1.
</event>
<event>
 8    1  0.6019723E-011  0.9118800E+02  0.7816164E-02  0.1184000E+00
        -11   -1    0    0    0    0  0.00000000000E+00  0.00000000000E+00  0.45593999997E+02  0.45594000000E+02  0.51100000000E-03 0. -1.
         11   -1    0    0    0    0 -0.00000000000E+00 -0.00000000000E+00 -0.45593999997E+02  0.45594000000E+02  0.51100000000E-03 0.  1.
         23    2    1    2    0    0  0.00000000000E+00 -0.35527136788E-14  0.00000000000E+00  0.91188000000E+02  0.91188000000E+02 0.  0.
    9900012    2    3    3    0    0  0.76724813119E+01  0.23090803176E+02 -0.35938442420E+02  0.47787264933E+02  0.19999972133E+02 0.  0.
         12    1    3    3    0    0 -0.76724813119E+01 -0.23090803176E+02  0.35938442420E+02  0.43400735067E+02  0.00000000000E+00 0. -1.
         11    1    4    4    0    0 -0.89003668967E+00 -0.33096655034E+01 -0.30894241373E+01  0.46141730369E+01  0.51100000000E-03 0. -1.
        -11    1    4    4    0    0  0.57080149700E+01  0.12418847228E+02 -0.14468639986E+02  0.19903535985E+02  0.51100000000E-03 0.  1.
         12    1    4    4    0    0  0.28545030316E+01  0.13981621451E+02 -0.18380378297E+02  0.23269555911E+02  0.00000000000E+00 0. -1.
</event>
<event>
 8    1  0.6019723E-011  0.9118800E+02  0.7816164E-02  0.1184000E+00
        -11   -1    0    0    0    0  0.00000000000E+00  0.00000000000E+00  0.45593999997E+02  0.45594000000E+02  0.51100000000E-03 0. -1.
         11   -1    0    0    0    0 -0.00000000000E+00 -0.00000000000E+00 -0.45593999997E+02  0.45594000000E+02  0.51100000000E-03 0.  1.
         23    2    1    2    0    0  0.00000000000E+00  0.00000000000E+00  0.00000000000E+00  0.91188000000E+02  0.91188000000E+02 0.  0.
    9900012    2    3    3    0    0 -0.57249761916E+01  0.37983336013E+02 -0.20201829767E+02  0.47787273128E+02  0.20000009500E+02 0.  0.
         12    1    3    3    0    0  0.57249761916E+01 -0.37983336013E+02  0.20201829767E+02  0.43400726872E+02  0.00000000000E+00 0. -1.
         11    1    4    4    0    0 -0.70714680535E+01  0.73222660853E+01  0.58730453971E+00  0.10196380139E+02  0.51100000000E-03 0. -1.
        -11    1    4    4    0    0  0.28047406400E+01  0.26794265238E+02 -0.16294272517E+02  0.31484957310E+02  0.51100000000E-03 0.  1.
         12    1    4    4    0    0 -0.14582487780E+01  0.38668046900E+01 -0.44948617894E+01  0.61059356789E+01  0.00000000000E+00 0. -1.
</event>
<event>
 8    1  0.6019723E-011  0.9118800E+02  0.7816164E-02  0.1184000E+00
        -11   -1    0    0    0    0  0.00000000000E+00  0.00000000000E+00  0.45593999997E+02  0.45594000000E+02  0.51100000000E-03 0. -1.
         11   -1    0    0    0    0 -0.00000000000E+00 -0.00000000000E+00 -0.45593999997E+02  0.45594000000E+02  0.51100000000E-03 0.  1.
         23    2    1    2    0    0 -0.35527136788E-14  0.88817841970E-15  0.00000000000E+00  0.91188000000E+02  0.91188000000E+02 0.  0.
    9900012    2    3    3    0    0  0.23734137554E+02 -0.59235639822E+01 -0.35850025596E+02  0.47787283060E+02  0.20000054783E+02 0.  0.
         12    1    3    3    0    0 -0.23734137554E+02  0.59235639822E+01  0.35850025596E+02  0.43400716940E+02  0.00000000000E+00 0. -1.
         11    1    4    4    0    0  0.71065521891E+01 -0.23372525818E+01 -0.33103386597E+00  0.74883521104E+01  0.51100000000E-03 0. -1.
        -11    1    4    4    0    0  0.16967862657E+02 -0.29588767820E+01 -0.28913017253E+02  0.33654507602E+02  0.51100000000E-03 0.  1.
         12    1    4    4    0    0 -0.34027729206E+00 -0.62743461836E+00 -0.66059744767E+01  0.66444233477E+01  0.00000000000E+00 0. -1.
</event>
<event>
 8    1  0.6019723E-011  0.9118800E+02  0.7816164E-02  0.1184000E+00
        -11   -1    0    0    0    0  0.00000000000E+00  0.00000000000E+00  0.45593999997E+02  0.45594000000E+02  0.51100000000E-03 0.  1.
         11   -1    0    0    0    0 -0.00000000000E+00 -0.00000000000E+00 -0.45593999997E+02  0.45594000000E+02  0.51100000000E-03 0. -1.
         23    2    1    2    0    0  0.00000000000E+00  0.00000000000E+00  0.00000000000E+00  0.91188000000E+02  0.91188000000E+02 0.  0.
    9900012    2    3    3    0    0 -0.41863745269E+02  0.21695247604E+01  0.11240254264E+02  0.47787270495E+02  0.19999997497E+02 0.  0.
        -12    1    3    3    0    0  0.41863745269E+02 -0.21695247604E+01 -0.11240254264E+02  0.43400729505E+02  0.00000000000E+00 0.  1.
         11    1    4    4    0    0 -0.12286304940E+02 -0.64098743188E+01  0.64392851833E+01  0.15280843294E+02  0.51100000000E-03 0. -1.
        -11    1    4    4    0    0 -0.16659657168E+02  0.77507560331E+01 -0.82373426807E+00  0.18392850090E+02  0.51100000000E-03 0.  1.
        -12    1    4    4    0    0 -0.12917783161E+02  0.82864304615E+00  0.56247033492E+01  0.14113577111E+02  0.00000000000E+00 0.  1.
</event>
<event>
 8    1  0.6019723E-011  0.9118800E+02  0.7816164E-02  0.1184000E+00
        -11   -1    0    0    0    0  0.00000000000E+00  0.00000000000E+00  0.45593999997E+02  0.45594000000E+02  0.51100000000E-03 0.  1.
         11   -1    0    0    0    0 -0.00000000000E+00 -0.00000000000E+00 -0.45593999997E+02  0.45594000000E+02  0.51100000000E-03 0. -1.
         23    2    1    2    0    0  0.66613381478E-15  0.71054273576E-14  0.00000000000E+00  0.91188000000E+02  0.91188000000E+02 0.  0.
    9900012    2    3    3    0    0  0.16236017881E+01 -0.41312956156E+02 -0.13199496612E+02  0.47787272588E+02  0.20000007037E+02 0.  0.
         12    1    3    3    0    0 -0.16236017881E+01  0.41312956156E+02  0.13199496612E+02  0.43400727412E+02  0.00000000000E+00 0. -1.
         11    1    4    4    0    0 -0.14905673350E+01 -0.57466193455E+00  0.87243777225E+00  0.18202129674E+01  0.51100000000E-03 0. -1.
        -11    1    4    4    0    0  0.43576220525E+01 -0.72707505524E+01  0.21639178771E+01  0.87484412548E+01  0.51100000000E-03 0.  1.
        -12    1    4    4    0    0 -0.12434529295E+01 -0.33467543669E+02 -0.16235852261E+02  0.37218618366E+02  0.00000000000E+00 0.  1.
</event>
<event>
 8    1  0.6019723E-011  0.9118800E+02  0.7816164E-02  0.1184000E+00
        -11   -1    0    0    0    0  0.00000000000E+00  0.00000000000E+00  0.45593999997E+02  0.45594000000E+02  0.51100000000E-03 0. -1.
         11   -1    0    0    0    0 -0.00000000000E+00 -0.00000000000E+00 -0.45593999997E+02  0.45594000000E+02  0.51100000000E-03 0.  1.
         23    2    1    2    0    0 -0.71054273576E-14  0.00000000000E+00  0.00000000000E+00  0.91188000000E+02  0.91188000000E+02 0.  0.
    9900012    2    3    3    0    0 -0.39479303767E+02 -0.63240028123E+01  0.16882401522E+02  0.47787263616E+02  0.19999966132E+02 0.  0.
        -12    1    3    3    0    0  0.39479303767E+02  0.63240028123E+01 -0.16882401522E+02  0.43400736384E+02  0.00000000000E+00 0.  1.
         11    1    4    4    0    0 -0.21474078025E+01  0.17151581296E+01  0.62758923682E+01  0.68512738201E+01  0.51100000000E-03 0. -1.
        -11    1    4    4    0    0 -0.30152122919E+02 -0.76208754161E+01  0.12469021759E+02  0.33506786813E+02  0.51100000000E-03 0.  1.
        -12    1    4    4    0    0 -0.71797730453E+01 -0.41828552583E+00 -0.18625126050E+01  0.74292029833E+01  0.00000000000E+00 0.  1.
</event>
<event>
 8    1  0.6019723E-011  0.9118800E+02  0.7816164E-02  0.1184000E+00
        -11   -1    0    0    0    0  0.00000000000E+00  0.00000000000E+00  0.45593999997E+02  0.45594000000E+02  0.51100000000E-03 0. -1.
         11   -1    0    0    0    0 -0.00000000000E+00 -0.00000000000E+00 -0.45593999997E+02  0.45594000000E+02  0.51100000000E-03 0.  1.
         23    2    1    2    0    0  0.00000000000E+00  0.00000000000E+00  0.00000000000E+00  0.91188000000E+02  0.91188000000E+02 0.  0.
    9900012    2    3    3    0    0  0.14984476961E+02  0.17920449883E+02 -0.36577950047E+02  0.47787268400E+02  0.19999987942E+02 0.  0.
         12    1    3    3    0    0 -0.14984476961E+02 -0.17920449883E+02  0.36577950047E+02  0.43400731600E+02  0.00000000000E+00 0. -1.
         11    1    4    4    0    0  0.51843638625E+01 -0.32544475283E+01 -0.31797208344E+01  0.68978027095E+01  0.51100000000E-03 0. -1.
        -11    1    4    4    0    0  0.59377436496E+01  0.14962952334E+02 -0.20546030856E+02  0.26101458319E+02  0.51100000000E-03 0.  1.
         12    1    4    4    0    0  0.38623694488E+01  0.62119450769E+01 -0.12852198357E+02  0.14788007371E+02  0.00000000000E+00 0. -1.
</event>
<event>
 8    1  0.6019723E-011  0.9118800E+02  0.7816164E-02  0.1184000E+00
        -11   -1    0    0    0    0  0.00000000000E+00  0.00000000000E+00  0.45593999997E+02  0.45594000000E+02  0.51100000000E-03 0. -1.
         11   -1    0    0    0    0 -0.00000000000E+00 -0.00000000000E+00 -0.45593999997E+02  0.45594000000E+02  0.51100000000E-03 0.  1.
         23    2    1    2    0    0  0.00000000000E+00  0.00000000000E+00  0.00000000000E+00  0.91188000000E+02  0.91188000000E+02 0.  0.
    9900012    2    3    3    0    0 -0.36777626463E+02  0.16408794392E+02 -0.16179618993E+02  0.47787280969E+02  0.20000045248E+02 0.  0.
         12    1    3    3    0    0  0.36777626463E+02 -0.16408794392E+02  0.16179618993E+02  0.43400719031E+02  0.00000000000E+00 0. -1.
         11    1    4    4    0    0 -0.17682232522E+02  0.12449254820E+02 -0.11962275487E+00  0.21625438779E+02  0.51100000000E-03 0. -1.
        -11    1    4    4    0    0 -0.39140393772E+01  0.10996613312E+01 -0.74217767801E+01  0.84623714244E+01  0.51100000000E-03 0.  1.
         12    1    4    4    0    0 -0.15181354564E+02  0.28598782417E+01 -0.86382194582E+01  0.17699470765E+02  0.00000000000E+00 0. -1.
</event>
<event>
 8    1  0.6019723E-011  0.9118800E+02  0.7816164E-02  0.1184000E+00
        -11   -1    0    0    0    0  0.00000000000E+00  0.00000000000E+00  0.45593999997E+02  0.45594000000E+02  0.51100000000E-03 0.  1.
         11   -1    0    0    0    0 -0.00000000000E+00 -0.00000000000E+00 -0.45593999997E+02  0.45594000000E+02  0.51100000000E-03 0. -1.
         23    2    1    2    0    0  0.71054273576E-14  0.22204460493E-15  0.71054273576E-14  0.91188000000E+02  0.91188000000E+02 0.  0.
    9900012    2    3    3    0    0 -0.32911665405E+02  0.11222935027E+01 -0.28269879530E+02  0.47787270155E+02  0.19999995943E+02 0.  0.
         12    1    3    3    0    0  0.32911665405E+02 -0.11222935027E+01  0.28269879530E+02  0.43400729845E+02  0.00000000000E+00 0. -1.
         11    1    4    4    0    0 -0.20633293711E+02 -0.44263946664E+01 -0.26452075293E+02  0.33838411113E+02  0.51100000000E-03 0. -1.
        -11    1    4    4    0    0 -0.50680170131E+01  0.26209994045E+01  0.74855965028E+00  0.57545439554E+01  0.51100000000E-03 0.  1.
         12    1    4    4    0    0 -0.72103546812E+01  0.29276887646E+01 -0.25663638881E+01  0.81943150865E+01  0.00000000000E+00 0. -1.
</event>
<event>
 8    1  0.6019723E-011  0.9118800E+02  0.7816164E-02  0.1184000E+00
        -11   -1    0    0    0    0  0.00000000000E+00  0.00000000000E+00  0.45593999997E+02  0.45594000000E+02  0.51100000000E-03 0. -1.
         11   -1    0    0    0    0 -0.00000000000E+00 -0.00000000000E+00 -0.45593999997E+02  0.45594000000E+02  0.51100000000E-03 0.  1.
         23    2    1    2    0    0  0.17763568394E-14  0.00000000000E+00  0.00000000000E+00  0.91188000000E+02  0.91188000000E+02 0.  0.
    9900012    2    3    3    0    0 -0.13344916689E+02  0.10346128621E+02  0.39981168576E+02  0.47787273975E+02  0.20000013360E+02 0.  0.
        -12    1    3    3    0    0  0.13344916689E+02 -0.10346128621E+02 -0.39981168576E+02  0.43400726025E+02  0.00000000000E+00 0.  1.
         11    1    4    4    0    0 -0.62282507687E+01  0.46425043477E+00  0.24819857137E+02  0.25593591867E+02  0.51100000000E-03 0. -1.
        -11    1    4    4    0    0 -0.19283905429E+01 -0.22747391124E+01  0.30701346613E+01  0.42800531790E+01  0.51100000000E-03 0.  1.
         12    1    4    4    0    0 -0.51882753772E+01  0.12156617298E+02  0.12091176778E+02  0.17913628929E+02  0.00000000000E+00 0. -1.
</event>
<event>
 8    1  0.6019723E-011  0.9118800E+02  0.7816164E-02  0.1184000E+00
        -11   -1    0    0    0    0  0.00000000000E+00  0.00000000000E+00  0.45593999997E+02  0.45594000000E+02  0.51100000000E-03 0. -1.
         11   -1    0    0    0    0 -0.00000000000E+00 -0.00000000000E+00 -0.45593999997E+02  0.45594000000E+02  0.51100000000E-03 0.  1.
         23    2    1    2    0    0  0.00000000000E+00  0.00000000000E+00  0.35527136788E-14  0.91188000000E+02  0.91188000000E+02 0.  0.
    9900012    2    3    3    0    0  0.27489266338E+02 -0.21065647618E+02  0.26157255800E+02  0.47787270694E+02  0.19999998401E+02 0.  0.
        -12    1    3    3    0    0 -0.27489266338E+02  0.21065647618E+02 -0.26157255800E+02  0.43400729306E+02  0.00000000000E+00 0.  1.
         11    1    4    4    0    0  0.88640705047E+00 -0.96343829233E+01  0.11026282626E+02  0.14669218131E+02  0.51100000000E-03 0. -1.
        -11    1    4    4    0    0  0.13885766455E+02 -0.86216328987E+01  0.71230996722E+01  0.17829346962E+02  0.51100000000E-03 0.  1.
         12    1    4    4    0    0  0.12717092832E+02 -0.28096317957E+01  0.80078735018E+01  0.15288705601E+02  0.00000000000E+00 0. -1.
</event>
<event>
 8    1  0.6019723E-011  0.9118800E+02  0.7816164E-02  0.1184000E+00
        -11   -1    0    0    0    0  0.00000000000E+00  0.00000000000E+00  0.45593999997E+02  0.45594000000E+02  0.51100000000E-03 0. -1.
         11   -1    0    0    0    0 -0.00000000000E+00 -0.00000000000E+00 -0.45593999997E+02  0.45594000000E+02  0.51100000000E-03 0.  1.
         23    2    1    2    0    0  0.00000000000E+00  0.44408920985E-15  0.00000000000E+00  0.91188000000E+02  0.91188000000E+02 0.  0.
    9900012    2    3    3    0    0  0.35381196936E+01 -0.38618527783E+01  0.43083536511E+02  0.47787270557E+02  0.19999997779E+02 0.  0.
        -12    1    3    3    0    0 -0.35381196936E+01  0.38618527783E+01 -0.43083536511E+02  0.43400729443E+02  0.00000000000E+00 0.  1.
         11    1    4    4    0    0  0.24063589571E+01  0.29123124932E+01  0.29081581168E+02  0.29325935467E+02  0.51100000000E-03 0. -1.
        -11    1    4    4    0    0  0.17503500659E+00 -0.84756224220E+01  0.64252702487E+01  0.10637241688E+02  0.51100000000E-03 0.  1.
        -12    1    4    4    0    0  0.95672572991E+00  0.17014571505E+01  0.75766850943E+01  0.78240934028E+01  0.00000000000E+00 0.  1.
</event>
<event>
 8    1  0.6019723E-011  0.9118800E+02  0.7816164E-02  0.1184000E+00
        -11   -1    0    0    0    0  0.00000000000E+00  0.00000000000E+00  0.45593999997E+02  0.45594000000E+02  0.51100000000E-03 0. -1.
         11   -1    0    0    0    0 -0.00000000000E+00 -0.00000000000E+00 -0.45593999997E+02  0.45594000000E+02  0.51100000000E-03 0.  1.
         23    2    1    2    0    0  0.00000000000E+00  0.00000000000E+00  0.00000000000E+00  0.91188000000E+02  0.91188000000E+02 0.  0.
    9900012    2    3    3    0    0 -0.22019585002E+01 -0.28460968535E+02  0.32691708292E+02  0.47787272561E+02  0.20000006915E+02 0.  0.
        -12    1    3    3    0    0  0.22019585002E+01  0.28460968535E+02 -0.32691708292E+02  0.43400727439E+02  0.00000000000E+00 0.  1.
         11    1    4    4    0    0  0.25859574543E+01 -0.10948120518E+02  0.14994601881E+02  0.18745308870E+02  0.51100000000E-03 0. -1.
        -11    1    4    4    0    0  0.14017368944E+01 -0.11664683173E+02  0.16770413596E+02  0.20476241654E+02  0.51100000000E-03 0.  1.
        -12    1    4    4    0    0 -0.61896528489E+01 -0.58481648444E+01  0.92669281593E+00  0.85657220369E+01  0.00000000000E+00 0.  1.
</event>
<event>
 8    1  0.6019723E-011  0.9118800E+02  0.7816164E-02  0.1184000E+00
        -11   -1    0    0    0    0  0.00000000000E+00  0.00000000000E+00  0.45593999997E+02  0.45594000000E+02  0.51100000000E-03 0. -1.
         11   -1    0    0    0    0 -0.00000000000E+00 -0.00000000000E+00 -0.45593999997E+02  0.45594000000E+02  0.51100000000E-03 0.  1.
         23    2    1    2    0    0  0.17763568394E-14  0.00000000000E+00  0.17763568394E-14  0.91188000000E+02  0.91188000000E+02 0.  0.
    9900012    2    3    3    0    0  0.14305995177E+02 -0.39242502864E+02 -0.11789269326E+02  0.47787281109E+02  0.20000045888E+02 0.  0.
         12    1    3    3    0    0 -0.14305995177E+02  0.39242502864E+02  0.11789269326E+02  0.43400718891E+02  0.00000000000E+00 0. -1.
         11    1    4    4    0    0 -0.69754680864E+00 -0.30578865543E+01 -0.29523724773E+01  0.43074058591E+01  0.51100000000E-03 0. -1.
        -11    1    4    4    0    0  0.48593281230E+01 -0.11870472833E+02 -0.11200549894E+02  0.17028608671E+02  0.51100000000E-03 0.  1.
        -12    1    4    4    0    0  0.10144213862E+02 -0.24314143477E+02  0.23636530457E+01  0.26451266579E+02  0.00000000000E+00 0.  1.
</event>
<event>
 8    1  0.6019723E-011  0.9118800E+02  0.7816164E-02  0.1184000E+00
        -11   -1    0    0    0    0  0.00000000000E+00  0.00000000000E+00  0.45593999997E+02  0.45594000000E+02  0.51100000000E-03 0. -1.
         11   -1    0    0    0    0 -0.00000000000E+00 -0.00000000000E+00 -0.45593999997E+02  0.45594000000E+02  0.51100000000E-03 0.  1.
         23    2    1    2    0    0  0.00000000000E+00  0.00000000000E+00  0.00000000000E+00  0.91188000000E+02  0.91188000000E+02 0.  0.
    9900012    2    3    3    0    0 -0.18469102932E+02  0.26444580142E+02 -0.29037899769E+02  0.47787271838E+02  0.20000003619E+02 0.  0.
         12    1    3    3    0    0  0.18469102932E+02 -0.26444580142E+02  0.29037899769E+02  0.43400728162E+02  0.00000000000E+00 0. -1.
         11    1    4    4    0    0 -0.60885813958E-01 -0.17316860536E+01 -0.25104197099E+01  0.30503526110E+01  0.51100000000E-03 0. -1.
        -11    1    4    4    0    0 -0.14116628386E+02  0.21784004486E+02 -0.12672128975E+02  0.28886067601E+02  0.51100000000E-03 0.  1.
        -12    1    4    4    0    0 -0.42915887325E+01  0.63922617095E+01 -0.13855351084E+02  0.15850851626E+02  0.00000000000E+00 0.  1.
</event>
<event>
 8    1  0.6019723E-011  0.9118800E+02  0.7816164E-02  0.1184000E+00
        -11   -1    0    0    0    0  0.00000000000E+00  0.00000000000E+00  0.45593999997E+02  0.45594000000E+02  0.51100000000E-03 0. -1.
         11   -1    0    0    0    0 -0.00000000000E+00 -0.00000000000E+00 -0.45593999997E+02  0.45594000000E+02  0.51100000000E-03 0.  1.
         23    2    1    2    0    0 -0.17763568394E-14  0.00000000000E+00  0.00000000000E+00  0.91188000000E+02  0.91188000000E+02 0.  0.
    9900012    2    3    3    0    0 -0.11366542373E+02 -0.39400551321E+01  0.41700132587E+02  0.47787269848E+02  0.19999994543E+02 0.  0.
        -12    1    3    3    0    0  0.11366542373E+02  0.39400551321E+01 -0.41700132587E+02  0.43400730152E+02  0.00000000000E+00 0.  1.
         11    1    4    4    0    0 -0.67396079097E+01  0.63284812458E+00  0.89071559122E+01  0.11187503664E+02  0.51100000000E-03 0. -1.
        -11    1    4    4    0    0 -0.53025065638E+01 -0.84186065877E+01  0.12711619349E+02  0.16142328812E+02  0.51100000000E-03 0.  1.
        -12    1    4    4    0    0  0.67557210003E+00  0.38457033310E+01  0.20081357326E+02  0.20457437372E+02  0.00000000000E+00 0.  1.
</event>
<event>
 8    1  0.6019723E-011  0.9118800E+02  0.7816164E-02  0.1184000E+00
        -11   -1    0    0    0    0  0.00000000000E+00  0.00000000000E+00  0.45593999997E+02  0.45594000000E+02  0.51100000000E-03 0. -1.
         11   -1    0    0    0    0 -0.00000000000E+00 -0.00000000000E+00 -0.45593999997E+02  0.45594000000E+02  0.51100000000E-03 0.  1.
         23    2    1    2    0    0  0.00000000000E+00  0.00000000000E+00  0.00000000000E+00  0.91188000000E+02  0.91188000000E+02 0.  0.
    9900012    2    3    3    0    0  0.34504437595E+02  0.23726465029E+02 -0.11407150882E+02  0.47787257521E+02  0.19999938341E+02 0.  0.
         12    1    3    3    0    0 -0.34504437595E+02 -0.23726465029E+02  0.11407150882E+02  0.43400742479E+02  0.00000000000E+00 0. -1.
         11    1    4    4    0    0  0.56340030270E+01  0.54085529408E+01  0.45260462484E+01  0.90266012389E+01  0.51100000000E-03 0. -1.
        -11    1    4    4    0    0  0.19187988847E+02  0.12768385098E+02 -0.15132762146E+02  0.27571925294E+02  0.51100000000E-03 0.  1.
        -12    1    4    4    0    0  0.96824457208E+01  0.55495269899E+01 -0.80043498403E+00  0.11188730988E+02  0.00000000000E+00 0.  1.
</event>
<event>
 8    1  0.6019723E-011  0.9118800E+02  0.7816164E-02  0.1184000E+00
        -11   -1    0    0    0    0  0.00000000000E+00  0.00000000000E+00  0.45593999997E+02  0.45594000000E+02  0.51100000000E-03 0. -1.
         11   -1    0    0    0    0 -0.00000000000E+00 -0.00000000000E+00 -0.45593999997E+02  0.45594000000E+02  0.51100000000E-03 0.  1.
         23    2    1    2    0    0  0.88817841970E-15 -0.17763568394E-14  0.00000000000E+00  0.91188000000E+02  0.91188000000E+02 0.  0.
    9900012    2    3    3    0    0 -0.71697419687E+01  0.10770108375E+02  0.41427317056E+02  0.47787273822E+02  0.20000012665E+02 0.  0.
        -12    1    3    3    0    0  0.71697419687E+01 -0.10770108375E+02 -0.41427317056E+02  0.43400726178E+02  0.00000000000E+00 0.  1.
         11    1    4    4    0    0 -0.60018671223E+00  0.31946497577E+01  0.11559757641E+02  0.12008080952E+02  0.51100000000E-03 0. -1.
        -11    1    4    4    0    0 -0.60931783286E+00  0.42883378797E+01  0.28511761897E+02  0.28838891738E+02  0.51100000000E-03 0.  1.
        -12    1    4    4    0    0 -0.59602374236E+01  0.32871207376E+01  0.13557975179E+01  0.69403011317E+01  0.00000000000E+00 0.  1.
</event>
<event>
 8    1  0.6019723E-011  0.9118800E+02  0.7816164E-02  0.1184000E+00
        -11   -1    0    0    0    0  0.00000000000E+00  0.00000000000E+00  0.45593999997E+02  0.45594000000E+02  0.51100000000E-03 0.  1.
         11   -1    0    0    0    0 -0.00000000000E+00 -0.00000000000E+00 -0.45593999997E+02  0.45594000000E+02  0.51100000000E-03 0. -1.
         23    2    1    2    0    0  0.17763568394E-14 -0.71054273576E-14  0.00000000000E+00  0.91188000000E+02  0.91188000000E+02 0.  0.
    9900012    2    3    3    0    0  0.12307873789E+02 -0.34807783599E+02 -0.22815731865E+02  0.47787272162E+02  0.20000005096E+02 0.  0.
         12    1    3    3    0    0 -0.12307873789E+02  0.34807783599E+02  0.22815731865E+02  0.43400727838E+02  0.00000000000E+00 0. -1.
         11    1    4    4    0    0 -0.19961647844E+01  0.45704980385E+00  0.14010710273E+01  0.24812433686E+01  0.51100000000E-03 0. -1.
        -11    1    4    4    0    0  0.13232619848E+02 -0.33382119749E+02 -0.21584559653E+02  0.41897032863E+02  0.51100000000E-03 0.  1.
        -12    1    4    4    0    0  0.10714187250E+01 -0.18827136540E+01 -0.26322432391E+01  0.34089959309E+01  0.00000000000E+00 0.  1.
</event>
<event>
 8    1  0.6019723E-011  0.9118800E+02  0.7816164E-02  0.1184000E+00
        -11   -1    0    0    0    0  0.00000000000E+00  0.00000000000E+00  0.45593999997E+02  0.45594000000E+02  0.51100000000E-03 0. -1.
         11   -1    0    0    0    0 -0.00000000000E+00 -0.00000000000E+00 -0.45593999997E+02  0.45594000000E+02  0.51100000000E-03 0.  1.
         23    2    1    2    0    0  0.00000000000E+00  0.17763568394E-14  0.00000000000E+00  0.91188000000E+02  0.91188000000E+02 0.  0.
    9900012    2    3    3    0    0 -0.33753946679E+02 -0.44934269163E+01  0.26909169465E+02  0.47787271859E+02  0.20000003715E+02 0.  0.
        -12    1    3    3    0    0  0.33753946679E+02  0.44934269163E+01 -0.26909169465E+02  0.43400728141E+02  0.00000000000E+00 0.  1.
         11    1    4    4    0    0 -0.17950640681E+02  0.38920293230E+01  0.19166980104E+02  0.26547062355E+02  0.51100000000E-03 0. -1.
        -11    1    4    4    0    0 -0.16931549142E+01  0.10381569006E+01  0.30431472932E+01  0.36339082299E+01  0.51100000000E-03 0.  1.
         12    1    4    4    0    0 -0.14110151084E+02 -0.94236131399E+01  0.46990420681E+01  0.17606301275E+02  0.00000000000E+00 0. -1.
</event>
<event>
 8    1  0.6019723E-011  0.9118800E+02  0.7816164E-02  0.1184000E+00
        -11   -1    0    0    0    0  0.00000000000E+00  0.00000000000E+00  0.45593999997E+02  0.45594000000E+02  0.51100000000E-03 0. -1.
         11   -1    0    0    0    0 -0.00000000000E+00 -0.00000000000E+00 -0.45593999997E+02  0.45594000000E+02  0.51100000000E-03 0.  1.
         23    2    1    2    0    0  0.00000000000E+00  0.17763568394E-14  0.00000000000E+00  0.91188000000E+02  0.91188000000E+02 0.  0.
    9900012    2    3    3    0    0 -0.39646170921E+01 -0.14218020078E+01  0.43195874763E+02  0.47787270673E+02  0.19999998305E+02 0.  0.
        -12    1    3    3    0    0  0.39646170921E+01  0.14218020078E+01 -0.43195874763E+02  0.43400729327E+02  0.00000000000E+00 0.  1.
         11    1    4    4    0    0 -0.38149457739E+01 -0.94259126170E+01  0.23444119503E+02  0.25554419959E+02  0.51100000000E-03 0. -1.
        -11    1    4    4    0    0  0.25282748006E+01  0.37472019303E+01  0.54969383172E+01  0.71168832292E+01  0.51100000000E-03 0.  1.
         12    1    4    4    0    0 -0.26779461188E+01  0.42569086790E+01  0.14254816943E+02  0.15115967484E+02  0.00000000000E+00 0. -1.
</event>
<event>
 8    1  0.6019723E-011  0.9118800E+02  0.7816164E-02  0.1184000E+00
        -11   -1    0    0    0    0  0.00000000000E+00  0.00000000000E+00  0.45593999997E+02  0.45594000000E+02  0.51100000000E-03 0. -1.
         11   -1    0    0    0    0 -0.00000000000E+00 -0.00000000000E+00 -0.45593999997E+02  0.45594000000E+02  0.51100000000E-03 0.  1.
         23    2    1    2    0    0  0.17763568394E-14  0.00000000000E+00 -0.71054273576E-14  0.91188000000E+02  0.91188000000E+02 0.  0.
    9900012    2    3    3    0    0 -0.14655936903E+02 -0.23222120084E+02  0.33608926002E+02  0.47787271265E+02  0.20000001008E+02 0.  0.
        -12    1    3    3    0    0  0.14655936903E+02  0.23222120084E+02 -0.33608926002E+02  0.43400728735E+02  0.00000000000E+00 0.  1.
         11    1    4    4    0    0 -0.55729303548E+01 -0.12243196997E+02  0.47979773043E+01  0.14281947063E+02  0.51100000000E-03 0. -1.
        -11    1    4    4    0    0 -0.18485249780E+01  0.12497568987E+01  0.80093071312E+01  0.83143212521E+01  0.51100000000E-03 0.  1.
         12    1    4    4    0    0 -0.72344815703E+01 -0.12228679986E+02  0.20801641566E+02  0.25191002950E+02  0.00000000000E+00 0. -1.
</event>
<event>
 8    1  0.6019723E-011  0.9118800E+02  0.7816164E-02  0.1184000E+00
        -11   -1    0    0    0    0  0.00000000000E+00  0.00000000000E+00  0.45593999997E+02  0.45594000000E+02  0.51100000000E-03 0. -1.
         11   -1    0    0    0    0 -0.00000000000E+00 -0.00000000000E+00 -0.45593999997E+02  0.45594000000E+02  0.51100000000E-03 0.  1.
         23    2    1    2    0    0  0.00000000000E+00  0.13322676296E-14  0.35527136788E-14  0.91188000000E+02  0.91188000000E+02 0.  0.
    9900012    2    3    3    0    0  0.38663411157E+02  0.39872191048E+01  0.19309728752E+02  0.47787275317E+02  0.20000019481E+02 0.  0.
        -12    1    3    3    0    0 -0.38663411157E+02 -0.39872191048E+01 -0.19309728752E+02  0.43400724683E+02  0.00000000000E+00 0.  1.
         11    1    4    4    0    0  0.21714182228E+02  0.65271106107E+01  0.12976717547E+02  0.26124779067E+02  0.51100000000E-03 0. -1.
        -11    1    4    4    0    0  0.13422940889E+02 -0.38426494803E+01 -0.38140930402E+00  0.13967346579E+02  0.51100000000E-03 0.  1.
        -12    1    4    4    0    0  0.35262880404E+01  0.13027579745E+01  0.67144205089E+01  0.76951496707E+01  0.00000000000E+00 0.  1.
</event>
<event>
 8    1  0.6019723E-011  0.9118800E+02  0.7816164E-02  0.1184000E+00
        -11   -1    0    0    0    0  0.00000000000E+00  0.00000000000E+00  0.45593999997E+02  0.45594000000E+02  0.51100000000E-03 0. -1.
         11   -1    0    0    0    0 -0.00000000000E+00 -0.00000000000E+00 -0.45593999997E+02  0.45594000000E+02  0.51100000000E-03 0.  1.
         23    2    1    2    0    0 -0.71054273576E-14 -0.88817841970E-15  0.00000000000E+00  0.91188000000E+02  0.91188000000E+02 0.  0.
    9900012    2    3    3    0    0  0.42130699546E+02  0.40970286186E+01 -0.95834073583E+01  0.47787272076E+02  0.20000004701E+02 0.  0.
         12    1    3    3    0    0 -0.42130699546E+02 -0.40970286186E+01  0.95834073583E+01  0.43400727924E+02  0.00000000000E+00 0. -1.
         11    1    4    4    0    0 -0.65660530247E+00  0.74970798713E+00 -0.27510836361E+01  0.29260304208E+01  0.51100000000E-03 0. -1.
        -11    1    4    4    0    0  0.80886798829E+01 -0.37416714428E+01 -0.17634633348E+01  0.90849683889E+01  0.51100000000E-03 0.  1.
         12    1    4    4    0    0  0.34698624966E+02  0.70889920742E+01 -0.50688603874E+01  0.35776273266E+02  0.00000000000E+00 0. -1.
</event>
<event>
 8    1  0.6019723E-011  0.9118800E+02  0.7816164E-02  0.1184000E+00
        -11   -1    0    0    0    0  0.00000000000E+00  0.00000000000E+00  0.45593999997E+02  0.45594000000E+02  0.51100000000E-03 0. -1.
         11   -1    0    0    0    0 -0.00000000000E+00 -0.00000000000E+00 -0.45593999997E+02  0.45594000000E+02  0.51100000000E-03 0.  1.
         23    2    1    2    0    0  0.17763568394E-14 -0.44408920985E-15  0.00000000000E+00  0.91188000000E+02  0.91188000000E+02 0.  0.
    9900012    2    3    3    0    0  0.10723343143E+02 -0.38129264096E+00  0.42053402224E+02  0.47787261402E+02  0.19999956036E+02 0.  0.
        -12    1    3    3    0    0 -0.10723343143E+02  0.38129264096E+00 -0.42053402224E+02  0.43400738598E+02  0.00000000000E+00 0.  1.
         11    1    4    4    0    0 -0.34922058352E+01 -0.44310472175E+01  0.61937852336E+01  0.83781058015E+01  0.51100000000E-03 0. -1.
        -11    1    4    4    0    0  0.13777302963E+02  0.40551647743E+01  0.27378074302E+02  0.30916296528E+02  0.51100000000E-03 0.  1.
         12    1    4    4    0    0  0.43824601520E+00 -0.54101977756E-02  0.84815426885E+01  0.84928590720E+01  0.00000000000E+00 0. -1.
</event>
<event>
 8    1  0.6019723E-011  0.9118800E+02  0.7816164E-02  0.1184000E+00
        -11   -1    0    0    0    0  0.00000000000E+00  0.00000000000E+00  0.45593999997E+02  0.45594000000E+02  0.51100000000E-03 0. -1.
         11   -1    0    0    0    0 -0.00000000000E+00 -0.00000000000E+00 -0.45593999997E+02  0.45594000000E+02  0.51100000000E-03 0.  1.
         23    2    1    2    0    0  0.00000000000E+00 -0.22204460493E-15  0.00000000000E+00  0.91188000000E+02  0.91188000000E+02 0.  0.
    9900012    2    3    3    0    0 -0.43164320343E+02 -0.19223563914E+01 -0.40950385281E+01  0.47787270221E+02  0.19999996245E+02 0.  0.
         12    1    3    3    0    0  0.43164320343E+02  0.19223563914E+01  0.40950385281E+01  0.43400729779E+02  0.00000000000E+00 0. -1.
         11    1    4    4    0    0 -0.49688527141E+00 -0.45971810789E+01 -0.16613921663E+01  0.49133688073E+01  0.51100000000E-03 0. -1.
        -11    1    4    4    0    0 -0.37754856788E+02  0.21612974402E+01 -0.28054118492E+01  0.37920584827E+02  0.51100000000E-03 0.  1.
         12    1    4    4    0    0 -0.49125782839E+01  0.51352724729E+00  0.37176548741E+00  0.49533165866E+01  0.00000000000E+00 0. -1.
</event>
<event>
 8    1  0.6019723E-011  0.9118800E+02  0.7816164E-02  0.1184000E+00
        -11   -1    0    0    0    0  0.00000000000E+00  0.00000000000E+00  0.45593999997E+02  0.45594000000E+02  0.51100000000E-03 0. -1.
         11   -1    0    0    0    0 -0.00000000000E+00 -0.00000000000E+00 -0.45593999997E+02  0.45594000000E+02  0.51100000000E-03 0.  1.
         23    2    1    2    0    0  0.35527136788E-14  0.88817841970E-15  0.00000000000E+00  0.91188000000E+02  0.91188000000E+02 0.  0.
    9900012    2    3    3    0    0  0.16585762356E+02 -0.58872650330E+01 -0.39672099874E+02  0.47787275226E+02  0.20000019066E+02 0.  0.
         12    1    3    3    0    0 -0.16585762356E+02  0.58872650330E+01  0.39672099874E+02  0.43400724774E+02  0.00000000000E+00 0. -1.
         11    1    4    4    0    0 -0.10345589317E+01 -0.80402415682E+01 -0.11458443931E+02  0.14036086856E+02  0.51100000000E-03 0. -1.
        -11    1    4    4    0    0  0.12807177724E+01 -0.10366461598E+01 -0.12748566605E+01  0.20832985958E+01  0.51100000000E-03 0.  1.
         12    1    4    4    0    0  0.16339603515E+02  0.31896226950E+01 -0.26938799283E+02  0.31667889774E+02  0.00000000000E+00 0. -1.
</event>
<event>
 8    1  0.6019723E-011  0.9118800E+02  0.7816164E-02  0.1184000E+00
        -11   -1    0    0    0    0  0.00000000000E+00  0.00000000000E+00  0.45593999997E+02  0.45594000000E+02  0.51100000000E-03 0. -1.
         11   -1    0    0    0    0 -0.00000000000E+00 -0.00000000000E+00 -0.45593999997E+02  0.45594000000E+02  0.51100000000E-03 0.  1.
         23    2    1    2    0    0  0.00000000000E+00  0.22204460493E-15  0.35527136788E-14  0.91188000000E+02  0.91188000000E+02 0.  0.
    9900012    2    3    3    0    0  0.39403763312E+02 -0.50255122195E+00 -0.18185554102E+02  0.47787268452E+02  0.19999988181E+02 0.  0.
         12    1    3    3    0    0 -0.39403763312E+02  0.50255122195E+00  0.18185554102E+02  0.43400731548E+02  0.00000000000E+00 0. -1.
         11    1    4    4    0    0  0.13899322934E+02 -0.48213015925E+01 -0.59661473596E+00  0.14723860787E+02  0.51100000000E-03 0. -1.
        -11    1    4    4    0    0  0.15322371962E+02 -0.63279947673E+00 -0.14994278345E+02  0.21447701534E+02  0.51100000000E-03 0.  1.
         12    1    4    4    0    0  0.10182068416E+02  0.49515498472E+01 -0.25946610203E+01  0.11615706132E+02  0.00000000000E+00 0. -1.
</event>
<event>
 8    1  0.6019723E-011  0.9118800E+02  0.7816164E-02  0.1184000E+00
        -11   -1    0    0    0    0  0.00000000000E+00  0.00000000000E+00  0.45593999997E+02  0.45594000000E+02  0.51100000000E-03 0. -1.
         11   -1    0    0    0    0 -0.00000000000E+00 -0.00000000000E+00 -0.45593999997E+02  0.45594000000E+02  0.51100000000E-03 0.  1.
         23    2    1    2    0    0  0.00000000000E+00  0.00000000000E+00  0.71054273576E-14  0.91188000000E+02  0.91188000000E+02 0.  0.
    9900012    2    3    3    0    0 -0.23905860354E+02 -0.76472700145E+01 -0.35406954437E+02  0.47787270508E+02  0.19999997553E+02 0.  0.
         12    1    3    3    0    0  0.23905860354E+02  0.76472700145E+01  0.35406954437E+02  0.43400729492E+02  0.00000000000E+00 0. -1.
         11    1    4    4    0    0  0.18184197873E+00 -0.27760723586E+01 -0.50861054098E+00  0.28281317489E+01  0.51100000000E-03 0. -1.
        -11    1    4    4    0    0 -0.13931862649E+02  0.20220011753E+01 -0.26744471667E+02  0.30223369280E+02  0.51100000000E-03 0.  1.
        -12    1    4    4    0    0 -0.10155839683E+02 -0.68931988312E+01 -0.81538722289E+01  0.14735769478E+02  0.00000000000E+00 0.  1.
</event>
<event>
 8    1  0.6019723E-011  0.9118800E+02  0.7816164E-02  0.1184000E+00
        -11   -1    0    0    0    0  0.00000000000E+00  0.00000000000E+00  0.45593999997E+02  0.45594000000E+02  0.51100000000E-03 0. -1.
         11   -1    0    0    0    0 -0.00000000000E+00 -0.00000000000E+00 -0.45593999997E+02  0.45594000000E+02  0.51100000000E-03 0.  1.
         23    2    1    2    0    0 -0.35527136788E-14  0.35527136788E-14  0.00000000000E+00  0.91188000000E+02  0.91188000000E+02 0.  0.
    9900012    2    3    3    0    0  0.20400994646E+02 -0.28964638276E+02 -0.25069391186E+02  0.47787248538E+02  0.19999897386E+02 0.  0.
         12    1    3    3    0    0 -0.20400994646E+02  0.28964638276E+02  0.25069391186E+02  0.43400751462E+02  0.00000000000E+00 0. -1.
         11    1    4    4    0    0  0.57324637923E+01 -0.16668065849E+02 -0.94533214031E+01  0.20001271112E+02  0.51100000000E-03 0. -1.
        -11    1    4    4    0    0  0.66668329102E+01 -0.62368772180E+01 -0.15211218387E+02  0.17740531660E+02  0.51100000000E-03 0.  1.
        -12    1    4    4    0    0  0.80016979432E+01 -0.60596952097E+01 -0.40485139508E+00  0.10045445767E+02  0.00000000000E+00 0.  1.
</event>
<event>
 8    1  0.6019723E-011  0.9118800E+02  0.7816164E-02  0.1184000E+00
        -11   -1    0    0    0    0  0.00000000000E+00  0.00000000000E+00  0.45593999997E+02  0.45594000000E+02  0.51100000000E-03 0. -1.
         11   -1    0    0    0    0 -0.00000000000E+00 -0.00000000000E+00 -0.45593999997E+02  0.45594000000E+02  0.51100000000E-03 0.  1.
         23    2    1    2    0    0  0.00000000000E+00  0.00000000000E+00  0.00000000000E+00  0.91188000000E+02  0.91188000000E+02 0.  0.
    9900012    2    3    3    0    0  0.24440670263E+02 -0.21010455361E+02 -0.29066094248E+02  0.47787269221E+02  0.19999991686E+02 0.  0.
         12    1    3    3    0    0 -0.24440670263E+02  0.21010455361E+02  0.29066094248E+02  0.43400730779E+02  0.00000000000E+00 0. -1.
         11    1    4    4    0    0  0.62304540119E+01 -0.82983592003E+01 -0.21769715782E+02  0.24116422788E+02  0.51100000000E-03 0. -1.
        -11    1    4    4    0    0  0.14781347722E+02 -0.11767530297E+02 -0.67993387557E+01  0.20079691669E+02  0.51100000000E-03 0.  1.
         12    1    4    4    0    0  0.34288685292E+01 -0.94456586385E+00 -0.49703970977E+00  0.35911547634E+01  0.00000000000E+00 0. -1.
</event>
<event>
 8    1  0.6019723E-011  0.9118800E+02  0.7816164E-02  0.1184000E+00
        -11   -1    0    0    0    0  0.00000000000E+00  0.00000000000E+00  0.45593999997E+02  0.45594000000E+02  0.51100000000E-03 0.  1.
         11   -1    0    0    0    0 -0.00000000000E+00 -0.00000000000E+00 -0.45593999997E+02  0.45594000000E+02  0.51100000000E-03 0. -1.
         23    2    1    2    0    0 -0.17763568394E-14  0.00000000000E+00  0.00000000000E+00  0.91188000000E+02  0.91188000000E+02 0.  0.
    9900012    2    3    3    0    0 -0.99847351030E+01  0.39985104535E+02 -0.13605897540E+02  0.47787263052E+02  0.19999963560E+02 0.  0.
         12    1    3    3    0    0  0.99847351030E+01 -0.39985104535E+02  0.13605897540E+02  0.43400736948E+02  0.00000000000E+00 0. -1.
         11    1    4    4    0    0 -0.72789137013E+00  0.23400781497E+02 -0.14525845839E+02  0.27552252142E+02  0.51100000000E-03 0. -1.
        -11    1    4    4    0    0 -0.87363240998E+01  0.95951081167E+01 -0.85674424940E+00  0.13004747961E+02  0.51100000000E-03 0.  1.
         12    1    4    4    0    0 -0.52051963299E+00  0.69892149212E+01  0.17766925484E+01  0.72302629492E+01  0.00000000000E+00 0. -1.
</event>
<event>
 8    1  0.6019723E-011  0.9118800E+02  0.7816164E-02  0.1184000E+00
        -11   -1    0    0    0    0  0.00000000000E+00  0.00000000000E+00  0.45593999997E+02  0.45594000000E+02  0.51100000000E-03 0. -1.
         11   -1    0    0    0    0 -0.00000000000E+00 -0.00000000000E+00 -0.45593999997E+02  0.45594000000E+02  0.51100000000E-03 0.  1.
         23    2    1    2    0    0 -0.71054273576E-14  0.35527136788E-14 -0.35527136788E-14  0.91188000000E+02  0.91188000000E+02 0.  0.
    9900012    2    3    3    0    0  0.25093741656E+02 -0.17031057234E+02  0.31046265288E+02  0.47787269947E+02  0.19999994997E+02 0.  0.
        -12    1    3    3    0    0 -0.25093741656E+02  0.17031057234E+02 -0.31046265288E+02  0.43400730053E+02  0.00000000000E+00 0.  1.
         11    1    4    4    0    0  0.23729503396E+02 -0.16684591956E+02  0.22314570114E+02  0.36597882177E+02  0.51100000000E-03 0. -1.
        -11    1    4    4    0    0 -0.91855245855E+00  0.23361372527E+01  0.10166997448E+01  0.27083121155E+01  0.51100000000E-03 0.  1.
        -12    1    4    4    0    0  0.22827907180E+01 -0.26826025302E+01  0.77149954289E+01  0.84810756550E+01  0.00000000000E+00 0.  1.
</event>
<event>
 8    1  0.6019723E-011  0.9118800E+02  0.7816164E-02  0.1184000E+00
        -11   -1    0    0    0    0  0.00000000000E+00  0.00000000000E+00  0.45593999997E+02  0.45594000000E+02  0.51100000000E-03 0. -1.
         11   -1    0    0    0    0 -0.00000000000E+00 -0.00000000000E+00 -0.45593999997E+02  0.45594000000E+02  0.51100000000E-03 0.  1.
         23    2    1    2    0    0  0.00000000000E+00  0.00000000000E+00  0.00000000000E+00  0.91188000000E+02  0.91188000000E+02 0.  0.
    9900012    2    3    3    0    0 -0.46213893268E+01  0.80251338071E+01 -0.42401216748E+02  0.47787271969E+02  0.20000004215E+02 0.  0.
         12    1    3    3    0    0  0.46213893268E+01 -0.80251338071E+01  0.42401216748E+02  0.43400728031E+02  0.00000000000E+00 0. -1.
         11    1    4    4    0    0 -0.11862673667E+02  0.47130643518E+01 -0.26057960914E+02  0.29016432058E+02  0.51100000000E-03 0. -1.
        -11    1    4    4    0    0  0.71171550534E+01  0.17557939166E+01 -0.15062174186E+02  0.16751292482E+02  0.51100000000E-03 0.  1.
        -12    1    4    4    0    0  0.12412928644E+00  0.15562755387E+01 -0.12810816473E+01  0.20195474293E+01  0.00000000000E+00 0.  1.
</event>
<event>
 8    1  0.8749266E-011  0.9118800E+02  0.7816164E-02  0.1184000E+00
        -11   -1    0    0    0    0  0.00000000000E+00  0.00000000000E+00  0.45593999997E+02  0.45594000000E+02  0.51100000000E-03 0. -1.
         11   -1    0    0    0    0 -0.00000000000E+00 -0.00000000000E+00 -0.45593999997E+02  0.45594000000E+02  0.51100000000E-03 0.  1.
         23    2    1    2    0    0  0.00000000000E+00  0.88817841970E-15 -0.71054273576E-14  0.91188000000E+02  0.91188000000E+02 0.  0.
    9900012    2    3    3    0    0 -0.11265483532E+02 -0.57325940204E+01 -0.41519264300E+02  0.47787273491E+02  0.20000011157E+02 0.  0.
         12    1    3    3    0    0  0.11265483532E+02  0.57325940204E+01  0.41519264300E+02  0.43400726509E+02  0.00000000000E+00 0. -1.
         11    1    4    4    0    0 -0.90863678430E+01 -0.81852888936E+01 -0.13382227387E+02  0.18128569854E+02  0.51100000000E-03 0. -1.
        -11    1    4    4    0    0 -0.12327061115E+00 -0.13307830161E+01 -0.22623632749E+02  0.22663074330E+02  0.51100000000E-03 0.  1.
         12    1    4    4    0    0 -0.20558450781E+01  0.37834778892E+01 -0.55134041650E+01  0.69956293077E+01  0.00000000000E+00 0. -1.
</event>
<event>
 8    1  0.6019723E-011  0.9118800E+02  0.7816164E-02  0.1184000E+00
        -11   -1    0    0    0    0  0.00000000000E+00  0.00000000000E+00  0.45593999997E+02  0.45594000000E+02  0.51100000000E-03 0. -1.
         11   -1    0    0    0    0 -0.00000000000E+00 -0.00000000000E+00 -0.45593999997E+02  0.45594000000E+02  0.51100000000E-03 0.  1.
         23    2    1    2    0    0  0.00000000000E+00  0.00000000000E+00  0.00000000000E+00  0.91188000000E+02  0.91188000000E+02 0.  0.
    9900012    2    3    3    0    0 -0.23685296956E+02  0.18499849766E+02 -0.31311108038E+02  0.47787271667E+02  0.20000002838E+02 0.  0.
         12    1    3    3    0    0  0.23685296956E+02 -0.18499849766E+02  0.31311108038E+02  0.43400728333E+02  0.00000000000E+00 0. -1.
         11    1    4    4    0    0 -0.17473707944E+02  0.18408520818E+02 -0.18737459585E+02  0.31548320081E+02  0.51100000000E-03 0.  1.
        -11    1    4    4    0    0 -0.60834928821E+01  0.25687925408E+01 -0.50394557030E+01  0.83068462613E+01  0.51100000000E-03 0. -1.
         12    1    4    4    0    0 -0.12809613028E+00 -0.24774635927E+01 -0.75341927507E+01  0.79321053244E+01  0.00000000000E+00 0. -1.
</event>
<event>
 8    1  0.6019723E-011  0.9118800E+02  0.7816164E-02  0.1184000E+00
        -11   -1    0    0    0    0  0.00000000000E+00  0.00000000000E+00  0.45593999997E+02  0.45594000000E+02  0.51100000000E-03 0. -1.
         11   -1    0    0    0    0 -0.00000000000E+00 -0.00000000000E+00 -0.45593999997E+02  0.45594000000E+02  0.51100000000E-03 0.  1.
         23    2    1    2    0    0 -0.69388939039E-16  0.00000000000E+00  0.00000000000E+00  0.91188000000E+02  0.91188000000E+02 0.  0.
    9900012    2    3    3    0    0 -0.95692011267E-01 -0.19776512600E+02 -0.38632937486E+02  0.47787268827E+02  0.19999989890E+02 0.  0.
         12    1    3    3    0    0  0.95692011267E-01  0.19776512600E+02  0.38632937486E+02  0.43400731173E+02  0.00000000000E+00 0. -1.
         11    1    4    4    0    0  0.12445603726E+01 -0.77478992893E+01 -0.14170657602E+01  0.79741425587E+01  0.51100000000E-03 0. -1.
        -11    1    4    4    0    0  0.15581515871E+01 -0.67631615536E+01 -0.27714316414E+02  0.28570115945E+02  0.51100000000E-03 0.  1.
         12    1    4    4    0    0 -0.28984039709E+01 -0.52654517572E+01 -0.95015553112E+01  0.11243010323E+02  0.00000000000E+00 0. -1.
</event>
<event>
 8    1  0.6019723E-011  0.9118800E+02  0.7816164E-02  0.1184000E+00
        -11   -1    0    0    0    0  0.00000000000E+00  0.00000000000E+00  0.45593999997E+02  0.45594000000E+02  0.51100000000E-03 0. -1.
         11   -1    0    0    0    0 -0.00000000000E+00 -0.00000000000E+00 -0.45593999997E+02  0.45594000000E+02  0.51100000000E-03 0.  1.
         23    2    1    2    0    0  0.00000000000E+00 -0.35527136788E-14  0.00000000000E+00  0.91188000000E+02  0.91188000000E+02 0.  0.
    9900012    2    3    3    0    0  0.35853886335E+02  0.16523732208E+02 -0.18030204691E+02  0.47787272211E+02  0.20000005320E+02 0.  0.
         12    1    3    3    0    0 -0.35853886335E+02 -0.16523732208E+02  0.18030204691E+02  0.43400727789E+02  0.00000000000E+00 0. -1.
         11    1    4    4    0    0  0.14235134777E+02 -0.31843072560E+01 -0.53274734653E+01  0.15529354417E+02  0.51100000000E-03 0. -1.
        -11    1    4    4    0    0  0.24001854980E+01  0.32302409594E+01 -0.21517859948E+00  0.40300929482E+01  0.51100000000E-03 0.  1.
         12    1    4    4    0    0  0.19218566060E+02  0.16477798504E+02 -0.12487552626E+02  0.28227824846E+02  0.00000000000E+00 0. -1.
</event>
<event>
 8    1  0.7523104E-011  0.9118800E+02  0.7816164E-02  0.1184000E+00
        -11   -1    0    0    0    0  0.00000000000E+00  0.00000000000E+00  0.45593999997E+02  0.45594000000E+02  0.51100000000E-03 0. -1.
         11   -1    0    0    0    0 -0.00000000000E+00 -0.00000000000E+00 -0.45593999997E+02  0.45594000000E+02  0.51100000000E-03 0.  1.
         23    2    1    2    0    0  0.33306690739E-15  0.71054273576E-14  0.00000000000E+00  0.91188000000E+02  0.91188000000E+02 0.  0.
    9900012    2    3    3    0    0 -0.75691619179E+00  0.34273326521E+02 -0.26615584736E+02  0.47787272082E+02  0.20000004732E+02 0.  0.
         12    1    3    3    0    0  0.75691619179E+00 -0.34273326521E+02  0.26615584736E+02  0.43400727918E+02  0.00000000000E+00 0. -1.
         11    1    4    4    0    0  0.34293070361E+00 -0.18403256257E+01 -0.11584173297E+01  0.22014383587E+01  0.51100000000E-03 0. -1.
        -11    1    4    4    0    0 -0.51563589491E+01  0.20558551568E+02 -0.10607998059E+02  0.23701723635E+02  0.51100000000E-03 0.  1.
         12    1    4    4    0    0  0.40565120537E+01  0.15555100578E+02 -0.14849169348E+02  0.21884110088E+02  0.00000000000E+00 0. -1.
</event>
<event>
 8    1  0.6019723E-011  0.9118800E+02  0.7816164E-02  0.1184000E+00
        -11   -1    0    0    0    0  0.00000000000E+00  0.00000000000E+00  0.45593999997E+02  0.45594000000E+02  0.51100000000E-03 0.  1.
         11   -1    0    0    0    0 -0.00000000000E+00 -0.00000000000E+00 -0.45593999997E+02  0.45594000000E+02  0.51100000000E-03 0. -1.
         23    2    1    2    0    0 -0.71054273576E-14 -0.17763568394E-14  0.44408920985E-15  0.91188000000E+02  0.91188000000E+02 0.  0.
    9900012    2    3    3    0    0  0.40938254153E+02  0.14290560700E+02 -0.18607801467E+01  0.47787270963E+02  0.19999999628E+02 0.  0.
         12    1    3    3    0    0 -0.40938254153E+02 -0.14290560700E+02  0.18607801467E+01  0.43400729037E+02  0.00000000000E+00 0. -1.
         11    1    4    4    0    0 -0.45405208808E+00  0.21383013910E+01  0.25853640156E+01  0.33856466873E+01  0.51100000000E-03 0. -1.
        -11    1    4    4    0    0  0.29693443069E+02  0.52921854806E+01 -0.10379967317E+00  0.30161541125E+02  0.51100000000E-03 0.  1.
         12    1    4    4    0    0  0.11698863172E+02  0.68600738285E+01 -0.43423444891E+01  0.14240083150E+02  0.00000000000E+00 0. -1.
</event>
<event>
 8    1  0.6019723E-011  0.9118800E+02  0.7816164E-02  0.1184000E+00
        -11   -1    0    0    0    0  0.00000000000E+00  0.00000000000E+00  0.45593999997E+02  0.45594000000E+02  0.51100000000E-03 0. -1.
         11   -1    0    0    0    0 -0.00000000000E+00 -0.00000000000E+00 -0.45593999997E+02  0.45594000000E+02  0.51100000000E-03 0.  1.
         23    2    1    2    0    0 -0.44408920985E-15  0.17763568394E-14  0.00000000000E+00  0.91188000000E+02  0.91188000000E+02 0.  0.
    9900012    2    3    3    0    0  0.20299039712E+01 -0.14866923119E+02  0.40724408136E+02  0.47787270385E+02  0.19999996992E+02 0.  0.
        -12    1    3    3    0    0 -0.20299039712E+01  0.14866923119E+02 -0.40724408136E+02  0.43400729615E+02  0.00000000000E+00 0.  1.
         11    1    4    4    0    0  0.14314420136E+01  0.20553162250E+00  0.10537934122E+02  0.10636697105E+02  0.51100000000E-03 0. -1.
        -11    1    4    4    0    0  0.47639558237E+01 -0.14972844624E+02  0.28713068121E+02  0.32731049974E+02  0.51100000000E-03 0.  1.
        -12    1    4    4    0    0 -0.41654938661E+01 -0.99610116564E-01  0.14734058934E+01  0.44195233058E+01  0.00000000000E+00 0.  1.
</event>
<event>
 8    1  0.6019723E-011  0.9118800E+02  0.7816164E-02  0.1184000E+00
        -11   -1    0    0    0    0  0.00000000000E+00  0.00000000000E+00  0.45593999997E+02  0.45594000000E+02  0.51100000000E-03 0. -1.
         11   -1    0    0    0    0 -0.00000000000E+00 -0.00000000000E+00 -0.45593999997E+02  0.45594000000E+02  0.51100000000E-03 0.  1.
         23    2    1    2    0    0  0.35527136788E-14  0.00000000000E+00 -0.35527136788E-14  0.91188000000E+02  0.91188000000E+02 0.  0.
    9900012    2    3    3    0    0 -0.20451023001E+02  0.31305721955E+02  0.22030220649E+02  0.47787272002E+02  0.20000004367E+02 0.  0.
        -12    1    3    3    0    0  0.20451023001E+02 -0.31305721955E+02 -0.22030220649E+02  0.43400727998E+02  0.00000000000E+00 0.  1.
         11    1    4    4    0    0 -0.86358085547E+01  0.23110111540E+02  0.17334875996E+02  0.30152153669E+02  0.51100000000E-03 0. -1.
        -11    1    4    4    0    0 -0.60641536074E+01 -0.75089465682E+00  0.31916847224E+01  0.68938126888E+01  0.51100000000E-03 0.  1.
        -12    1    4    4    0    0 -0.57510608390E+01  0.89465050714E+01  0.15036599304E+01  0.10741305645E+02  0.00000000000E+00 0.  1.
</event>
<event>
 8    1  0.6019723E-011  0.9118800E+02  0.7816164E-02  0.1184000E+00
        -11   -1    0    0    0    0  0.00000000000E+00  0.00000000000E+00  0.45593999997E+02  0.45594000000E+02  0.51100000000E-03 0. -1.
         11   -1    0    0    0    0 -0.00000000000E+00 -0.00000000000E+00 -0.45593999997E+02  0.45594000000E+02  0.51100000000E-03 0.  1.
         23    2    1    2    0    0  0.00000000000E+00  0.00000000000E+00  0.17763568394E-14  0.91188000000E+02  0.91188000000E+02 0.  0.
    9900012    2    3    3    0    0  0.73117895169E+01  0.42196422198E+02  0.70443235910E+01  0.47787276422E+02  0.20000024520E+02 0.  0.
        -12    1    3    3    0    0 -0.73117895169E+01 -0.42196422198E+02 -0.70443235910E+01  0.43400723578E+02  0.00000000000E+00 0.  1.
         11    1    4    4    0    0 -0.42991677345E+01  0.11275122757E+02  0.63985472503E+01  0.13658427566E+02  0.51100000000E-03 0. -1.
        -11    1    4    4    0    0  0.47131054742E+01  0.17619809055E+02 -0.35222992825E+01  0.18576265147E+02  0.51100000000E-03 0.  1.
        -12    1    4    4    0    0  0.68978517772E+01  0.13301490386E+02  0.41680756232E+01  0.15552583709E+02  0.00000000000E+00 0.  1.
</event>
<event>
 8    1  0.6019723E-011  0.9118800E+02  0.7816164E-02  0.1184000E+00
        -11   -1    0    0    0    0  0.00000000000E+00  0.00000000000E+00  0.45593999997E+02  0.45594000000E+02  0.51100000000E-03 0. -1.
         11   -1    0    0    0    0 -0.00000000000E+00 -0.00000000000E+00 -0.45593999997E+02  0.45594000000E+02  0.51100000000E-03 0.  1.
         23    2    1    2    0    0 -0.35527136788E-14  0.00000000000E+00  0.17763568394E-14  0.91188000000E+02  0.91188000000E+02 0.  0.
    9900012    2    3    3    0    0 -0.26765280907E+02  0.33429649263E+02  0.70500418181E+01  0.47787253445E+02  0.19999919757E+02 0.  0.
        -12    1    3    3    0    0  0.26765280907E+02 -0.33429649263E+02 -0.70500418181E+01  0.43400746555E+02  0.00000000000E+00 0.  1.
         11    1    4    4    0    0  0.20204842491E+01  0.84052404036E+00 -0.15322143851E+01  0.26714262944E+01  0.51100000000E-03 0.  1.
        -11    1    4    4    0    0 -0.11733414580E+02  0.18597498758E+02  0.66521538253E+01  0.22973705155E+02  0.51100000000E-03 0. -1.
         12    1    4    4    0    0 -0.17052350576E+02  0.13991626465E+02  0.19301023779E+01  0.22142121996E+02  0.00000000000E+00 0. -1.
</event>
<event>
 8    1  0.6019723E-011  0.9118800E+02  0.7816164E-02  0.1184000E+00
        -11   -1    0    0    0    0  0.00000000000E+00  0.00000000000E+00  0.45593999997E+02  0.45594000000E+02  0.51100000000E-03 0. -1.
         11   -1    0    0    0    0 -0.00000000000E+00 -0.00000000000E+00 -0.45593999997E+02  0.45594000000E+02  0.51100000000E-03 0.  1.
         23    2    1    2    0    0  0.00000000000E+00  0.00000000000E+00 -0.35527136788E-14  0.91188000000E+02  0.91188000000E+02 0.  0.
    9900012    2    3    3    0    0 -0.30269410182E+02 -0.42239862608E+01 -0.30814679076E+02  0.47787266144E+02  0.19999977657E+02 0.  0.
         12    1    3    3    0    0  0.30269410182E+02  0.42239862608E+01  0.30814679076E+02  0.43400733856E+02  0.00000000000E+00 0. -1.
         11    1    4    4    0    0 -0.60221336935E+01  0.28066352787E+00  0.14361298555E+01  0.61973652032E+01  0.51100000000E-03 0. -1.
        -11    1    4    4    0    0 -0.12658165224E+02 -0.28243776552E+01 -0.23949473974E+02  0.27235703770E+02  0.51100000000E-03 0.  1.
        -12    1    4    4    0    0 -0.11589111264E+02 -0.16802721334E+01 -0.83013349577E+01  0.14354197170E+02  0.00000000000E+00 0.  1.
</event>
<event>
 8    1  0.6019723E-011  0.9118800E+02  0.7816164E-02  0.1184000E+00
        -11   -1    0    0    0    0  0.00000000000E+00  0.00000000000E+00  0.45593999997E+02  0.45594000000E+02  0.51100000000E-03 0. -1.
         11   -1    0    0    0    0 -0.00000000000E+00 -0.00000000000E+00 -0.45593999997E+02  0.45594000000E+02  0.51100000000E-03 0.  1.
         23    2    1    2    0    0  0.00000000000E+00  0.00000000000E+00  0.00000000000E+00  0.91188000000E+02  0.91188000000E+02 0.  0.
    9900012    2    3    3    0    0  0.11445263108E+02  0.20772388240E+02 -0.36347481638E+02  0.47787244451E+02  0.19999878751E+02 0.  0.
         12    1    3    3    0    0 -0.11445263108E+02 -0.20772388240E+02  0.36347481638E+02  0.43400755549E+02  0.00000000000E+00 0. -1.
         11    1    4    4    0    0  0.80687147952E+01  0.11199001913E+02 -0.85790237964E+01  0.16251813802E+02  0.51100000000E-03 0. -1.
        -11    1    4    4    0    0 -0.39817476013E+01  0.33075289144E+01 -0.11528042499E+02  0.12636843973E+02  0.51100000000E-03 0.  1.
         12    1    4    4    0    0  0.73582959137E+01  0.62658574130E+01 -0.16240415342E+02  0.18898586676E+02  0.00000000000E+00 0. -1.
</event>
<event>
 8    1  0.6019723E-011  0.9118800E+02  0.7816164E-02  0.1184000E+00
        -11   -1    0    0    0    0  0.00000000000E+00  0.00000000000E+00  0.45593999997E+02  0.45594000000E+02  0.51100000000E-03 0. -1.
         11   -1    0    0    0    0 -0.00000000000E+00 -0.00000000000E+00 -0.45593999997E+02  0.45594000000E+02  0.51100000000E-03 0.  1.
         23    2    1    2    0    0  0.00000000000E+00  0.00000000000E+00  0.00000000000E+00  0.91188000000E+02  0.91188000000E+02 0.  0.
    9900012    2    3    3    0    0  0.13324706515E+02 -0.16189679815E+02 -0.37999590347E+02  0.47787281080E+02  0.20000045756E+02 0.  0.
         12    1    3    3    0    0 -0.13324706515E+02  0.16189679815E+02  0.37999590347E+02  0.43400718920E+02  0.00000000000E+00 0. -1.
         11    1    4    4    0    0  0.73552929160E+00 -0.57933476339E+01 -0.19986136403E+02  0.20821852192E+02  0.51100000000E-03 0. -1.
        -11    1    4    4    0    0  0.14813610237E+02 -0.81653464850E+01 -0.15101943076E+02  0.22675639272E+02  0.51100000000E-03 0.  1.
        -12    1    4    4    0    0 -0.22244330132E+01 -0.22309856965E+01 -0.29115108684E+01  0.42897896155E+01  0.00000000000E+00 0.  1.
</event>
<event>
 8    1  0.6019723E-011  0.9118800E+02  0.7816164E-02  0.1184000E+00
        -11   -1    0    0    0    0  0.00000000000E+00  0.00000000000E+00  0.45593999997E+02  0.45594000000E+02  0.51100000000E-03 0. -1.
         11   -1    0    0    0    0 -0.00000000000E+00 -0.00000000000E+00 -0.45593999997E+02  0.45594000000E+02  0.51100000000E-03 0.  1.
         23    2    1    2    0    0  0.00000000000E+00  0.00000000000E+00  0.00000000000E+00  0.91188000000E+02  0.91188000000E+02 0.  0.
    9900012    2    3    3    0    0 -0.19389222735E+02 -0.25212852587E+02 -0.29529532724E+02  0.47787271933E+02  0.20000004053E+02 0.  0.
         12    1    3    3    0    0  0.19389222735E+02  0.25212852587E+02  0.29529532724E+02  0.43400728067E+02  0.00000000000E+00 0. -1.
         11    1    4    4    0    0 -0.12589238964E+02 -0.43721988942E+01 -0.87830206177E+01  0.15960780441E+02  0.51100000000E-03 0. -1.
        -11    1    4    4    0    0 -0.63471247470E+01 -0.21590252252E+02 -0.17624731632E+02  0.28584194062E+02  0.51100000000E-03 0.  1.
        -12    1    4    4    0    0 -0.45285902354E+00  0.74959855844E+00 -0.31217804742E+01  0.32422974298E+01  0.00000000000E+00 0.  1.
</event>
<event>
 8    1  0.6019723E-011  0.9118800E+02  0.7816164E-02  0.1184000E+00
        -11   -1    0    0    0    0  0.00000000000E+00  0.00000000000E+00  0.45593999997E+02  0.45594000000E+02  0.51100000000E-03 0. -1.
         11   -1    0    0    0    0 -0.00000000000E+00 -0.00000000000E+00 -0.45593999997E+02  0.45594000000E+02  0.51100000000E-03 0.  1.
         23    2    1    2    0    0  0.00000000000E+00  0.00000000000E+00  0.71054273576E-14  0.91188000000E+02  0.91188000000E+02 0.  0.
    9900012    2    3    3    0    0  0.15503055696E+01  0.15653916245E+02 -0.40449654488E+02  0.47787273170E+02  0.20000009691E+02 0.  0.
         12    1    3    3    0    0 -0.15503055696E+01 -0.15653916245E+02  0.40449654488E+02  0.43400726830E+02  0.00000000000E+00 0. -1.
         11    1    4    4    0    0  0.97758370690E+00  0.16800202993E+02 -0.34465153359E+02  0.38354260348E+02  0.51100000000E-03 0.  1.
        -11    1    4    4    0    0  0.19732782961E+01  0.10906832169E+00  0.98927222890E+00  0.22100640119E+01  0.51100000000E-03 0. -1.
         12    1    4    4    0    0 -0.14005564333E+01 -0.12553550688E+01 -0.69737733576E+01  0.72229488102E+01  0.00000000000E+00 0. -1.
</event>
<event>
 8    1  0.6019723E-011  0.9118800E+02  0.7816164E-02  0.1184000E+00
        -11   -1    0    0    0    0  0.00000000000E+00  0.00000000000E+00  0.45593999997E+02  0.45594000000E+02  0.51100000000E-03 0. -1.
         11   -1    0    0    0    0 -0.00000000000E+00 -0.00000000000E+00 -0.45593999997E+02  0.45594000000E+02  0.51100000000E-03 0.  1.
         23    2    1    2    0    0 -0.71054273576E-14  0.44408920985E-15  0.71054273576E-14  0.91188000000E+02  0.91188000000E+02 0.  0.
    9900012    2    3    3    0    0 -0.32132883754E+02  0.37128826335E+01  0.28936425041E+02  0.47787257957E+02  0.19999940327E+02 0.  0.
        -12    1    3    3    0    0  0.32132883754E+02 -0.37128826335E+01 -0.28936425041E+02  0.43400742043E+02  0.00000000000E+00 0.  1.
         11    1    4    4    0    0 -0.12611926316E+02  0.16547061266E+01  0.19872006537E+02  0.23594393017E+02  0.51100000000E-03 0. -1.
        -11    1    4    4    0    0 -0.45990728815E+01  0.27784063677E+01 -0.18594022373E+01  0.56858060339E+01  0.51100000000E-03 0.  1.
        -12    1    4    4    0    0 -0.14921884556E+02 -0.72022986080E+00  0.10923820741E+02  0.18507058906E+02  0.00000000000E+00 0.  1.
</event>
<event>
 8    1  0.6019723E-011  0.9118800E+02  0.7816164E-02  0.1184000E+00
        -11   -1    0    0    0    0  0.00000000000E+00  0.00000000000E+00  0.45593999997E+02  0.45594000000E+02  0.51100000000E-03 0. -1.
         11   -1    0    0    0    0 -0.00000000000E+00 -0.00000000000E+00 -0.45593999997E+02  0.45594000000E+02  0.51100000000E-03 0.  1.
         23    2    1    2    0    0  0.00000000000E+00  0.00000000000E+00 -0.71054273576E-14  0.91188000000E+02  0.91188000000E+02 0.  0.
    9900012    2    3    3    0    0 -0.74021553979E+01 -0.25316106454E+02  0.34466304695E+02  0.47787270629E+02  0.19999998108E+02 0.  0.
        -12    1    3    3    0    0  0.74021553979E+01  0.25316106454E+02 -0.34466304695E+02  0.43400729371E+02  0.00000000000E+00 0.  1.
         11    1    4    4    0    0 -0.10864047121E+01 -0.25518495291E+01  0.17761783955E+02  0.17977018127E+02  0.51100000000E-03 0. -1.
        -11    1    4    4    0    0 -0.25358914000E+01 -0.15272796837E+02  0.14314724843E+02  0.21085549934E+02  0.51100000000E-03 0.  1.
         12    1    4    4    0    0 -0.37798592858E+01 -0.74914600887E+01  0.23897958970E+01  0.87247025686E+01  0.00000000000E+00 0. -1.
</event>
<event>
 8    1  0.6019723E-011  0.9118800E+02  0.7816164E-02  0.1184000E+00
        -11   -1    0    0    0    0  0.00000000000E+00  0.00000000000E+00  0.45593999997E+02  0.45594000000E+02  0.51100000000E-03 0.  1.
         11   -1    0    0    0    0 -0.00000000000E+00 -0.00000000000E+00 -0.45593999997E+02  0.45594000000E+02  0.51100000000E-03 0. -1.
         23    2    1    2    0    0  0.00000000000E+00  0.00000000000E+00 -0.88817841970E-15  0.91188000000E+02  0.91188000000E+02 0.  0.
    9900012    2    3    3    0    0  0.20511571164E+02 -0.38093017699E+02 -0.34381135129E+01  0.47787272200E+02  0.20000005269E+02 0.  0.
         12    1    3    3    0    0 -0.20511571164E+02  0.38093017699E+02  0.34381135129E+01  0.43400727800E+02  0.00000000000E+00 0. -1.
         11    1    4    4    0    0  0.84118138216E+01 -0.88119393312E+01 -0.84797104154E+01  0.14842990788E+02  0.51100000000E-03 0. -1.
        -11    1    4    4    0    0  0.11763627997E+02 -0.21090140636E+02  0.21221597196E+01  0.24242123212E+02  0.51100000000E-03 0.  1.
         12    1    4    4    0    0  0.33612934487E+00 -0.81909377318E+01  0.29194371829E+01  0.87021581994E+01  0.00000000000E+00 0. -1.
</event>
<event>
 8    1  0.6019723E-011  0.9118800E+02  0.7816164E-02  0.1184000E+00
        -11   -1    0    0    0    0  0.00000000000E+00  0.00000000000E+00  0.45593999997E+02  0.45594000000E+02  0.51100000000E-03 0.  1.
         11   -1    0    0    0    0 -0.00000000000E+00 -0.00000000000E+00 -0.45593999997E+02  0.45594000000E+02  0.51100000000E-03 0. -1.
         23    2    1    2    0    0  0.00000000000E+00  0.00000000000E+00  0.00000000000E+00  0.91188000000E+02  0.91188000000E+02 0.  0.
    9900012    2    3    3    0    0  0.37329246186E+02  0.20523518541E+02 -0.83027436240E+01  0.47787274363E+02  0.20000015130E+02 0.  0.
         12    1    3    3    0    0 -0.37329246186E+02 -0.20523518541E+02  0.83027436240E+01  0.43400725637E+02  0.00000000000E+00 0. -1.
         11    1    4    4    0    0  0.10051756063E+02 -0.13437054687E+01 -0.22286318224E+01  0.10383166395E+02  0.51100000000E-03 0. -1.
        -11    1    4    4    0    0  0.25765755201E+02  0.23224045939E+02 -0.48305283470E+01  0.35022342230E+02  0.51100000000E-03 0.  1.
        -12    1    4    4    0    0  0.15117349222E+01 -0.13568219293E+01 -0.12435834545E+01  0.23817657381E+01  0.00000000000E+00 0.  1.
</event>
<event>
 8    1  0.6019723E-011  0.9118800E+02  0.7816164E-02  0.1184000E+00
        -11   -1    0    0    0    0  0.00000000000E+00  0.00000000000E+00  0.45593999997E+02  0.45594000000E+02  0.51100000000E-03 0. -1.
         11   -1    0    0    0    0 -0.00000000000E+00 -0.00000000000E+00 -0.45593999997E+02  0.45594000000E+02  0.51100000000E-03 0.  1.
         23    2    1    2    0    0  0.35527136788E-14  0.35527136788E-14  0.35527136788E-14  0.91188000000E+02  0.91188000000E+02 0.  0.
    9900012    2    3    3    0    0 -0.13000610570E+02 -0.29857080662E+02 -0.28690805797E+02  0.47787268691E+02  0.19999989271E+02 0.  0.
         12    1    3    3    0    0  0.13000610570E+02  0.29857080662E+02  0.28690805797E+02  0.43400731309E+02  0.00000000000E+00 0. -1.
         11    1    4    4    0    0 -0.10332997781E+02 -0.92570216583E+01 -0.76162316656E+01  0.15826252815E+02  0.51100000000E-03 0. -1.
        -11    1    4    4    0    0 -0.21520268979E+01 -0.94698529890E+01 -0.17917820805E+02  0.20380324778E+02  0.51100000000E-03 0.  1.
        -12    1    4    4    0    0 -0.51558589055E+00 -0.11130206014E+02 -0.31567533266E+01  0.11580691097E+02  0.00000000000E+00 0.  1.
</event>
<event>
 8    1  0.6019723E-011  0.9118800E+02  0.7816164E-02  0.1184000E+00
        -11   -1    0    0    0    0  0.00000000000E+00  0.00000000000E+00  0.45593999997E+02  0.45594000000E+02  0.51100000000E-03 0. -1.
         11   -1    0    0    0    0 -0.00000000000E+00 -0.00000000000E+00 -0.45593999997E+02  0.45594000000E+02  0.51100000000E-03 0.  1.
         23    2    1    2    0    0  0.00000000000E+00  0.00000000000E+00  0.00000000000E+00  0.91188000000E+02  0.91188000000E+02 0.  0.
    9900012    2    3    3    0    0 -0.18997193567E+02 -0.18103660877E+02 -0.34568593760E+02  0.47787267574E+02  0.19999984175E+02 0.  0.
         12    1    3    3    0    0  0.18997193567E+02  0.18103660877E+02  0.34568593760E+02  0.43400732426E+02  0.00000000000E+00 0. -1.
         11    1    4    4    0    0 -0.31900622512E+01 -0.11529654142E+02 -0.77566596563E+01  0.14257460892E+02  0.51100000000E-03 0. -1.
        -11    1    4    4    0    0 -0.14479213924E+02 -0.11243552363E+01 -0.19136948166E+02  0.24023625786E+02  0.51100000000E-03 0.  1.
        -12    1    4    4    0    0 -0.13279173914E+01 -0.54496514990E+01 -0.76749859384E+01  0.95061808952E+01  0.00000000000E+00 0.  1.
</event>
<event>
 8    1  0.6019723E-011  0.9118800E+02  0.7816164E-02  0.1184000E+00
        -11   -1    0    0    0    0  0.00000000000E+00  0.00000000000E+00  0.45593999997E+02  0.45594000000E+02  0.51100000000E-03 0. -1.
         11   -1    0    0    0    0 -0.00000000000E+00 -0.00000000000E+00 -0.45593999997E+02  0.45594000000E+02  0.51100000000E-03 0.  1.
         23    2    1    2    0    0  0.00000000000E+00  0.00000000000E+00  0.00000000000E+00  0.91188000000E+02  0.91188000000E+02 0.  0.
    9900012    2    3    3    0    0 -0.90460244442E+01 -0.32776775977E+02  0.26971766283E+02  0.47787265235E+02  0.19999973513E+02 0.  0.
        -12    1    3    3    0    0  0.90460244442E+01  0.32776775977E+02 -0.26971766283E+02  0.43400734765E+02  0.00000000000E+00 0.  1.
         11    1    4    4    0    0 -0.12066322995E+02 -0.23619744280E+02  0.19597975296E+02  0.32978312668E+02  0.51100000000E-03 0.  1.
        -11    1    4    4    0    0 -0.24426194320E+01 -0.20336414693E+01 -0.20970080050E-01  0.31784473129E+01  0.51100000000E-03 0. -1.
         12    1    4    4    0    0  0.54629179832E+01 -0.71233902285E+01  0.73947610664E+01  0.11630505254E+02  0.00000000000E+00 0. -1.
</event>
<event>
 8    1  0.6019723E-011  0.9118800E+02  0.7816164E-02  0.1184000E+00
        -11   -1    0    0    0    0  0.00000000000E+00  0.00000000000E+00  0.45593999997E+02  0.45594000000E+02  0.51100000000E-03 0. -1.
         11   -1    0    0    0    0 -0.00000000000E+00 -0.00000000000E+00 -0.45593999997E+02  0.45594000000E+02  0.51100000000E-03 0.  1.
         23    2    1    2    0    0  0.35527136788E-14  0.88817841970E-15  0.71054273576E-14  0.91188000000E+02  0.91188000000E+02 0.  0.
    9900012    2    3    3    0    0 -0.16695591411E+02 -0.57627443033E+01 -0.39644312150E+02  0.47787268666E+02  0.19999989154E+02 0.  0.
         12    1    3    3    0    0  0.16695591411E+02  0.57627443033E+01  0.39644312150E+02  0.43400731334E+02  0.00000000000E+00 0. -1.
         11    1    4    4    0    0 -0.62915349279E+00 -0.19212788250E+01 -0.19571994820E+02  0.19676130919E+02  0.51100000000E-03 0. -1.
        -11    1    4    4    0    0 -0.61251616131E+01 -0.15276089142E+01 -0.88052537353E+00  0.63738935491E+01  0.51100000000E-03 0.  1.
        -12    1    4    4    0    0 -0.99412763056E+01 -0.23138565640E+01 -0.19191791957E+02  0.21737244197E+02  0.00000000000E+00 0.  1.
</event>
<event>
 8    1  0.6019723E-011  0.9118800E+02  0.7816164E-02  0.1184000E+00
        -11   -1    0    0    0    0  0.00000000000E+00  0.00000000000E+00  0.45593999997E+02  0.45594000000E+02  0.51100000000E-03 0. -1.
         11   -1    0    0    0    0 -0.00000000000E+00 -0.00000000000E+00 -0.45593999997E+02  0.45594000000E+02  0.51100000000E-03 0.  1.
         23    2    1    2    0    0  0.35527136788E-14  0.00000000000E+00  0.00000000000E+00  0.91188000000E+02  0.91188000000E+02 0.  0.
    9900012    2    3    3    0    0  0.26612117967E+02  0.23630751996E+02  0.24839599463E+02  0.47787274613E+02  0.20000016270E+02 0.  0.
        -12    1    3    3    0    0 -0.26612117967E+02 -0.23630751996E+02 -0.24839599463E+02  0.43400725387E+02  0.00000000000E+00 0.  1.
         11    1    4    4    0    0  0.26245139905E+02  0.16845796101E+02  0.14610020624E+02  0.34438944784E+02  0.51100000000E-03 0. -1.
        -11    1    4    4    0    0 -0.69948011810E+00 -0.56373695809E+00  0.23753494404E+01  0.25395584298E+01  0.51100000000E-03 0.  1.
         12    1    4    4    0    0  0.10664581798E+01  0.73486928539E+01  0.78542293991E+01  0.10808771399E+02  0.00000000000E+00 0. -1.
</event>
<event>
 8    1  0.6019723E-011  0.9118800E+02  0.7816164E-02  0.1184000E+00
        -11   -1    0    0    0    0  0.00000000000E+00  0.00000000000E+00  0.45593999997E+02  0.45594000000E+02  0.51100000000E-03 0. -1.
         11   -1    0    0    0    0 -0.00000000000E+00 -0.00000000000E+00 -0.45593999997E+02  0.45594000000E+02  0.51100000000E-03 0.  1.
         23    2    1    2    0    0  0.35527136788E-14  0.17763568394E-14  0.71054273576E-14  0.91188000000E+02  0.91188000000E+02 0.  0.
    9900012    2    3    3    0    0  0.17004714049E+02  0.13286410498E+02  0.37655477074E+02  0.47787263169E+02  0.19999964093E+02 0.  0.
        -12    1    3    3    0    0 -0.17004714049E+02 -0.13286410498E+02 -0.37655477074E+02  0.43400736831E+02  0.00000000000E+00 0.  1.
         11    1    4    4    0    0  0.19498598850E+02  0.11235990181E+02  0.31574914751E+02  0.38773935501E+02  0.51100000000E-03 0. -1.
        -11    1    4    4    0    0 -0.26236142990E+01  0.37566332104E+01  0.56005340768E+01  0.72361334477E+01  0.51100000000E-03 0.  1.
         12    1    4    4    0    0  0.12972949840E+00 -0.17062128932E+01  0.48002824588E+00  0.17771942202E+01  0.00000000000E+00 0. -1.
</event>
<event>
 8    1  0.6019723E-011  0.9118800E+02  0.7816164E-02  0.1184000E+00
        -11   -1    0    0    0    0  0.00000000000E+00  0.00000000000E+00  0.45593999997E+02  0.45594000000E+02  0.51100000000E-03 0. -1.
         11   -1    0    0    0    0 -0.00000000000E+00 -0.00000000000E+00 -0.45593999997E+02  0.45594000000E+02  0.51100000000E-03 0.  1.
         23    2    1    2    0    0  0.00000000000E+00  0.00000000000E+00  0.00000000000E+00  0.91188000000E+02  0.91188000000E+02 0.  0.
    9900012    2    3    3    0    0 -0.20341636714E+02 -0.13615839965E+02  0.35839225757E+02  0.47787269764E+02  0.19999994161E+02 0.  0.
        -12    1    3    3    0    0  0.20341636714E+02  0.13615839965E+02 -0.35839225757E+02  0.43400730236E+02  0.00000000000E+00 0.  1.
         11    1    4    4    0    0 -0.49472543209E+01 -0.37057182076E+01  0.60044522610E+01  0.86174891915E+01  0.51100000000E-03 0. -1.
        -11    1    4    4    0    0 -0.80266414247E+00 -0.10557778764E+02  0.14909666831E+02  0.18286856685E+02  0.51100000000E-03 0.  1.
        -12    1    4    4    0    0 -0.14591718251E+02  0.64765700676E+00  0.14925106666E+02  0.20882923887E+02  0.00000000000E+00 0.  1.
</event>
<event>
 8    1  0.6019723E-011  0.9118800E+02  0.7816164E-02  0.1184000E+00
        -11   -1    0    0    0    0  0.00000000000E+00  0.00000000000E+00  0.45593999997E+02  0.45594000000E+02  0.51100000000E-03 0. -1.
         11   -1    0    0    0    0 -0.00000000000E+00 -0.00000000000E+00 -0.45593999997E+02  0.45594000000E+02  0.51100000000E-03 0.  1.
         23    2    1    2    0    0  0.00000000000E+00 -0.66613381478E-15  0.00000000000E+00  0.91188000000E+02  0.91188000000E+02 0.  0.
    9900012    2    3    3    0    0  0.17509177038E+01 -0.50696923593E+00  0.43362427862E+02  0.47787275574E+02  0.20000020651E+02 0.  0.
        -12    1    3    3    0    0 -0.17509177038E+01  0.50696923593E+00 -0.43362427862E+02  0.43400724426E+02  0.00000000000E+00 0.  1.
         11    1    4    4    0    0 -0.13249738751E+01  0.11486856793E+01  0.84462995379E+01  0.86264135482E+01  0.51100000000E-03 0. -1.
        -11    1    4    4    0    0  0.31824603379E+01  0.76942980769E+01  0.14909910422E+02  0.17077344810E+02  0.51100000000E-03 0.  1.
        -12    1    4    4    0    0 -0.10656875893E+00 -0.93499529921E+01  0.20006217903E+02  0.22083517216E+02  0.00000000000E+00 0.  1.
</event>
<event>
 8    1  0.6019723E-011  0.9118800E+02  0.7816164E-02  0.1184000E+00
        -11   -1    0    0    0    0  0.00000000000E+00  0.00000000000E+00  0.45593999997E+02  0.45594000000E+02  0.51100000000E-03 0. -1.
         11   -1    0    0    0    0 -0.00000000000E+00 -0.00000000000E+00 -0.45593999997E+02  0.45594000000E+02  0.51100000000E-03 0.  1.
         23    2    1    2    0    0  0.00000000000E+00  0.00000000000E+00  0.00000000000E+00  0.91188000000E+02  0.91188000000E+02 0.  0.
    9900012    2    3    3    0    0 -0.35637073963E+02 -0.10820686249E+02  0.22283035726E+02  0.47787286035E+02  0.20000068347E+02 0.  0.
        -12    1    3    3    0    0  0.35637073963E+02  0.10820686249E+02 -0.22283035726E+02  0.43400713965E+02  0.00000000000E+00 0.  1.
         11    1    4    4    0    0 -0.35521175049E+02 -0.77376634706E+01  0.19978684585E+02  0.41482202821E+02  0.51100000000E-03 0. -1.
        -11    1    4    4    0    0  0.18988521402E+01 -0.33469906141E+00 -0.38230007560E+00  0.19656593095E+01  0.51100000000E-03 0.  1.
         12    1    4    4    0    0 -0.20147510536E+01 -0.27483237166E+01  0.26866512169E+01  0.43394239043E+01  0.00000000000E+00 0. -1.
</event>
<event>
 8    1  0.6019723E-011  0.9118800E+02  0.7816164E-02  0.1184000E+00
        -11   -1    0    0    0    0  0.00000000000E+00  0.00000000000E+00  0.45593999997E+02  0.45594000000E+02  0.51100000000E-03 0. -1.
         11   -1    0    0    0    0 -0.00000000000E+00 -0.00000000000E+00 -0.45593999997E+02  0.45594000000E+02  0.51100000000E-03 0.  1.
         23    2    1    2    0    0  0.35527136788E-14 -0.35527136788E-14 -0.35527136788E-14  0.91188000000E+02  0.91188000000E+02 0.  0.
    9900012    2    3    3    0    0 -0.25514736102E+02  0.23546404397E+02  0.26042051705E+02  0.47787269875E+02  0.19999994669E+02 0.  0.
        -12    1    3    3    0    0  0.25514736102E+02 -0.23546404397E+02 -0.26042051705E+02  0.43400730125E+02  0.00000000000E+00 0.  1.
         11    1    4    4    0    0 -0.15327845435E+01  0.25127233312E+01  0.33331199771E+01  0.44466724681E+01  0.51100000000E-03 0. -1.
        -11    1    4    4    0    0 -0.12479457299E+02  0.94588865710E+00  0.28367431414E+01  0.12832718798E+02  0.51100000000E-03 0.  1.
        -12    1    4    4    0    0 -0.11502494259E+02  0.20087792409E+02  0.19872188586E+02  0.30507878609E+02  0.00000000000E+00 0.  1.
</event>
<event>
 8    1  0.6019723E-011  0.9118800E+02  0.7816164E-02  0.1184000E+00
        -11   -1    0    0    0    0  0.00000000000E+00  0.00000000000E+00  0.45593999997E+02  0.45594000000E+02  0.51100000000E-03 0. -1.
         11   -1    0    0    0    0 -0.00000000000E+00 -0.00000000000E+00 -0.45593999997E+02  0.45594000000E+02  0.51100000000E-03 0.  1.
         23    2    1    2    0    0  0.00000000000E+00  0.35527136788E-14 -0.44408920985E-15  0.91188000000E+02  0.91188000000E+02 0.  0.
    9900012    2    3    3    0    0 -0.39779911421E+02 -0.16983110533E+02 -0.35715386387E+01  0.47787270924E+02  0.19999999451E+02 0.  0.
         12    1    3    3    0    0  0.39779911421E+02  0.16983110533E+02  0.35715386387E+01  0.43400729076E+02  0.00000000000E+00 0. -1.
         11    1    4    4    0    0 -0.16169334442E+02 -0.11097391308E+02 -0.83030329989E+01  0.21296474529E+02  0.51100000000E-03 0. -1.
        -11    1    4    4    0    0 -0.75533129488E+01 -0.46871707395E+01 -0.18770959170E+01  0.90854606590E+01  0.51100000000E-03 0.  1.
         12    1    4    4    0    0 -0.16057264031E+02 -0.11985484860E+01  0.66085902772E+01  0.17405335736E+02  0.00000000000E+00 0. -1.
</event>
<event>
 8    1  0.6019723E-011  0.9118800E+02  0.7816164E-02  0.1184000E+00
        -11   -1    0    0    0    0  0.00000000000E+00  0.00000000000E+00  0.45593999997E+02  0.45594000000E+02  0.51100000000E-03 0. -1.
         11   -1    0    0    0    0 -0.00000000000E+00 -0.00000000000E+00 -0.45593999997E+02  0.45594000000E+02  0.51100000000E-03 0.  1.
         23    2    1    2    0    0  0.00000000000E+00  0.00000000000E+00  0.00000000000E+00  0.91188000000E+02  0.91188000000E+02 0.  0.
    9900012    2    3    3    0    0  0.14792266617E+02  0.96794866256E+01  0.39637359118E+02  0.47787264398E+02  0.19999969695E+02 0.  0.
        -12    1    3    3    0    0 -0.14792266617E+02 -0.96794866256E+01 -0.39637359118E+02  0.43400735602E+02  0.00000000000E+00 0.  1.
         11    1    4    4    0    0  0.46539163821E+01  0.68196096614E+01  0.29209178091E+02  0.30353617555E+02  0.51100000000E-03 0. -1.
        -11    1    4    4    0    0  0.64453047603E+01  0.55973333439E+01  0.37444327606E+01  0.93216345657E+01  0.51100000000E-03 0.  1.
         12    1    4    4    0    0  0.36930454746E+01 -0.27374563798E+01  0.66837482658E+01  0.81120122775E+01  0.00000000000E+00 0. -1.
</event>
<event>
 8    1  0.6019723E-011  0.9118800E+02  0.7816164E-02  0.1184000E+00
        -11   -1    0    0    0    0  0.00000000000E+00  0.00000000000E+00  0.45593999997E+02  0.45594000000E+02  0.51100000000E-03 0. -1.
         11   -1    0    0    0    0 -0.00000000000E+00 -0.00000000000E+00 -0.45593999997E+02  0.45594000000E+02  0.51100000000E-03 0.  1.
         23    2    1    2    0    0  0.00000000000E+00  0.00000000000E+00  0.35527136788E-14  0.91188000000E+02  0.91188000000E+02 0.  0.
    9900012    2    3    3    0    0 -0.30371206755E+02  0.74758610829E+01  0.30088606723E+02  0.47787274739E+02  0.20000016844E+02 0.  0.
        -12    1    3    3    0    0  0.30371206755E+02 -0.74758610829E+01 -0.30088606723E+02  0.43400725261E+02  0.00000000000E+00 0.  1.
         11    1    4    4    0    0 -0.20665619875E+02  0.40322074401E+01  0.20487064264E+02  0.29377650418E+02  0.51100000000E-03 0. -1.
        -11    1    4    4    0    0 -0.21462354440E+01  0.51100153728E+01 -0.63181216927E+00  0.55783304465E+01  0.51100000000E-03 0.  1.
         12    1    4    4    0    0 -0.75593514354E+01 -0.16663617300E+01  0.10233354629E+02  0.12831293875E+02  0.00000000000E+00 0. -1.
</event>
<event>
 8    1  0.6019723E-011  0.9118800E+02  0.7816164E-02  0.1184000E+00
        -11   -1    0    0    0    0  0.00000000000E+00  0.00000000000E+00  0.45593999997E+02  0.45594000000E+02  0.51100000000E-03 0. -1.
         11   -1    0    0    0    0 -0.00000000000E+00 -0.00000000000E+00 -0.45593999997E+02  0.45594000000E+02  0.51100000000E-03 0.  1.
         23    2    1    2    0    0  0.35527136788E-14  0.71054273576E-14  0.71054273576E-14  0.91188000000E+02  0.91188000000E+02 0.  0.
    9900012    2    3    3    0    0 -0.22223909701E+02 -0.24475171477E+02 -0.28119158404E+02  0.47787271313E+02  0.20000001223E+02 0.  0.
         12    1    3    3    0    0  0.22223909701E+02  0.24475171477E+02  0.28119158404E+02  0.43400728687E+02  0.00000000000E+00 0. -1.
         11    1    4    4    0    0 -0.18759338304E+02 -0.13310932309E+02 -0.25314124341E+02  0.34203780258E+02  0.51100000000E-03 0.  1.
        -11    1    4    4    0    0  0.10050087185E+01 -0.36012788843E+01  0.12026660953E+01  0.39275511613E+01  0.51100000000E-03 0. -1.
        -12    1    4    4    0    0 -0.44695801162E+01 -0.75629602834E+01 -0.40077001591E+01  0.96559398935E+01  0.00000000000E+00 0.  1.
</event>
<event>
 8    1  0.6019723E-011  0.9118800E+02  0.7816164E-02  0.1184000E+00
        -11   -1    0    0    0    0  0.00000000000E+00  0.00000000000E+00  0.45593999997E+02  0.45594000000E+02  0.51100000000E-03 0.  1.
         11   -1    0    0    0    0 -0.00000000000E+00 -0.00000000000E+00 -0.45593999997E+02  0.45594000000E+02  0.51100000000E-03 0. -1.
         23    2    1    2    0    0  0.35527136788E-14 -0.17763568394E-14  0.00000000000E+00  0.91188000000E+02  0.91188000000E+02 0.  0.
    9900012    2    3    3    0    0  0.28693496436E+02 -0.99595876575E+01 -0.31001819221E+02  0.47787275132E+02  0.20000018637E+02 0.  0.
         12    1    3    3    0    0 -0.28693496436E+02  0.99595876575E+01  0.31001819221E+02  0.43400724868E+02  0.00000000000E+00 0. -1.
         11    1    4    4    0    0  0.14411402677E+02 -0.10836250868E+02 -0.13495063319E+02  0.22521758240E+02  0.51100000000E-03 0. -1.
        -11    1    4    4    0    0  0.53231114317E+01  0.56996165614E+01 -0.55858332463E+01  0.95928451242E+01  0.51100000000E-03 0.  1.
         12    1    4    4    0    0  0.89589823274E+01 -0.48229533511E+01 -0.11920922656E+02  0.15672671768E+02  0.00000000000E+00 0. -1.
</event>
<event>
 8    1  0.6019723E-011  0.9118800E+02  0.7816164E-02  0.1184000E+00
        -11   -1    0    0    0    0  0.00000000000E+00  0.00000000000E+00  0.45593999997E+02  0.45594000000E+02  0.51100000000E-03 0. -1.
         11   -1    0    0    0    0 -0.00000000000E+00 -0.00000000000E+00 -0.45593999997E+02  0.45594000000E+02  0.51100000000E-03 0.  1.
         23    2    1    2    0    0 -0.17763568394E-14  0.22204460493E-15  0.00000000000E+00  0.91188000000E+02  0.91188000000E+02 0.  0.
    9900012    2    3    3    0    0 -0.75381982293E+01 -0.14830138100E+01 -0.42715327814E+02  0.47787274283E+02  0.20000014767E+02 0.  0.
         12    1    3    3    0    0  0.75381982293E+01  0.14830138100E+01  0.42715327814E+02  0.43400725717E+02  0.00000000000E+00 0. -1.
         11    1    4    4    0    0 -0.92571175224E+01  0.34208206230E+01 -0.31044634637E+02  0.32575536505E+02  0.51100000000E-03 0. -1.
        -11    1    4    4    0    0  0.15806350493E+01 -0.51001580663E+01 -0.12898855917E+02  0.13960318896E+02  0.51100000000E-03 0.  1.
         12    1    4    4    0    0  0.13828424386E+00  0.19632363331E+00  0.12281627404E+01  0.12514188819E+01  0.00000000000E+00 0. -1.
</event>
<event>
 8    1  0.6019723E-011  0.9118800E+02  0.7816164E-02  0.1184000E+00
        -11   -1    0    0    0    0  0.00000000000E+00  0.00000000000E+00  0.45593999997E+02  0.45594000000E+02  0.51100000000E-03 0. -1.
         11   -1    0    0    0    0 -0.00000000000E+00 -0.00000000000E+00 -0.45593999997E+02  0.45594000000E+02  0.51100000000E-03 0.  1.
         23    2    1    2    0    0  0.35527136788E-14  0.00000000000E+00  0.00000000000E+00  0.91188000000E+02  0.91188000000E+02 0.  0.
    9900012    2    3    3    0    0 -0.31862510215E+02  0.17768798105E+02  0.23509013996E+02  0.47787268643E+02  0.19999989050E+02 0.  0.
        -12    1    3    3    0    0  0.31862510215E+02 -0.17768798105E+02 -0.23509013996E+02  0.43400731357E+02  0.00000000000E+00 0.  1.
         11    1    4    4    0    0 -0.20274818789E+02  0.96941859584E+01  0.14347672829E+02  0.26662731184E+02  0.51100000000E-03 0. -1.
        -11    1    4    4    0    0 -0.46502078491E+01  0.26407373998E+01 -0.29802482947E+01  0.61220754008E+01  0.51100000000E-03 0.  1.
        -12    1    4    4    0    0 -0.69374835766E+01  0.54338747466E+01  0.12141589462E+02  0.15002462058E+02  0.00000000000E+00 0.  1.
</event>
<event>
 8    1  0.6019723E-011  0.9118800E+02  0.7816164E-02  0.1184000E+00
        -11   -1    0    0    0    0  0.00000000000E+00  0.00000000000E+00  0.45593999997E+02  0.45594000000E+02  0.51100000000E-03 0. -1.
         11   -1    0    0    0    0 -0.00000000000E+00 -0.00000000000E+00 -0.45593999997E+02  0.45594000000E+02  0.51100000000E-03 0.  1.
         23    2    1    2    0    0 -0.88817841970E-15 -0.17763568394E-14  0.00000000000E+00  0.91188000000E+02  0.91188000000E+02 0.  0.
    9900012    2    3    3    0    0  0.52955089486E+01  0.12049311853E+02  0.41356918230E+02  0.47787274008E+02  0.20000013513E+02 0.  0.
        -12    1    3    3    0    0 -0.52955089486E+01 -0.12049311853E+02 -0.41356918230E+02  0.43400725992E+02  0.00000000000E+00 0.  1.
         11    1    4    4    0    0  0.92147901432E+01  0.50217595768E+01  0.24229402407E+02  0.26404438413E+02  0.51100000000E-03 0. -1.
        -11    1    4    4    0    0 -0.57502147220E+01  0.62505067458E+01  0.17412610846E+02  0.19373508218E+02  0.51100000000E-03 0.  1.
         12    1    4    4    0    0  0.18309335275E+01  0.77704552996E+00 -0.28509502330E+00  0.20093273775E+01  0.00000000000E+00 0. -1.
</event>
<event>
 8    1  0.6019723E-011  0.9118800E+02  0.7816164E-02  0.1184000E+00
        -11   -1    0    0    0    0  0.00000000000E+00  0.00000000000E+00  0.45593999997E+02  0.45594000000E+02  0.51100000000E-03 0. -1.
         11   -1    0    0    0    0 -0.00000000000E+00 -0.00000000000E+00 -0.45593999997E+02  0.45594000000E+02  0.51100000000E-03 0.  1.
         23    2    1    2    0    0  0.00000000000E+00  0.00000000000E+00  0.00000000000E+00  0.91188000000E+02  0.91188000000E+02 0.  0.
    9900012    2    3    3    0    0 -0.23300658829E+02  0.54862408551E+01  0.36202257203E+02  0.47787274578E+02  0.20000016112E+02 0.  0.
        -12    1    3    3    0    0  0.23300658829E+02 -0.54862408551E+01 -0.36202257203E+02  0.43400725422E+02  0.00000000000E+00 0.  1.
         11    1    4    4    0    0 -0.15219294428E+02  0.43729138131E+01  0.31480985399E+02  0.35239207427E+02  0.51100000000E-03 0. -1.
        -11    1    4    4    0    0  0.16708011254E+01  0.48447562548E+00  0.11212559550E+00  0.17432341904E+01  0.51100000000E-03 0.  1.
         12    1    4    4    0    0 -0.97521655256E+01  0.62885141651E+00  0.46091462077E+01  0.10804832961E+02  0.00000000000E+00 0. -1.
</event>
<event>
 8    1  0.6019723E-011  0.9118800E+02  0.7816164E-02  0.1184000E+00
        -11   -1    0    0    0    0  0.00000000000E+00  0.00000000000E+00  0.45593999997E+02  0.45594000000E+02  0.51100000000E-03 0.  1.
         11   -1    0    0    0    0 -0.00000000000E+00 -0.00000000000E+00 -0.45593999997E+02  0.45594000000E+02  0.51100000000E-03 0. -1.
         23    2    1    2    0    0  0.00000000000E+00  0.00000000000E+00  0.00000000000E+00  0.91188000000E+02  0.91188000000E+02 0.  0.
    9900012    2    3    3    0    0  0.30420612150E+02  0.18361415177E+02  0.24921281971E+02  0.47787245330E+02  0.19999882755E+02 0.  0.
        -12    1    3    3    0    0 -0.30420612150E+02 -0.18361415177E+02 -0.24921281971E+02  0.43400754670E+02  0.00000000000E+00 0.  1.
         11    1    4    4    0    0  0.26987565769E+02  0.93277796439E+01  0.15824977316E+02  0.32646073064E+02  0.51100000000E-03 0. -1.
        -11    1    4    4    0    0  0.51954999290E+01  0.34206616299E+01  0.45999234189E+01  0.77365005797E+01  0.51100000000E-03 0.  1.
         12    1    4    4    0    0 -0.17624535479E+01  0.56129739033E+01  0.44963812370E+01  0.74046716859E+01  0.00000000000E+00 0. -1.
</event>
<event>
 8    1  0.6019723E-011  0.9118800E+02  0.7816164E-02  0.1184000E+00
        -11   -1    0    0    0    0  0.00000000000E+00  0.00000000000E+00  0.45593999997E+02  0.45594000000E+02  0.51100000000E-03 0. -1.
         11   -1    0    0    0    0 -0.00000000000E+00 -0.00000000000E+00 -0.45593999997E+02  0.45594000000E+02  0.51100000000E-03 0.  1.
         23    2    1    2    0    0  0.00000000000E+00 -0.88817841970E-15 -0.14210854715E-13  0.91188000000E+02  0.91188000000E+02 0.  0.
    9900012    2    3    3    0    0  0.26497807859E+01  0.46247665632E+01  0.43072178608E+02  0.47787281412E+02  0.20000047268E+02 0.  0.
        -12    1    3    3    0    0 -0.26497807859E+01 -0.46247665632E+01 -0.43072178608E+02  0.43400718588E+02  0.00000000000E+00 0.  1.
         11    1    4    4    0    0  0.28498527282E+01 -0.21177043028E+01  0.92064256045E+00  0.36679578885E+01  0.51100000000E-03 0. -1.
        -11    1    4    4    0    0  0.67570649311E+00  0.27529408259E+01  0.13962461264E+01  0.31598680292E+01  0.51100000000E-03 0.  1.
         12    1    4    4    0    0 -0.87577843535E+00  0.39895300402E+01  0.40755289921E+02  0.40959455494E+02  0.00000000000E+00 0. -1.
</event>
<event>
 8    1  0.6019723E-011  0.9118800E+02  0.7816164E-02  0.1184000E+00
        -11   -1    0    0    0    0  0.00000000000E+00  0.00000000000E+00  0.45593999997E+02  0.45594000000E+02  0.51100000000E-03 0. -1.
         11   -1    0    0    0    0 -0.00000000000E+00 -0.00000000000E+00 -0.45593999997E+02  0.45594000000E+02  0.51100000000E-03 0.  1.
         23    2    1    2    0    0  0.00000000000E+00  0.00000000000E+00  0.00000000000E+00  0.91188000000E+02  0.91188000000E+02 0.  0.
    9900012    2    3    3    0    0  0.11108715450E+02  0.33585667276E+02  0.25144036060E+02  0.47787272417E+02  0.20000006259E+02 0.  0.
        -12    1    3    3    0    0 -0.11108715450E+02 -0.33585667276E+02 -0.25144036060E+02  0.43400727583E+02  0.00000000000E+00 0.  1.
         11    1    4    4    0    0 -0.19751495351E+01  0.67636094066E+01  0.11021248813E+02  0.13081114385E+02  0.51100000000E-03 0. -1.
        -11    1    4    4    0    0  0.11167796834E+02  0.10844027769E+02  0.60321293938E+01  0.16694286737E+02  0.51100000000E-03 0.  1.
        -12    1    4    4    0    0  0.19160681518E+01  0.15978030100E+02  0.80906578529E+01  0.18011871295E+02  0.00000000000E+00 0.  1.
</event>
<event>
 8    1  0.6019723E-011  0.9118800E+02  0.7816164E-02  0.1184000E+00
        -11   -1    0    0    0    0  0.00000000000E+00  0.00000000000E+00  0.45593999997E+02  0.45594000000E+02  0.51100000000E-03 0. -1.
         11   -1    0    0    0    0 -0.00000000000E+00 -0.00000000000E+00 -0.45593999997E+02  0.45594000000E+02  0.51100000000E-03 0.  1.
         23    2    1    2    0    0 -0.71054273576E-14  0.00000000000E+00 -0.35527136788E-14  0.91188000000E+02  0.91188000000E+02 0.  0.
    9900012    2    3    3    0    0 -0.38634565390E+02 -0.97533814710E+01 -0.17200738679E+02  0.47787268392E+02  0.19999987908E+02 0.  0.
         12    1    3    3    0    0  0.38634565390E+02  0.97533814710E+01  0.17200738679E+02  0.43400731608E+02  0.00000000000E+00 0. -1.
         11    1    4    4    0    0 -0.16088234945E+02 -0.61155325754E+00 -0.24452908442E+01  0.16284494116E+02  0.51100000000E-03 0. -1.
        -11    1    4    4    0    0 -0.18812023277E+02 -0.64609396377E+01 -0.17200271195E+02  0.26296107891E+02  0.51100000000E-03 0.  1.
        -12    1    4    4    0    0 -0.37343071682E+01 -0.26808885757E+01  0.24448233610E+01  0.52066663853E+01  0.00000000000E+00 0.  1.
</event>
<event>
 8    1  0.6019723E-011  0.9118800E+02  0.7816164E-02  0.1184000E+00
        -11   -1    0    0    0    0  0.00000000000E+00  0.00000000000E+00  0.45593999997E+02  0.45594000000E+02  0.51100000000E-03 0. -1.
         11   -1    0    0    0    0 -0.00000000000E+00 -0.00000000000E+00 -0.45593999997E+02  0.45594000000E+02  0.51100000000E-03 0.  1.
         23    2    1    2    0    0 -0.66613381478E-15  0.00000000000E+00  0.71054273576E-14  0.91188000000E+02  0.91188000000E+02 0.  0.
    9900012    2    3    3    0    0 -0.17010386529E+01 -0.20524049232E+02  0.38203292947E+02  0.47787288930E+02  0.20000081545E+02 0.  0.
        -12    1    3    3    0    0  0.17010386529E+01  0.20524049232E+02 -0.38203292947E+02  0.43400711070E+02  0.00000000000E+00 0.  1.
         11    1    4    4    0    0 -0.56332489815E+01  0.11050350420E+01  0.55135759361E+01  0.79595299105E+01  0.51100000000E-03 0. -1.
        -11    1    4    4    0    0  0.14602689797E+01 -0.14632125220E+01  0.13172312479E+01  0.24512190435E+01  0.51100000000E-03 0.  1.
         12    1    4    4    0    0  0.24719413489E+01 -0.20165871752E+02  0.31372485763E+02  0.37376539976E+02  0.00000000000E+00 0. -1.
</event>
<event>
 8    1  0.6019723E-011  0.9118800E+02  0.7816164E-02  0.1184000E+00
        -11   -1    0    0    0    0  0.00000000000E+00  0.00000000000E+00  0.45593999997E+02  0.45594000000E+02  0.51100000000E-03 0. -1.
         11   -1    0    0    0    0 -0.00000000000E+00 -0.00000000000E+00 -0.45593999997E+02  0.45594000000E+02  0.51100000000E-03 0.  1.
         23    2    1    2    0    0  0.00000000000E+00  0.00000000000E+00 -0.35527136788E-14  0.91188000000E+02  0.91188000000E+02 0.  0.
    9900012    2    3    3    0    0 -0.93625990380E+01 -0.35018838912E+02  0.23867284532E+02  0.47787255646E+02  0.19999929793E+02 0.  0.
        -12    1    3    3    0    0  0.93625990380E+01  0.35018838912E+02 -0.23867284532E+02  0.43400744354E+02  0.00000000000E+00 0.  1.
         11    1    4    4    0    0 -0.75281584759E+01 -0.23306176708E+02  0.71897405552E+01  0.25525348427E+02  0.51100000000E-03 0. -1.
        -11    1    4    4    0    0 -0.19513379430E+01  0.71389542093E+00  0.11535850697E+01  0.23765784679E+01  0.51100000000E-03 0.  1.
         12    1    4    4    0    0  0.11689738088E+00 -0.12426557625E+02  0.15523958907E+02  0.19885328752E+02  0.00000000000E+00 0. -1.
</event>
<event>
 8    1  0.6019723E-011  0.9118800E+02  0.7816164E-02  0.1184000E+00
        -11   -1    0    0    0    0  0.00000000000E+00  0.00000000000E+00  0.45593999997E+02  0.45594000000E+02  0.51100000000E-03 0. -1.
         11   -1    0    0    0    0 -0.00000000000E+00 -0.00000000000E+00 -0.45593999997E+02  0.45594000000E+02  0.51100000000E-03 0.  1.
         23    2    1    2    0    0  0.00000000000E+00  0.00000000000E+00  0.00000000000E+00  0.91188000000E+02  0.91188000000E+02 0.  0.
    9900012    2    3    3    0    0  0.10948144789E+02  0.40378311950E+02  0.11547885950E+02  0.47787267055E+02  0.19999981809E+02 0.  0.
        -12    1    3    3    0    0 -0.10948144789E+02 -0.40378311950E+02 -0.11547885950E+02  0.43400732945E+02  0.00000000000E+00 0.  1.
         11    1    4    4    0    0  0.81320459111E+01  0.59193712535E+01  0.46080442022E+01  0.11063597894E+02  0.51100000000E-03 0. -1.
        -11    1    4    4    0    0  0.10603441701E+01  0.32466409285E+02  0.39473360498E+01  0.32722675987E+02  0.51100000000E-03 0.  1.
        -12    1    4    4    0    0  0.17557547081E+01  0.19925314121E+01  0.29925056976E+01  0.40009931734E+01  0.00000000000E+00 0.  1.
</event>
<event>
 8    1  0.6019723E-011  0.9118800E+02  0.7816164E-02  0.1184000E+00
        -11   -1    0    0    0    0  0.00000000000E+00  0.00000000000E+00  0.45593999997E+02  0.45594000000E+02  0.51100000000E-03 0. -1.
         11   -1    0    0    0    0 -0.00000000000E+00 -0.00000000000E+00 -0.45593999997E+02  0.45594000000E+02  0.51100000000E-03 0.  1.
         23    2    1    2    0    0 -0.35527136788E-14 -0.35527136788E-14  0.00000000000E+00  0.91188000000E+02  0.91188000000E+02 0.  0.
    9900012    2    3    3    0    0 -0.30305669166E+02  0.16432806671E+02  0.26365744177E+02  0.47787272072E+02  0.20000004686E+02 0.  0.
        -12    1    3    3    0    0  0.30305669166E+02 -0.16432806671E+02 -0.26365744177E+02  0.43400727928E+02  0.00000000000E+00 0.  1.
         11    1    4    4    0    0 -0.11863547992E+02 -0.39068347000E+00  0.72476569812E+01  0.13907729380E+02  0.51100000000E-03 0. -1.
        -11    1    4    4    0    0 -0.54465619287E+01  0.10102767014E+02  0.14591905246E+02  0.18564876438E+02  0.51100000000E-03 0.  1.
         12    1    4    4    0    0 -0.12995559245E+02  0.67207231268E+01  0.45261819497E+01  0.15314666254E+02  0.00000000000E+00 0. -1.
</event>
<event>
 8    1  0.6019723E-011  0.9118800E+02  0.7816164E-02  0.1184000E+00
        -11   -1    0    0    0    0  0.00000000000E+00  0.00000000000E+00  0.45593999997E+02  0.45594000000E+02  0.51100000000E-03 0. -1.
         11   -1    0    0    0    0 -0.00000000000E+00 -0.00000000000E+00 -0.45593999997E+02  0.45594000000E+02  0.51100000000E-03 0.  1.
         23    2    1    2    0    0 -0.88817841970E-15  0.00000000000E+00  0.00000000000E+00  0.91188000000E+02  0.91188000000E+02 0.  0.
    9900012    2    3    3    0    0  0.76548528800E+01  0.20773173573E+02  0.37329638727E+02  0.47787269126E+02  0.19999991252E+02 0.  0.
        -12    1    3    3    0    0 -0.76548528800E+01 -0.20773173573E+02 -0.37329638727E+02  0.43400730874E+02  0.00000000000E+00 0.  1.
         11    1    4    4    0    0  0.10421316650E+02  0.14561315977E+02  0.12977329997E+02  0.22114403854E+02  0.51100000000E-03 0. -1.
        -11    1    4    4    0    0 -0.37529300754E+01  0.33236120841E+01  0.16635170531E+02  0.17374112360E+02  0.51100000000E-03 0.  1.
        -12    1    4    4    0    0  0.98646630492E+00  0.28882455123E+01  0.77171381990E+01  0.82987529118E+01  0.00000000000E+00 0.  1.
</event>
<event>
 8    1  0.6019723E-011  0.9118800E+02  0.7816164E-02  0.1184000E+00
        -11   -1    0    0    0    0  0.00000000000E+00  0.00000000000E+00  0.45593999997E+02  0.45594000000E+02  0.51100000000E-03 0. -1.
         11   -1    0    0    0    0 -0.00000000000E+00 -0.00000000000E+00 -0.45593999997E+02  0.45594000000E+02  0.51100000000E-03 0.  1.
         23    2    1    2    0    0 -0.35527136788E-14  0.44408920985E-15  0.00000000000E+00  0.91188000000E+02  0.91188000000E+02 0.  0.
    9900012    2    3    3    0    0  0.27596168962E+02 -0.25472837292E+01 -0.33400390933E+02  0.47787270625E+02  0.19999998089E+02 0.  0.
         12    1    3    3    0    0 -0.27596168962E+02  0.25472837292E+01  0.33400390933E+02  0.43400729375E+02  0.00000000000E+00 0. -1.
         11    1    4    4    0    0  0.12562620518E+02  0.53430697238E+01 -0.10111283023E+02  0.16988404074E+02  0.51100000000E-03 0. -1.
        -11    1    4    4    0    0  0.95976145516E+01 -0.61107288469E+01 -0.22243059619E+02  0.24984173262E+02  0.51100000000E-03 0.  1.
        -12    1    4    4    0    0  0.54359338918E+01 -0.17796246062E+01 -0.10460482912E+01  0.58146932888E+01  0.00000000000E+00 0.  1.
</event>
<event>
 8    1  0.6447903E-011  0.9118800E+02  0.7816164E-02  0.1184000E+00
        -11   -1    0    0    0    0  0.00000000000E+00  0.00000000000E+00  0.45593999997E+02  0.45594000000E+02  0.51100000000E-03 0. -1.
         11   -1    0    0    0    0 -0.00000000000E+00 -0.00000000000E+00 -0.45593999997E+02  0.45594000000E+02  0.51100000000E-03 0.  1.
         23    2    1    2    0    0  0.35527136788E-14  0.00000000000E+00  0.00000000000E+00  0.91188000000E+02  0.91188000000E+02 0.  0.
    9900012    2    3    3    0    0 -0.16940685909E+02 -0.50133832621E+01 -0.39642179789E+02  0.47787271098E+02  0.20000000244E+02 0.  0.
         12    1    3    3    0    0  0.16940685909E+02  0.50133832621E+01  0.39642179789E+02  0.43400728902E+02  0.00000000000E+00 0. -1.
         11    1    4    4    0    0 -0.54208442646E+01 -0.28043517777E+01 -0.16508316173E+01  0.63225933543E+01  0.51100000000E-03 0. -1.
        -11    1    4    4    0    0 -0.91113828084E+01  0.36866910755E+01 -0.27356987397E+02  0.29069120170E+02  0.51100000000E-03 0.  1.
         12    1    4    4    0    0 -0.24084588361E+01 -0.58957225598E+01 -0.10634360775E+02  0.12395557573E+02  0.00000000000E+00 0. -1.
</event>
<event>
 8    1  0.6019723E-011  0.9118800E+02  0.7816164E-02  0.1184000E+00
        -11   -1    0    0    0    0  0.00000000000E+00  0.00000000000E+00  0.45593999997E+02  0.45594000000E+02  0.51100000000E-03 0. -1.
         11   -1    0    0    0    0 -0.00000000000E+00 -0.00000000000E+00 -0.45593999997E+02  0.45594000000E+02  0.51100000000E-03 0.  1.
         23    2    1    2    0    0 -0.17763568394E-14  0.35527136788E-14  0.00000000000E+00  0.91188000000E+02  0.91188000000E+02 0.  0.
    9900012    2    3    3    0    0 -0.11921656567E+02  0.19986697078E+02 -0.36633747224E+02  0.47787246653E+02  0.19999888791E+02 0.  0.
         12    1    3    3    0    0  0.11921656567E+02 -0.19986697078E+02  0.36633747224E+02  0.43400753347E+02  0.00000000000E+00 0. -1.
         11    1    4    4    0    0 -0.42796335182E+01  0.57620926425E+01 -0.96586223570E+00  0.72422278886E+01  0.51100000000E-03 0. -1.
        -11    1    4    4    0    0 -0.78288385151E+01  0.45873051230E+01 -0.22202991857E+02  0.23985556663E+02  0.51100000000E-03 0.  1.
         12    1    4    4    0    0  0.18681546596E+00  0.96372993127E+01 -0.13464893131E+02  0.16559462102E+02  0.00000000000E+00 0. -1.
</event>
<event>
 8    1  0.6019723E-011  0.9118800E+02  0.7816164E-02  0.1184000E+00
        -11   -1    0    0    0    0  0.00000000000E+00  0.00000000000E+00  0.45593999997E+02  0.45594000000E+02  0.51100000000E-03 0. -1.
         11   -1    0    0    0    0 -0.00000000000E+00 -0.00000000000E+00 -0.45593999997E+02  0.45594000000E+02  0.51100000000E-03 0.  1.
         23    2    1    2    0    0  0.00000000000E+00 -0.17763568394E-14  0.00000000000E+00  0.91188000000E+02  0.91188000000E+02 0.  0.
    9900012    2    3    3    0    0  0.24948123680E+02  0.15246807949E+02 -0.32074118041E+02  0.47787273325E+02  0.20000010399E+02 0.  0.
         12    1    3    3    0    0 -0.24948123680E+02 -0.15246807949E+02  0.32074118041E+02  0.43400726675E+02  0.00000000000E+00 0. -1.
         11    1    4    4    0    0  0.10122971739E+02 -0.65694936068E+00 -0.62734324050E+01  0.11927367425E+02  0.51100000000E-03 0. -1.
        -11    1    4    4    0    0  0.10059015169E+02  0.17235045894E+02 -0.20779198998E+02  0.28809819583E+02  0.51100000000E-03 0.  1.
        -12    1    4    4    0    0  0.47661367716E+01 -0.13312885844E+01 -0.50214866385E+01  0.70500863173E+01  0.00000000000E+00 0.  1.
</event>
<event>
 8    1  0.6019723E-011  0.9118800E+02  0.7816164E-02  0.1184000E+00
        -11   -1    0    0    0    0  0.00000000000E+00  0.00000000000E+00  0.45593999997E+02  0.45594000000E+02  0.51100000000E-03 0. -1.
         11   -1    0    0    0    0 -0.00000000000E+00 -0.00000000000E+00 -0.45593999997E+02  0.45594000000E+02  0.51100000000E-03 0.  1.
         23    2    1    2    0    0  0.00000000000E+00  0.35527136788E-14  0.35527136788E-14  0.91188000000E+02  0.91188000000E+02 0.  0.
    9900012    2    3    3    0    0  0.22921289409E+02 -0.21831326148E+02 -0.29692274028E+02  0.47787269056E+02  0.19999990933E+02 0.  0.
         12    1    3    3    0    0 -0.22921289409E+02  0.21831326148E+02  0.29692274028E+02  0.43400730944E+02  0.00000000000E+00 0. -1.
         11    1    4    4    0    0  0.31153500193E+01 -0.10025572063E+01 -0.21076068773E+01  0.38926255541E+01  0.51100000000E-03 0. -1.
        -11    1    4    4    0    0  0.21944343060E+02 -0.12730169709E+02 -0.23476546533E+02  0.34565295465E+02  0.51100000000E-03 0.  1.
        -12    1    4    4    0    0 -0.21384036706E+01 -0.80985992326E+01 -0.41081206174E+01  0.93293480370E+01  0.00000000000E+00 0.  1.
</event>
<event>
 8    1  0.6019723E-011  0.9118800E+02  0.7816164E-02  0.1184000E+00
        -11   -1    0    0    0    0  0.00000000000E+00  0.00000000000E+00  0.45593999997E+02  0.45594000000E+02  0.51100000000E-03 0. -1.
         11   -1    0    0    0    0 -0.00000000000E+00 -0.00000000000E+00 -0.45593999997E+02  0.45594000000E+02  0.51100000000E-03 0.  1.
         23    2    1    2    0    0  0.00000000000E+00  0.19984014443E-14  0.00000000000E+00  0.91188000000E+02  0.91188000000E+02 0.  0.
    9900012    2    3    3    0    0 -0.13270077251E+02 -0.17372215983E+01  0.41285781581E+02  0.47787209110E+02  0.19999717614E+02 0.  0.
        -12    1    3    3    0    0  0.13270077251E+02  0.17372215983E+01 -0.41285781581E+02  0.43400790890E+02  0.00000000000E+00 0.  1.
         11    1    4    4    0    0 -0.66878165583E+01 -0.84836807727E+01  0.28442125134E+02  0.30424565932E+02  0.51100000000E-03 0. -1.
        -11    1    4    4    0    0  0.66947664334E+00  0.36699508401E+01  0.32358130271E+01  0.49383422676E+01  0.51100000000E-03 0.  1.
         12    1    4    4    0    0 -0.72517373357E+01  0.30765083344E+01  0.96078434204E+01  0.12424300910E+02  0.00000000000E+00 0. -1.
</event>
<event>
 8    1  0.6019723E-011  0.9118800E+02  0.7816164E-02  0.1184000E+00
        -11   -1    0    0    0    0  0.00000000000E+00  0.00000000000E+00  0.45593999997E+02  0.45594000000E+02  0.51100000000E-03 0. -1.
         11   -1    0    0    0    0 -0.00000000000E+00 -0.00000000000E+00 -0.45593999997E+02  0.45594000000E+02  0.51100000000E-03 0.  1.
         23    2    1    2    0    0 -0.88817841970E-15  0.00000000000E+00  0.71054273576E-14  0.91188000000E+02  0.91188000000E+02 0.  0.
    9900012    2    3    3    0    0  0.65873858332E+01  0.15274460775E+02 -0.40086384768E+02  0.47787296689E+02  0.20000116926E+02 0.  0.
         12    1    3    3    0    0 -0.65873858332E+01 -0.15274460775E+02  0.40086384768E+02  0.43400703311E+02  0.00000000000E+00 0. -1.
         11    1    4    4    0    0 -0.54036688768E+01  0.13343017771E+01 -0.55937270502E+01  0.78911203980E+01  0.51100000000E-03 0. -1.
        -11    1    4    4    0    0  0.90832021299E+01  0.10037283453E+02 -0.16957584538E+02  0.21698186414E+02  0.51100000000E-03 0.  1.
         12    1    4    4    0    0  0.29078525801E+01  0.39028755448E+01 -0.17535073180E+02  0.18197989877E+02  0.00000000000E+00 0. -1.
</event>
<event>
 8    1  0.6019723E-011  0.9118800E+02  0.7816164E-02  0.1184000E+00
        -11   -1    0    0    0    0  0.00000000000E+00  0.00000000000E+00  0.45593999997E+02  0.45594000000E+02  0.51100000000E-03 0. -1.
         11   -1    0    0    0    0 -0.00000000000E+00 -0.00000000000E+00 -0.45593999997E+02  0.45594000000E+02  0.51100000000E-03 0.  1.
         23    2    1    2    0    0  0.00000000000E+00 -0.88817841970E-15  0.00000000000E+00  0.91188000000E+02  0.91188000000E+02 0.  0.
    9900012    2    3    3    0    0 -0.36703241592E+02 -0.54833485710E+01 -0.22503981196E+02  0.47787260092E+02  0.19999950061E+02 0.  0.
         12    1    3    3    0    0  0.36703241592E+02  0.54833485710E+01  0.22503981196E+02  0.43400739908E+02  0.00000000000E+00 0. -1.
         11    1    4    4    0    0 -0.23366290540E+02  0.42508736954E+01 -0.14969469088E+02  0.28073803907E+02  0.51100000000E-03 0. -1.
        -11    1    4    4    0    0 -0.77929707227E+01 -0.19296785010E+01 -0.92769937525E+00  0.80817496988E+01  0.51100000000E-03 0.  1.
         12    1    4    4    0    0 -0.55439803294E+01 -0.78045437654E+01 -0.66068127327E+01  0.11631706486E+02  0.00000000000E+00 0. -1.
</event>
<event>
 8    1  0.6019723E-011  0.9118800E+02  0.7816164E-02  0.1184000E+00
        -11   -1    0    0    0    0  0.00000000000E+00  0.00000000000E+00  0.45593999997E+02  0.45594000000E+02  0.51100000000E-03 0. -1.
         11   -1    0    0    0    0 -0.00000000000E+00 -0.00000000000E+00 -0.45593999997E+02  0.45594000000E+02  0.51100000000E-03 0.  1.
         23    2    1    2    0    0  0.00000000000E+00 -0.88817841970E-15  0.00000000000E+00  0.91188000000E+02  0.91188000000E+02 0.  0.
    9900012    2    3    3    0    0  0.32232779941E+02  0.51128377139E+01 -0.28609963319E+02  0.47787271742E+02  0.20000003179E+02 0.  0.
         12    1    3    3    0    0 -0.32232779941E+02 -0.51128377139E+01  0.28609963319E+02  0.43400728258E+02  0.00000000000E+00 0. -1.
         11    1    4    4    0    0  0.18154009406E+02  0.89044722351E+01 -0.18674245228E+02  0.27524264175E+02  0.51100000000E-03 0. -1.
        -11    1    4    4    0    0  0.22405882115E+00 -0.34240487192E+01 -0.37581256973E+01  0.50889901753E+01  0.51100000000E-03 0.  1.
         12    1    4    4    0    0  0.13854711714E+02 -0.36758580195E+00 -0.61775923945E+01  0.15174017391E+02  0.00000000000E+00 0. -1.
</event>
<event>
 8    1  0.6019723E-011  0.9118800E+02  0.7816164E-02  0.1184000E+00
        -11   -1    0    0    0    0  0.00000000000E+00  0.00000000000E+00  0.45593999997E+02  0.45594000000E+02  0.51100000000E-03 0.  1.
         11   -1    0    0    0    0 -0.00000000000E+00 -0.00000000000E+00 -0.45593999997E+02  0.45594000000E+02  0.51100000000E-03 0. -1.
         23    2    1    2    0    0 -0.71054273576E-14  0.44408920985E-15  0.00000000000E+00  0.91188000000E+02  0.91188000000E+02 0.  0.
    9900012    2    3    3    0    0  0.41439154069E+02 -0.22358439900E+01 -0.12705146364E+02  0.47787271522E+02  0.20000002177E+02 0.  0.
        -12    1    3    3    0    0 -0.41439154069E+02  0.22358439900E+01  0.12705146364E+02  0.43400728478E+02  0.00000000000E+00 0.  1.
         11    1    4    4    0    0  0.67294364605E+01 -0.38241812103E+01 -0.94767737030E+01  0.12235968171E+02  0.51100000000E-03 0. -1.
        -11    1    4    4    0    0  0.33633305486E+02  0.32857569662E+00 -0.36752171637E+01  0.33835106345E+02  0.51100000000E-03 0.  1.
         12    1    4    4    0    0  0.10764121226E+01  0.12597615238E+01  0.44684450282E+00  0.17161970062E+01  0.00000000000E+00 0. -1.
</event>
<event>
 8    1  0.6019723E-011  0.9118800E+02  0.7816164E-02  0.1184000E+00
        -11   -1    0    0    0    0  0.00000000000E+00  0.00000000000E+00  0.45593999997E+02  0.45594000000E+02  0.51100000000E-03 0. -1.
         11   -1    0    0    0    0 -0.00000000000E+00 -0.00000000000E+00 -0.45593999997E+02  0.45594000000E+02  0.51100000000E-03 0.  1.
         23    2    1    2    0    0  0.00000000000E+00 -0.35527136788E-14  0.00000000000E+00  0.91188000000E+02  0.91188000000E+02 0.  0.
    9900012    2    3    3    0    0  0.14002801255E+01  0.11594439890E+02  0.41799856145E+02  0.47787311128E+02  0.20000182757E+02 0.  0.
        -12    1    3    3    0    0 -0.14002801255E+01 -0.11594439890E+02 -0.41799856145E+02  0.43400688872E+02  0.00000000000E+00 0.  1.
         11    1    4    4    0    0  0.18640856794E+01  0.70028978621E+01  0.70366535213E+01  0.10100984453E+02  0.51100000000E-03 0. -1.
        -11    1    4    4    0    0 -0.21725676336E+01 -0.46592746607E+01  0.12731036653E+02  0.13729828295E+02  0.51100000000E-03 0.  1.
        -12    1    4    4    0    0  0.17087620797E+01  0.92508166887E+01  0.22032165970E+02  0.23956498379E+02  0.00000000000E+00 0.  1.
</event>
<event>
 8    1  0.6019723E-011  0.9118800E+02  0.7816164E-02  0.1184000E+00
        -11   -1    0    0    0    0  0.00000000000E+00  0.00000000000E+00  0.45593999997E+02  0.45594000000E+02  0.51100000000E-03 0. -1.
         11   -1    0    0    0    0 -0.00000000000E+00 -0.00000000000E+00 -0.45593999997E+02  0.45594000000E+02  0.51100000000E-03 0.  1.
         23    2    1    2    0    0  0.00000000000E+00 -0.22204460493E-15  0.00000000000E+00  0.91188000000E+02  0.91188000000E+02 0.  0.
    9900012    2    3    3    0    0 -0.19804923848E+02 -0.16040399435E+01  0.38585160863E+02  0.47787278905E+02  0.20000035838E+02 0.  0.
        -12    1    3    3    0    0  0.19804923848E+02  0.16040399435E+01 -0.38585160863E+02  0.43400721095E+02  0.00000000000E+00 0.  1.
         11    1    4    4    0    0 -0.41225853866E+01  0.14143728534E+00  0.23724794860E+02  0.24080731015E+02  0.51100000000E-03 0.  1.
        -11    1    4    4    0    0  0.11135702111E+01  0.38451967794E-01  0.26203954873E+01  0.28474532375E+01  0.51100000000E-03 0. -1.
         12    1    4    4    0    0 -0.16795908672E+02 -0.17839291967E+01  0.12239970516E+02  0.20859094653E+02  0.00000000000E+00 0. -1.
</event>
<event>
 8    1  0.6019723E-011  0.9118800E+02  0.7816164E-02  0.1184000E+00
        -11   -1    0    0    0    0  0.00000000000E+00  0.00000000000E+00  0.45593999997E+02  0.45594000000E+02  0.51100000000E-03 0. -1.
         11   -1    0    0    0    0 -0.00000000000E+00 -0.00000000000E+00 -0.45593999997E+02  0.45594000000E+02  0.51100000000E-03 0.  1.
         23    2    1    2    0    0  0.00000000000E+00  0.00000000000E+00  0.00000000000E+00  0.91188000000E+02  0.91188000000E+02 0.  0.
    9900012    2    3    3    0    0  0.35214589406E+02 -0.19680923226E+02 -0.16006782320E+02  0.47787272745E+02  0.20000007753E+02 0.  0.
         12    1    3    3    0    0 -0.35214589406E+02  0.19680923226E+02  0.16006782320E+02  0.43400727255E+02  0.00000000000E+00 0. -1.
         11    1    4    4    0    0  0.32816806411E+01 -0.57701102752E+01 -0.82908587443E+01  0.10620825740E+02  0.51100000000E-03 0. -1.
        -11    1    4    4    0    0  0.32379664067E+02 -0.12989108902E+02 -0.84618639852E+01  0.35899341742E+02  0.51100000000E-03 0.  1.
        -12    1    4    4    0    0 -0.44675530189E+00 -0.92170404863E+00  0.74594040972E+00  0.12671052631E+01  0.00000000000E+00 0.  1.
</event>
<event>
 8    1  0.6019723E-011  0.9118800E+02  0.7816164E-02  0.1184000E+00
        -11   -1    0    0    0    0  0.00000000000E+00  0.00000000000E+00  0.45593999997E+02  0.45594000000E+02  0.51100000000E-03 0. -1.
         11   -1    0    0    0    0 -0.00000000000E+00 -0.00000000000E+00 -0.45593999997E+02  0.45594000000E+02  0.51100000000E-03 0.  1.
         23    2    1    2    0    0  0.00000000000E+00 -0.17763568394E-14  0.44408920985E-15  0.91188000000E+02  0.91188000000E+02 0.  0.
    9900012    2    3    3    0    0 -0.42123426144E+02  0.10200045201E+02  0.22802734343E+01  0.47787267297E+02  0.19999982913E+02 0.  0.
         12    1    3    3    0    0  0.42123426144E+02 -0.10200045201E+02 -0.22802734343E+01  0.43400732703E+02  0.00000000000E+00 0. -1.
         11    1    4    4    0    0 -0.25139173516E+02  0.12244898901E+02 -0.40465207222E+01  0.28254024924E+02  0.51100000000E-03 0. -1.
        -11    1    4    4    0    0 -0.15496509588E+02 -0.33176595047E+01  0.37294055600E+01  0.16280575545E+02  0.51100000000E-03 0.  1.
        -12    1    4    4    0    0 -0.14877430399E+01  0.12728058053E+01  0.25973885965E+01  0.32526668277E+01  0.00000000000E+00 0.  1.
</event>
<event>
 8    1  0.6019723E-011  0.9118800E+02  0.7816164E-02  0.1184000E+00
        -11   -1    0    0    0    0  0.00000000000E+00  0.00000000000E+00  0.45593999997E+02  0.45594000000E+02  0.51100000000E-03 0.  1.
         11   -1    0    0    0    0 -0.00000000000E+00 -0.00000000000E+00 -0.45593999997E+02  0.45594000000E+02  0.51100000000E-03 0. -1.
         23    2    1    2    0    0 -0.71054273576E-14 -0.35527136788E-14  0.00000000000E+00  0.91188000000E+02  0.91188000000E+02 0.  0.
    9900012    2    3    3    0    0 -0.37889742870E+02 -0.20288411638E+02 -0.60308435664E+01  0.47787270332E+02  0.19999996753E+02 0.  0.
         12    1    3    3    0    0  0.37889742870E+02  0.20288411638E+02  0.60308435664E+01  0.43400729668E+02  0.00000000000E+00 0. -1.
         11    1    4    4    0    0 -0.10698034278E+02 -0.44845068934E+01 -0.65720346371E+01  0.13332305841E+02  0.51100000000E-03 0. -1.
        -11    1    4    4    0    0 -0.24509926711E+02 -0.86897969838E+01  0.36139344137E+01  0.26254706267E+02  0.51100000000E-03 0.  1.
        -12    1    4    4    0    0 -0.26817818812E+01 -0.71141077610E+01 -0.30727433430E+01  0.82002582243E+01  0.00000000000E+00 0.  1.
</event>
<event>
 8    1  0.6019723E-011  0.9118800E+02  0.7816164E-02  0.1184000E+00
        -11   -1    0    0    0    0  0.00000000000E+00  0.00000000000E+00  0.45593999997E+02  0.45594000000E+02  0.51100000000E-03 0. -1.
         11   -1    0    0    0    0 -0.00000000000E+00 -0.00000000000E+00 -0.45593999997E+02  0.45594000000E+02  0.51100000000E-03 0.  1.
         23    2    1    2    0    0  0.35527136788E-14  0.00000000000E+00  0.00000000000E+00  0.91188000000E+02  0.91188000000E+02 0.  0.
    9900012    2    3    3    0    0  0.27603582502E+02  0.32690510527E+02  0.72796968593E+01  0.47787294570E+02  0.20000107262E+02 0.  0.
        -12    1    3    3    0    0 -0.27603582502E+02 -0.32690510527E+02 -0.72796968593E+01  0.43400705430E+02  0.00000000000E+00 0.  1.
         11    1    4    4    0    0  0.89401269375E+00 -0.15445745199E+01  0.29477714802E+01  0.34459144076E+01  0.51100000000E-03 0. -1.
        -11    1    4    4    0    0  0.44948100148E+01  0.49345591431E+01 -0.21335207316E+01  0.70075032629E+01  0.51100000000E-03 0.  1.
         12    1    4    4    0    0  0.22214759794E+02  0.29300525904E+02  0.64654461107E+01  0.37333876899E+02  0.00000000000E+00 0. -1.
</event>
<event>
 8    1  0.6019723E-011  0.9118800E+02  0.7816164E-02  0.1184000E+00
        -11   -1    0    0    0    0  0.00000000000E+00  0.00000000000E+00  0.45593999997E+02  0.45594000000E+02  0.51100000000E-03 0. -1.
         11   -1    0    0    0    0 -0.00000000000E+00 -0.00000000000E+00 -0.45593999997E+02  0.45594000000E+02  0.51100000000E-03 0.  1.
         23    2    1    2    0    0  0.00000000000E+00 -0.17763568394E-14  0.00000000000E+00  0.91188000000E+02  0.91188000000E+02 0.  0.
    9900012    2    3    3    0    0  0.13807830986E+02  0.13853885873E+02 -0.38743241798E+02  0.47787249600E+02  0.19999902224E+02 0.  0.
         12    1    3    3    0    0 -0.13807830986E+02 -0.13853885873E+02  0.38743241798E+02  0.43400750400E+02  0.00000000000E+00 0. -1.
         11    1    4    4    0    0  0.75261891795E+01  0.37784353513E+01 -0.52764850638E+01  0.99378766424E+01  0.51100000000E-03 0. -1.
        -11    1    4    4    0    0  0.73756647754E+01  0.33489438442E+01 -0.27893066658E+02  0.29045464769E+02  0.51100000000E-03 0.  1.
        -12    1    4    4    0    0 -0.10940229688E+01  0.67265066771E+01 -0.55736900758E+01  0.88039081887E+01  0.00000000000E+00 0.  1.
</event>
<event>
 8    1  0.6019723E-011  0.9118800E+02  0.7816164E-02  0.1184000E+00
        -11   -1    0    0    0    0  0.00000000000E+00  0.00000000000E+00  0.45593999997E+02  0.45594000000E+02  0.51100000000E-03 0. -1.
         11   -1    0    0    0    0 -0.00000000000E+00 -0.00000000000E+00 -0.45593999997E+02  0.45594000000E+02  0.51100000000E-03 0.  1.
         23    2    1    2    0    0  0.00000000000E+00  0.00000000000E+00  0.00000000000E+00  0.91188000000E+02  0.91188000000E+02 0.  0.
    9900012    2    3    3    0    0  0.11612829532E+02 -0.50410082479E+01  0.41513296520E+02  0.47787270031E+02  0.19999995378E+02 0.  0.
        -12    1    3    3    0    0 -0.11612829532E+02  0.50410082479E+01 -0.41513296520E+02  0.43400729969E+02  0.00000000000E+00 0.  1.
         11    1    4    4    0    0  0.77640402579E+01 -0.44151032253E+01  0.12150189121E+02  0.15079806151E+02  0.51100000000E-03 0. -1.
        -11    1    4    4    0    0  0.63998082428E+01  0.42651103973E+01  0.23173807775E+02  0.24416676254E+02  0.51100000000E-03 0.  1.
        -12    1    4    4    0    0 -0.25510189685E+01 -0.48910154199E+01  0.61892996239E+01  0.82907876254E+01  0.00000000000E+00 0.  1.
</event>
<event>
 8    1  0.6019723E-011  0.9118800E+02  0.7816164E-02  0.1184000E+00
        -11   -1    0    0    0    0  0.00000000000E+00  0.00000000000E+00  0.45593999997E+02  0.45594000000E+02  0.51100000000E-03 0.  1.
         11   -1    0    0    0    0 -0.00000000000E+00 -0.00000000000E+00 -0.45593999997E+02  0.45594000000E+02  0.51100000000E-03 0. -1.
         23    2    1    2    0    0  0.00000000000E+00  0.00000000000E+00  0.00000000000E+00  0.91188000000E+02  0.91188000000E+02 0.  0.
    9900012    2    3    3    0    0 -0.21617151105E+02 -0.30489202930E+02  0.22061970109E+02  0.47787271408E+02  0.20000001658E+02 0.  0.
        -12    1    3    3    0    0  0.21617151105E+02  0.30489202930E+02 -0.22061970109E+02  0.43400728592E+02  0.00000000000E+00 0.  1.
         11    1    4    4    0    0 -0.11505244088E+02 -0.21182248975E+02  0.83546670914E+01  0.25511933984E+02  0.51100000000E-03 0. -1.
        -11    1    4    4    0    0 -0.67450005562E+01 -0.97649337014E+01  0.14548162945E+02  0.18774930307E+02  0.51100000000E-03 0.  1.
         12    1    4    4    0    0 -0.33669064612E+01  0.45797974604E+00 -0.84085992764E+00  0.35004071169E+01  0.00000000000E+00 0. -1.
</event>
<event>
 8    1  0.6019723E-011  0.9118800E+02  0.7816164E-02  0.1184000E+00
        -11   -1    0    0    0    0  0.00000000000E+00  0.00000000000E+00  0.45593999997E+02  0.45594000000E+02  0.51100000000E-03 0. -1.
         11   -1    0    0    0    0 -0.00000000000E+00 -0.00000000000E+00 -0.45593999997E+02  0.45594000000E+02  0.51100000000E-03 0.  1.
         23    2    1    2    0    0  0.00000000000E+00  0.00000000000E+00  0.00000000000E+00  0.91188000000E+02  0.91188000000E+02 0.  0.
    9900012    2    3    3    0    0  0.22374584644E+02 -0.82170328087E+01 -0.36269572933E+02  0.47787267438E+02  0.19999983559E+02 0.  0.
         12    1    3    3    0    0 -0.22374584644E+02  0.82170328087E+01  0.36269572933E+02  0.43400732562E+02  0.00000000000E+00 0. -1.
         11    1    4    4    0    0  0.10013854794E+00 -0.89431047528E+00  0.38786782177E+00  0.97992890725E+00  0.51100000000E-03 0. -1.
        -11    1    4    4    0    0  0.65418764024E+01 -0.85497345625E+01 -0.24902953528E+02  0.27130263593E+02  0.51100000000E-03 0.  1.
        -12    1    4    4    0    0  0.15732569693E+02  0.12270122292E+01 -0.11754487227E+02  0.19677074938E+02  0.00000000000E+00 0.  1.
</event>
<event>
 8    1  0.6019723E-011  0.9118800E+02  0.7816164E-02  0.1184000E+00
        -11   -1    0    0    0    0  0.00000000000E+00  0.00000000000E+00  0.45593999997E+02  0.45594000000E+02  0.51100000000E-03 0. -1.
         11   -1    0    0    0    0 -0.00000000000E+00 -0.00000000000E+00 -0.45593999997E+02  0.45594000000E+02  0.51100000000E-03 0.  1.
         23    2    1    2    0    0 -0.88817841970E-15  0.00000000000E+00  0.00000000000E+00  0.91188000000E+02  0.91188000000E+02 0.  0.
    9900012    2    3    3    0    0  0.50039283168E+01 -0.27452923623E+02 -0.33240313279E+02  0.47787300225E+02  0.20000133047E+02 0.  0.
         12    1    3    3    0    0 -0.50039283168E+01  0.27452923623E+02  0.33240313279E+02  0.43400699775E+02  0.00000000000E+00 0. -1.
         11    1    4    4    0    0  0.57361394224E+01 -0.11363738789E+02 -0.13707759301E+02  0.18706697198E+02  0.51100000000E-03 0. -1.
        -11    1    4    4    0    0 -0.50822816219E+01 -0.76539617542E+00 -0.76128061660E+01  0.91853272001E+01  0.51100000000E-03 0.  1.
        -12    1    4    4    0    0  0.43500705164E+01 -0.15323788658E+02 -0.11919747812E+02  0.19895275827E+02  0.00000000000E+00 0.  1.
</event>
<event>
 8    1  0.6019723E-011  0.9118800E+02  0.7816164E-02  0.1184000E+00
        -11   -1    0    0    0    0  0.00000000000E+00  0.00000000000E+00  0.45593999997E+02  0.45594000000E+02  0.51100000000E-03 0. -1.
         11   -1    0    0    0    0 -0.00000000000E+00 -0.00000000000E+00 -0.45593999997E+02  0.45594000000E+02  0.51100000000E-03 0.  1.
         23    2    1    2    0    0  0.44408920985E-15 -0.35527136788E-14 -0.71054273576E-14  0.91188000000E+02  0.91188000000E+02 0.  0.
    9900012    2    3    3    0    0 -0.12257699999E+01 -0.22240722346E+02  0.37248766180E+02  0.47787276222E+02  0.20000023607E+02 0.  0.
        -12    1    3    3    0    0  0.12257699999E+01  0.22240722346E+02 -0.37248766180E+02  0.43400723778E+02  0.00000000000E+00 0.  1.
         11    1    4    4    0    0 -0.48222803893E+01 -0.99261110476E+01  0.26538122451E+02  0.28741155373E+02  0.51100000000E-03 0. -1.
        -11    1    4    4    0    0 -0.12067652204E+00  0.12751641745E+01 -0.10394635961E+00  0.12850726056E+01  0.51100000000E-03 0.  1.
         12    1    4    4    0    0  0.37171869115E+01 -0.13589775473E+02  0.10814590088E+02  0.17761048244E+02  0.00000000000E+00 0. -1.
</event>
<event>
 8    1  0.6019723E-011  0.9118800E+02  0.7816164E-02  0.1184000E+00
        -11   -1    0    0    0    0  0.00000000000E+00  0.00000000000E+00  0.45593999997E+02  0.45594000000E+02  0.51100000000E-03 0. -1.
         11   -1    0    0    0    0 -0.00000000000E+00 -0.00000000000E+00 -0.45593999997E+02  0.45594000000E+02  0.51100000000E-03 0.  1.
         23    2    1    2    0    0  0.00000000000E+00 -0.35527136788E-14 -0.35527136788E-14  0.91188000000E+02  0.91188000000E+02 0.  0.
    9900012    2    3    3    0    0 -0.24348242216E+02 -0.22942007557E+02 -0.27648695990E+02  0.47787274203E+02  0.20000014401E+02 0.  0.
         12    1    3    3    0    0  0.24348242216E+02  0.22942007557E+02  0.27648695990E+02  0.43400725797E+02  0.00000000000E+00 0. -1.
         11    1    4    4    0    0 -0.95347303111E+01 -0.11652766623E+02 -0.20923785753E+02  0.25777953033E+02  0.51100000000E-03 0. -1.
        -11    1    4    4    0    0 -0.15607093195E+02 -0.11028250052E+02 -0.45003231757E+01  0.19633047806E+02  0.51100000000E-03 0.  1.
        -12    1    4    4    0    0  0.79358129045E+00 -0.26099088200E+00 -0.22245870614E+01  0.23762733636E+01  0.00000000000E+00 0.  1.
</event>
<event>
 8    1  0.6019723E-011  0.9118800E+02  0.7816164E-02  0.1184000E+00
        -11   -1    0    0    0    0  0.00000000000E+00  0.00000000000E+00  0.45593999997E+02  0.45594000000E+02  0.51100000000E-03 0. -1.
         11   -1    0    0    0    0 -0.00000000000E+00 -0.00000000000E+00 -0.45593999997E+02  0.45594000000E+02  0.51100000000E-03 0.  1.
         23    2    1    2    0    0 -0.44408920985E-15  0.00000000000E+00  0.00000000000E+00  0.91188000000E+02  0.91188000000E+02 0.  0.
    9900012    2    3    3    0    0 -0.23199621227E+01  0.42518871935E+02 -0.83896870092E+01  0.47787267944E+02  0.19999985863E+02 0.  0.
         12    1    3    3    0    0  0.23199621227E+01 -0.42518871935E+02  0.83896870092E+01  0.43400732056E+02  0.00000000000E+00 0. -1.
         11    1    4    4    0    0  0.38576229845E+01  0.17755893829E+02 -0.91706303681E+01  0.20353217985E+02  0.51100000000E-03 0. -1.
        -11    1    4    4    0    0 -0.84937205359E+01  0.20001716309E+02 -0.12423195013E+01  0.21765920653E+02  0.51100000000E-03 0.  1.
         12    1    4    4    0    0  0.23161354287E+01  0.47612617973E+01  0.20232628602E+01  0.56681293059E+01  0.00000000000E+00 0. -1.
</event>
<event>
 8    1  0.6019723E-011  0.9118800E+02  0.7816164E-02  0.1184000E+00
        -11   -1    0    0    0    0  0.00000000000E+00  0.00000000000E+00  0.45593999997E+02  0.45594000000E+02  0.51100000000E-03 0. -1.
         11   -1    0    0    0    0 -0.00000000000E+00 -0.00000000000E+00 -0.45593999997E+02  0.45594000000E+02  0.51100000000E-03 0.  1.
         23    2    1    2    0    0  0.00000000000E+00  0.00000000000E+00  0.00000000000E+00  0.91188000000E+02  0.91188000000E+02 0.  0.
    9900012    2    3    3    0    0  0.12041373273E+01  0.38340129606E+02  0.20302855331E+02  0.47787292408E+02  0.20000097404E+02 0.  0.
        -12    1    3    3    0    0 -0.12041373273E+01 -0.38340129606E+02 -0.20302855331E+02  0.43400707592E+02  0.00000000000E+00 0.  1.
         11    1    4    4    0    0  0.81890351565E+00  0.33442005539E+02  0.23163679631E+02  0.40688995954E+02  0.51100000000E-03 0. -1.
        -11    1    4    4    0    0  0.17417114625E+01  0.47905095609E+01 -0.25627987498E+01  0.57053026532E+01  0.51100000000E-03 0.  1.
         12    1    4    4    0    0 -0.13564776508E+01  0.10761450607E+00 -0.29802555062E+00  0.13929938004E+01  0.00000000000E+00 0. -1.
</event>
<event>
 8    1  0.6019723E-011  0.9118800E+02  0.7816164E-02  0.1184000E+00
        -11   -1    0    0    0    0  0.00000000000E+00  0.00000000000E+00  0.45593999997E+02  0.45594000000E+02  0.51100000000E-03 0. -1.
         11   -1    0    0    0    0 -0.00000000000E+00 -0.00000000000E+00 -0.45593999997E+02  0.45594000000E+02  0.51100000000E-03 0.  1.
         23    2    1    2    0    0  0.35527136788E-14  0.00000000000E+00  0.71054273576E-14  0.91188000000E+02  0.91188000000E+02 0.  0.
    9900012    2    3    3    0    0  0.30746981659E+02 -0.96806069460E+01  0.29060842959E+02  0.47787266994E+02  0.19999981532E+02 0.  0.
        -12    1    3    3    0    0 -0.30746981659E+02  0.96806069460E+01 -0.29060842959E+02  0.43400733006E+02  0.00000000000E+00 0.  1.
         11    1    4    4    0    0  0.68867874447E+01  0.46954750805E+01  0.60426321630E+01  0.10295082868E+02  0.51100000000E-03 0. -1.
        -11    1    4    4    0    0 -0.92599118051E+00 -0.31442238780E-01  0.10396025032E+01  0.13925594804E+01  0.51100000000E-03 0.  1.
         12    1    4    4    0    0  0.24786185394E+02 -0.14344639788E+02  0.21978608293E+02  0.36099624646E+02  0.00000000000E+00 0. -1.
</event>
<event>
 8    1  0.6019723E-011  0.9118800E+02  0.7816164E-02  0.1184000E+00
        -11   -1    0    0    0    0  0.00000000000E+00  0.00000000000E+00  0.45593999997E+02  0.45594000000E+02  0.51100000000E-03 0. -1.
         11   -1    0    0    0    0 -0.00000000000E+00 -0.00000000000E+00 -0.45593999997E+02  0.45594000000E+02  0.51100000000E-03 0.  1.
         23    2    1    2    0    0  0.00000000000E+00  0.00000000000E+00  0.00000000000E+00  0.91188000000E+02  0.91188000000E+02 0.  0.
    9900012    2    3    3    0    0  0.32547570769E+02 -0.59121673705E+01  0.28094924860E+02  0.47787275480E+02  0.20000020222E+02 0.  0.
        -12    1    3    3    0    0 -0.32547570769E+02  0.59121673705E+01 -0.28094924860E+02  0.43400724520E+02  0.00000000000E+00 0.  1.
         11    1    4    4    0    0  0.80809972228E+01 -0.28243222300E+01  0.94973549547E+01  0.12785893147E+02  0.51100000000E-03 0. -1.
        -11    1    4    4    0    0  0.23010296082E+02 -0.79065123032E+01  0.17136197277E+02  0.29759635750E+02  0.51100000000E-03 0.  1.
        -12    1    4    4    0    0  0.14562774640E+01  0.48186671627E+01  0.14613726286E+01  0.52417465826E+01  0.00000000000E+00 0.  1.
</event>
<event>
 8    1  0.6019723E-011  0.9118800E+02  0.7816164E-02  0.1184000E+00
        -11   -1    0    0    0    0  0.00000000000E+00  0.00000000000E+00  0.45593999997E+02  0.45594000000E+02  0.51100000000E-03 0. -1.
         11   -1    0    0    0    0 -0.00000000000E+00 -0.00000000000E+00 -0.45593999997E+02  0.45594000000E+02  0.51100000000E-03 0.  1.
         23    2    1    2    0    0  0.00000000000E+00 -0.22204460493E-15  0.00000000000E+00  0.91188000000E+02  0.91188000000E+02 0.  0.
    9900012    2    3    3    0    0 -0.42555845461E+02  0.10015218118E+01 -0.84628722269E+01  0.47787271490E+02  0.20000002033E+02 0.  0.
         12    1    3    3    0    0  0.42555845461E+02 -0.10015218118E+01  0.84628722269E+01  0.43400728510E+02  0.00000000000E+00 0. -1.
         11    1    4    4    0    0 -0.14362905082E+02 -0.25471417080E+01 -0.69304892952E+01  0.16149695211E+02  0.51100000000E-03 0.  1.
        -11    1    4    4    0    0 -0.82226842747E+01 -0.26297420547E+01 -0.56692091942E+01  0.10328020774E+02  0.51100000000E-03 0. -1.
        -12    1    4    4    0    0 -0.19970256105E+02  0.61784055746E+01  0.41368262625E+01  0.21309555506E+02  0.00000000000E+00 0.  1.
</event>
<event>
 8    1  0.6019723E-011  0.9118800E+02  0.7816164E-02  0.1184000E+00
        -11   -1    0    0    0    0  0.00000000000E+00  0.00000000000E+00  0.45593999997E+02  0.45594000000E+02  0.51100000000E-03 0. -1.
         11   -1    0    0    0    0 -0.00000000000E+00 -0.00000000000E+00 -0.45593999997E+02  0.45594000000E+02  0.51100000000E-03 0.  1.
         23    2    1    2    0    0 -0.17763568394E-14  0.71054273576E-14  0.00000000000E+00  0.91188000000E+02  0.91188000000E+02 0.  0.
    9900012    2    3    3    0    0 -0.10838583259E+02 -0.33030397051E+02  0.25983483449E+02  0.47787269263E+02  0.19999991877E+02 0.  0.
        -12    1    3    3    0    0  0.10838583259E+02  0.33030397051E+02 -0.25983483449E+02  0.43400730737E+02  0.00000000000E+00 0.  1.
         11    1    4    4    0    0 -0.34285349177E+01 -0.17670424532E+02  0.99939802631E+01  0.20588307278E+02  0.51100000000E-03 0. -1.
        -11    1    4    4    0    0 -0.58487948950E+00  0.82076555989E+00  0.77244753009E+01  0.77899460240E+01  0.51100000000E-03 0.  1.
        -12    1    4    4    0    0 -0.68251688517E+01 -0.16180738079E+02  0.82650278846E+01  0.19409015961E+02  0.00000000000E+00 0.  1.
</event>
<event>
 8    1  0.6019723E-011  0.9118800E+02  0.7816164E-02  0.1184000E+00
        -11   -1    0    0    0    0  0.00000000000E+00  0.00000000000E+00  0.45593999997E+02  0.45594000000E+02  0.51100000000E-03 0. -1.
         11   -1    0    0    0    0 -0.00000000000E+00 -0.00000000000E+00 -0.45593999997E+02  0.45594000000E+02  0.51100000000E-03 0.  1.
         23    2    1    2    0    0 -0.88817841970E-15 -0.44408920985E-15 -0.71054273576E-14  0.91188000000E+02  0.91188000000E+02 0.  0.
    9900012    2    3    3    0    0  0.79230795300E+01  0.37488322982E+01  0.42506404735E+02  0.47787269864E+02  0.19999994616E+02 0.  0.
        -12    1    3    3    0    0 -0.79230795300E+01 -0.37488322982E+01 -0.42506404735E+02  0.43400730136E+02  0.00000000000E+00 0.  1.
         11    1    4    4    0    0 -0.19779721988E+01  0.57505021068E+01  0.33810512291E+02  0.34353040479E+02  0.51100000000E-03 0. -1.
        -11    1    4    4    0    0  0.95383512026E+01 -0.17648930259E+01  0.86532510138E+01  0.12998990131E+02  0.51100000000E-03 0.  1.
         12    1    4    4    0    0  0.36270052624E+00 -0.23677678274E+00  0.42641430745E-01  0.43523925397E+00  0.00000000000E+00 0. -1.
</event>
<event>
 8    1  0.6019723E-011  0.9118800E+02  0.7816164E-02  0.1184000E+00
        -11   -1    0    0    0    0  0.00000000000E+00  0.00000000000E+00  0.45593999997E+02  0.45594000000E+02  0.51100000000E-03 0. -1.
         11   -1    0    0    0    0 -0.00000000000E+00 -0.00000000000E+00 -0.45593999997E+02  0.45594000000E+02  0.51100000000E-03 0.  1.
         23    2    1    2    0    0  0.35527136788E-14  0.00000000000E+00 -0.35527136788E-14  0.91188000000E+02  0.91188000000E+02 0.  0.
    9900012    2    3    3    0    0  0.30969548494E+02 -0.14708780739E+02 -0.26611376575E+02  0.47787233555E+02  0.19999829072E+02 0.  0.
         12    1    3    3    0    0 -0.30969548494E+02  0.14708780739E+02  0.26611376575E+02  0.43400766445E+02  0.00000000000E+00 0. -1.
         11    1    4    4    0    0  0.14246440138E+02 -0.14547196990E+02 -0.16699798013E+02  0.26333728388E+02  0.51100000000E-03 0. -1.
        -11    1    4    4    0    0  0.16562016110E+02  0.19276355641E+01 -0.75715842690E+01  0.18312428706E+02  0.51100000000E-03 0.  1.
        -12    1    4    4    0    0  0.16109224681E+00 -0.20892193136E+01 -0.23399942926E+01  0.31410764622E+01  0.00000000000E+00 0.  1.
</event>
<event>
 8    1  0.6019723E-011  0.9118800E+02  0.7816164E-02  0.1184000E+00
        -11   -1    0    0    0    0  0.00000000000E+00  0.00000000000E+00  0.45593999997E+02  0.45594000000E+02  0.51100000000E-03 0. -1.
         11   -1    0    0    0    0 -0.00000000000E+00 -0.00000000000E+00 -0.45593999997E+02  0.45594000000E+02  0.51100000000E-03 0.  1.
         23    2    1    2    0    0  0.71054273576E-14  0.17763568394E-14  0.00000000000E+00  0.91188000000E+02  0.91188000000E+02 0.  0.
    9900012    2    3    3    0    0 -0.39233761359E+02 -0.13128948975E+02  0.13113578255E+02  0.47787271133E+02  0.20000000404E+02 0.  0.
        -12    1    3    3    0    0  0.39233761359E+02  0.13128948975E+02 -0.13113578255E+02  0.43400728867E+02  0.00000000000E+00 0.  1.
         11    1    4    4    0    0 -0.56780224394E+01  0.17494105527E+01  0.57086666363E+01  0.82394933782E+01  0.51100000000E-03 0.  1.
        -11    1    4    4    0    0 -0.17054625968E+02 -0.49885318693E+01  0.95802829486E+01  0.20187311331E+02  0.51100000000E-03 0. -1.
         12    1    4    4    0    0 -0.16501112951E+02 -0.98898276581E+01 -0.21753713297E+01  0.19360466424E+02  0.00000000000E+00 0. -1.
</event>
<event>
 8    1  0.6019723E-011  0.9118800E+02  0.7816164E-02  0.1184000E+00
        -11   -1    0    0    0    0  0.00000000000E+00  0.00000000000E+00  0.45593999997E+02  0.45594000000E+02  0.51100000000E-03 0. -1.
         11   -1    0    0    0    0 -0.00000000000E+00 -0.00000000000E+00 -0.45593999997E+02  0.45594000000E+02  0.51100000000E-03 0.  1.
         23    2    1    2    0    0 -0.44408920985E-15  0.00000000000E+00  0.00000000000E+00  0.91188000000E+02  0.91188000000E+02 0.  0.
    9900012    2    3    3    0    0 -0.38529418327E+01 -0.33345551728E+01 -0.43100577105E+02  0.47787260770E+02  0.19999953153E+02 0.  0.
         12    1    3    3    0    0  0.38529418327E+01  0.33345551728E+01  0.43100577105E+02  0.43400739230E+02  0.00000000000E+00 0. -1.
         11    1    4    4    0    0  0.66067256277E+00  0.74281048146E+01 -0.13477265930E+02  0.15402919418E+02  0.51100000000E-03 0. -1.
        -11    1    4    4    0    0 -0.51398591352E+01 -0.93846862009E+01 -0.28654833686E+02  0.30587415400E+02  0.51100000000E-03 0.  1.
        -12    1    4    4    0    0  0.62624473980E+00 -0.13779737865E+01 -0.96847748834E+00  0.17969259517E+01  0.00000000000E+00 0.  1.
</event>
<event>
 8    1  0.6019723E-011  0.9118800E+02  0.7816164E-02  0.1184000E+00
        -11   -1    0    0    0    0  0.00000000000E+00  0.00000000000E+00  0.45593999997E+02  0.45594000000E+02  0.51100000000E-03 0. -1.
         11   -1    0    0    0    0 -0.00000000000E+00 -0.00000000000E+00 -0.45593999997E+02  0.45594000000E+02  0.51100000000E-03 0.  1.
         23    2    1    2    0    0 -0.17763568394E-14  0.00000000000E+00  0.00000000000E+00  0.91188000000E+02  0.91188000000E+02 0.  0.
    9900012    2    3    3    0    0  0.13574657488E+02  0.70306358362E+01 -0.40619227152E+02  0.47787276728E+02  0.20000025912E+02 0.  0.
         12    1    3    3    0    0 -0.13574657488E+02 -0.70306358362E+01  0.40619227152E+02  0.43400723272E+02  0.00000000000E+00 0. -1.
         11    1    4    4    0    0  0.30690665982E+01  0.97053401895E+01 -0.14328436520E+02  0.17576031729E+02  0.51100000000E-03 0. -1.
        -11    1    4    4    0    0  0.55568169160E+01 -0.64775828890E+01 -0.16948404236E+02  0.18975924239E+02  0.51100000000E-03 0.  1.
         12    1    4    4    0    0  0.49487739736E+01  0.38028785357E+01 -0.93423863962E+01  0.11235320760E+02  0.00000000000E+00 0. -1.
</event>
<event>
 8    1  0.6019723E-011  0.9118800E+02  0.7816164E-02  0.1184000E+00
        -11   -1    0    0    0    0  0.00000000000E+00  0.00000000000E+00  0.45593999997E+02  0.45594000000E+02  0.51100000000E-03 0. -1.
         11   -1    0    0    0    0 -0.00000000000E+00 -0.00000000000E+00 -0.45593999997E+02  0.45594000000E+02  0.51100000000E-03 0.  1.
         23    2    1    2    0    0  0.00000000000E+00  0.00000000000E+00 -0.35527136788E-14  0.91188000000E+02  0.91188000000E+02 0.  0.
    9900012    2    3    3    0    0 -0.40336668198E+02  0.21425439287E+01 -0.15874063989E+02  0.47787271857E+02  0.20000003706E+02 0.  0.
         12    1    3    3    0    0  0.40336668198E+02 -0.21425439287E+01  0.15874063989E+02  0.43400728143E+02  0.00000000000E+00 0. -1.
         11    1    4    4    0    0 -0.89171109780E+01  0.60777560954E+01 -0.92128714022E+01  0.14189115092E+02  0.51100000000E-03 0. -1.
        -11    1    4    4    0    0 -0.17673982342E+02 -0.13239349412E+01  0.80019027246E+00  0.17741554619E+02  0.51100000000E-03 0.  1.
        -12    1    4    4    0    0 -0.13745574877E+02 -0.26112772255E+01 -0.74613828596E+01  0.15856602147E+02  0.00000000000E+00 0.  1.
</event>
<event>
 8    1  0.6019723E-011  0.9118800E+02  0.7816164E-02  0.1184000E+00
        -11   -1    0    0    0    0  0.00000000000E+00  0.00000000000E+00  0.45593999997E+02  0.45594000000E+02  0.51100000000E-03 0. -1.
         11   -1    0    0    0    0 -0.00000000000E+00 -0.00000000000E+00 -0.45593999997E+02  0.45594000000E+02  0.51100000000E-03 0.  1.
         23    2    1    2    0    0  0.00000000000E+00 -0.17763568394E-14  0.00000000000E+00  0.91188000000E+02  0.91188000000E+02 0.  0.
    9900012    2    3    3    0    0  0.36732095934E+02 -0.10778333708E+02 -0.20450025479E+02  0.47787275452E+02  0.20000020094E+02 0.  0.
         12    1    3    3    0    0 -0.36732095934E+02  0.10778333708E+02  0.20450025479E+02  0.43400724548E+02  0.00000000000E+00 0. -1.
         11    1    4    4    0    0  0.24184856536E+02 -0.11995218515E+02 -0.17890468024E+02  0.32386129736E+02  0.51100000000E-03 0. -1.
        -11    1    4    4    0    0  0.10868829316E+02 -0.10176426988E+01  0.90048357771E+00  0.10953443217E+02  0.51100000000E-03 0.  1.
         12    1    4    4    0    0  0.16784100822E+01  0.22345275055E+01 -0.34600410322E+01  0.44477024992E+01  0.00000000000E+00 0. -1.
</event>
<event>
 8    1  0.6019723E-011  0.9118800E+02  0.7816164E-02  0.1184000E+00
        -11   -1    0    0    0    0  0.00000000000E+00  0.00000000000E+00  0.45593999997E+02  0.45594000000E+02  0.51100000000E-03 0. -1.
         11   -1    0    0    0    0 -0.00000000000E+00 -0.00000000000E+00 -0.45593999997E+02  0.45594000000E+02  0.51100000000E-03 0.  1.
         23    2    1    2    0    0  0.00000000000E+00 -0.17763568394E-14  0.00000000000E+00  0.91188000000E+02  0.91188000000E+02 0.  0.
    9900012    2    3    3    0    0 -0.22513258702E+02 -0.11016311246E+02  0.35431865861E+02  0.47787273632E+02  0.20000011800E+02 0.  0.
        -12    1    3    3    0    0  0.22513258702E+02  0.11016311246E+02 -0.35431865861E+02  0.43400726368E+02  0.00000000000E+00 0.  1.
         11    1    4    4    0    0 -0.12477396923E+02 -0.64240392058E+01  0.50407087725E+01  0.14911822788E+02  0.51100000000E-03 0.  1.
        -11    1    4    4    0    0 -0.53094916644E+01 -0.53142602714E+01  0.15294578960E+02  0.17039841836E+02  0.51100000000E-03 0. -1.
         12    1    4    4    0    0 -0.47263701147E+01  0.72198823150E+00  0.15096578129E+02  0.15835609008E+02  0.00000000000E+00 0. -1.
</event>
<event>
 8    1  0.6019723E-011  0.9118800E+02  0.7816164E-02  0.1184000E+00
        -11   -1    0    0    0    0  0.00000000000E+00  0.00000000000E+00  0.45593999997E+02  0.45594000000E+02  0.51100000000E-03 0. -1.
         11   -1    0    0    0    0 -0.00000000000E+00 -0.00000000000E+00 -0.45593999997E+02  0.45594000000E+02  0.51100000000E-03 0.  1.
         23    2    1    2    0    0 -0.22204460493E-15  0.00000000000E+00  0.00000000000E+00  0.91188000000E+02  0.91188000000E+02 0.  0.
    9900012    2    3    3    0    0 -0.10486016782E+01 -0.66041121266E+01  0.42882504763E+02  0.47787273310E+02  0.20000010330E+02 0.  0.
        -12    1    3    3    0    0  0.10486016782E+01  0.66041121266E+01 -0.42882504763E+02  0.43400726690E+02  0.00000000000E+00 0.  1.
         11    1    4    4    0    0  0.30247788087E+01 -0.13402992399E+01  0.31991609297E+02  0.32162225585E+02  0.51100000000E-03 0. -1.
        -11    1    4    4    0    0  0.10613435552E+01 -0.20972925344E+00 -0.11590131358E+01  0.15854804357E+01  0.51100000000E-03 0.  1.
         12    1    4    4    0    0 -0.51347240421E+01 -0.50540836332E+01  0.12049908602E+02  0.14039567289E+02  0.00000000000E+00 0. -1.
</event>
<event>
 8    1  0.6019723E-011  0.9118800E+02  0.7816164E-02  0.1184000E+00
        -11   -1    0    0    0    0  0.00000000000E+00  0.00000000000E+00  0.45593999997E+02  0.45594000000E+02  0.51100000000E-03 0. -1.
         11   -1    0    0    0    0 -0.00000000000E+00 -0.00000000000E+00 -0.45593999997E+02  0.45594000000E+02  0.51100000000E-03 0.  1.
         23    2    1    2    0    0  0.00000000000E+00 -0.17763568394E-14  0.00000000000E+00  0.91188000000E+02  0.91188000000E+02 0.  0.
    9900012    2    3    3    0    0  0.24036598106E+02  0.10995014142E+02 -0.34423466974E+02  0.47787268866E+02  0.19999990068E+02 0.  0.
         12    1    3    3    0    0 -0.24036598106E+02 -0.10995014142E+02  0.34423466974E+02  0.43400731134E+02  0.00000000000E+00 0. -1.
         11    1    4    4    0    0  0.15123149744E+02  0.36244624848E+01 -0.94308753555E+01  0.18187572590E+02  0.51100000000E-03 0. -1.
        -11    1    4    4    0    0  0.54156743707E+01 -0.87946604744E+00 -0.40467454766E+01  0.68175610472E+01  0.51100000000E-03 0.  1.
         12    1    4    4    0    0  0.34977739912E+01  0.82500177042E+01 -0.20945846142E+02  0.22782135229E+02  0.00000000000E+00 0. -1.
</event>
<event>
 8    1  0.6019723E-011  0.9118800E+02  0.7816164E-02  0.1184000E+00
        -11   -1    0    0    0    0  0.00000000000E+00  0.00000000000E+00  0.45593999997E+02  0.45594000000E+02  0.51100000000E-03 0.  1.
         11   -1    0    0    0    0 -0.00000000000E+00 -0.00000000000E+00 -0.45593999997E+02  0.45594000000E+02  0.51100000000E-03 0. -1.
         23    2    1    2    0    0  0.00000000000E+00  0.00000000000E+00  0.00000000000E+00  0.91188000000E+02  0.91188000000E+02 0.  0.
    9900012    2    3    3    0    0  0.16791104916E+02 -0.10853747606E+02  0.38521140228E+02  0.47787270907E+02  0.19999999371E+02 0.  0.
        -12    1    3    3    0    0 -0.16791104916E+02  0.10853747606E+02 -0.38521140228E+02  0.43400729093E+02  0.00000000000E+00 0.  1.
         11    1    4    4    0    0  0.76780012891E+01 -0.10544780383E+01  0.26604353201E+02  0.27710200960E+02  0.51100000000E-03 0. -1.
        -11    1    4    4    0    0  0.18157909557E+01 -0.71636298545E+01  0.23399794211E+01  0.77517864676E+01  0.51100000000E-03 0.  1.
         12    1    4    4    0    0  0.72973126715E+01 -0.26356397131E+01  0.95768076053E+01  0.12325283479E+02  0.00000000000E+00 0. -1.
</event>
<event>
 8    1  0.6019723E-011  0.9118800E+02  0.7816164E-02  0.1184000E+00
        -11   -1    0    0    0    0  0.00000000000E+00  0.00000000000E+00  0.45593999997E+02  0.45594000000E+02  0.51100000000E-03 0. -1.
         11   -1    0    0    0    0 -0.00000000000E+00 -0.00000000000E+00 -0.45593999997E+02  0.45594000000E+02  0.51100000000E-03 0.  1.
         23    2    1    2    0    0  0.00000000000E+00  0.00000000000E+00 -0.17763568394E-14  0.91188000000E+02  0.91188000000E+02 0.  0.
    9900012    2    3    3    0    0 -0.31904063590E+02  0.27604045730E+02  0.10186770582E+02  0.47787275247E+02  0.20000019161E+02 0.  0.
        -12    1    3    3    0    0  0.31904063590E+02 -0.27604045730E+02 -0.10186770582E+02  0.43400724753E+02  0.00000000000E+00 0.  1.
         11    1    4    4    0    0 -0.18154704964E+02  0.13255704472E+02  0.77024100431E+01  0.23762031355E+02  0.51100000000E-03 0. -1.
        -11    1    4    4    0    0 -0.22817056935E+01  0.11678025947E+02  0.28864185045E+01  0.12243932495E+02  0.51100000000E-03 0.  1.
        -12    1    4    4    0    0 -0.11467652932E+02  0.26703153109E+01 -0.40205796544E+00  0.11781311397E+02  0.00000000000E+00 0.  1.
</event>
<event>
 8    1  0.6019723E-011  0.9118800E+02  0.7816164E-02  0.1184000E+00
        -11   -1    0    0    0    0  0.00000000000E+00  0.00000000000E+00  0.45593999997E+02  0.45594000000E+02  0.51100000000E-03 0. -1.
         11   -1    0    0    0    0 -0.00000000000E+00 -0.00000000000E+00 -0.45593999997E+02  0.45594000000E+02  0.51100000000E-03 0.  1.
         23    2    1    2    0    0 -0.35527136788E-14  0.00000000000E+00  0.00000000000E+00  0.91188000000E+02  0.91188000000E+02 0.  0.
    9900012    2    3    3    0    0 -0.27935457631E+02 -0.25448286373E+01 -0.33117324654E+02  0.47787272609E+02  0.20000007132E+02 0.  0.
         12    1    3    3    0    0  0.27935457631E+02  0.25448286373E+01  0.33117324654E+02  0.43400727391E+02  0.00000000000E+00 0. -1.
         11    1    4    4    0    0 -0.16896517744E+02 -0.57874345490E+01 -0.21123522929E+02  0.27662066657E+02  0.51100000000E-03 0.  1.
        -11    1    4    4    0    0 -0.12056481191E+02  0.20285116870E+01 -0.13304722519E+02  0.18069013253E+02  0.51100000000E-03 0. -1.
         12    1    4    4    0    0  0.10175413038E+01  0.12140942246E+01  0.13109207933E+01  0.20561926995E+01  0.00000000000E+00 0. -1.
</event>
<event>
 8    1  0.6019723E-011  0.9118800E+02  0.7816164E-02  0.1184000E+00
        -11   -1    0    0    0    0  0.00000000000E+00  0.00000000000E+00  0.45593999997E+02  0.45594000000E+02  0.51100000000E-03 0. -1.
         11   -1    0    0    0    0 -0.00000000000E+00 -0.00000000000E+00 -0.45593999997E+02  0.45594000000E+02  0.51100000000E-03 0.  1.
         23    2    1    2    0    0  0.35527136788E-14  0.00000000000E+00  0.00000000000E+00  0.91188000000E+02  0.91188000000E+02 0.  0.
    9900012    2    3    3    0    0 -0.21475772425E+02  0.17282249377E+02  0.33522206791E+02  0.47787270825E+02  0.19999998999E+02 0.  0.
        -12    1    3    3    0    0  0.21475772425E+02 -0.17282249377E+02 -0.33522206791E+02  0.43400729175E+02  0.00000000000E+00 0.  1.
         11    1    4    4    0    0 -0.72751347653E+00  0.84328922572E+01  0.72430453114E+01  0.11140226808E+02  0.51100000000E-03 0.  1.
        -11    1    4    4    0    0 -0.20214991268E+02  0.72443268136E+01  0.27252098145E+02  0.34695864257E+02  0.51100000000E-03 0. -1.
        -12    1    4    4    0    0 -0.53326768004E+00  0.16050303064E+01 -0.97293666542E+00  0.19511797605E+01  0.00000000000E+00 0.  1.
</event>
<event>
 8    1  0.6019723E-011  0.9118800E+02  0.7816164E-02  0.1184000E+00
        -11   -1    0    0    0    0  0.00000000000E+00  0.00000000000E+00  0.45593999997E+02  0.45594000000E+02  0.51100000000E-03 0. -1.
         11   -1    0    0    0    0 -0.00000000000E+00 -0.00000000000E+00 -0.45593999997E+02  0.45594000000E+02  0.51100000000E-03 0.  1.
         23    2    1    2    0    0 -0.17763568394E-14  0.00000000000E+00  0.00000000000E+00  0.91188000000E+02  0.91188000000E+02 0.  0.
    9900012    2    3    3    0    0 -0.11150121991E+02 -0.32793541238E+02  0.26151103495E+02  0.47787288240E+02  0.20000078400E+02 0.  0.
        -12    1    3    3    0    0  0.11150121991E+02  0.32793541238E+02 -0.26151103495E+02  0.43400711760E+02  0.00000000000E+00 0.  1.
         11    1    4    4    0    0 -0.82485202227E+00 -0.31895836334E+01  0.11888915968E+02  0.12336942399E+02  0.51100000000E-03 0. -1.
        -11    1    4    4    0    0 -0.72973627436E+01 -0.88100355462E+01  0.52090537851E+01  0.12569903378E+02  0.51100000000E-03 0.  1.
         12    1    4    4    0    0 -0.30279072249E+01 -0.20793922058E+02  0.90531337417E+01  0.22880442462E+02  0.00000000000E+00 0. -1.
</event>
<event>
 8    1  0.6019723E-011  0.9118800E+02  0.7816164E-02  0.1184000E+00
        -11   -1    0    0    0    0  0.00000000000E+00  0.00000000000E+00  0.45593999997E+02  0.45594000000E+02  0.51100000000E-03 0. -1.
         11   -1    0    0    0    0 -0.00000000000E+00 -0.00000000000E+00 -0.45593999997E+02  0.45594000000E+02  0.51100000000E-03 0.  1.
         23    2    1    2    0    0 -0.35527136788E-14  0.00000000000E+00  0.00000000000E+00  0.91188000000E+02  0.91188000000E+02 0.  0.
    9900012    2    3    3    0    0 -0.11154079359E+02 -0.25217265741E+02  0.33515656944E+02  0.47787271455E+02  0.20000001874E+02 0.  0.
        -12    1    3    3    0    0  0.11154079359E+02  0.25217265741E+02 -0.33515656944E+02  0.43400728545E+02  0.00000000000E+00 0.  1.
         11    1    4    4    0    0  0.51078364622E+01 -0.88046961060E+01  0.11875212545E+02  0.15640758936E+02  0.51100000000E-03 0. -1.
        -11    1    4    4    0    0 -0.13670301547E+02 -0.10455192850E+02  0.14624576838E+02  0.22584650758E+02  0.51100000000E-03 0.  1.
         12    1    4    4    0    0 -0.25916142742E+01 -0.59573767853E+01  0.70158675614E+01  0.95618617615E+01  0.00000000000E+00 0. -1.
</event>
<event>
 8    1  0.6019723E-011  0.9118800E+02  0.7816164E-02  0.1184000E+00
        -11   -1    0    0    0    0  0.00000000000E+00  0.00000000000E+00  0.45593999997E+02  0.45594000000E+02  0.51100000000E-03 0.  1.
         11   -1    0    0    0    0 -0.00000000000E+00 -0.00000000000E+00 -0.45593999997E+02  0.45594000000E+02  0.51100000000E-03 0. -1.
         23    2    1    2    0    0  0.00000000000E+00  0.00000000000E+00  0.00000000000E+00  0.91188000000E+02  0.91188000000E+02 0.  0.
    9900012    2    3    3    0    0  0.17886995725E+02  0.12327579408E+02 -0.37572730296E+02  0.47787263923E+02  0.19999967530E+02 0.  0.
         12    1    3    3    0    0 -0.17886995725E+02 -0.12327579408E+02  0.37572730296E+02  0.43400736077E+02  0.00000000000E+00 0. -1.
         11    1    4    4    0    0  0.13601278833E+02  0.10202344208E+02 -0.13501717557E+02  0.21711264138E+02  0.51100000000E-03 0. -1.
        -11    1    4    4    0    0  0.42654262143E+01  0.31418455556E+01 -0.61125646702E+01  0.80887886234E+01  0.51100000000E-03 0.  1.
         12    1    4    4    0    0  0.20290677556E-01 -0.10166103553E+01 -0.17958448069E+02  0.17987211161E+02  0.00000000000E+00 0. -1.
</event>
<event>
 8    1  0.6019723E-011  0.9118800E+02  0.7816164E-02  0.1184000E+00
        -11   -1    0    0    0    0  0.00000000000E+00  0.00000000000E+00  0.45593999997E+02  0.45594000000E+02  0.51100000000E-03 0. -1.
         11   -1    0    0    0    0 -0.00000000000E+00 -0.00000000000E+00 -0.45593999997E+02  0.45594000000E+02  0.51100000000E-03 0.  1.
         23    2    1    2    0    0  0.00000000000E+00  0.00000000000E+00  0.00000000000E+00  0.91188000000E+02  0.91188000000E+02 0.  0.
    9900012    2    3    3    0    0 -0.56469661387E+01  0.45557864995E+01 -0.42789964566E+02  0.47787257094E+02  0.19999936395E+02 0.  0.
         12    1    3    3    0    0  0.56469661387E+01 -0.45557864995E+01  0.42789964566E+02  0.43400742906E+02  0.00000000000E+00 0. -1.
         11    1    4    4    0    0 -0.17874899977E+01  0.46591200895E+00  0.69890291363E+00  0.19750088698E+01  0.51100000000E-03 0. -1.
        -11    1    4    4    0    0 -0.64702644834E+01  0.18321257302E+00 -0.38170944588E+02  0.38715874010E+02  0.51100000000E-03 0.  1.
        -12    1    4    4    0    0  0.26107883425E+01  0.39066619175E+01 -0.53179228916E+01  0.70963742142E+01  0.00000000000E+00 0.  1.
</event>
<event>
 8    1  0.6193380E-011  0.9118800E+02  0.7816164E-02  0.1184000E+00
        -11   -1    0    0    0    0  0.00000000000E+00  0.00000000000E+00  0.45593999997E+02  0.45594000000E+02  0.51100000000E-03 0. -1.
         11   -1    0    0    0    0 -0.00000000000E+00 -0.00000000000E+00 -0.45593999997E+02  0.45594000000E+02  0.51100000000E-03 0.  1.
         23    2    1    2    0    0  0.35527136788E-14  0.35527136788E-14 -0.35527136788E-14  0.91188000000E+02  0.91188000000E+02 0.  0.
    9900012    2    3    3    0    0  0.21763936169E+02  0.23270284046E+02 -0.29469454155E+02  0.47787265382E+02  0.19999974184E+02 0.  0.
         12    1    3    3    0    0 -0.21763936169E+02 -0.23270284046E+02  0.29469454155E+02  0.43400734618E+02  0.00000000000E+00 0. -1.
         11    1    4    4    0    0  0.59412437932E+01 -0.24214345337E+01 -0.34243221637E+01  0.72723933854E+01  0.51100000000E-03 0. -1.
        -11    1    4    4    0    0  0.11440634316E+02  0.18291566390E+02 -0.22615771720E+02  0.31256081733E+02  0.51100000000E-03 0.  1.
         12    1    4    4    0    0  0.43820580600E+01  0.74001521903E+01 -0.34293602707E+01  0.92587902637E+01  0.00000000000E+00 0. -1.
</event>
<event>
 8    1  0.6019723E-011  0.9118800E+02  0.7816164E-02  0.1184000E+00
        -11   -1    0    0    0    0  0.00000000000E+00  0.00000000000E+00  0.45593999997E+02  0.45594000000E+02  0.51100000000E-03 0. -1.
         11   -1    0    0    0    0 -0.00000000000E+00 -0.00000000000E+00 -0.45593999997E+02  0.45594000000E+02  0.51100000000E-03 0.  1.
         23    2    1    2    0    0 -0.88817841970E-15 -0.35527136788E-14  0.00000000000E+00  0.91188000000E+02  0.91188000000E+02 0.  0.
    9900012    2    3    3    0    0 -0.37072214230E+01 -0.19074419525E+02 -0.38807828283E+02  0.47787256839E+02  0.19999935230E+02 0.  0.
         12    1    3    3    0    0  0.37072214230E+01  0.19074419525E+02  0.38807828283E+02  0.43400743161E+02  0.00000000000E+00 0. -1.
         11    1    4    4    0    0  0.37557169079E+01  0.13154935576E+01 -0.23304590438E+01  0.46116127774E+01  0.51100000000E-03 0. -1.
        -11    1    4    4    0    0 -0.67962343234E+01 -0.12822477658E+02 -0.29429293612E+02  0.32812925152E+02  0.51100000000E-03 0.  1.
         12    1    4    4    0    0 -0.66670400757E+00 -0.75674354246E+01 -0.70480756275E+01  0.10362718909E+02  0.00000000000E+00 0. -1.
</event>
<event>
 8    1  0.6019723E-011  0.9118800E+02  0.7816164E-02  0.1184000E+00
        -11   -1    0    0    0    0  0.00000000000E+00  0.00000000000E+00  0.45593999997E+02  0.45594000000E+02  0.51100000000E-03 0. -1.
         11   -1    0    0    0    0 -0.00000000000E+00 -0.00000000000E+00 -0.45593999997E+02  0.45594000000E+02  0.51100000000E-03 0.  1.
         23    2    1    2    0    0  0.88817841970E-15  0.71054273576E-14  0.71054273576E-14  0.91188000000E+02  0.91188000000E+02 0.  0.
    9900012    2    3    3    0    0 -0.67836218253E+01 -0.29264136816E+02 -0.31324376085E+02  0.47787265377E+02  0.19999974162E+02 0.  0.
         12    1    3    3    0    0  0.67836218253E+01  0.29264136816E+02  0.31324376085E+02  0.43400734623E+02  0.00000000000E+00 0. -1.
         11    1    4    4    0    0 -0.14097725976E+01  0.56078594777E+00 -0.75683503648E+01  0.77189291460E+01  0.51100000000E-03 0. -1.
        -11    1    4    4    0    0 -0.75185915616E+01 -0.24640162114E+02 -0.22747919780E+02  0.34367639760E+02  0.51100000000E-03 0.  1.
        -12    1    4    4    0    0  0.21447423340E+01 -0.51847606501E+01 -0.10081059403E+01  0.57006964719E+01  0.00000000000E+00 0.  1.
</event>
<event>
 8    1  0.6019723E-011  0.9118800E+02  0.7816164E-02  0.1184000E+00
        -11   -1    0    0    0    0  0.00000000000E+00  0.00000000000E+00  0.45593999997E+02  0.45594000000E+02  0.51100000000E-03 0. -1.
         11   -1    0    0    0    0 -0.00000000000E+00 -0.00000000000E+00 -0.45593999997E+02  0.45594000000E+02  0.51100000000E-03 0.  1.
         23    2    1    2    0    0  0.00000000000E+00  0.71054273576E-14  0.00000000000E+00  0.91188000000E+02  0.91188000000E+02 0.  0.
    9900012    2    3    3    0    0  0.36821684780E+01  0.40555635504E+02  0.15010182525E+02  0.47787268263E+02  0.19999987319E+02 0.  0.
        -12    1    3    3    0    0 -0.36821684780E+01 -0.40555635504E+02 -0.15010182525E+02  0.43400731737E+02  0.00000000000E+00 0.  1.
         11    1    4    4    0    0  0.49123770377E+01  0.27074241925E+02  0.11770948439E+02  0.29928268433E+02  0.51100000000E-03 0. -1.
        -11    1    4    4    0    0  0.49713881055E+01  0.69099731091E+01  0.12072807627E+01  0.85976714967E+01  0.51100000000E-03 0.  1.
         12    1    4    4    0    0 -0.62015966651E+01  0.65714204699E+01  0.20319533237E+01  0.92613283334E+01  0.00000000000E+00 0. -1.
</event>
<event>
 8    1  0.6019723E-011  0.9118800E+02  0.7816164E-02  0.1184000E+00
        -11   -1    0    0    0    0  0.00000000000E+00  0.00000000000E+00  0.45593999997E+02  0.45594000000E+02  0.51100000000E-03 0. -1.
         11   -1    0    0    0    0 -0.00000000000E+00 -0.00000000000E+00 -0.45593999997E+02  0.45594000000E+02  0.51100000000E-03 0.  1.
         23    2    1    2    0    0  0.00000000000E+00 -0.88817841970E-15  0.00000000000E+00  0.91188000000E+02  0.91188000000E+02 0.  0.
    9900012    2    3    3    0    0  0.11204219926E+02 -0.58401773879E+01 -0.41520854107E+02  0.47787267957E+02  0.19999985925E+02 0.  0.
         12    1    3    3    0    0 -0.11204219926E+02  0.58401773879E+01  0.41520854107E+02  0.43400732043E+02  0.00000000000E+00 0. -1.
         11    1    4    4    0    0  0.84112216066E+01 -0.10899358361E+02 -0.19185549947E+02  0.23614190408E+02  0.51100000000E-03 0.  1.
        -11    1    4    4    0    0 -0.12296144999E+01  0.23193825892E+01 -0.15843000263E+02  0.16059020674E+02  0.51100000000E-03 0. -1.
         12    1    4    4    0    0  0.40226128197E+01  0.27397983843E+01 -0.64923038964E+01  0.81140568748E+01  0.00000000000E+00 0. -1.
</event>
<event>
 8    1  0.6019723E-011  0.9118800E+02  0.7816164E-02  0.1184000E+00
        -11   -1    0    0    0    0  0.00000000000E+00  0.00000000000E+00  0.45593999997E+02  0.45594000000E+02  0.51100000000E-03 0. -1.
         11   -1    0    0    0    0 -0.00000000000E+00 -0.00000000000E+00 -0.45593999997E+02  0.45594000000E+02  0.51100000000E-03 0.  1.
         23    2    1    2    0    0  0.00000000000E+00  0.00000000000E+00  0.71054273576E-14  0.91188000000E+02  0.91188000000E+02 0.  0.
    9900012    2    3    3    0    0 -0.13538610047E+02 -0.66823010368E+01 -0.40690024659E+02  0.47787248671E+02  0.19999897992E+02 0.  0.
         12    1    3    3    0    0  0.13538610047E+02  0.66823010368E+01  0.40690024659E+02  0.43400751329E+02  0.00000000000E+00 0. -1.
         11    1    4    4    0    0 -0.59007100936E+01 -0.11919579618E+02 -0.29207245944E+02  0.32092958320E+02  0.51100000000E-03 0. -1.
        -11    1    4    4    0    0  0.60581028563E+00 -0.18844668092E+00 -0.16289326437E+01  0.17481247302E+01  0.51100000000E-03 0.  1.
         12    1    4    4    0    0 -0.82437102393E+01  0.54257252620E+01 -0.98538460714E+01  0.13946165621E+02  0.00000000000E+00 0. -1.
</event>
<event>
 8    1  0.6019723E-011  0.9118800E+02  0.7816164E-02  0.1184000E+00
        -11   -1    0    0    0    0  0.00000000000E+00  0.00000000000E+00  0.45593999997E+02  0.45594000000E+02  0.51100000000E-03 0. -1.
         11   -1    0    0    0    0 -0.00000000000E+00 -0.00000000000E+00 -0.45593999997E+02  0.45594000000E+02  0.51100000000E-03 0.  1.
         23    2    1    2    0    0  0.00000000000E+00 -0.35527136788E-14 -0.11102230246E-15  0.91188000000E+02  0.91188000000E+02 0.  0.
    9900012    2    3    3    0    0 -0.39525394528E+02 -0.17913584162E+02 -0.68550573560E+00  0.47787271570E+02  0.20000002396E+02 0.  0.
        -12    1    3    3    0    0  0.39525394528E+02  0.17913584162E+02  0.68550573560E+00  0.43400728430E+02  0.00000000000E+00 0.  1.
         11    1    4    4    0    0 -0.78480471226E+01 -0.47268701913E+01 -0.25303083184E+01  0.95046097179E+01  0.51100000000E-03 0. -1.
        -11    1    4    4    0    0 -0.54203218041E+01  0.16850376843E+01 -0.47415961921E+01  0.73960783641E+01  0.51100000000E-03 0.  1.
        -12    1    4    4    0    0 -0.26257025602E+02 -0.14871751655E+02  0.65863987748E+01  0.30886583488E+02  0.00000000000E+00 0.  1.
</event>
<event>
 8    1  0.6019723E-011  0.9118800E+02  0.7816164E-02  0.1184000E+00
        -11   -1    0    0    0    0  0.00000000000E+00  0.00000000000E+00  0.45593999997E+02  0.45594000000E+02  0.51100000000E-03 0. -1.
         11   -1    0    0    0    0 -0.00000000000E+00 -0.00000000000E+00 -0.45593999997E+02  0.45594000000E+02  0.51100000000E-03 0.  1.
         23    2    1    2    0    0  0.35527136788E-14  0.71054273576E-14 -0.44408920985E-15  0.91188000000E+02  0.91188000000E+02 0.  0.
    9900012    2    3    3    0    0 -0.29261565454E+02  0.32022144901E+02  0.14022491786E+01  0.47787270978E+02  0.19999999697E+02 0.  0.
         12    1    3    3    0    0  0.29261565454E+02 -0.32022144901E+02 -0.14022491786E+01  0.43400729022E+02  0.00000000000E+00 0. -1.
         11    1    4    4    0    0 -0.90763620993E+01  0.13959809076E+02  0.79227121439E+01  0.18439793556E+02  0.51100000000E-03 0. -1.
        -11    1    4    4    0    0 -0.12346542597E+02  0.16443057333E+02 -0.39300609977E+01  0.20934579725E+02  0.51100000000E-03 0.  1.
         12    1    4    4    0    0 -0.78386607579E+01  0.16192784920E+01 -0.25904019675E+01  0.84128976973E+01  0.00000000000E+00 0. -1.
</event>
<event>
 8    1  0.6019723E-011  0.9118800E+02  0.7816164E-02  0.1184000E+00
        -11   -1    0    0    0    0  0.00000000000E+00  0.00000000000E+00  0.45593999997E+02  0.45594000000E+02  0.51100000000E-03 0. -1.
         11   -1    0    0    0    0 -0.00000000000E+00 -0.00000000000E+00 -0.45593999997E+02  0.45594000000E+02  0.51100000000E-03 0.  1.
         23    2    1    2    0    0  0.88817841970E-15  0.00000000000E+00 -0.71054273576E-14  0.91188000000E+02  0.91188000000E+02 0.  0.
    9900012    2    3    3    0    0 -0.56985355194E+01 -0.10185622966E+01 -0.43012934896E+02  0.47787270230E+02  0.19999996286E+02 0.  0.
         12    1    3    3    0    0  0.56985355194E+01  0.10185622966E+01  0.43012934896E+02  0.43400729770E+02  0.00000000000E+00 0. -1.
         11    1    4    4    0    0 -0.15748233701E+01 -0.24588360691E+01 -0.19625398036E+01  0.35181680181E+01  0.51100000000E-03 0. -1.
        -11    1    4    4    0    0 -0.99323467266E+01 -0.10687666246E+01 -0.21222286371E+02  0.23455899315E+02  0.51100000000E-03 0.  1.
        -12    1    4    4    0    0  0.58086345773E+01  0.25090403971E+01 -0.19828108721E+02  0.20813202897E+02  0.00000000000E+00 0.  1.
</event>
<event>
 8    1  0.6019723E-011  0.9118800E+02  0.7816164E-02  0.1184000E+00
        -11   -1    0    0    0    0  0.00000000000E+00  0.00000000000E+00  0.45593999997E+02  0.45594000000E+02  0.51100000000E-03 0. -1.
         11   -1    0    0    0    0 -0.00000000000E+00 -0.00000000000E+00 -0.45593999997E+02  0.45594000000E+02  0.51100000000E-03 0.  1.
         23    2    1    2    0    0  0.17763568394E-14  0.00000000000E+00  0.00000000000E+00  0.91188000000E+02  0.91188000000E+02 0.  0.
    9900012    2    3    3    0    0  0.10603116717E+02  0.19040293673E+02  0.37532177027E+02  0.47787272130E+02  0.20000004950E+02 0.  0.
        -12    1    3    3    0    0 -0.10603116717E+02 -0.19040293673E+02 -0.37532177027E+02  0.43400727870E+02  0.00000000000E+00 0.  1.
         11    1    4    4    0    0  0.32060136111E+00  0.84317471522E+01  0.10623195321E+02  0.13566481650E+02  0.51100000000E-03 0. -1.
        -11    1    4    4    0    0  0.12691218606E+02  0.11893738054E+02  0.26115859428E+02  0.31377797063E+02  0.51100000000E-03 0.  1.
        -12    1    4    4    0    0 -0.24087032494E+01 -0.12851915338E+01  0.79312227817E+00  0.28429934172E+01  0.00000000000E+00 0.  1.
</event>
<event>
 8    1  0.6019723E-011  0.9118800E+02  0.7816164E-02  0.1184000E+00
        -11   -1    0    0    0    0  0.00000000000E+00  0.00000000000E+00  0.45593999997E+02  0.45594000000E+02  0.51100000000E-03 0. -1.
         11   -1    0    0    0    0 -0.00000000000E+00 -0.00000000000E+00 -0.45593999997E+02  0.45594000000E+02  0.51100000000E-03 0.  1.
         23    2    1    2    0    0  0.88817841970E-15  0.00000000000E+00  0.00000000000E+00  0.91188000000E+02  0.91188000000E+02 0.  0.
    9900012    2    3    3    0    0  0.54029236253E+01  0.33708358418E+02  0.26798866333E+02  0.47787259826E+02  0.19999948849E+02 0.  0.
        -12    1    3    3    0    0 -0.54029236253E+01 -0.33708358418E+02 -0.26798866333E+02  0.43400740174E+02  0.00000000000E+00 0.  1.
         11    1    4    4    0    0  0.35757845548E+01  0.13274234011E+02  0.14653937809E+02  0.20093019119E+02  0.51100000000E-03 0. -1.
        -11    1    4    4    0    0  0.39347511492E+01 -0.30326724659E+00  0.10622366968E+01  0.40868795786E+01  0.51100000000E-03 0.  1.
        -12    1    4    4    0    0 -0.21076120787E+01  0.20737391653E+02  0.11082691827E+02  0.23607361128E+02  0.00000000000E+00 0.  1.
</event>
<event>
 8    1  0.6019723E-011  0.9118800E+02  0.7816164E-02  0.1184000E+00
        -11   -1    0    0    0    0  0.00000000000E+00  0.00000000000E+00  0.45593999997E+02  0.45594000000E+02  0.51100000000E-03 0. -1.
         11   -1    0    0    0    0 -0.00000000000E+00 -0.00000000000E+00 -0.45593999997E+02  0.45594000000E+02  0.51100000000E-03 0.  1.
         23    2    1    2    0    0  0.00000000000E+00  0.00000000000E+00  0.00000000000E+00  0.91188000000E+02  0.91188000000E+02 0.  0.
    9900012    2    3    3    0    0  0.39719708950E+02 -0.13036677409E+02  0.11662455858E+02  0.47787272891E+02  0.20000008421E+02 0.  0.
        -12    1    3    3    0    0 -0.39719708950E+02  0.13036677409E+02 -0.11662455858E+02  0.43400727109E+02  0.00000000000E+00 0.  1.
         11    1    4    4    0    0  0.12475762258E+02 -0.49428425732E+01 -0.79281846428E-01  0.13419486671E+02  0.51100000000E-03 0. -1.
        -11    1    4    4    0    0  0.26961729945E+02 -0.78503788200E+01  0.61286877383E+01  0.28742375387E+02  0.51100000000E-03 0.  1.
        -12    1    4    4    0    0  0.28221674653E+00 -0.24345601563E+00  0.56130499664E+01  0.56254108338E+01  0.00000000000E+00 0.  1.
</event>
<event>
 8    1  0.6019723E-011  0.9118800E+02  0.7816164E-02  0.1184000E+00
        -11   -1    0    0    0    0  0.00000000000E+00  0.00000000000E+00  0.45593999997E+02  0.45594000000E+02  0.51100000000E-03 0. -1.
         11   -1    0    0    0    0 -0.00000000000E+00 -0.00000000000E+00 -0.45593999997E+02  0.45594000000E+02  0.51100000000E-03 0.  1.
         23    2    1    2    0    0  0.00000000000E+00  0.00000000000E+00  0.00000000000E+00  0.91188000000E+02  0.91188000000E+02 0.  0.
    9900012    2    3    3    0    0  0.97555163345E+01 -0.16581862504E+02 -0.38903664092E+02  0.47787270250E+02  0.19999996378E+02 0.  0.
         12    1    3    3    0    0 -0.97555163345E+01  0.16581862504E+02  0.38903664092E+02  0.43400729750E+02  0.00000000000E+00 0. -1.
         11    1    4    4    0    0  0.53895635313E+01 -0.13470704878E+02 -0.10033756653E+02  0.17640395625E+02  0.51100000000E-03 0. -1.
        -11    1    4    4    0    0  0.57228920644E+01 -0.52632319140E+00 -0.18298243930E+02  0.19179526607E+02  0.51100000000E-03 0.  1.
         12    1    4    4    0    0 -0.13569392612E+01 -0.25848344353E+01 -0.10571663508E+02  0.10967348018E+02  0.00000000000E+00 0. -1.
</event>
<event>
 8    1  0.6019723E-011  0.9118800E+02  0.7816164E-02  0.1184000E+00
        -11   -1    0    0    0    0  0.00000000000E+00  0.00000000000E+00  0.45593999997E+02  0.45594000000E+02  0.51100000000E-03 0.  1.
         11   -1    0    0    0    0 -0.00000000000E+00 -0.00000000000E+00 -0.45593999997E+02  0.45594000000E+02  0.51100000000E-03 0. -1.
         23    2    1    2    0    0 -0.17763568394E-14  0.71054273576E-14  0.00000000000E+00  0.91188000000E+02  0.91188000000E+02 0.  0.
    9900012    2    3    3    0    0 -0.13628813714E+02  0.39610718453E+02 -0.11352066473E+02  0.47787274282E+02  0.20000014762E+02 0.  0.
         12    1    3    3    0    0  0.13628813714E+02 -0.39610718453E+02  0.11352066473E+02  0.43400725718E+02  0.00000000000E+00 0. -1.
         11    1    4    4    0    0 -0.32504294318E+01  0.11886945117E+01 -0.27454499352E+01  0.44176670020E+01  0.51100000000E-03 0. -1.
        -11    1    4    4    0    0  0.54544172849E+00  0.25318812248E+02 -0.35211052826E+01  0.25568299572E+02  0.51100000000E-03 0.  1.
        -12    1    4    4    0    0 -0.10923826011E+02  0.13103211693E+02 -0.50855112548E+01  0.17801307708E+02  0.00000000000E+00 0.  1.
</event>
<event>
 8    1  0.6019723E-011  0.9118800E+02  0.7816164E-02  0.1184000E+00
        -11   -1    0    0    0    0  0.00000000000E+00  0.00000000000E+00  0.45593999997E+02  0.45594000000E+02  0.51100000000E-03 0. -1.
         11   -1    0    0    0    0 -0.00000000000E+00 -0.00000000000E+00 -0.45593999997E+02  0.45594000000E+02  0.51100000000E-03 0.  1.
         23    2    1    2    0    0  0.00000000000E+00 -0.17763568394E-14  0.00000000000E+00  0.91188000000E+02  0.91188000000E+02 0.  0.
    9900012    2    3    3    0    0  0.96877540128E+01 -0.10184677262E+02 -0.41061458904E+02  0.47787266872E+02  0.19999980974E+02 0.  0.
         12    1    3    3    0    0 -0.96877540128E+01  0.10184677262E+02  0.41061458904E+02  0.43400733128E+02  0.00000000000E+00 0. -1.
         11    1    4    4    0    0 -0.44257280551E+01 -0.66523521194E-01 -0.27578305566E+01  0.52150861773E+01  0.51100000000E-03 0. -1.
        -11    1    4    4    0    0  0.14403011740E+02 -0.10636935278E+02 -0.37638802541E+02  0.41680578167E+02  0.51100000000E-03 0.  1.
        -12    1    4    4    0    0 -0.28952967255E+00  0.51878153709E+00 -0.66482580649E+00  0.89160252775E+00  0.00000000000E+00 0.  1.
</event>
<event>
 8    1  0.6019723E-011  0.9118800E+02  0.7816164E-02  0.1184000E+00
        -11   -1    0    0    0    0  0.00000000000E+00  0.00000000000E+00  0.45593999997E+02  0.45594000000E+02  0.51100000000E-03 0. -1.
         11   -1    0    0    0    0 -0.00000000000E+00 -0.00000000000E+00 -0.45593999997E+02  0.45594000000E+02  0.51100000000E-03 0.  1.
         23    2    1    2    0    0  0.00000000000E+00  0.00000000000E+00  0.00000000000E+00  0.91188000000E+02  0.91188000000E+02 0.  0.
    9900012    2    3    3    0    0  0.14475423622E+02 -0.10194117274E+02 -0.39625297504E+02  0.47787284358E+02  0.20000060700E+02 0.  0.
         12    1    3    3    0    0 -0.14475423622E+02  0.10194117274E+02  0.39625297504E+02  0.43400715642E+02  0.00000000000E+00 0. -1.
         11    1    4    4    0    0 -0.95962494414E+00 -0.35165347736E+01 -0.64493912817E+00  0.37017352131E+01  0.51100000000E-03 0. -1.
        -11    1    4    4    0    0  0.68941673710E+01 -0.26190980049E+01 -0.30515880728E+02  0.31394397509E+02  0.51100000000E-03 0.  1.
        -12    1    4    4    0    0  0.85408811947E+01 -0.40584844954E+01 -0.84644776474E+01  0.12691151635E+02  0.00000000000E+00 0.  1.
</event>
<event>
 8    1  0.6019723E-011  0.9118800E+02  0.7816164E-02  0.1184000E+00
        -11   -1    0    0    0    0  0.00000000000E+00  0.00000000000E+00  0.45593999997E+02  0.45594000000E+02  0.51100000000E-03 0. -1.
         11   -1    0    0    0    0 -0.00000000000E+00 -0.00000000000E+00 -0.45593999997E+02  0.45594000000E+02  0.51100000000E-03 0.  1.
         23    2    1    2    0    0  0.35527136788E-14  0.00000000000E+00 -0.88817841970E-15  0.91188000000E+02  0.91188000000E+02 0.  0.
    9900012    2    3    3    0    0  0.30821054269E+02 -0.29670952498E+02  0.73020853677E+01  0.47787271215E+02  0.20000000776E+02 0.  0.
        -12    1    3    3    0    0 -0.30821054269E+02  0.29670952498E+02 -0.73020853677E+01  0.43400728785E+02  0.00000000000E+00 0.  1.
         11    1    4    4    0    0  0.69324247177E+01  0.49381842060E+00 -0.59750573466E+00  0.69756277468E+01  0.51100000000E-03 0.  1.
        -11    1    4    4    0    0  0.24060651490E+02 -0.30967417171E+02  0.78070422742E+01  0.39985569718E+02  0.51100000000E-03 0. -1.
         12    1    4    4    0    0 -0.17202193927E+00  0.80264625209E+00  0.92548828108E-01  0.82607374924E+00  0.00000000000E+00 0. -1.
</event>
<event>
 8    1  0.6019723E-011  0.9118800E+02  0.7816164E-02  0.1184000E+00
        -11   -1    0    0    0    0  0.00000000000E+00  0.00000000000E+00  0.45593999997E+02  0.45594000000E+02  0.51100000000E-03 0. -1.
         11   -1    0    0    0    0 -0.00000000000E+00 -0.00000000000E+00 -0.45593999997E+02  0.45594000000E+02  0.51100000000E-03 0.  1.
         23    2    1    2    0    0  0.00000000000E+00  0.00000000000E+00  0.00000000000E+00  0.91188000000E+02  0.91188000000E+02 0.  0.
    9900012    2    3    3    0    0 -0.33797867976E+02  0.11467324386E+02 -0.24694688078E+02  0.47787273882E+02  0.20000012938E+02 0.  0.
         12    1    3    3    0    0  0.33797867976E+02 -0.11467324386E+02  0.24694688078E+02  0.43400726118E+02  0.00000000000E+00 0. -1.
         11    1    4    4    0    0 -0.12036982678E+02  0.68842950032E+01 -0.14505531040E+02  0.20067209589E+02  0.51100000000E-03 0. -1.
        -11    1    4    4    0    0 -0.22617394575E+02  0.45986418998E+01 -0.65645053936E+01  0.23995557422E+02  0.51100000000E-03 0.  1.
        -12    1    4    4    0    0  0.85650927610E+00 -0.15612517152E-01 -0.36246516444E+01  0.37245068712E+01  0.00000000000E+00 0.  1.
</event>
<event>
 8    1  0.6019723E-011  0.9118800E+02  0.7816164E-02  0.1184000E+00
        -11   -1    0    0    0    0  0.00000000000E+00  0.00000000000E+00  0.45593999997E+02  0.45594000000E+02  0.51100000000E-03 0. -1.
         11   -1    0    0    0    0 -0.00000000000E+00 -0.00000000000E+00 -0.45593999997E+02  0.45594000000E+02  0.51100000000E-03 0.  1.
         23    2    1    2    0    0  0.00000000000E+00  0.35527136788E-14  0.00000000000E+00  0.91188000000E+02  0.91188000000E+02 0.  0.
    9900012    2    3    3    0    0  0.13216419620E+02  0.28140709498E+02  0.30282827049E+02  0.47787275436E+02  0.20000020022E+02 0.  0.
        -12    1    3    3    0    0 -0.13216419620E+02 -0.28140709498E+02 -0.30282827049E+02  0.43400724564E+02  0.00000000000E+00 0.  1.
         11    1    4    4    0    0  0.48682251303E+01  0.69762659964E+01  0.21864031909E+02  0.23460686152E+02  0.51100000000E-03 0. -1.
        -11    1    4    4    0    0  0.48803570814E+01  0.10373550640E+02  0.36672384582E+01  0.12036489368E+02  0.51100000000E-03 0.  1.
         12    1    4    4    0    0  0.34678374087E+01  0.10790892861E+02  0.47515566817E+01  0.12290099916E+02  0.00000000000E+00 0. -1.
</event>
<event>
 8    1  0.6019723E-011  0.9118800E+02  0.7816164E-02  0.1184000E+00
        -11   -1    0    0    0    0  0.00000000000E+00  0.00000000000E+00  0.45593999997E+02  0.45594000000E+02  0.51100000000E-03 0.  1.
         11   -1    0    0    0    0 -0.00000000000E+00 -0.00000000000E+00 -0.45593999997E+02  0.45594000000E+02  0.51100000000E-03 0. -1.
         23    2    1    2    0    0  0.00000000000E+00  0.71054273576E-14 -0.35527136788E-14  0.91188000000E+02  0.91188000000E+02 0.  0.
    9900012    2    3    3    0    0  0.21934042214E+02  0.35725778261E+02 -0.11233429706E+02  0.47787269785E+02  0.19999994260E+02 0.  0.
         12    1    3    3    0    0 -0.21934042214E+02 -0.35725778261E+02  0.11233429706E+02  0.43400730215E+02  0.00000000000E+00 0. -1.
         11    1    4    4    0    0  0.15128650498E+02  0.26728937406E+02  0.16527860889E+00  0.30713832031E+02  0.51100000000E-03 0.  1.
        -11    1    4    4    0    0 -0.89071324959E+00  0.22552288183E+01 -0.28405147431E+01  0.37346956212E+01  0.51100000000E-03 0. -1.
         12    1    4    4    0    0  0.76961049665E+01  0.67416120367E+01 -0.85581935713E+01  0.13338742134E+02  0.00000000000E+00 0. -1.
</event>
<event>
 8    1  0.6019723E-011  0.9118800E+02  0.7816164E-02  0.1184000E+00
        -11   -1    0    0    0    0  0.00000000000E+00  0.00000000000E+00  0.45593999997E+02  0.45594000000E+02  0.51100000000E-03 0. -1.
         11   -1    0    0    0    0 -0.00000000000E+00 -0.00000000000E+00 -0.45593999997E+02  0.45594000000E+02  0.51100000000E-03 0.  1.
         23    2    1    2    0    0  0.35527136788E-14  0.00000000000E+00  0.00000000000E+00  0.91188000000E+02  0.91188000000E+02 0.  0.
    9900012    2    3    3    0    0 -0.20804830261E+02 -0.36829232758E+02 -0.97153644358E+01  0.47787289708E+02  0.20000085094E+02 0.  0.
         12    1    3    3    0    0  0.20804830261E+02  0.36829232758E+02  0.97153644358E+01  0.43400710292E+02  0.00000000000E+00 0. -1.
         11    1    4    4    0    0 -0.94710776884E+01 -0.23961801460E+02 -0.12270069013E+02  0.28538111984E+02  0.51100000000E-03 0. -1.
        -11    1    4    4    0    0 -0.53176610255E+01 -0.91161734449E+00 -0.79178264647E+00  0.54530253058E+01  0.51100000000E-03 0.  1.
         12    1    4    4    0    0 -0.60160915472E+01 -0.11955813954E+02  0.33464872239E+01  0.13796152418E+02  0.00000000000E+00 0. -1.
</event>
<event>
 8    1  0.6019723E-011  0.9118800E+02  0.7816164E-02  0.1184000E+00
        -11   -1    0    0    0    0  0.00000000000E+00  0.00000000000E+00  0.45593999997E+02  0.45594000000E+02  0.51100000000E-03 0. -1.
         11   -1    0    0    0    0 -0.00000000000E+00 -0.00000000000E+00 -0.45593999997E+02  0.45594000000E+02  0.51100000000E-03 0.  1.
         23    2    1    2    0    0  0.00000000000E+00 -0.35527136788E-14  0.71054273576E-14  0.91188000000E+02  0.91188000000E+02 0.  0.
    9900012    2    3    3    0    0 -0.72822792929E+01 -0.23570352206E+02  0.35707565584E+02  0.47787270344E+02  0.19999996805E+02 0.  0.
        -12    1    3    3    0    0  0.72822792929E+01  0.23570352206E+02 -0.35707565584E+02  0.43400729656E+02  0.00000000000E+00 0.  1.
         11    1    4    4    0    0 -0.81171147579E+01 -0.94005024766E+01  0.21167002634E+02  0.24541780692E+02  0.51100000000E-03 0. -1.
        -11    1    4    4    0    0  0.42495104735E+01 -0.54331183974E+01  0.13002815782E+01  0.70191058710E+01  0.51100000000E-03 0.  1.
        -12    1    4    4    0    0 -0.34146750085E+01 -0.87367313319E+01  0.13240281372E+02  0.16226383780E+02  0.00000000000E+00 0.  1.
</event>
<event>
 8    1  0.6054737E-011  0.9118800E+02  0.7816164E-02  0.1184000E+00
        -11   -1    0    0    0    0  0.00000000000E+00  0.00000000000E+00  0.45593999997E+02  0.45594000000E+02  0.51100000000E-03 0. -1.
         11   -1    0    0    0    0 -0.00000000000E+00 -0.00000000000E+00 -0.45593999997E+02  0.45594000000E+02  0.51100000000E-03 0.  1.
         23    2    1    2    0    0  0.35527136788E-14  0.00000000000E+00  0.00000000000E+00  0.91188000000E+02  0.91188000000E+02 0.  0.
    9900012    2    3    3    0    0 -0.11592539311E+02  0.13768378657E+02 -0.39492632579E+02  0.47787271359E+02  0.20000001434E+02 0.  0.
         12    1    3    3    0    0  0.11592539311E+02 -0.13768378657E+02  0.39492632579E+02  0.43400728641E+02  0.00000000000E+00 0. -1.
         11    1    4    4    0    0 -0.21830907286E+01  0.58131729935E+01  0.11310038587E+00  0.62106084517E+01  0.51100000000E-03 0. -1.
        -11    1    4    4    0    0 -0.63406427874E+01  0.69774275425E+01 -0.29370067927E+02  0.30846217537E+02  0.51100000000E-03 0.  1.
         12    1    4    4    0    0 -0.30688057950E+01  0.97777812112E+00 -0.10235665038E+02  0.10730445370E+02  0.00000000000E+00 0. -1.
</event>
<event>
 8    1  0.6019723E-011  0.9118800E+02  0.7816164E-02  0.1184000E+00
        -11   -1    0    0    0    0  0.00000000000E+00  0.00000000000E+00  0.45593999997E+02  0.45594000000E+02  0.51100000000E-03 0. -1.
         11   -1    0    0    0    0 -0.00000000000E+00 -0.00000000000E+00 -0.45593999997E+02  0.45594000000E+02  0.51100000000E-03 0.  1.
         23    2    1    2    0    0  0.00000000000E+00  0.00000000000E+00  0.00000000000E+00  0.91188000000E+02  0.91188000000E+02 0.  0.
    9900012    2    3    3    0    0  0.44028653349E+01  0.20228808747E+02  0.38144898838E+02  0.47787271506E+02  0.20000002105E+02 0.  0.
        -12    1    3    3    0    0 -0.44028653349E+01 -0.20228808747E+02 -0.38144898838E+02  0.43400728494E+02  0.00000000000E+00 0.  1.
         11    1    4    4    0    0 -0.37215329315E+01  0.53533220905E+01  0.11223423879E+02  0.12979719126E+02  0.51100000000E-03 0. -1.
        -11    1    4    4    0    0  0.11895442074E+02  0.12953728728E+02  0.19462904210E+02  0.26231760723E+02  0.51100000000E-03 0.  1.
        -12    1    4    4    0    0 -0.37710438072E+01  0.19217579288E+01  0.74585707488E+01  0.85757916572E+01  0.00000000000E+00 0.  1.
</event>
<event>
 8    1  0.6019723E-011  0.9118800E+02  0.7816164E-02  0.1184000E+00
        -11   -1    0    0    0    0  0.00000000000E+00  0.00000000000E+00  0.45593999997E+02  0.45594000000E+02  0.51100000000E-03 0. -1.
         11   -1    0    0    0    0 -0.00000000000E+00 -0.00000000000E+00 -0.45593999997E+02  0.45594000000E+02  0.51100000000E-03 0.  1.
         23    2    1    2    0    0 -0.17763568394E-14  0.00000000000E+00  0.00000000000E+00  0.91188000000E+02  0.91188000000E+02 0.  0.
    9900012    2    3    3    0    0  0.78639299356E+01  0.10947668905E+02 -0.41254444383E+02  0.47787285376E+02  0.20000065345E+02 0.  0.
         12    1    3    3    0    0 -0.78639299356E+01 -0.10947668905E+02  0.41254444383E+02  0.43400714624E+02  0.00000000000E+00 0. -1.
         11    1    4    4    0    0  0.62381738272E+01 -0.20937620362E+01 -0.67033470391E+01  0.93932696091E+01  0.51100000000E-03 0. -1.
        -11    1    4    4    0    0 -0.40805834212E+00  0.54551590455E+01 -0.26823665935E+02  0.27375798186E+02  0.51100000000E-03 0.  1.
        -12    1    4    4    0    0  0.20338144505E+01  0.75862718961E+01 -0.77274314085E+01  0.11018217582E+02  0.00000000000E+00 0.  1.
</event>
<event>
 8    1  0.6019723E-011  0.9118800E+02  0.7816164E-02  0.1184000E+00
        -11   -1    0    0    0    0  0.00000000000E+00  0.00000000000E+00  0.45593999997E+02  0.45594000000E+02  0.51100000000E-03 0.  1.
         11   -1    0    0    0    0 -0.00000000000E+00 -0.00000000000E+00 -0.45593999997E+02  0.45594000000E+02  0.51100000000E-03 0. -1.
         23    2    1    2    0    0  0.00000000000E+00 -0.71054273576E-14  0.00000000000E+00  0.91188000000E+02  0.91188000000E+02 0.  0.
    9900012    2    3    3    0    0  0.78499173502E+01 -0.38364937074E+02  0.18711850150E+02  0.47787274947E+02  0.20000017793E+02 0.  0.
        -12    1    3    3    0    0 -0.78499173502E+01  0.38364937074E+02 -0.18711850150E+02  0.43400725053E+02  0.00000000000E+00 0.  1.
         11    1    4    4    0    0  0.60132602239E+01 -0.14310247297E+01  0.52430538501E+01  0.81053528137E+01  0.51100000000E-03 0. -1.
        -11    1    4    4    0    0 -0.23255840665E-01 -0.20571597703E+01 -0.41240038384E+00  0.20982186474E+01  0.51100000000E-03 0.  1.
         12    1    4    4    0    0  0.18599129669E+01 -0.34876752574E+02  0.13881196684E+02  0.37583703486E+02  0.00000000000E+00 0. -1.
</event>
<event>
 8    1  0.6019723E-011  0.9118800E+02  0.7816164E-02  0.1184000E+00
        -11   -1    0    0    0    0  0.00000000000E+00  0.00000000000E+00  0.45593999997E+02  0.45594000000E+02  0.51100000000E-03 0.  1.
         11   -1    0    0    0    0 -0.00000000000E+00 -0.00000000000E+00 -0.45593999997E+02  0.45594000000E+02  0.51100000000E-03 0. -1.
         23    2    1    2    0    0 -0.44408920985E-15  0.00000000000E+00  0.00000000000E+00  0.91188000000E+02  0.91188000000E+02 0.  0.
    9900012    2    3    3    0    0 -0.35062692392E+01 -0.42766783361E+02  0.65062884353E+01  0.47787268760E+02  0.19999989583E+02 0.  0.
         12    1    3    3    0    0  0.35062692392E+01  0.42766783361E+02 -0.65062884353E+01  0.43400731240E+02  0.00000000000E+00 0. -1.
         11    1    4    4    0    0 -0.11025806093E+01 -0.27275772314E+01 -0.13476274118E+01  0.32359637599E+01  0.51100000000E-03 0. -1.
        -11    1    4    4    0    0 -0.69935058588E+01 -0.28386857673E+02  0.11640242920E+02  0.31467730586E+02  0.51100000000E-03 0.  1.
        -12    1    4    4    0    0  0.45898172289E+01 -0.11652348456E+02 -0.37863270727E+01  0.13083574413E+02  0.00000000000E+00 0.  1.
</event>
<event>
 8    1  0.6019723E-011  0.9118800E+02  0.7816164E-02  0.1184000E+00
        -11   -1    0    0    0    0  0.00000000000E+00  0.00000000000E+00  0.45593999997E+02  0.45594000000E+02  0.51100000000E-03 0. -1.
         11   -1    0    0    0    0 -0.00000000000E+00 -0.00000000000E+00 -0.45593999997E+02  0.45594000000E+02  0.51100000000E-03 0.  1.
         23    2    1    2    0    0  0.35527136788E-14 -0.35527136788E-14  0.00000000000E+00  0.91188000000E+02  0.91188000000E+02 0.  0.
    9900012    2    3    3    0    0  0.22117091327E+02  0.23326078106E+02  0.29160786029E+02  0.47787273158E+02  0.20000009637E+02 0.  0.
        -12    1    3    3    0    0 -0.22117091327E+02 -0.23326078106E+02 -0.29160786029E+02  0.43400726842E+02  0.00000000000E+00 0.  1.
         11    1    4    4    0    0  0.74518874115E+01  0.75680505913E+00  0.73917660172E+01  0.10523382774E+02  0.51100000000E-03 0. -1.
        -11    1    4    4    0    0 -0.20749164734E+01  0.59464101030E+01  0.23994591782E+01  0.67396198775E+01  0.51100000000E-03 0.  1.
        -12    1    4    4    0    0  0.16740120389E+02  0.16622862944E+02  0.19369560833E+02  0.30524270507E+02  0.00000000000E+00 0.  1.
</event>
<event>
 8    1  0.6019723E-011  0.9118800E+02  0.7816164E-02  0.1184000E+00
        -11   -1    0    0    0    0  0.00000000000E+00  0.00000000000E+00  0.45593999997E+02  0.45594000000E+02  0.51100000000E-03 0. -1.
         11   -1    0    0    0    0 -0.00000000000E+00 -0.00000000000E+00 -0.45593999997E+02  0.45594000000E+02  0.51100000000E-03 0.  1.
         23    2    1    2    0    0  0.00000000000E+00  0.00000000000E+00 -0.71054273576E-14  0.91188000000E+02  0.91188000000E+02 0.  0.
    9900012    2    3    3    0    0  0.57322472196E+01 -0.15813244354E+02  0.40008805793E+02  0.47787286917E+02  0.20000072368E+02 0.  0.
        -12    1    3    3    0    0 -0.57322472196E+01  0.15813244354E+02 -0.40008805793E+02  0.43400713083E+02  0.00000000000E+00 0.  1.
         11    1    4    4    0    0  0.61202672317E+01  0.53108250433E+00  0.16460091608E+02  0.17569130190E+02  0.51100000000E-03 0. -1.
        -11    1    4    4    0    0  0.88291764272E-01  0.57185807789E+00 -0.53183147243E+00  0.78591480014E+00  0.51100000000E-03 0.  1.
         12    1    4    4    0    0 -0.47631177634E+00 -0.16916184936E+02  0.24080545657E+02  0.29432241927E+02  0.00000000000E+00 0. -1.
</event>
<event>
 8    1  0.6019723E-011  0.9118800E+02  0.7816164E-02  0.1184000E+00
        -11   -1    0    0    0    0  0.00000000000E+00  0.00000000000E+00  0.45593999997E+02  0.45594000000E+02  0.51100000000E-03 0. -1.
         11   -1    0    0    0    0 -0.00000000000E+00 -0.00000000000E+00 -0.45593999997E+02  0.45594000000E+02  0.51100000000E-03 0.  1.
         23    2    1    2    0    0  0.00000000000E+00  0.00000000000E+00  0.00000000000E+00  0.91188000000E+02  0.91188000000E+02 0.  0.
    9900012    2    3    3    0    0  0.32658870371E+02  0.17073062445E+01  0.28532554482E+02  0.47787269893E+02  0.19999994752E+02 0.  0.
        -12    1    3    3    0    0 -0.32658870371E+02 -0.17073062445E+01 -0.28532554482E+02  0.43400730107E+02  0.00000000000E+00 0.  1.
         11    1    4    4    0    0  0.16217735086E+02  0.28767971260E+01  0.46832207617E+01  0.17123768568E+02  0.51100000000E-03 0. -1.
        -11    1    4    4    0    0 -0.12502070774E+01  0.77145143547E+00  0.20407102526E+01  0.25144887452E+01  0.51100000000E-03 0.  1.
         12    1    4    4    0    0  0.17691342362E+02 -0.19409423170E+01  0.21808623468E+02  0.28149012580E+02  0.00000000000E+00 0. -1.
</event>
<event>
 8    1  0.6019723E-011  0.9118800E+02  0.7816164E-02  0.1184000E+00
        -11   -1    0    0    0    0  0.00000000000E+00  0.00000000000E+00  0.45593999997E+02  0.45594000000E+02  0.51100000000E-03 0.  1.
         11   -1    0    0    0    0 -0.00000000000E+00 -0.00000000000E+00 -0.45593999997E+02  0.45594000000E+02  0.51100000000E-03 0. -1.
         23    2    1    2    0    0  0.00000000000E+00  0.00000000000E+00  0.00000000000E+00  0.91188000000E+02  0.91188000000E+02 0.  0.
    9900012    2    3    3    0    0 -0.29047054547E+02 -0.31365199017E+02  0.74910606590E+01  0.47787273312E+02  0.20000010339E+02 0.  0.
        -12    1    3    3    0    0  0.29047054547E+02  0.31365199017E+02 -0.74910606590E+01  0.43400726688E+02  0.00000000000E+00 0.  1.
         11    1    4    4    0    0 -0.12758426675E+02 -0.87495490328E+01 -0.10482446825E+01  0.15505833634E+02  0.51100000000E-03 0. -1.
        -11    1    4    4    0    0 -0.94008482641E+01 -0.18289394543E+02  0.11577144474E+02  0.23598901992E+02  0.51100000000E-03 0.  1.
        -12    1    4    4    0    0 -0.68877796076E+01 -0.43262554420E+01 -0.30378391322E+01  0.86825376858E+01  0.00000000000E+00 0.  1.
</event>
<event>
 8    1  0.6019723E-011  0.9118800E+02  0.7816164E-02  0.1184000E+00
        -11   -1    0    0    0    0  0.00000000000E+00  0.00000000000E+00  0.45593999997E+02  0.45594000000E+02  0.51100000000E-03 0. -1.
         11   -1    0    0    0    0 -0.00000000000E+00 -0.00000000000E+00 -0.45593999997E+02  0.45594000000E+02  0.51100000000E-03 0.  1.
         23    2    1    2    0    0  0.00000000000E+00  0.00000000000E+00  0.00000000000E+00  0.91188000000E+02  0.91188000000E+02 0.  0.
    9900012    2    3    3    0    0  0.55922156828E+01  0.25555028941E+01  0.42963009129E+02  0.47787267003E+02  0.19999981573E+02 0.  0.
        -12    1    3    3    0    0 -0.55922156828E+01 -0.25555028941E+01 -0.42963009129E+02  0.43400732997E+02  0.00000000000E+00 0.  1.
         11    1    4    4    0    0  0.33379063730E+01  0.13126293669E+00  0.28321609804E+02  0.28517931746E+02  0.51100000000E-03 0. -1.
        -11    1    4    4    0    0  0.60098261743E+01  0.48572622578E+01  0.70652048137E+01  0.10470345105E+02  0.51100000000E-03 0.  1.
        -12    1    4    4    0    0 -0.37555168646E+01 -0.24330223004E+01  0.75761945107E+01  0.87989901522E+01  0.00000000000E+00 0.  1.
</event>
<event>
 8    1  0.6019723E-011  0.9118800E+02  0.7816164E-02  0.1184000E+00
        -11   -1    0    0    0    0  0.00000000000E+00  0.00000000000E+00  0.45593999997E+02  0.45594000000E+02  0.51100000000E-03 0.  1.
         11   -1    0    0    0    0 -0.00000000000E+00 -0.00000000000E+00 -0.45593999997E+02  0.45594000000E+02  0.51100000000E-03 0. -1.
         23    2    1    2    0    0  0.00000000000E+00 -0.71054273576E-14  0.22204460493E-15  0.91188000000E+02  0.91188000000E+02 0.  0.
    9900012    2    3    3    0    0  0.34691791080E+02  0.26029963226E+02  0.15951119516E+01  0.47787265720E+02  0.19999975723E+02 0.  0.
         12    1    3    3    0    0 -0.34691791080E+02 -0.26029963226E+02 -0.15951119516E+01  0.43400734280E+02  0.00000000000E+00 0. -1.
         11    1    4    4    0    0  0.12867534849E+02  0.13122684553E+01 -0.36625520268E+01  0.13442834121E+02  0.51100000000E-03 0.  1.
        -11    1    4    4    0    0  0.10462200912E-01 -0.49373477188E+00  0.43649972920E+00  0.65910223587E+00  0.51100000000E-03 0. -1.
         12    1    4    4    0    0  0.21813794030E+02  0.25211429543E+02  0.48211642492E+01  0.33685329363E+02  0.00000000000E+00 0. -1.
</event>
<event>
 8    1  0.6019723E-011  0.9118800E+02  0.7816164E-02  0.1184000E+00
        -11   -1    0    0    0    0  0.00000000000E+00  0.00000000000E+00  0.45593999997E+02  0.45594000000E+02  0.51100000000E-03 0. -1.
         11   -1    0    0    0    0 -0.00000000000E+00 -0.00000000000E+00 -0.45593999997E+02  0.45594000000E+02  0.51100000000E-03 0.  1.
         23    2    1    2    0    0 -0.35527136788E-14  0.00000000000E+00  0.00000000000E+00  0.91188000000E+02  0.91188000000E+02 0.  0.
    9900012    2    3    3    0    0  0.20803006815E+02 -0.74569749712E+01  0.37353058037E+02  0.47787279811E+02  0.20000039969E+02 0.  0.
        -12    1    3    3    0    0 -0.20803006815E+02  0.74569749712E+01 -0.37353058037E+02  0.43400720189E+02  0.00000000000E+00 0.  1.
         11    1    4    4    0    0  0.19378491280E+01 -0.77425293482E+01  0.51734742930E+01  0.95114066505E+01  0.51100000000E-03 0. -1.
        -11    1    4    4    0    0  0.26359024595E+01  0.12023881784E+01  0.91531968450E+00  0.30383432152E+01  0.51100000000E-03 0.  1.
         12    1    4    4    0    0  0.16229255228E+02 -0.91683380146E+00  0.31264264059E+02  0.35237529945E+02  0.00000000000E+00 0. -1.
</event>
<event>
 8    1  0.6019723E-011  0.9118800E+02  0.7816164E-02  0.1184000E+00
        -11   -1    0    0    0    0  0.00000000000E+00  0.00000000000E+00  0.45593999997E+02  0.45594000000E+02  0.51100000000E-03 0. -1.
         11   -1    0    0    0    0 -0.00000000000E+00 -0.00000000000E+00 -0.45593999997E+02  0.45594000000E+02  0.51100000000E-03 0.  1.
         23    2    1    2    0    0  0.00000000000E+00  0.00000000000E+00  0.00000000000E+00  0.91188000000E+02  0.91188000000E+02 0.  0.
    9900012    2    3    3    0    0 -0.20921171515E+02  0.22074906616E+02 -0.30961675851E+02  0.47787282365E+02  0.20000051617E+02 0.  0.
         12    1    3    3    0    0  0.20921171515E+02 -0.22074906616E+02  0.30961675851E+02  0.43400717635E+02  0.00000000000E+00 0. -1.
         11    1    4    4    0    0 -0.15337907328E+02  0.62394082898E+01 -0.23034914671E+02  0.28368801722E+02  0.51100000000E-03 0.  1.
        -11    1    4    4    0    0 -0.31997044022E+01  0.10983732637E+02 -0.24033454862E+01  0.11690019704E+02  0.51100000000E-03 0. -1.
         12    1    4    4    0    0 -0.23835597852E+01  0.48517656896E+01 -0.55234156943E+01  0.77284609392E+01  0.00000000000E+00 0. -1.
</event>
<event>
 8    1  0.6019723E-011  0.9118800E+02  0.7816164E-02  0.1184000E+00
        -11   -1    0    0    0    0  0.00000000000E+00  0.00000000000E+00  0.45593999997E+02  0.45594000000E+02  0.51100000000E-03 0. -1.
         11   -1    0    0    0    0 -0.00000000000E+00 -0.00000000000E+00 -0.45593999997E+02  0.45594000000E+02  0.51100000000E-03 0.  1.
         23    2    1    2    0    0  0.22204460493E-15  0.00000000000E+00  0.71054273576E-14  0.91188000000E+02  0.91188000000E+02 0.  0.
    9900012    2    3    3    0    0  0.14058351947E+01  0.21956347510E+02 -0.37410767716E+02  0.47787272936E+02  0.20000008624E+02 0.  0.
         12    1    3    3    0    0 -0.14058351947E+01 -0.21956347510E+02  0.37410767716E+02  0.43400727064E+02  0.00000000000E+00 0. -1.
         11    1    4    4    0    0 -0.26685925571E+01  0.89457234403E+00 -0.49116923240E+01  0.56609511269E+01  0.51100000000E-03 0. -1.
        -11    1    4    4    0    0  0.17776556870E+01  0.23242859594E+02 -0.26153796734E+02  0.35034435427E+02  0.51100000000E-03 0.  1.
        -12    1    4    4    0    0  0.22967720648E+01 -0.21810844279E+01 -0.63452786581E+01  0.70918863815E+01  0.00000000000E+00 0.  1.
</event>
<event>
 8    1  0.6019723E-011  0.9118800E+02  0.7816164E-02  0.1184000E+00
        -11   -1    0    0    0    0  0.00000000000E+00  0.00000000000E+00  0.45593999997E+02  0.45594000000E+02  0.51100000000E-03 0. -1.
         11   -1    0    0    0    0 -0.00000000000E+00 -0.00000000000E+00 -0.45593999997E+02  0.45594000000E+02  0.51100000000E-03 0.  1.
         23    2    1    2    0    0  0.00000000000E+00  0.00000000000E+00  0.00000000000E+00  0.91188000000E+02  0.91188000000E+02 0.  0.
    9900012    2    3    3    0    0 -0.16647426294E+02  0.15669675050E+02  0.36891025840E+02  0.47787270675E+02  0.19999998316E+02 0.  0.
        -12    1    3    3    0    0  0.16647426294E+02 -0.15669675050E+02 -0.36891025840E+02  0.43400729325E+02  0.00000000000E+00 0.  1.
         11    1    4    4    0    0 -0.49200542200E+01  0.95063700380E+01  0.21600749459E+02  0.24107475651E+02  0.51100000000E-03 0. -1.
        -11    1    4    4    0    0 -0.72539448354E+01  0.81131604623E+01  0.43866150811E+01  0.11733945649E+02  0.51100000000E-03 0.  1.
        -12    1    4    4    0    0 -0.44734272385E+01 -0.19498554507E+01  0.10903661300E+02  0.11945849375E+02  0.00000000000E+00 0.  1.
</event>
<event>
 8    1  0.6019723E-011  0.9118800E+02  0.7816164E-02  0.1184000E+00
        -11   -1    0    0    0    0  0.00000000000E+00  0.00000000000E+00  0.45593999997E+02  0.45594000000E+02  0.51100000000E-03 0. -1.
         11   -1    0    0    0    0 -0.00000000000E+00 -0.00000000000E+00 -0.45593999997E+02  0.45594000000E+02  0.51100000000E-03 0.  1.
         23    2    1    2    0    0  0.44408920985E-15  0.35527136788E-14  0.00000000000E+00  0.91188000000E+02  0.91188000000E+02 0.  0.
    9900012    2    3    3    0    0 -0.31758348130E+01  0.18633278364E+02  0.39068429324E+02  0.47787226283E+02  0.19999795914E+02 0.  0.
        -12    1    3    3    0    0  0.31758348130E+01 -0.18633278364E+02 -0.39068429324E+02  0.43400773717E+02  0.00000000000E+00 0.  1.
         11    1    4    4    0    0 -0.43692085297E+01  0.17471676689E+00  0.96529694031E+01  0.10597184894E+02  0.51100000000E-03 0. -1.
        -11    1    4    4    0    0  0.49357354506E+01  0.14231231041E+02  0.13229501371E+02  0.20047671390E+02  0.51100000000E-03 0.  1.
        -12    1    4    4    0    0 -0.37423617338E+01  0.42273305562E+01  0.16185958550E+02  0.17142369999E+02  0.00000000000E+00 0.  1.
</event>
<event>
 8    1  0.6019723E-011  0.9118800E+02  0.7816164E-02  0.1184000E+00
        -11   -1    0    0    0    0  0.00000000000E+00  0.00000000000E+00  0.45593999997E+02  0.45594000000E+02  0.51100000000E-03 0. -1.
         11   -1    0    0    0    0 -0.00000000000E+00 -0.00000000000E+00 -0.45593999997E+02  0.45594000000E+02  0.51100000000E-03 0.  1.
         23    2    1    2    0    0  0.00000000000E+00 -0.35527136788E-14  0.00000000000E+00  0.91188000000E+02  0.91188000000E+02 0.  0.
    9900012    2    3    3    0    0  0.12443362052E+02  0.26634701072E+02  0.31927728572E+02  0.47787257931E+02  0.19999940212E+02 0.  0.
        -12    1    3    3    0    0 -0.12443362052E+02 -0.26634701072E+02 -0.31927728572E+02  0.43400742069E+02  0.00000000000E+00 0.  1.
         11    1    4    4    0    0  0.10786358458E+01  0.64288760127E+01  0.15557747129E+02  0.16868236365E+02  0.51100000000E-03 0. -1.
        -11    1    4    4    0    0 -0.14263266982E+01  0.20025795193E+00  0.37746391654E+01  0.40401005170E+01  0.51100000000E-03 0.  1.
         12    1    4    4    0    0  0.12791052905E+02  0.20005567107E+02  0.12595342277E+02  0.26878921050E+02  0.00000000000E+00 0. -1.
</event>
<event>
 8    1  0.6019723E-011  0.9118800E+02  0.7816164E-02  0.1184000E+00
        -11   -1    0    0    0    0  0.00000000000E+00  0.00000000000E+00  0.45593999997E+02  0.45594000000E+02  0.51100000000E-03 0.  1.
         11   -1    0    0    0    0 -0.00000000000E+00 -0.00000000000E+00 -0.45593999997E+02  0.45594000000E+02  0.51100000000E-03 0. -1.
         23    2    1    2    0    0  0.88817841970E-15  0.00000000000E+00  0.00000000000E+00  0.91188000000E+02  0.91188000000E+02 0.  0.
    9900012    2    3    3    0    0 -0.45955453677E+01  0.43012795304E+02 -0.35218458742E+01  0.47787274252E+02  0.20000014624E+02 0.  0.
         12    1    3    3    0    0  0.45955453677E+01 -0.43012795304E+02  0.35218458742E+01  0.43400725748E+02  0.00000000000E+00 0. -1.
         11    1    4    4    0    0  0.48987677380E+01  0.12135495289E+02  0.53920636231E-01  0.13087057689E+02  0.51100000000E-03 0. -1.
        -11    1    4    4    0    0 -0.87591326176E+01  0.88149516817E+01 -0.81260976743E+00  0.12453357469E+02  0.51100000000E-03 0.  1.
         12    1    4    4    0    0 -0.73518048811E+00  0.22062348334E+02 -0.27631567430E+01  0.22246859094E+02  0.00000000000E+00 0. -1.
</event>
<event>
 8    1  0.6019723E-011  0.9118800E+02  0.7816164E-02  0.1184000E+00
        -11   -1    0    0    0    0  0.00000000000E+00  0.00000000000E+00  0.45593999997E+02  0.45594000000E+02  0.51100000000E-03 0. -1.
         11   -1    0    0    0    0 -0.00000000000E+00 -0.00000000000E+00 -0.45593999997E+02  0.45594000000E+02  0.51100000000E-03 0.  1.
         23    2    1    2    0    0 -0.61062266354E-15 -0.71054273576E-14  0.00000000000E+00  0.91188000000E+02  0.91188000000E+02 0.  0.
    9900012    2    3    3    0    0  0.33899268070E+00  0.26673817749E+02  0.34234722259E+02  0.47787266395E+02  0.19999978800E+02 0.  0.
        -12    1    3    3    0    0 -0.33899268070E+00 -0.26673817749E+02 -0.34234722259E+02  0.43400733605E+02  0.00000000000E+00 0.  1.
         11    1    4    4    0    0  0.73120070061E+01  0.34093504089E+01  0.70439160465E+01  0.10710082642E+02  0.51100000000E-03 0. -1.
        -11    1    4    4    0    0 -0.54053355306E+01  0.17022338789E+02  0.23936413353E+02  0.29865189678E+02  0.51100000000E-03 0.  1.
         12    1    4    4    0    0 -0.15676787949E+01  0.62421285505E+01  0.32543928595E+01  0.72119940744E+01  0.00000000000E+00 0. -1.
</event>
<event>
 8    1  0.6019723E-011  0.9118800E+02  0.7816164E-02  0.1184000E+00
        -11   -1    0    0    0    0  0.00000000000E+00  0.00000000000E+00  0.45593999997E+02  0.45594000000E+02  0.51100000000E-03 0. -1.
         11   -1    0    0    0    0 -0.00000000000E+00 -0.00000000000E+00 -0.45593999997E+02  0.45594000000E+02  0.51100000000E-03 0.  1.
         23    2    1    2    0    0 -0.71054273576E-14  0.00000000000E+00  0.00000000000E+00  0.91188000000E+02  0.91188000000E+02 0.  0.
    9900012    2    3    3    0    0 -0.35374023537E+02  0.25114712172E+02  0.12458982634E+01  0.47787279140E+02  0.20000036911E+02 0.  0.
        -12    1    3    3    0    0  0.35374023537E+02 -0.25114712172E+02 -0.12458982634E+01  0.43400720860E+02  0.00000000000E+00 0.  1.
         11    1    4    4    0    0 -0.23128956766E+02  0.91962652423E+01  0.37717115376E+01  0.25174307213E+02  0.51100000000E-03 0. -1.
        -11    1    4    4    0    0 -0.88445296782E+01  0.15478242278E+02 -0.48446964368E+01  0.18473569581E+02  0.51100000000E-03 0.  1.
        -12    1    4    4    0    0 -0.34005370934E+01  0.44020465155E+00  0.23188831626E+01  0.41394023458E+01  0.00000000000E+00 0.  1.
</event>
<event>
 8    1  0.6019723E-011  0.9118800E+02  0.7816164E-02  0.1184000E+00
        -11   -1    0    0    0    0  0.00000000000E+00  0.00000000000E+00  0.45593999997E+02  0.45594000000E+02  0.51100000000E-03 0. -1.
         11   -1    0    0    0    0 -0.00000000000E+00 -0.00000000000E+00 -0.45593999997E+02  0.45594000000E+02  0.51100000000E-03 0.  1.
         23    2    1    2    0    0  0.00000000000E+00  0.00000000000E+00  0.00000000000E+00  0.91188000000E+02  0.91188000000E+02 0.  0.
    9900012    2    3    3    0    0  0.39454098840E+02  0.45455363174E+01  0.17502439161E+02  0.47787271985E+02  0.20000004288E+02 0.  0.
        -12    1    3    3    0    0 -0.39454098840E+02 -0.45455363174E+01 -0.17502439161E+02  0.43400728015E+02  0.00000000000E+00 0.  1.
         11    1    4    4    0    0  0.35463284758E+01 -0.58494702389E+01  0.40197470917E+01  0.79341738497E+01  0.51100000000E-03 0. -1.
        -11    1    4    4    0    0  0.17605672243E+02  0.55008259151E+01  0.51064691307E+01  0.19138829852E+02  0.51100000000E-03 0.  1.
         12    1    4    4    0    0  0.18302098121E+02  0.48941806412E+01  0.83762229384E+01  0.20714268283E+02  0.00000000000E+00 0. -1.
</event>
<event>
 8    1  0.6019723E-011  0.9118800E+02  0.7816164E-02  0.1184000E+00
        -11   -1    0    0    0    0  0.00000000000E+00  0.00000000000E+00  0.45593999997E+02  0.45594000000E+02  0.51100000000E-03 0.  1.
         11   -1    0    0    0    0 -0.00000000000E+00 -0.00000000000E+00 -0.45593999997E+02  0.45594000000E+02  0.51100000000E-03 0. -1.
         23    2    1    2    0    0  0.00000000000E+00  0.71054273576E-14  0.35527136788E-14  0.91188000000E+02  0.91188000000E+02 0.  0.
    9900012    2    3    3    0    0  0.86024301613E+01 -0.34460830477E+02 -0.24941384292E+02  0.47787270833E+02  0.19999999037E+02 0.  0.
         12    1    3    3    0    0 -0.86024301613E+01  0.34460830477E+02  0.24941384292E+02  0.43400729167E+02  0.00000000000E+00 0. -1.
         11    1    4    4    0    0  0.13288489887E+00  0.12983418135E+01  0.14153226856E+01  0.19252242536E+01  0.51100000000E-03 0. -1.
        -11    1    4    4    0    0  0.26186835892E+01 -0.14602857303E+02 -0.62638509594E+01  0.16103936607E+02  0.51100000000E-03 0.  1.
         12    1    4    4    0    0  0.58508616732E+01 -0.21156314987E+02 -0.20092856018E+02  0.29758109972E+02  0.00000000000E+00 0. -1.
</event>
<event>
 8    1  0.6019723E-011  0.9118800E+02  0.7816164E-02  0.1184000E+00
        -11   -1    0    0    0    0  0.00000000000E+00  0.00000000000E+00  0.45593999997E+02  0.45594000000E+02  0.51100000000E-03 0. -1.
         11   -1    0    0    0    0 -0.00000000000E+00 -0.00000000000E+00 -0.45593999997E+02  0.45594000000E+02  0.51100000000E-03 0.  1.
         23    2    1    2    0    0  0.00000000000E+00 -0.22204460493E-15 -0.71054273576E-14  0.91188000000E+02  0.91188000000E+02 0.  0.
    9900012    2    3    3    0    0 -0.64197244586E+01  0.15164044224E+01  0.42896521358E+02  0.47787263956E+02  0.19999967683E+02 0.  0.
        -12    1    3    3    0    0  0.64197244586E+01 -0.15164044224E+01 -0.42896521358E+02  0.43400736044E+02  0.00000000000E+00 0.  1.
         11    1    4    4    0    0  0.47632614378E+01 -0.34824497940E+01  0.89062835115E+01  0.10683538849E+02  0.51100000000E-03 0. -1.
        -11    1    4    4    0    0 -0.59156176649E+00  0.98219298316E+00 -0.12849901960E+00  0.11537593505E+01  0.51100000000E-03 0.  1.
         12    1    4    4    0    0 -0.10591424130E+02  0.40166612332E+01  0.34118736866E+02  0.35949965757E+02  0.00000000000E+00 0. -1.
</event>
<event>
 8    1  0.6019723E-011  0.9118800E+02  0.7816164E-02  0.1184000E+00
        -11   -1    0    0    0    0  0.00000000000E+00  0.00000000000E+00  0.45593999997E+02  0.45594000000E+02  0.51100000000E-03 0. -1.
         11   -1    0    0    0    0 -0.00000000000E+00 -0.00000000000E+00 -0.45593999997E+02  0.45594000000E+02  0.51100000000E-03 0.  1.
         23    2    1    2    0    0  0.71054273576E-14 -0.55511151231E-16  0.26645352591E-14  0.91188000000E+02  0.91188000000E+02 0.  0.
    9900012    2    3    3    0    0 -0.42663695533E+02  0.29728101610E+00 -0.79588793251E+01  0.47787273593E+02  0.20000011621E+02 0.  0.
         12    1    3    3    0    0  0.42663695533E+02 -0.29728101610E+00  0.79588793251E+01  0.43400726407E+02  0.00000000000E+00 0. -1.
         11    1    4    4    0    0 -0.24251134383E+01 -0.40421816645E+01  0.16603729071E+01  0.49977241069E+01  0.51100000000E-03 0. -1.
        -11    1    4    4    0    0 -0.26023855010E+02 -0.55586228050E+00 -0.24835348699E+01  0.26148001035E+02  0.51100000000E-03 0.  1.
         12    1    4    4    0    0 -0.14214727085E+02  0.48953249611E+01 -0.71357173623E+01  0.16641548451E+02  0.00000000000E+00 0. -1.
</event>
<event>
 8    1  0.6019723E-011  0.9118800E+02  0.7816164E-02  0.1184000E+00
        -11   -1    0    0    0    0  0.00000000000E+00  0.00000000000E+00  0.45593999997E+02  0.45594000000E+02  0.51100000000E-03 0. -1.
         11   -1    0    0    0    0 -0.00000000000E+00 -0.00000000000E+00 -0.45593999997E+02  0.45594000000E+02  0.51100000000E-03 0.  1.
         23    2    1    2    0    0  0.00000000000E+00  0.00000000000E+00 -0.71054273576E-14  0.91188000000E+02  0.91188000000E+02 0.  0.
    9900012    2    3    3    0    0 -0.11171202745E+02 -0.14231011009E+02  0.39450042860E+02  0.47787270435E+02  0.19999997222E+02 0.  0.
        -12    1    3    3    0    0  0.11171202745E+02  0.14231011009E+02 -0.39450042860E+02  0.43400729565E+02  0.00000000000E+00 0.  1.
         11    1    4    4    0    0  0.23839758248E+01 -0.48050787253E+01  0.73958459816E+01  0.91362279051E+01  0.51100000000E-03 0. -1.
        -11    1    4    4    0    0 -0.13276745085E+02 -0.75297491019E+01  0.14698912337E+02  0.21190259690E+02  0.51100000000E-03 0.  1.
        -12    1    4    4    0    0 -0.27843348493E+00 -0.18961831820E+01  0.17355284542E+02  0.17460782840E+02  0.00000000000E+00 0.  1.
</event>
<event>
 8    1  0.6019723E-011  0.9118800E+02  0.7816164E-02  0.1184000E+00
        -11   -1    0    0    0    0  0.00000000000E+00  0.00000000000E+00  0.45593999997E+02  0.45594000000E+02  0.51100000000E-03 0. -1.
         11   -1    0    0    0    0 -0.00000000000E+00 -0.00000000000E+00 -0.45593999997E+02  0.45594000000E+02  0.51100000000E-03 0.  1.
         23    2    1    2    0    0  0.00000000000E+00  0.00000000000E+00  0.00000000000E+00  0.91188000000E+02  0.91188000000E+02 0.  0.
    9900012    2    3    3    0    0  0.33522073089E+02  0.36409245627E+01  0.27324675897E+02  0.47787266956E+02  0.19999981360E+02 0.  0.
        -12    1    3    3    0    0 -0.33522073089E+02 -0.36409245627E+01 -0.27324675897E+02  0.43400733044E+02  0.00000000000E+00 0.  1.
         11    1    4    4    0    0  0.17503724825E+02 -0.14987253840E+01  0.75782179657E+01  0.19132588646E+02  0.51100000000E-03 0. -1.
        -11    1    4    4    0    0  0.10862399095E+02  0.22279243564E+01  0.19844732857E+02  0.22732548988E+02  0.51100000000E-03 0.  1.
        -12    1    4    4    0    0  0.51559491692E+01  0.29117255903E+01 -0.98274925873E-01  0.59221293223E+01  0.00000000000E+00 0.  1.
</event>
<event>
 8    1  0.6019723E-011  0.9118800E+02  0.7816164E-02  0.1184000E+00
        -11   -1    0    0    0    0  0.00000000000E+00  0.00000000000E+00  0.45593999997E+02  0.45594000000E+02  0.51100000000E-03 0. -1.
         11   -1    0    0    0    0 -0.00000000000E+00 -0.00000000000E+00 -0.45593999997E+02  0.45594000000E+02  0.51100000000E-03 0.  1.
         23    2    1    2    0    0  0.00000000000E+00  0.17763568394E-14  0.35527136788E-14  0.91188000000E+02  0.91188000000E+02 0.  0.
    9900012    2    3    3    0    0  0.34719294083E+02  0.14899137351E+02  0.21359064530E+02  0.47787270593E+02  0.19999997944E+02 0.  0.
        -12    1    3    3    0    0 -0.34719294083E+02 -0.14899137351E+02 -0.21359064530E+02  0.43400729407E+02  0.00000000000E+00 0.  1.
         11    1    4    4    0    0  0.21252763357E+02  0.12802631263E+02  0.20915167173E+02  0.32450447388E+02  0.51100000000E-03 0. -1.
        -11    1    4    4    0    0  0.12935552533E+02  0.28275437609E+01  0.21421849929E+01  0.13413145786E+02  0.51100000000E-03 0.  1.
         12    1    4    4    0    0  0.53097819277E+00 -0.73103767272E+00 -0.16982876360E+01  0.19236774196E+01  0.00000000000E+00 0. -1.
</event>
<event>
 8    1  0.6019723E-011  0.9118800E+02  0.7816164E-02  0.1184000E+00
        -11   -1    0    0    0    0  0.00000000000E+00  0.00000000000E+00  0.45593999997E+02  0.45594000000E+02  0.51100000000E-03 0. -1.
         11   -1    0    0    0    0 -0.00000000000E+00 -0.00000000000E+00 -0.45593999997E+02  0.45594000000E+02  0.51100000000E-03 0.  1.
         23    2    1    2    0    0 -0.35527136788E-14  0.00000000000E+00  0.00000000000E+00  0.91188000000E+02  0.91188000000E+02 0.  0.
    9900012    2    3    3    0    0 -0.16415881099E+02  0.27757363631E+01 -0.40080384844E+02  0.47787272887E+02  0.20000008403E+02 0.  0.
         12    1    3    3    0    0  0.16415881099E+02 -0.27757363631E+01  0.40080384844E+02  0.43400727113E+02  0.00000000000E+00 0. -1.
         11    1    4    4    0    0 -0.10955501922E+01 -0.74788205069E+00 -0.72688427162E+00  0.15125867879E+01  0.51100000000E-03 0. -1.
        -11    1    4    4    0    0  0.15936096289E+01  0.15984514202E+00  0.13333682089E+01  0.20839897217E+01  0.51100000000E-03 0.  1.
        -12    1    4    4    0    0 -0.16913940536E+02  0.33637732718E+01 -0.40686868782E+02  0.44190696378E+02  0.00000000000E+00 0.  1.
</event>
<event>
 8    1  0.6019723E-011  0.9118800E+02  0.7816164E-02  0.1184000E+00
        -11   -1    0    0    0    0  0.00000000000E+00  0.00000000000E+00  0.45593999997E+02  0.45594000000E+02  0.51100000000E-03 0. -1.
         11   -1    0    0    0    0 -0.00000000000E+00 -0.00000000000E+00 -0.45593999997E+02  0.45594000000E+02  0.51100000000E-03 0.  1.
         23    2    1    2    0    0 -0.35527136788E-14 -0.17763568394E-14  0.00000000000E+00  0.91188000000E+02  0.91188000000E+02 0.  0.
    9900012    2    3    3    0    0  0.26814998971E+02 -0.97965657733E+01  0.32689534244E+02  0.47787279731E+02  0.20000039605E+02 0.  0.
        -12    1    3    3    0    0 -0.26814998971E+02  0.97965657733E+01 -0.32689534244E+02  0.43400720269E+02  0.00000000000E+00 0.  1.
         11    1    4    4    0    0  0.20847521585E+02 -0.60495556550E+01  0.17204030924E+02  0.27698284426E+02  0.51100000000E-03 0. -1.
        -11    1    4    4    0    0  0.77150057794E+00  0.33356268342E+01  0.73846449457E+01  0.81396929152E+01  0.51100000000E-03 0.  1.
        -12    1    4    4    0    0  0.51959768083E+01 -0.70826369526E+01  0.81008583742E+01  0.11949302389E+02  0.00000000000E+00 0.  1.
</event>
<event>
 8    1  0.6019723E-011  0.9118800E+02  0.7816164E-02  0.1184000E+00
        -11   -1    0    0    0    0  0.00000000000E+00  0.00000000000E+00  0.45593999997E+02  0.45594000000E+02  0.51100000000E-03 0. -1.
         11   -1    0    0    0    0 -0.00000000000E+00 -0.00000000000E+00 -0.45593999997E+02  0.45594000000E+02  0.51100000000E-03 0.  1.
         23    2    1    2    0    0 -0.17763568394E-14  0.00000000000E+00 -0.35527136788E-14  0.91188000000E+02  0.91188000000E+02 0.  0.
    9900012    2    3    3    0    0 -0.13714940431E+02  0.32477277477E+02  0.25313036254E+02  0.47787274802E+02  0.20000017131E+02 0.  0.
        -12    1    3    3    0    0  0.13714940431E+02 -0.32477277477E+02 -0.25313036254E+02  0.43400725198E+02  0.00000000000E+00 0.  1.
         11    1    4    4    0    0 -0.59293187863E+01  0.35326567863E+01  0.16581578469E+01  0.70983077523E+01  0.51100000000E-03 0. -1.
        -11    1    4    4    0    0 -0.63966034944E+01  0.23958353518E+02  0.25131877885E+02  0.35306239192E+02  0.51100000000E-03 0.  1.
        -12    1    4    4    0    0 -0.13890181503E+01  0.49862671720E+01 -0.14769994777E+01  0.53827278577E+01  0.00000000000E+00 0.  1.
</event>
<event>
 8    1  0.6019723E-011  0.9118800E+02  0.7816164E-02  0.1184000E+00
        -11   -1    0    0    0    0  0.00000000000E+00  0.00000000000E+00  0.45593999997E+02  0.45594000000E+02  0.51100000000E-03 0.  1.
         11   -1    0    0    0    0 -0.00000000000E+00 -0.00000000000E+00 -0.45593999997E+02  0.45594000000E+02  0.51100000000E-03 0. -1.
         23    2    1    2    0    0 -0.35527136788E-14  0.00000000000E+00  0.00000000000E+00  0.91188000000E+02  0.91188000000E+02 0.  0.
    9900012    2    3    3    0    0  0.30334326230E+02 -0.22919843500E+02  0.20931626794E+02  0.47787267585E+02  0.19999984226E+02 0.  0.
         12    1    3    3    0    0 -0.30334326230E+02  0.22919843500E+02 -0.20931626794E+02  0.43400732415E+02  0.00000000000E+00 0. -1.
         11    1    4    4    0    0  0.25755685046E+02 -0.18112044717E+02  0.11803071475E+02  0.33626090652E+02  0.51100000000E-03 0. -1.
        -11    1    4    4    0    0  0.18210709173E+01 -0.70352597681E+01  0.57895199196E+01  0.92913788240E+01  0.51100000000E-03 0.  1.
         12    1    4    4    0    0  0.27575702671E+01  0.22274609854E+01  0.33390354001E+01  0.48697981090E+01  0.00000000000E+00 0. -1.
</event>
<event>
 8    1  0.6019723E-011  0.9118800E+02  0.7816164E-02  0.1184000E+00
        -11   -1    0    0    0    0  0.00000000000E+00  0.00000000000E+00  0.45593999997E+02  0.45594000000E+02  0.51100000000E-03 0.  1.
         11   -1    0    0    0    0 -0.00000000000E+00 -0.00000000000E+00 -0.45593999997E+02  0.45594000000E+02  0.51100000000E-03 0. -1.
         23    2    1    2    0    0  0.13322676296E-14  0.00000000000E+00  0.35527136788E-14  0.91188000000E+02  0.91188000000E+02 0.  0.
    9900012    2    3    3    0    0  0.26341827703E+01 -0.31727528232E+02  0.29496579747E+02  0.47787272088E+02  0.20000004756E+02 0.  0.
        -12    1    3    3    0    0 -0.26341827703E+01  0.31727528232E+02 -0.29496579747E+02  0.43400727912E+02  0.00000000000E+00 0.  1.
         11    1    4    4    0    0  0.58877079251E+01 -0.21001219254E+02  0.22458077203E+02  0.31306254114E+02  0.51100000000E-03 0. -1.
        -11    1    4    4    0    0 -0.47729160128E+00  0.17471101276E+01 -0.15329312003E+00  0.18176083495E+01  0.51100000000E-03 0.  1.
        -12    1    4    4    0    0 -0.27762335536E+01 -0.12473419105E+02  0.71917956646E+01  0.14663409624E+02  0.00000000000E+00 0.  1.
</event>
<event>
 8    1  0.6019723E-011  0.9118800E+02  0.7816164E-02  0.1184000E+00
        -11   -1    0    0    0    0  0.00000000000E+00  0.00000000000E+00  0.45593999997E+02  0.45594000000E+02  0.51100000000E-03 0. -1.
         11   -1    0    0    0    0 -0.00000000000E+00 -0.00000000000E+00 -0.45593999997E+02  0.45594000000E+02  0.51100000000E-03 0.  1.
         23    2    1    2    0    0  0.00000000000E+00  0.00000000000E+00 -0.35527136788E-14  0.91188000000E+02  0.91188000000E+02 0.  0.
    9900012    2    3    3    0    0  0.17052339931E+02 -0.30010170928E+02  0.26310268776E+02  0.47787275359E+02  0.20000019672E+02 0.  0.
        -12    1    3    3    0    0 -0.17052339931E+02  0.30010170928E+02 -0.26310268776E+02  0.43400724641E+02  0.00000000000E+00 0.  1.
         11    1    4    4    0    0  0.51364724278E+01 -0.90385841654E+01  0.25878221270E+01  0.10713364380E+02  0.51100000000E-03 0. -1.
        -11    1    4    4    0    0  0.10846608307E+02 -0.22992998855E+02  0.23744665952E+02  0.34787010069E+02  0.51100000000E-03 0.  1.
        -12    1    4    4    0    0  0.10692591961E+01  0.20214120920E+01 -0.22219303090E-01  0.22869009099E+01  0.00000000000E+00 0.  1.
</event>
<event>
 8    1  0.6019723E-011  0.9118800E+02  0.7816164E-02  0.1184000E+00
        -11   -1    0    0    0    0  0.00000000000E+00  0.00000000000E+00  0.45593999997E+02  0.45594000000E+02  0.51100000000E-03 0.  1.
         11   -1    0    0    0    0 -0.00000000000E+00 -0.00000000000E+00 -0.45593999997E+02  0.45594000000E+02  0.51100000000E-03 0. -1.
         23    2    1    2    0    0  0.35527136788E-14  0.00000000000E+00  0.00000000000E+00  0.91188000000E+02  0.91188000000E+02 0.  0.
    9900012    2    3    3    0    0  0.25666334859E+02 -0.34561365457E+02 -0.55113417753E+01  0.47787267108E+02  0.19999982053E+02 0.  0.
        -12    1    3    3    0    0 -0.25666334859E+02  0.34561365457E+02  0.55113417753E+01  0.43400732892E+02  0.00000000000E+00 0.  1.
         11    1    4    4    0    0  0.17416564267E+02 -0.14059320884E+02 -0.71358728262E+01  0.23493018023E+02  0.51100000000E-03 0. -1.
        -11    1    4    4    0    0 -0.12454964152E+01 -0.40925126391E+01  0.30928033302E+01  0.52787644124E+01  0.51100000000E-03 0.  1.
         12    1    4    4    0    0  0.94952670070E+01 -0.16409531935E+02 -0.14682722793E+01  0.19015484673E+02  0.00000000000E+00 0. -1.
</event>
<event>
 8    1  0.6019723E-011  0.9118800E+02  0.7816164E-02  0.1184000E+00
        -11   -1    0    0    0    0  0.00000000000E+00  0.00000000000E+00  0.45593999997E+02  0.45594000000E+02  0.51100000000E-03 0. -1.
         11   -1    0    0    0    0 -0.00000000000E+00 -0.00000000000E+00 -0.45593999997E+02  0.45594000000E+02  0.51100000000E-03 0.  1.
         23    2    1    2    0    0  0.00000000000E+00  0.17763568394E-14  0.00000000000E+00  0.91188000000E+02  0.91188000000E+02 0.  0.
    9900012    2    3    3    0    0 -0.38185587653E+02  0.15883536457E+02  0.13160490453E+02  0.47787258719E+02  0.19999943802E+02 0.  0.
        -12    1    3    3    0    0  0.38185587653E+02 -0.15883536457E+02 -0.13160490453E+02  0.43400741281E+02  0.00000000000E+00 0.  1.
         11    1    4    4    0    0 -0.31710929439E+02  0.12548910505E+02  0.11723776830E+02  0.36062517164E+02  0.51100000000E-03 0. -1.
        -11    1    4    4    0    0 -0.59437028497E+00 -0.17528205011E+01 -0.24188460885E+01  0.30457301925E+01  0.51100000000E-03 0.  1.
        -12    1    4    4    0    0 -0.58802879288E+01  0.50874464530E+01  0.38555597119E+01  0.86790113625E+01  0.00000000000E+00 0.  1.
</event>
<event>
 8    1  0.6019723E-011  0.9118800E+02  0.7816164E-02  0.1184000E+00
        -11   -1    0    0    0    0  0.00000000000E+00  0.00000000000E+00  0.45593999997E+02  0.45594000000E+02  0.51100000000E-03 0. -1.
         11   -1    0    0    0    0 -0.00000000000E+00 -0.00000000000E+00 -0.45593999997E+02  0.45594000000E+02  0.51100000000E-03 0.  1.
         23    2    1    2    0    0  0.17763568394E-14  0.00000000000E+00  0.00000000000E+00  0.91188000000E+02  0.91188000000E+02 0.  0.
    9900012    2    3    3    0    0 -0.14563597306E+02 -0.16057343566E+02  0.37599021659E+02  0.47787273294E+02  0.20000010255E+02 0.  0.
        -12    1    3    3    0    0  0.14563597306E+02  0.16057343566E+02 -0.37599021659E+02  0.43400726706E+02  0.00000000000E+00 0.  1.
         11    1    4    4    0    0 -0.13667802403E+02 -0.12338864377E+02  0.31543441440E+02  0.36524582062E+02  0.51100000000E-03 0. -1.
        -11    1    4    4    0    0 -0.27434776156E+01  0.15384317161E+01  0.15838172525E+00  0.31493692392E+01  0.51100000000E-03 0.  1.
         12    1    4    4    0    0  0.18476827132E+01 -0.52569109054E+01  0.58971984945E+01  0.81133219929E+01  0.00000000000E+00 0. -1.
</event>
<event>
 8    1  0.6019723E-011  0.9118800E+02  0.7816164E-02  0.1184000E+00
        -11   -1    0    0    0    0  0.00000000000E+00  0.00000000000E+00  0.45593999997E+02  0.45594000000E+02  0.51100000000E-03 0.  1.
         11   -1    0    0    0    0 -0.00000000000E+00 -0.00000000000E+00 -0.45593999997E+02  0.45594000000E+02  0.51100000000E-03 0. -1.
         23    2    1    2    0    0  0.00000000000E+00  0.00000000000E+00  0.00000000000E+00  0.91188000000E+02  0.91188000000E+02 0.  0.
    9900012    2    3    3    0    0 -0.16444496611E+02  0.31603292220E+02  0.24787773792E+02  0.47787271003E+02  0.19999999809E+02 0.  0.
        -12    1    3    3    0    0  0.16444496611E+02 -0.31603292220E+02 -0.24787773792E+02  0.43400728997E+02  0.00000000000E+00 0.  1.
         11    1    4    4    0    0 -0.22107093958E+01 -0.19926503245E+01  0.40639354898E+01  0.50372078848E+01  0.51100000000E-03 0.  1.
        -11    1    4    4    0    0 -0.15254816094E+02  0.30040928871E+02  0.18699866636E+02  0.38533775236E+02  0.51100000000E-03 0. -1.
        -12    1    4    4    0    0  0.10210288793E+01  0.35550136742E+01  0.20239716658E+01  0.42162878816E+01  0.00000000000E+00 0.  1.
</event>
<event>
 8    1  0.6019723E-011  0.9118800E+02  0.7816164E-02  0.1184000E+00
        -11   -1    0    0    0    0  0.00000000000E+00  0.00000000000E+00  0.45593999997E+02  0.45594000000E+02  0.51100000000E-03 0. -1.
         11   -1    0    0    0    0 -0.00000000000E+00 -0.00000000000E+00 -0.45593999997E+02  0.45594000000E+02  0.51100000000E-03 0.  1.
         23    2    1    2    0    0 -0.71054273576E-14  0.00000000000E+00 -0.11102230246E-14  0.91188000000E+02  0.91188000000E+02 0.  0.
    9900012    2    3    3    0    0 -0.43162271971E+02 -0.43004953397E+01  0.14653487932E+01  0.47787271562E+02  0.20000002362E+02 0.  0.
         12    1    3    3    0    0  0.43162271971E+02  0.43004953397E+01 -0.14653487932E+01  0.43400728438E+02  0.00000000000E+00 0. -1.
         11    1    4    4    0    0 -0.51714201734E+01  0.29910505760E+01  0.58279692364E+01  0.83459688377E+01  0.51100000000E-03 0. -1.
        -11    1    4    4    0    0 -0.27963508714E+02 -0.31046071033E+01 -0.49127449268E+01  0.28561013075E+02  0.51100000000E-03 0.  1.
         12    1    4    4    0    0 -0.10027343083E+02 -0.41869388124E+01  0.55012448351E+00  0.10880289650E+02  0.00000000000E+00 0. -1.
</event>
<event>
 8    1  0.6019723E-011  0.9118800E+02  0.7816164E-02  0.1184000E+00
        -11   -1    0    0    0    0  0.00000000000E+00  0.00000000000E+00  0.45593999997E+02  0.45594000000E+02  0.51100000000E-03 0. -1.
         11   -1    0    0    0    0 -0.00000000000E+00 -0.00000000000E+00 -0.45593999997E+02  0.45594000000E+02  0.51100000000E-03 0.  1.
         23    2    1    2    0    0  0.00000000000E+00 -0.17763568394E-14  0.00000000000E+00  0.91188000000E+02  0.91188000000E+02 0.  0.
    9900012    2    3    3    0    0 -0.17381423952E+02  0.10345850197E+02 -0.38398862790E+02  0.47787272144E+02  0.20000005014E+02 0.  0.
         12    1    3    3    0    0  0.17381423952E+02 -0.10345850197E+02  0.38398862790E+02  0.43400727856E+02  0.00000000000E+00 0. -1.
         11    1    4    4    0    0 -0.24328437302E+01 -0.40470549353E+01 -0.48457336254E+01  0.67659823303E+01  0.51100000000E-03 0. -1.
        -11    1    4    4    0    0 -0.91282694257E+01  0.13650468372E+02 -0.29891084890E+02  0.34104802384E+02  0.51100000000E-03 0.  1.
        -12    1    4    4    0    0 -0.58203107956E+01  0.74243676016E+00 -0.36620442746E+01  0.69164874300E+01  0.00000000000E+00 0.  1.
</event>
<event>
 8    1  0.6019723E-011  0.9118800E+02  0.7816164E-02  0.1184000E+00
        -11   -1    0    0    0    0  0.00000000000E+00  0.00000000000E+00  0.45593999997E+02  0.45594000000E+02  0.51100000000E-03 0. -1.
         11   -1    0    0    0    0 -0.00000000000E+00 -0.00000000000E+00 -0.45593999997E+02  0.45594000000E+02  0.51100000000E-03 0.  1.
         23    2    1    2    0    0  0.00000000000E+00  0.00000000000E+00 -0.17763568394E-14  0.91188000000E+02  0.91188000000E+02 0.  0.
    9900012    2    3    3    0    0 -0.27575394522E+02 -0.31365824570E+02  0.11807033703E+02  0.47787269835E+02  0.19999994487E+02 0.  0.
        -12    1    3    3    0    0  0.27575394522E+02  0.31365824570E+02 -0.11807033703E+02  0.43400730165E+02  0.00000000000E+00 0.  1.
         11    1    4    4    0    0 -0.78226766043E+01 -0.90695864354E+01  0.94674231274E+01  0.15267081198E+02  0.51100000000E-03 0. -1.
        -11    1    4    4    0    0 -0.19780633170E+02 -0.23344629745E+02  0.73956185417E+00  0.30607060273E+02  0.51100000000E-03 0.  1.
        -12    1    4    4    0    0  0.27915252827E-01  0.10483916106E+01  0.16000487210E+01  0.19131283648E+01  0.00000000000E+00 0.  1.
</event>
<event>
 8    1  0.6019723E-011  0.9118800E+02  0.7816164E-02  0.1184000E+00
        -11   -1    0    0    0    0  0.00000000000E+00  0.00000000000E+00  0.45593999997E+02  0.45594000000E+02  0.51100000000E-03 0. -1.
         11   -1    0    0    0    0 -0.00000000000E+00 -0.00000000000E+00 -0.45593999997E+02  0.45594000000E+02  0.51100000000E-03 0.  1.
         23    2    1    2    0    0 -0.71054273576E-14 -0.17763568394E-14  0.00000000000E+00  0.91188000000E+02  0.91188000000E+02 0.  0.
    9900012    2    3    3    0    0 -0.38189566247E+02  0.89610358841E+01  0.18570953333E+02  0.47787269108E+02  0.19999991170E+02 0.  0.
        -12    1    3    3    0    0  0.38189566247E+02 -0.89610358841E+01 -0.18570953333E+02  0.43400730892E+02  0.00000000000E+00 0.  1.
         11    1    4    4    0    0 -0.34407347190E+02  0.13222959157E+02  0.17937313550E+02  0.40993406875E+02  0.51100000000E-03 0.  1.
        -11    1    4    4    0    0 -0.34339601864E+01 -0.33878335157E+01  0.19269635668E+01  0.51944862442E+01  0.51100000000E-03 0. -1.
        -12    1    4    4    0    0 -0.34825887071E+00 -0.87408975755E+00 -0.12933237836E+01  0.15993759891E+01  0.00000000000E+00 0.  1.
</event>
<event>
 8    1  0.6019723E-011  0.9118800E+02  0.7816164E-02  0.1184000E+00
        -11   -1    0    0    0    0  0.00000000000E+00  0.00000000000E+00  0.45593999997E+02  0.45594000000E+02  0.51100000000E-03 0. -1.
         11   -1    0    0    0    0 -0.00000000000E+00 -0.00000000000E+00 -0.45593999997E+02  0.45594000000E+02  0.51100000000E-03 0.  1.
         23    2    1    2    0    0  0.00000000000E+00  0.00000000000E+00 -0.17763568394E-14  0.91188000000E+02  0.91188000000E+02 0.  0.
    9900012    2    3    3    0    0  0.36325084768E+02 -0.20441276032E+02  0.12093987408E+02  0.47787284791E+02  0.20000062674E+02 0.  0.
        -12    1    3    3    0    0 -0.36325084768E+02  0.20441276032E+02 -0.12093987408E+02  0.43400715209E+02  0.00000000000E+00 0.  1.
         11    1    4    4    0    0  0.55185770779E+01 -0.99871787008E+01 -0.13881701315E+01  0.11494583417E+02  0.51100000000E-03 0. -1.
        -11    1    4    4    0    0  0.13143592755E+02 -0.36813756986E+00  0.33488511190E+01  0.13568506177E+02  0.51100000000E-03 0.  1.
         12    1    4    4    0    0  0.17662914935E+02 -0.10085959762E+02  0.10133306420E+02  0.22724195197E+02  0.00000000000E+00 0. -1.
</event>
<event>
 8    1  0.6019723E-011  0.9118800E+02  0.7816164E-02  0.1184000E+00
        -11   -1    0    0    0    0  0.00000000000E+00  0.00000000000E+00  0.45593999997E+02  0.45594000000E+02  0.51100000000E-03 0. -1.
         11   -1    0    0    0    0 -0.00000000000E+00 -0.00000000000E+00 -0.45593999997E+02  0.45594000000E+02  0.51100000000E-03 0.  1.
         23    2    1    2    0    0  0.17763568394E-14  0.00000000000E+00  0.00000000000E+00  0.91188000000E+02  0.91188000000E+02 0.  0.
    9900012    2    3    3    0    0  0.13155592354E+02  0.17437792320E+02 -0.37503023916E+02  0.47787274038E+02  0.20000013648E+02 0.  0.
         12    1    3    3    0    0 -0.13155592354E+02 -0.17437792320E+02  0.37503023916E+02  0.43400725962E+02  0.00000000000E+00 0. -1.
         11    1    4    4    0    0  0.16360276476E+02  0.68431977194E+01 -0.21902579263E+02  0.28181749060E+02  0.51100000000E-03 0. -1.
        -11    1    4    4    0    0 -0.22528958935E+01  0.14554268832E+01 -0.37331665887E+01  0.45967749955E+01  0.51100000000E-03 0.  1.
         12    1    4    4    0    0 -0.95178822857E+00  0.91391677170E+01 -0.11867278064E+02  0.15008749983E+02  0.00000000000E+00 0. -1.
</event>
<event>
 8    1  0.6019723E-011  0.9118800E+02  0.7816164E-02  0.1184000E+00
        -11   -1    0    0    0    0  0.00000000000E+00  0.00000000000E+00  0.45593999997E+02  0.45594000000E+02  0.51100000000E-03 0. -1.
         11   -1    0    0    0    0 -0.00000000000E+00 -0.00000000000E+00 -0.45593999997E+02  0.45594000000E+02  0.51100000000E-03 0.  1.
         23    2    1    2    0    0 -0.35527136788E-14 -0.17763568394E-14  0.00000000000E+00  0.91188000000E+02  0.91188000000E+02 0.  0.
    9900012    2    3    3    0    0 -0.16942510786E+02  0.88970025449E+01 -0.38954049374E+02  0.47787270874E+02  0.19999999222E+02 0.  0.
         12    1    3    3    0    0  0.16942510786E+02 -0.88970025449E+01  0.38954049374E+02  0.43400729126E+02  0.00000000000E+00 0. -1.
         11    1    4    4    0    0  0.34584686136E+00 -0.12678716247E+01 -0.20471174162E+02  0.20513314709E+02  0.51100000000E-03 0. -1.
        -11    1    4    4    0    0 -0.62095601891E+01  0.37124419351E+01 -0.65585753588E+01  0.97650281035E+01  0.51100000000E-03 0.  1.
         12    1    4    4    0    0 -0.11078797459E+02  0.64524322345E+01 -0.11924299853E+02  0.17508928062E+02  0.00000000000E+00 0. -1.
</event>
<event>
 8    1  0.6019723E-011  0.9118800E+02  0.7816164E-02  0.1184000E+00
        -11   -1    0    0    0    0  0.00000000000E+00  0.00000000000E+00  0.45593999997E+02  0.45594000000E+02  0.51100000000E-03 0. -1.
         11   -1    0    0    0    0 -0.00000000000E+00 -0.00000000000E+00 -0.45593999997E+02  0.45594000000E+02  0.51100000000E-03 0.  1.
         23    2    1    2    0    0  0.00000000000E+00 -0.35527136788E-14  0.00000000000E+00  0.91188000000E+02  0.91188000000E+02 0.  0.
    9900012    2    3    3    0    0  0.34202496976E+02 -0.22847843772E+02 -0.13848770311E+02  0.47787271855E+02  0.20000003694E+02 0.  0.
         12    1    3    3    0    0 -0.34202496976E+02  0.22847843772E+02  0.13848770311E+02  0.43400728145E+02  0.00000000000E+00 0. -1.
         11    1    4    4    0    0  0.15158054385E+02 -0.32316265328E+00 -0.20777216384E+01  0.15303201440E+02  0.51100000000E-03 0. -1.
        -11    1    4    4    0    0  0.14988280599E+02 -0.20652144130E+02 -0.83236177863E+01  0.26841054856E+02  0.51100000000E-03 0.  1.
         12    1    4    4    0    0  0.40561619914E+01 -0.18725369893E+01 -0.34474308859E+01  0.56430155582E+01  0.00000000000E+00 0. -1.
</event>
<event>
 8    1  0.6019723E-011  0.9118800E+02  0.7816164E-02  0.1184000E+00
        -11   -1    0    0    0    0  0.00000000000E+00  0.00000000000E+00  0.45593999997E+02  0.45594000000E+02  0.51100000000E-03 0. -1.
         11   -1    0    0    0    0 -0.00000000000E+00 -0.00000000000E+00 -0.45593999997E+02  0.45594000000E+02  0.51100000000E-03 0.  1.
         23    2    1    2    0    0  0.00000000000E+00 -0.11102230246E-14  0.00000000000E+00  0.91188000000E+02  0.91188000000E+02 0.  0.
    9900012    2    3    3    0    0 -0.34503583493E+02  0.82924734358E+00 -0.26314227473E+02  0.47787268526E+02  0.19999988516E+02 0.  0.
         12    1    3    3    0    0  0.34503583493E+02 -0.82924734358E+00  0.26314227473E+02  0.43400731474E+02  0.00000000000E+00 0. -1.
         11    1    4    4    0    0 -0.67504598890E+01  0.22349724530E+01 -0.59072041619E+01  0.92443967813E+01  0.51100000000E-03 0. -1.
        -11    1    4    4    0    0 -0.21830107290E+02  0.62352840400E+01 -0.16721052322E+02  0.28196204396E+02  0.51100000000E-03 0.  1.
        -12    1    4    4    0    0 -0.59230163142E+01 -0.76410091495E+01 -0.36859709886E+01  0.10346667348E+02  0.00000000000E+00 0.  1.
</event>
<event>
 8    1  0.6019723E-011  0.9118800E+02  0.7816164E-02  0.1184000E+00
        -11   -1    0    0    0    0  0.00000000000E+00  0.00000000000E+00  0.45593999997E+02  0.45594000000E+02  0.51100000000E-03 0. -1.
         11   -1    0    0    0    0 -0.00000000000E+00 -0.00000000000E+00 -0.45593999997E+02  0.45594000000E+02  0.51100000000E-03 0.  1.
         23    2    1    2    0    0 -0.88817841970E-15  0.00000000000E+00  0.71054273576E-14  0.91188000000E+02  0.91188000000E+02 0.  0.
    9900012    2    3    3    0    0 -0.71434934178E+01 -0.20719930396E+02  0.37460364978E+02  0.47787263161E+02  0.19999964058E+02 0.  0.
        -12    1    3    3    0    0  0.71434934178E+01  0.20719930396E+02 -0.37460364978E+02  0.43400736839E+02  0.00000000000E+00 0.  1.
         11    1    4    4    0    0  0.34435181574E+01 -0.89311576414E+01  0.22082357304E+02  0.24067694083E+02  0.51100000000E-03 0. -1.
        -11    1    4    4    0    0 -0.57374244606E+01 -0.32819399576E+01  0.15730333472E+01  0.67943802881E+01  0.51100000000E-03 0.  1.
         12    1    4    4    0    0 -0.48495871146E+01 -0.85068327971E+01  0.13804974327E+02  0.16925188791E+02  0.00000000000E+00 0. -1.
</event>
<event>
 8    1  0.6019723E-011  0.9118800E+02  0.7816164E-02  0.1184000E+00
        -11   -1    0    0    0    0  0.00000000000E+00  0.00000000000E+00  0.45593999997E+02  0.45594000000E+02  0.51100000000E-03 0. -1.
         11   -1    0    0    0    0 -0.00000000000E+00 -0.00000000000E+00 -0.45593999997E+02  0.45594000000E+02  0.51100000000E-03 0.  1.
         23    2    1    2    0    0  0.00000000000E+00  0.00000000000E+00 -0.35527136788E-14  0.91188000000E+02  0.91188000000E+02 0.  0.
    9900012    2    3    3    0    0  0.25452893254E+02  0.16099127496E+02  0.31250460237E+02  0.47787274820E+02  0.20000017214E+02 0.  0.
        -12    1    3    3    0    0 -0.25452893254E+02 -0.16099127496E+02 -0.31250460237E+02  0.43400725180E+02  0.00000000000E+00 0.  1.
         11    1    4    4    0    0  0.21322780133E+02  0.19491391679E+02  0.31066236565E+02  0.42422710389E+02  0.51100000000E-03 0. -1.
        -11    1    4    4    0    0  0.22956989132E+01 -0.17775121890E+01 -0.93850088317E-01  0.29049253317E+01  0.51100000000E-03 0.  1.
         12    1    4    4    0    0  0.18344142070E+01 -0.16147519933E+01  0.27807376044E+00  0.24596390993E+01  0.00000000000E+00 0. -1.
</event>
<event>
 8    1  0.6019723E-011  0.9118800E+02  0.7816164E-02  0.1184000E+00
        -11   -1    0    0    0    0  0.00000000000E+00  0.00000000000E+00  0.45593999997E+02  0.45594000000E+02  0.51100000000E-03 0. -1.
         11   -1    0    0    0    0 -0.00000000000E+00 -0.00000000000E+00 -0.45593999997E+02  0.45594000000E+02  0.51100000000E-03 0.  1.
         23    2    1    2    0    0  0.00000000000E+00  0.00000000000E+00  0.00000000000E+00  0.91188000000E+02  0.91188000000E+02 0.  0.
    9900012    2    3    3    0    0  0.60217210377E+01 -0.37428396659E+02 -0.21129964794E+02  0.47787292484E+02  0.20000097751E+02 0.  0.
         12    1    3    3    0    0 -0.60217210377E+01  0.37428396659E+02  0.21129964794E+02  0.43400707516E+02  0.00000000000E+00 0. -1.
         11    1    4    4    0    0 -0.67353820822E+01 -0.13352152234E+02 -0.43223711084E+01  0.15566895430E+02  0.51100000000E-03 0. -1.
        -11    1    4    4    0    0  0.73784840113E+01 -0.10055056810E+02 -0.76210784602E+01  0.14615985458E+02  0.51100000000E-03 0.  1.
         12    1    4    4    0    0  0.53786191087E+01 -0.14021187615E+02 -0.91865152257E+01  0.17604411596E+02  0.00000000000E+00 0. -1.
</event>
<event>
 8    1  0.6019723E-011  0.9118800E+02  0.7816164E-02  0.1184000E+00
        -11   -1    0    0    0    0  0.00000000000E+00  0.00000000000E+00  0.45593999997E+02  0.45594000000E+02  0.51100000000E-03 0. -1.
         11   -1    0    0    0    0 -0.00000000000E+00 -0.00000000000E+00 -0.45593999997E+02  0.45594000000E+02  0.51100000000E-03 0.  1.
         23    2    1    2    0    0  0.88817841970E-15  0.35527136788E-14  0.00000000000E+00  0.91188000000E+02  0.91188000000E+02 0.  0.
    9900012    2    3    3    0    0  0.74236351982E+01  0.30959624487E+02  0.29496009714E+02  0.47787270779E+02  0.19999998788E+02 0.  0.
        -12    1    3    3    0    0 -0.74236351982E+01 -0.30959624487E+02 -0.29496009714E+02  0.43400729221E+02  0.00000000000E+00 0.  1.
         11    1    4    4    0    0  0.50892912529E+01  0.10299850805E+02  0.19202524248E+02  0.22376879805E+02  0.51100000000E-03 0. -1.
        -11    1    4    4    0    0  0.41773247416E+00  0.50133176246E+01 -0.20064476903E+01  0.54160582180E+01  0.51100000000E-03 0.  1.
         12    1    4    4    0    0  0.19166114712E+01  0.15646456058E+02  0.12299933156E+02  0.19994332755E+02  0.00000000000E+00 0. -1.
</event>
<event>
 8    1  0.6019723E-011  0.9118800E+02  0.7816164E-02  0.1184000E+00
        -11   -1    0    0    0    0  0.00000000000E+00  0.00000000000E+00  0.45593999997E+02  0.45594000000E+02  0.51100000000E-03 0. -1.
         11   -1    0    0    0    0 -0.00000000000E+00 -0.00000000000E+00 -0.45593999997E+02  0.45594000000E+02  0.51100000000E-03 0.  1.
         23    2    1    2    0    0  0.00000000000E+00 -0.17763568394E-14  0.00000000000E+00  0.91188000000E+02  0.91188000000E+02 0.  0.
    9900012    2    3    3    0    0  0.19256446664E+02 -0.14164593055E+02  0.36223988872E+02  0.47787264933E+02  0.19999972137E+02 0.  0.
        -12    1    3    3    0    0 -0.19256446664E+02  0.14164593055E+02 -0.36223988872E+02  0.43400735067E+02  0.00000000000E+00 0.  1.
         11    1    4    4    0    0  0.21026409847E+02 -0.12287330110E+02  0.21518487330E+02  0.32498210559E+02  0.51100000000E-03 0. -1.
        -11    1    4    4    0    0 -0.17038056607E+01  0.24425275500E+00  0.97092317251E+01  0.98606183422E+01  0.51100000000E-03 0.  1.
         12    1    4    4    0    0 -0.66157521609E-01 -0.21215156991E+01  0.49962698164E+01  0.54284360323E+01  0.00000000000E+00 0. -1.
</event>
<event>
 8    1  0.6019723E-011  0.9118800E+02  0.7816164E-02  0.1184000E+00
        -11   -1    0    0    0    0  0.00000000000E+00  0.00000000000E+00  0.45593999997E+02  0.45594000000E+02  0.51100000000E-03 0. -1.
         11   -1    0    0    0    0 -0.00000000000E+00 -0.00000000000E+00 -0.45593999997E+02  0.45594000000E+02  0.51100000000E-03 0.  1.
         23    2    1    2    0    0  0.17763568394E-14  0.00000000000E+00  0.00000000000E+00  0.91188000000E+02  0.91188000000E+02 0.  0.
    9900012    2    3    3    0    0 -0.10735007847E+02  0.52379955197E+00  0.42048882141E+02  0.47787271334E+02  0.20000001320E+02 0.  0.
        -12    1    3    3    0    0  0.10735007847E+02 -0.52379955197E+00 -0.42048882141E+02  0.43400728666E+02  0.00000000000E+00 0.  1.
         11    1    4    4    0    0  0.20866284653E+01  0.26363553306E+01  0.10073949334E+02  0.10620209189E+02  0.51100000000E-03 0. -1.
        -11    1    4    4    0    0 -0.15635507840E+02 -0.27592078684E+01  0.28717309482E+02  0.32814115829E+02  0.51100000000E-03 0.  1.
        -12    1    4    4    0    0  0.28138715278E+01  0.64665208980E+00  0.32576233250E+01  0.43529463158E+01  0.00000000000E+00 0.  1.
</event>
<event>
 8    1  0.6019723E-011  0.9118800E+02  0.7816164E-02  0.1184000E+00
        -11   -1    0    0    0    0  0.00000000000E+00  0.00000000000E+00  0.45593999997E+02  0.45594000000E+02  0.51100000000E-03 0. -1.
         11   -1    0    0    0    0 -0.00000000000E+00 -0.00000000000E+00 -0.45593999997E+02  0.45594000000E+02  0.51100000000E-03 0.  1.
         23    2    1    2    0    0  0.00000000000E+00  0.00000000000E+00  0.00000000000E+00  0.91188000000E+02  0.91188000000E+02 0.  0.
    9900012    2    3    3    0    0 -0.64513360734E+01  0.22192656711E+02  0.36735408577E+02  0.47787262767E+02  0.19999962260E+02 0.  0.
        -12    1    3    3    0    0  0.64513360734E+01 -0.22192656711E+02 -0.36735408577E+02  0.43400737233E+02  0.00000000000E+00 0.  1.
         11    1    4    4    0    0  0.23711688879E+00  0.14879537402E+02  0.20469580528E+02  0.25307322754E+02  0.51100000000E-03 0. -1.
        -11    1    4    4    0    0 -0.54419438160E+01  0.45864018201E+01  0.13223586217E+01  0.72386785215E+01  0.51100000000E-03 0.  1.
        -12    1    4    4    0    0 -0.12465091462E+01  0.27267174883E+01  0.14943469428E+02  0.15241261492E+02  0.00000000000E+00 0.  1.
</event>
<event>
 8    1  0.6019723E-011  0.9118800E+02  0.7816164E-02  0.1184000E+00
        -11   -1    0    0    0    0  0.00000000000E+00  0.00000000000E+00  0.45593999997E+02  0.45594000000E+02  0.51100000000E-03 0. -1.
         11   -1    0    0    0    0 -0.00000000000E+00 -0.00000000000E+00 -0.45593999997E+02  0.45594000000E+02  0.51100000000E-03 0.  1.
         23    2    1    2    0    0  0.35527136788E-14 -0.17763568394E-14  0.00000000000E+00  0.91188000000E+02  0.91188000000E+02 0.  0.
    9900012    2    3    3    0    0  0.30894270433E+02  0.12429060078E+02  0.27833239326E+02  0.47787231673E+02  0.19999820489E+02 0.  0.
        -12    1    3    3    0    0 -0.30894270433E+02 -0.12429060078E+02 -0.27833239326E+02  0.43400768327E+02  0.00000000000E+00 0.  1.
         11    1    4    4    0    0  0.14076991104E+02  0.69716309124E+01  0.56047856184E+01  0.16678697138E+02  0.51100000000E-03 0. -1.
        -11    1    4    4    0    0  0.16334304685E+01  0.31061119447E+01  0.12357540846E+02  0.12846199537E+02  0.51100000000E-03 0.  1.
        -12    1    4    4    0    0  0.15183848860E+02  0.23513172208E+01  0.98709128619E+01  0.18262334998E+02  0.00000000000E+00 0.  1.
</event>
<event>
 8    1  0.6019723E-011  0.9118800E+02  0.7816164E-02  0.1184000E+00
        -11   -1    0    0    0    0  0.00000000000E+00  0.00000000000E+00  0.45593999997E+02  0.45594000000E+02  0.51100000000E-03 0. -1.
         11   -1    0    0    0    0 -0.00000000000E+00 -0.00000000000E+00 -0.45593999997E+02  0.45594000000E+02  0.51100000000E-03 0.  1.
         23    2    1    2    0    0  0.00000000000E+00 -0.35527136788E-14  0.00000000000E+00  0.91188000000E+02  0.91188000000E+02 0.  0.
    9900012    2    3    3    0    0 -0.78404622452E+01  0.14959038414E+02 -0.39979714305E+02  0.47787271499E+02  0.20000002071E+02 0.  0.
         12    1    3    3    0    0  0.78404622452E+01 -0.14959038414E+02  0.39979714305E+02  0.43400728501E+02  0.00000000000E+00 0. -1.
         11    1    4    4    0    0 -0.95829034471E+00  0.54175350182E+01 -0.69241152778E+01  0.88437197321E+01  0.51100000000E-03 0. -1.
        -11    1    4    4    0    0 -0.35931479682E+01  0.87048363667E+01 -0.34112890436E+02  0.35388899144E+02  0.51100000000E-03 0.  1.
        -12    1    4    4    0    0 -0.32890239323E+01  0.83666702927E+00  0.10572914081E+01  0.35546526225E+01  0.00000000000E+00 0.  1.
</event>
<event>
 8    1  0.6019723E-011  0.9118800E+02  0.7816164E-02  0.1184000E+00
        -11   -1    0    0    0    0  0.00000000000E+00  0.00000000000E+00  0.45593999997E+02  0.45594000000E+02  0.51100000000E-03 0.  1.
         11   -1    0    0    0    0 -0.00000000000E+00 -0.00000000000E+00 -0.45593999997E+02  0.45594000000E+02  0.51100000000E-03 0. -1.
         23    2    1    2    0    0  0.00000000000E+00  0.00000000000E+00 -0.35527136788E-14  0.91188000000E+02  0.91188000000E+02 0.  0.
    9900012    2    3    3    0    0  0.62416259535E+01 -0.37301742158E+02  0.21289568397E+02  0.47787267459E+02  0.19999983651E+02 0.  0.
        -12    1    3    3    0    0 -0.62416259535E+01  0.37301742158E+02 -0.21289568397E+02  0.43400732541E+02  0.00000000000E+00 0.  1.
         11    1    4    4    0    0  0.15712745640E+01 -0.11450106341E+02  0.36779510933E+01  0.12128526847E+02  0.51100000000E-03 0. -1.
        -11    1    4    4    0    0  0.10079601099E+02 -0.21445361735E+02  0.11307464203E+02  0.26255678343E+02  0.51100000000E-03 0.  1.
        -12    1    4    4    0    0 -0.54092497098E+01 -0.44062740816E+01  0.63041531009E+01  0.94030622684E+01  0.00000000000E+00 0.  1.
</event>
<event>
 8    1  0.6019723E-011  0.9118800E+02  0.7816164E-02  0.1184000E+00
        -11   -1    0    0    0    0  0.00000000000E+00  0.00000000000E+00  0.45593999997E+02  0.45594000000E+02  0.51100000000E-03 0. -1.
         11   -1    0    0    0    0 -0.00000000000E+00 -0.00000000000E+00 -0.45593999997E+02  0.45594000000E+02  0.51100000000E-03 0.  1.
         23    2    1    2    0    0  0.44408920985E-15  0.00000000000E+00  0.00000000000E+00  0.91188000000E+02  0.91188000000E+02 0.  0.
    9900012    2    3    3    0    0  0.85975714537E+00 -0.19174489209E+02  0.38925869465E+02  0.47787268066E+02  0.19999986422E+02 0.  0.
        -12    1    3    3    0    0 -0.85975714537E+00  0.19174489209E+02 -0.38925869465E+02  0.43400731934E+02  0.00000000000E+00 0.  1.
         11    1    4    4    0    0  0.52091305629E+01 -0.57362426138E+01  0.10386280487E+02  0.12958176692E+02  0.51100000000E-03 0. -1.
        -11    1    4    4    0    0 -0.64410812986E+01 -0.14418977803E+02  0.17592390682E+02  0.23640783814E+02  0.51100000000E-03 0.  1.
        -12    1    4    4    0    0  0.20917078811E+01  0.98073120733E+00  0.10947198295E+02  0.11188307561E+02  0.00000000000E+00 0.  1.
</event>
<event>
 8    1  0.6019723E-011  0.9118800E+02  0.7816164E-02  0.1184000E+00
        -11   -1    0    0    0    0  0.00000000000E+00  0.00000000000E+00  0.45593999997E+02  0.45594000000E+02  0.51100000000E-03 0. -1.
         11   -1    0    0    0    0 -0.00000000000E+00 -0.00000000000E+00 -0.45593999997E+02  0.45594000000E+02  0.51100000000E-03 0.  1.
         23    2    1    2    0    0  0.00000000000E+00  0.35527136788E-14  0.00000000000E+00  0.91188000000E+02  0.91188000000E+02 0.  0.
    9900012    2    3    3    0    0  0.27777211503E+02  0.24109245889E+02  0.23038929316E+02  0.47787291708E+02  0.20000094215E+02 0.  0.
        -12    1    3    3    0    0 -0.27777211503E+02 -0.24109245889E+02 -0.23038929316E+02  0.43400708292E+02  0.00000000000E+00 0.  1.
         11    1    4    4    0    0  0.13653056122E+02  0.44780509771E+01  0.82672622048E+01  0.16577288881E+02  0.51100000000E-03 0. -1.
        -11    1    4    4    0    0  0.79082499288E-01  0.81414113118E+01  0.55982560466E+00  0.81610193700E+01  0.51100000000E-03 0.  1.
         12    1    4    4    0    0  0.14045072881E+02  0.11489783600E+02  0.14211841506E+02  0.23048983457E+02  0.00000000000E+00 0. -1.
</event>
<event>
 8    1  0.6019723E-011  0.9118800E+02  0.7816164E-02  0.1184000E+00
        -11   -1    0    0    0    0  0.00000000000E+00  0.00000000000E+00  0.45593999997E+02  0.45594000000E+02  0.51100000000E-03 0. -1.
         11   -1    0    0    0    0 -0.00000000000E+00 -0.00000000000E+00 -0.45593999997E+02  0.45594000000E+02  0.51100000000E-03 0.  1.
         23    2    1    2    0    0  0.00000000000E+00  0.00000000000E+00  0.00000000000E+00  0.91188000000E+02  0.91188000000E+02 0.  0.
    9900012    2    3    3    0    0 -0.54931171394E+01 -0.33513295690E+02  0.27024212241E+02  0.47787269924E+02  0.19999994890E+02 0.  0.
        -12    1    3    3    0    0  0.54931171394E+01  0.33513295690E+02 -0.27024212241E+02  0.43400730076E+02  0.00000000000E+00 0.  1.
         11    1    4    4    0    0  0.33891962623E+01 -0.27326442481E+01  0.40754421332E+01  0.59634909854E+01  0.51100000000E-03 0. -1.
        -11    1    4    4    0    0 -0.96594835070E+01 -0.11155918866E+02  0.61786474850E+01  0.15997994636E+02  0.51100000000E-03 0.  1.
        -12    1    4    4    0    0  0.77717010528E+00 -0.19624732576E+02  0.16770122623E+02  0.25825784302E+02  0.00000000000E+00 0.  1.
</event>
<event>
 8    1  0.6591570E-011  0.9118800E+02  0.7816164E-02  0.1184000E+00
        -11   -1    0    0    0    0  0.00000000000E+00  0.00000000000E+00  0.45593999997E+02  0.45594000000E+02  0.51100000000E-03 0. -1.
         11   -1    0    0    0    0 -0.00000000000E+00 -0.00000000000E+00 -0.45593999997E+02  0.45594000000E+02  0.51100000000E-03 0.  1.
         23    2    1    2    0    0  0.00000000000E+00  0.00000000000E+00  0.00000000000E+00  0.91188000000E+02  0.91188000000E+02 0.  0.
    9900012    2    3    3    0    0 -0.32065765510E+02 -0.42179258338E+01 -0.28941650200E+02  0.47787270370E+02  0.19999996927E+02 0.  0.
         12    1    3    3    0    0  0.32065765510E+02  0.42179258338E+01  0.28941650200E+02  0.43400729630E+02  0.00000000000E+00 0. -1.
         11    1    4    4    0    0 -0.99420333734E+01 -0.97660597090E+01 -0.96610293393E+01  0.16957459656E+02  0.51100000000E-03 0. -1.
        -11    1    4    4    0    0 -0.96784553376E+01 -0.14096086126E+01 -0.84361183246E+01  0.12916175394E+02  0.51100000000E-03 0.  1.
         12    1    4    4    0    0 -0.12445276799E+02  0.69577424879E+01 -0.10844502536E+02  0.17913635320E+02  0.00000000000E+00 0. -1.
</event>
<event>
 8    1  0.6019723E-011  0.9118800E+02  0.7816164E-02  0.1184000E+00
        -11   -1    0    0    0    0  0.00000000000E+00  0.00000000000E+00  0.45593999997E+02  0.45594000000E+02  0.51100000000E-03 0. -1.
         11   -1    0    0    0    0 -0.00000000000E+00 -0.00000000000E+00 -0.45593999997E+02  0.45594000000E+02  0.51100000000E-03 0.  1.
         23    2    1    2    0    0 -0.44408920985E-15  0.00000000000E+00  0.00000000000E+00  0.91188000000E+02  0.91188000000E+02 0.  0.
    9900012    2    3    3    0    0  0.23799083614E+01  0.34805352630E+02  0.25817566724E+02  0.47787270893E+02  0.19999999310E+02 0.  0.
        -12    1    3    3    0    0 -0.23799083614E+01 -0.34805352630E+02 -0.25817566724E+02  0.43400729107E+02  0.00000000000E+00 0.  1.
         11    1    4    4    0    0  0.62199422729E+01  0.11783238663E+02  0.13625059814E+01  0.13393611092E+02  0.51100000000E-03 0. -1.
        -11    1    4    4    0    0 -0.95300588806E+00  0.14597283629E+02  0.18890946784E+02  0.23892609322E+02  0.51100000000E-03 0.  1.
         12    1    4    4    0    0 -0.28870280234E+01  0.84248303374E+01  0.55641139582E+01  0.10501050479E+02  0.00000000000E+00 0. -1.
</event>
<event>
 8    1  0.6019723E-011  0.9118800E+02  0.7816164E-02  0.1184000E+00
        -11   -1    0    0    0    0  0.00000000000E+00  0.00000000000E+00  0.45593999997E+02  0.45594000000E+02  0.51100000000E-03 0. -1.
         11   -1    0    0    0    0 -0.00000000000E+00 -0.00000000000E+00 -0.45593999997E+02  0.45594000000E+02  0.51100000000E-03 0.  1.
         23    2    1    2    0    0  0.00000000000E+00  0.00000000000E+00 -0.35527136788E-14  0.91188000000E+02  0.91188000000E+02 0.  0.
    9900012    2    3    3    0    0 -0.37840963846E+02 -0.10160143748E+02  0.18666988828E+02  0.47787268005E+02  0.19999986143E+02 0.  0.
        -12    1    3    3    0    0  0.37840963846E+02  0.10160143748E+02 -0.18666988828E+02  0.43400731995E+02  0.00000000000E+00 0.  1.
         11    1    4    4    0    0 -0.18908309866E+02 -0.14624508302E+02  0.76260321270E+01  0.25090970314E+02  0.51100000000E-03 0. -1.
        -11    1    4    4    0    0 -0.67908739283E+01  0.28684965428E+01  0.57809930882E+01  0.93682507691E+01  0.51100000000E-03 0.  1.
         12    1    4    4    0    0 -0.12141780052E+02  0.15958680109E+01  0.52599636130E+01  0.13328046922E+02  0.00000000000E+00 0. -1.
</event>
<event>
 8    1  0.6019723E-011  0.9118800E+02  0.7816164E-02  0.1184000E+00
        -11   -1    0    0    0    0  0.00000000000E+00  0.00000000000E+00  0.45593999997E+02  0.45594000000E+02  0.51100000000E-03 0. -1.
         11   -1    0    0    0    0 -0.00000000000E+00 -0.00000000000E+00 -0.45593999997E+02  0.45594000000E+02  0.51100000000E-03 0.  1.
         23    2    1    2    0    0  0.66613381478E-15  0.88817841970E-15  0.00000000000E+00  0.91188000000E+02  0.91188000000E+02 0.  0.
    9900012    2    3    3    0    0 -0.19582861826E+01 -0.71941665499E+01  0.42755495984E+02  0.47787270121E+02  0.19999995791E+02 0.  0.
        -12    1    3    3    0    0  0.19582861826E+01  0.71941665499E+01 -0.42755495984E+02  0.43400729879E+02  0.00000000000E+00 0.  1.
         11    1    4    4    0    0 -0.92028541145E+01 -0.23734483449E+01  0.29903374361E+02  0.31377341814E+02  0.51100000000E-03 0. -1.
        -11    1    4    4    0    0  0.18896004645E+01 -0.14210274608E+01  0.34904532521E+00  0.23899250741E+01  0.51100000000E-03 0.  1.
         12    1    4    4    0    0  0.53549674674E+01 -0.33996907443E+01  0.12503076298E+02  0.14020003233E+02  0.00000000000E+00 0. -1.
</event>
<event>
 8    1  0.6019723E-011  0.9118800E+02  0.7816164E-02  0.1184000E+00
        -11   -1    0    0    0    0  0.00000000000E+00  0.00000000000E+00  0.45593999997E+02  0.45594000000E+02  0.51100000000E-03 0. -1.
         11   -1    0    0    0    0 -0.00000000000E+00 -0.00000000000E+00 -0.45593999997E+02  0.45594000000E+02  0.51100000000E-03 0.  1.
         23    2    1    2    0    0 -0.71054273576E-14  0.00000000000E+00  0.00000000000E+00  0.91188000000E+02  0.91188000000E+02 0.  0.
    9900012    2    3    3    0    0 -0.35725642033E+02 -0.76600281337E+01  0.23422734915E+02  0.47787285253E+02  0.20000064781E+02 0.  0.
        -12    1    3    3    0    0  0.35725642033E+02  0.76600281337E+01 -0.23422734915E+02  0.43400714747E+02  0.00000000000E+00 0.  1.
         11    1    4    4    0    0 -0.28382412734E+02 -0.18796794531E+01  0.11840291841E+02  0.30810502408E+02  0.51100000000E-03 0. -1.
        -11    1    4    4    0    0  0.15533442897E+01 -0.10966107462E+01  0.38468890713E+01  0.42911524558E+01  0.51100000000E-03 0.  1.
         12    1    4    4    0    0 -0.88965735886E+01 -0.46837379343E+01  0.77355540020E+01  0.12685630389E+02  0.00000000000E+00 0. -1.
</event>
<event>
 8    1  0.6019723E-011  0.9118800E+02  0.7816164E-02  0.1184000E+00
        -11   -1    0    0    0    0  0.00000000000E+00  0.00000000000E+00  0.45593999997E+02  0.45594000000E+02  0.51100000000E-03 0. -1.
         11   -1    0    0    0    0 -0.00000000000E+00 -0.00000000000E+00 -0.45593999997E+02  0.45594000000E+02  0.51100000000E-03 0.  1.
         23    2    1    2    0    0  0.00000000000E+00 -0.88817841970E-15 -0.71054273576E-14  0.91188000000E+02  0.91188000000E+02 0.  0.
    9900012    2    3    3    0    0  0.15441563370E+02  0.66110007216E+01 -0.40018443367E+02  0.47787273976E+02  0.20000013367E+02 0.  0.
         12    1    3    3    0    0 -0.15441563370E+02 -0.66110007216E+01  0.40018443367E+02  0.43400726024E+02  0.00000000000E+00 0. -1.
         11    1    4    4    0    0  0.71303043759E+01  0.27553564610E+01 -0.18309350588E+01  0.78603786913E+01  0.51100000000E-03 0. -1.
        -11    1    4    4    0    0  0.31415735980E+01  0.35005459653E+01 -0.28998726711E+02  0.29377703413E+02  0.51100000000E-03 0.  1.
        -12    1    4    4    0    0  0.51696853958E+01  0.35509829534E+00 -0.91887815981E+01  0.10549191872E+02  0.00000000000E+00 0.  1.
</event>
<event>
 8    1  0.6019723E-011  0.9118800E+02  0.7816164E-02  0.1184000E+00
        -11   -1    0    0    0    0  0.00000000000E+00  0.00000000000E+00  0.45593999997E+02  0.45594000000E+02  0.51100000000E-03 0. -1.
         11   -1    0    0    0    0 -0.00000000000E+00 -0.00000000000E+00 -0.45593999997E+02  0.45594000000E+02  0.51100000000E-03 0.  1.
         23    2    1    2    0    0  0.00000000000E+00  0.00000000000E+00  0.00000000000E+00  0.91188000000E+02  0.91188000000E+02 0.  0.
    9900012    2    3    3    0    0  0.41303048641E+02  0.11609806709E+02 -0.65493254220E+01  0.47787273021E+02  0.20000009010E+02 0.  0.
         12    1    3    3    0    0 -0.41303048641E+02 -0.11609806709E+02  0.65493254220E+01  0.43400726979E+02  0.00000000000E+00 0. -1.
         11    1    4    4    0    0  0.33635214313E+02  0.27306681966E+01 -0.46320499253E+00  0.33749055539E+02  0.51100000000E-03 0. -1.
        -11    1    4    4    0    0  0.52067968256E+01  0.29469646549E+01 -0.15655177737E+01  0.61843496037E+01  0.51100000000E-03 0.  1.
         12    1    4    4    0    0  0.24610375025E+01  0.59321738575E+01 -0.45206026558E+01  0.78538678774E+01  0.00000000000E+00 0. -1.
</event>
<event>
 8    1  0.6019723E-011  0.9118800E+02  0.7816164E-02  0.1184000E+00
        -11   -1    0    0    0    0  0.00000000000E+00  0.00000000000E+00  0.45593999997E+02  0.45594000000E+02  0.51100000000E-03 0. -1.
         11   -1    0    0    0    0 -0.00000000000E+00 -0.00000000000E+00 -0.45593999997E+02  0.45594000000E+02  0.51100000000E-03 0.  1.
         23    2    1    2    0    0  0.71054273576E-14  0.35527136788E-14  0.00000000000E+00  0.91188000000E+02  0.91188000000E+02 0.  0.
    9900012    2    3    3    0    0 -0.19181573269E+02 -0.21500305147E+02 -0.32456545944E+02  0.47787271329E+02  0.20000001299E+02 0.  0.
         12    1    3    3    0    0  0.19181573269E+02  0.21500305147E+02  0.32456545944E+02  0.43400728671E+02  0.00000000000E+00 0. -1.
         11    1    4    4    0    0 -0.74417151840E+00 -0.56970083681E+01 -0.61611796041E+01  0.84243593210E+01  0.51100000000E-03 0. -1.
        -11    1    4    4    0    0 -0.17079421668E+01 -0.95814927171E+01 -0.16084047708E+02  0.18799432440E+02  0.51100000000E-03 0.  1.
        -12    1    4    4    0    0 -0.16729459584E+02 -0.62218040622E+01 -0.10211318632E+02  0.20563479568E+02  0.00000000000E+00 0.  1.
</event>
<event>
 8    1  0.6019723E-011  0.9118800E+02  0.7816164E-02  0.1184000E+00
        -11   -1    0    0    0    0  0.00000000000E+00  0.00000000000E+00  0.45593999997E+02  0.45594000000E+02  0.51100000000E-03 0. -1.
         11   -1    0    0    0    0 -0.00000000000E+00 -0.00000000000E+00 -0.45593999997E+02  0.45594000000E+02  0.51100000000E-03 0.  1.
         23    2    1    2    0    0 -0.35527136788E-14  0.00000000000E+00  0.00000000000E+00  0.91188000000E+02  0.91188000000E+02 0.  0.
    9900012    2    3    3    0    0 -0.23347227625E+02  0.31278100363E+01  0.36451984183E+02  0.47787269773E+02  0.19999994201E+02 0.  0.
        -12    1    3    3    0    0  0.23347227625E+02 -0.31278100363E+01 -0.36451984183E+02  0.43400730227E+02  0.00000000000E+00 0.  1.
         11    1    4    4    0    0 -0.39268589251E+01 -0.20232595661E+01  0.77250978358E+01  0.88989289874E+01  0.51100000000E-03 0. -1.
        -11    1    4    4    0    0 -0.22410846744E+02  0.32347325673E+01  0.25299402384E+02  0.33952456580E+02  0.51100000000E-03 0.  1.
        -12    1    4    4    0    0  0.29904780445E+01  0.19163370351E+01  0.34274839637E+01  0.49358842053E+01  0.00000000000E+00 0.  1.
</event>
<event>
 8    1  0.6019723E-011  0.9118800E+02  0.7816164E-02  0.1184000E+00
        -11   -1    0    0    0    0  0.00000000000E+00  0.00000000000E+00  0.45593999997E+02  0.45594000000E+02  0.51100000000E-03 0. -1.
         11   -1    0    0    0    0 -0.00000000000E+00 -0.00000000000E+00 -0.45593999997E+02  0.45594000000E+02  0.51100000000E-03 0.  1.
         23    2    1    2    0    0  0.88817841970E-15  0.35527136788E-14  0.00000000000E+00  0.91188000000E+02  0.91188000000E+02 0.  0.
    9900012    2    3    3    0    0 -0.47249772594E+01 -0.12316899919E+02  0.41347204049E+02  0.47787277467E+02  0.20000029284E+02 0.  0.
        -12    1    3    3    0    0  0.47249772594E+01  0.12316899919E+02 -0.41347204049E+02  0.43400722533E+02  0.00000000000E+00 0.  1.
         11    1    4    4    0    0  0.17709570868E+01 -0.60001952654E+01  0.31666771341E+02  0.32278832688E+02  0.51100000000E-03 0. -1.
        -11    1    4    4    0    0 -0.63758240561E+01 -0.15655369659E+01  0.27797333630E+01  0.71294429107E+01  0.51100000000E-03 0.  1.
        -12    1    4    4    0    0 -0.12011029008E+00 -0.47511676876E+01  0.69006993444E+01  0.83790018689E+01  0.00000000000E+00 0.  1.
</event>
<event>
 8    1  0.6019723E-011  0.9118800E+02  0.7816164E-02  0.1184000E+00
        -11   -1    0    0    0    0  0.00000000000E+00  0.00000000000E+00  0.45593999997E+02  0.45594000000E+02  0.51100000000E-03 0. -1.
         11   -1    0    0    0    0 -0.00000000000E+00 -0.00000000000E+00 -0.45593999997E+02  0.45594000000E+02  0.51100000000E-03 0.  1.
         23    2    1    2    0    0  0.00000000000E+00  0.35527136788E-14 -0.35527136788E-14  0.91188000000E+02  0.91188000000E+02 0.  0.
    9900012    2    3    3    0    0  0.14818841954E+02 -0.27899317620E+02  0.29759917323E+02  0.47787277891E+02  0.20000031216E+02 0.  0.
        -12    1    3    3    0    0 -0.14818841954E+02  0.27899317620E+02 -0.29759917323E+02  0.43400722109E+02  0.00000000000E+00 0.  1.
         11    1    4    4    0    0 -0.54154667553E+00 -0.76681456311E+01  0.19197657207E+01  0.79233345824E+01  0.51100000000E-03 0. -1.
        -11    1    4    4    0    0  0.15131520324E+02 -0.13003208212E+02  0.14410918427E+02  0.24611397792E+02  0.51100000000E-03 0.  1.
        -12    1    4    4    0    0  0.22886830596E+00 -0.72279637772E+01  0.13429233175E+02  0.15252545516E+02  0.00000000000E+00 0.  1.
</event>
<event>
 8    1  0.6019723E-011  0.9118800E+02  0.7816164E-02  0.1184000E+00
        -11   -1    0    0    0    0  0.00000000000E+00  0.00000000000E+00  0.45593999997E+02  0.45594000000E+02  0.51100000000E-03 0. -1.
         11   -1    0    0    0    0 -0.00000000000E+00 -0.00000000000E+00 -0.45593999997E+02  0.45594000000E+02  0.51100000000E-03 0.  1.
         23    2    1    2    0    0 -0.35527136788E-14  0.00000000000E+00  0.00000000000E+00  0.91188000000E+02  0.91188000000E+02 0.  0.
    9900012    2    3    3    0    0  0.16188559416E+02  0.35573546799E+01 -0.40111083213E+02  0.47787271609E+02  0.20000002576E+02 0.  0.
         12    1    3    3    0    0 -0.16188559416E+02 -0.35573546799E+01  0.40111083213E+02  0.43400728391E+02  0.00000000000E+00 0. -1.
         11    1    4    4    0    0  0.99174948108E+01 -0.27531463394E+01 -0.34428230145E+02  0.35933821801E+02  0.51100000000E-03 0. -1.
        -11    1    4    4    0    0  0.17979531909E+01  0.55792099336E+01 -0.29719794844E+01  0.65721291433E+01  0.51100000000E-03 0.  1.
        -12    1    4    4    0    0  0.44731114140E+01  0.73129108567E+00 -0.27108735845E+01  0.52813206649E+01  0.00000000000E+00 0.  1.
</event>
<event>
 8    1  0.6019723E-011  0.9118800E+02  0.7816164E-02  0.1184000E+00
        -11   -1    0    0    0    0  0.00000000000E+00  0.00000000000E+00  0.45593999997E+02  0.45594000000E+02  0.51100000000E-03 0. -1.
         11   -1    0    0    0    0 -0.00000000000E+00 -0.00000000000E+00 -0.45593999997E+02  0.45594000000E+02  0.51100000000E-03 0.  1.
         23    2    1    2    0    0 -0.17763568394E-14  0.00000000000E+00 -0.17763568394E-14  0.91188000000E+02  0.91188000000E+02 0.  0.
    9900012    2    3    3    0    0 -0.13799936106E+02 -0.39985678213E+02  0.97124020673E+01  0.47787268985E+02  0.19999990612E+02 0.  0.
        -12    1    3    3    0    0  0.13799936106E+02  0.39985678213E+02 -0.97124020673E+01  0.43400731015E+02  0.00000000000E+00 0.  1.
         11    1    4    4    0    0 -0.26035298078E+01 -0.12901307869E+02 -0.28070066346E+01  0.13457391973E+02  0.51100000000E-03 0. -1.
        -11    1    4    4    0    0 -0.78762028807E+00  0.11028728096E+01  0.21534295062E+01  0.25443924720E+01  0.51100000000E-03 0.  1.
         12    1    4    4    0    0 -0.10408786010E+02 -0.28187243154E+02  0.10365979196E+02  0.31785484541E+02  0.00000000000E+00 0. -1.
</event>
<event>
 8    1  0.6019723E-011  0.9118800E+02  0.7816164E-02  0.1184000E+00
        -11   -1    0    0    0    0  0.00000000000E+00  0.00000000000E+00  0.45593999997E+02  0.45594000000E+02  0.51100000000E-03 0. -1.
         11   -1    0    0    0    0 -0.00000000000E+00 -0.00000000000E+00 -0.45593999997E+02  0.45594000000E+02  0.51100000000E-03 0.  1.
         23    2    1    2    0    0  0.71054273576E-14  0.00000000000E+00  0.00000000000E+00  0.91188000000E+02  0.91188000000E+02 0.  0.
    9900012    2    3    3    0    0 -0.38355038534E+02  0.79098404237E+01 -0.18706916274E+02  0.47787271055E+02  0.20000000046E+02 0.  0.
         12    1    3    3    0    0  0.38355038534E+02 -0.79098404237E+01  0.18706916274E+02  0.43400728945E+02  0.00000000000E+00 0. -1.
         11    1    4    4    0    0 -0.21014839062E+01  0.33600427809E+00 -0.48877092277E+01  0.53309319296E+01  0.51100000000E-03 0. -1.
        -11    1    4    4    0    0 -0.32966593358E+02  0.26638120997E+01 -0.15182678393E+02  0.36392387886E+02  0.51100000000E-03 0.  1.
        -12    1    4    4    0    0 -0.32869612698E+01  0.49100240459E+01  0.13634713466E+01  0.60639512394E+01  0.00000000000E+00 0.  1.
</event>
<event>
 8    1  0.6019723E-011  0.9118800E+02  0.7816164E-02  0.1184000E+00
        -11   -1    0    0    0    0  0.00000000000E+00  0.00000000000E+00  0.45593999997E+02  0.45594000000E+02  0.51100000000E-03 0. -1.
         11   -1    0    0    0    0 -0.00000000000E+00 -0.00000000000E+00 -0.45593999997E+02  0.45594000000E+02  0.51100000000E-03 0.  1.
         23    2    1    2    0    0  0.00000000000E+00  0.00000000000E+00  0.00000000000E+00  0.91188000000E+02  0.91188000000E+02 0.  0.
    9900012    2    3    3    0    0  0.16352691085E+02 -0.21644953121E+02  0.33877844368E+02  0.47787276039E+02  0.20000022772E+02 0.  0.
        -12    1    3    3    0    0 -0.16352691085E+02  0.21644953121E+02 -0.33877844368E+02  0.43400723961E+02  0.00000000000E+00 0.  1.
         11    1    4    4    0    0  0.14405254000E+01 -0.17199451784E+02  0.14212623638E+02  0.22358330127E+02  0.51100000000E-03 0. -1.
        -11    1    4    4    0    0  0.92287918718E+01 -0.32549257827E+01  0.15310343534E+02  0.18170629066E+02  0.51100000000E-03 0.  1.
         12    1    4    4    0    0  0.56833738134E+01 -0.11905755540E+01  0.43548771956E+01  0.72583168463E+01  0.00000000000E+00 0. -1.
</event>
<event>
 8    1  0.6019723E-011  0.9118800E+02  0.7816164E-02  0.1184000E+00
        -11   -1    0    0    0    0  0.00000000000E+00  0.00000000000E+00  0.45593999997E+02  0.45594000000E+02  0.51100000000E-03 0. -1.
         11   -1    0    0    0    0 -0.00000000000E+00 -0.00000000000E+00 -0.45593999997E+02  0.45594000000E+02  0.51100000000E-03 0.  1.
         23    2    1    2    0    0  0.00000000000E+00  0.00000000000E+00  0.00000000000E+00  0.91188000000E+02  0.91188000000E+02 0.  0.
    9900012    2    3    3    0    0  0.26486838860E+02  0.22040965701E+02  0.26386850501E+02  0.47787277872E+02  0.20000031130E+02 0.  0.
        -12    1    3    3    0    0 -0.26486838860E+02 -0.22040965701E+02 -0.26386850501E+02  0.43400722128E+02  0.00000000000E+00 0.  1.
         11    1    4    4    0    0  0.65281960208E+01  0.50218059066E+01  0.66502298059E+01  0.10585907358E+02  0.51100000000E-03 0. -1.
        -11    1    4    4    0    0  0.14399525057E+02  0.82457132544E+01  0.20971154146E+02  0.26741866341E+02  0.51100000000E-03 0.  1.
        -12    1    4    4    0    0  0.55591177822E+01  0.87734465401E+01 -0.12345334504E+01  0.10459504173E+02  0.00000000000E+00 0.  1.
</event>
<event>
 8    1  0.6019723E-011  0.9118800E+02  0.7816164E-02  0.1184000E+00
        -11   -1    0    0    0    0  0.00000000000E+00  0.00000000000E+00  0.45593999997E+02  0.45594000000E+02  0.51100000000E-03 0. -1.
         11   -1    0    0    0    0 -0.00000000000E+00 -0.00000000000E+00 -0.45593999997E+02  0.45594000000E+02  0.51100000000E-03 0.  1.
         23    2    1    2    0    0 -0.88817841970E-15  0.13322676296E-14  0.00000000000E+00  0.91188000000E+02  0.91188000000E+02 0.  0.
    9900012    2    3    3    0    0 -0.57740330390E+01  0.21161635121E+01 -0.42962840208E+02  0.47787271386E+02  0.20000001556E+02 0.  0.
         12    1    3    3    0    0  0.57740330390E+01 -0.21161635121E+01  0.42962840208E+02  0.43400728614E+02  0.00000000000E+00 0. -1.
         11    1    4    4    0    0 -0.63361497997E+01 -0.12141691693E+01 -0.16177836211E+02  0.17416755892E+02  0.51100000000E-03 0. -1.
        -11    1    4    4    0    0 -0.25620110782E+01  0.78052125356E+01 -0.11440718380E+02  0.14084575989E+02  0.51100000000E-03 0.  1.
        -12    1    4    4    0    0  0.31241278389E+01 -0.44748798541E+01 -0.15344285617E+02  0.16285939505E+02  0.00000000000E+00 0.  1.
</event>
<event>
 8    1  0.6019723E-011  0.9118800E+02  0.7816164E-02  0.1184000E+00
        -11   -1    0    0    0    0  0.00000000000E+00  0.00000000000E+00  0.45593999997E+02  0.45594000000E+02  0.51100000000E-03 0.  1.
         11   -1    0    0    0    0 -0.00000000000E+00 -0.00000000000E+00 -0.45593999997E+02  0.45594000000E+02  0.51100000000E-03 0. -1.
         23    2    1    2    0    0 -0.71054273576E-14  0.17763568394E-14  0.00000000000E+00  0.91188000000E+02  0.91188000000E+02 0.  0.
    9900012    2    3    3    0    0  0.41284534439E+02 -0.11782295811E+02  0.63551570781E+01  0.47787270744E+02  0.19999998631E+02 0.  0.
         12    1    3    3    0    0 -0.41284534439E+02  0.11782295811E+02 -0.63551570781E+01  0.43400729256E+02  0.00000000000E+00 0. -1.
         11    1    4    4    0    0 -0.17952530423E+01  0.18077295975E-01  0.14681172479E+00  0.18013367864E+01  0.51100000000E-03 0. -1.
        -11    1    4    4    0    0  0.15831476692E+02 -0.81479655229E+01  0.16167330882E-01  0.17805203117E+02  0.51100000000E-03 0.  1.
         12    1    4    4    0    0  0.27248310790E+02 -0.36524075844E+01  0.61921780224E+01  0.28180730841E+02  0.00000000000E+00 0. -1.
</event>
<event>
 8    1  0.6019723E-011  0.9118800E+02  0.7816164E-02  0.1184000E+00
        -11   -1    0    0    0    0  0.00000000000E+00  0.00000000000E+00  0.45593999997E+02  0.45594000000E+02  0.51100000000E-03 0. -1.
         11   -1    0    0    0    0 -0.00000000000E+00 -0.00000000000E+00 -0.45593999997E+02  0.45594000000E+02  0.51100000000E-03 0.  1.
         23    2    1    2    0    0  0.17763568394E-14  0.00000000000E+00 -0.35527136788E-14  0.91188000000E+02  0.91188000000E+02 0.  0.
    9900012    2    3    3    0    0 -0.98785116717E+01  0.33489911769E+02  0.25777206525E+02  0.47787267755E+02  0.19999985003E+02 0.  0.
        -12    1    3    3    0    0  0.98785116717E+01 -0.33489911769E+02 -0.25777206525E+02  0.43400732245E+02  0.00000000000E+00 0.  1.
         11    1    4    4    0    0  0.93429932354E+00  0.22948455433E+02  0.17737151683E+02  0.29019150092E+02  0.51100000000E-03 0. -1.
        -11    1    4    4    0    0 -0.59876755894E+01  0.16314370608E+01  0.67705107298E+00  0.62427753655E+01  0.51100000000E-03 0.  1.
         12    1    4    4    0    0 -0.48251354058E+01  0.89100192753E+01  0.73630037688E+01  0.12525342298E+02  0.00000000000E+00 0. -1.
</event>
<event>
 8    1  0.6019723E-011  0.9118800E+02  0.7816164E-02  0.1184000E+00
        -11   -1    0    0    0    0  0.00000000000E+00  0.00000000000E+00  0.45593999997E+02  0.45594000000E+02  0.51100000000E-03 0. -1.
         11   -1    0    0    0    0 -0.00000000000E+00 -0.00000000000E+00 -0.45593999997E+02  0.45594000000E+02  0.51100000000E-03 0.  1.
         23    2    1    2    0    0  0.00000000000E+00  0.17763568394E-14 -0.71054273576E-14  0.91188000000E+02  0.91188000000E+02 0.  0.
    9900012    2    3    3    0    0  0.55526670015E+01  0.11458429178E+02 -0.41490909890E+02  0.47787270588E+02  0.19999997917E+02 0.  0.
         12    1    3    3    0    0 -0.55526670015E+01 -0.11458429178E+02  0.41490909890E+02  0.43400729412E+02  0.00000000000E+00 0. -1.
         11    1    4    4    0    0  0.79444753674E+01  0.26586212836E+01 -0.45810060273E+01  0.95482235246E+01  0.51100000000E-03 0. -1.
        -11    1    4    4    0    0 -0.34756357262E+01  0.59198056684E+01 -0.27219857084E+02  0.28072134988E+02  0.51100000000E-03 0.  1.
         12    1    4    4    0    0  0.10838273603E+01  0.28800022259E+01 -0.96900467785E+01  0.10166912075E+02  0.00000000000E+00 0. -1.
</event>
<event>
 8    1  0.6019723E-011  0.9118800E+02  0.7816164E-02  0.1184000E+00
        -11   -1    0    0    0    0  0.00000000000E+00  0.00000000000E+00  0.45593999997E+02  0.45594000000E+02  0.51100000000E-03 0. -1.
         11   -1    0    0    0    0 -0.00000000000E+00 -0.00000000000E+00 -0.45593999997E+02  0.45594000000E+02  0.51100000000E-03 0.  1.
         23    2    1    2    0    0 -0.35527136788E-14  0.00000000000E+00  0.35527136788E-14  0.91188000000E+02  0.91188000000E+02 0.  0.
    9900012    2    3    3    0    0  0.28081163344E+02  0.18592168160E+02 -0.27375224330E+02  0.47787270066E+02  0.19999995540E+02 0.  0.
         12    1    3    3    0    0 -0.28081163344E+02 -0.18592168160E+02  0.27375224330E+02  0.43400729934E+02  0.00000000000E+00 0. -1.
         11    1    4    4    0    0  0.14142035442E+01  0.94159106179E+01 -0.41037279742E+01  0.10368217203E+02  0.51100000000E-03 0. -1.
        -11    1    4    4    0    0  0.98112277792E+01  0.28179409095E+01 -0.38005618590E+01  0.10892440140E+02  0.51100000000E-03 0.  1.
         12    1    4    4    0    0  0.16855732021E+02  0.63583166325E+01 -0.19470934497E+02  0.26526612723E+02  0.00000000000E+00 0. -1.
</event>
<event>
 8    1  0.6019723E-011  0.9118800E+02  0.7816164E-02  0.1184000E+00
        -11   -1    0    0    0    0  0.00000000000E+00  0.00000000000E+00  0.45593999997E+02  0.45594000000E+02  0.51100000000E-03 0.  1.
         11   -1    0    0    0    0 -0.00000000000E+00 -0.00000000000E+00 -0.45593999997E+02  0.45594000000E+02  0.51100000000E-03 0. -1.
         23    2    1    2    0    0  0.00000000000E+00  0.88817841970E-15 -0.35527136788E-14  0.91188000000E+02  0.91188000000E+02 0.  0.
    9900012    2    3    3    0    0  0.38816442432E+02 -0.73861260522E+01 -0.17954175622E+02  0.47787268630E+02  0.19999988993E+02 0.  0.
         12    1    3    3    0    0 -0.38816442432E+02  0.73861260522E+01  0.17954175622E+02  0.43400731370E+02  0.00000000000E+00 0. -1.
         11    1    4    4    0    0  0.16125980633E+02  0.28271389743E+01 -0.14237068981E+02  0.21696407527E+02  0.51100000000E-03 0. -1.
        -11    1    4    4    0    0  0.21691619790E+02 -0.98765455969E+01 -0.17988259037E+01  0.23902056333E+02  0.51100000000E-03 0.  1.
        -12    1    4    4    0    0  0.99884200879E+00 -0.33671942958E+00 -0.19182807376E+01  0.21888047700E+01  0.00000000000E+00 0.  1.
</event>
<event>
 8    1  0.6019723E-011  0.9118800E+02  0.7816164E-02  0.1184000E+00
        -11   -1    0    0    0    0  0.00000000000E+00  0.00000000000E+00  0.45593999997E+02  0.45594000000E+02  0.51100000000E-03 0.  1.
         11   -1    0    0    0    0 -0.00000000000E+00 -0.00000000000E+00 -0.45593999997E+02  0.45594000000E+02  0.51100000000E-03 0. -1.
         23    2    1    2    0    0  0.00000000000E+00  0.00000000000E+00 -0.17763568394E-14  0.91188000000E+02  0.91188000000E+02 0.  0.
    9900012    2    3    3    0    0  0.20483749643E+02  0.38031051911E+02  0.42045416740E+01  0.47787273283E+02  0.20000010207E+02 0.  0.
        -12    1    3    3    0    0 -0.20483749643E+02 -0.38031051911E+02 -0.42045416740E+01  0.43400726717E+02  0.00000000000E+00 0.  1.
         11    1    4    4    0    0  0.33275727472E+01  0.13661809857E+02 -0.59565419704E+01  0.15270827793E+02  0.51100000000E-03 0. -1.
        -11    1    4    4    0    0  0.45821044750E+01  0.15561210442E+01  0.15996072782E+01  0.50966594775E+01  0.51100000000E-03 0.  1.
         12    1    4    4    0    0  0.12574072421E+02  0.22813121009E+02  0.85614763662E+01  0.27419786013E+02  0.00000000000E+00 0. -1.
</event>
<event>
 8    1  0.6534795E-011  0.9118800E+02  0.7816164E-02  0.1184000E+00
        -11   -1    0    0    0    0  0.00000000000E+00  0.00000000000E+00  0.45593999997E+02  0.45594000000E+02  0.51100000000E-03 0. -1.
         11   -1    0    0    0    0 -0.00000000000E+00 -0.00000000000E+00 -0.45593999997E+02  0.45594000000E+02  0.51100000000E-03 0.  1.
         23    2    1    2    0    0 -0.17763568394E-14  0.22204460493E-15  0.00000000000E+00  0.91188000000E+02  0.91188000000E+02 0.  0.
    9900012    2    3    3    0    0 -0.82215989507E+01  0.13766959644E+01 -0.42592589795E+02  0.47787323893E+02  0.20000240955E+02 0.  0.
         12    1    3    3    0    0  0.82215989507E+01 -0.13766959644E+01  0.42592589795E+02  0.43400676107E+02  0.00000000000E+00 0. -1.
         11    1    4    4    0    0 -0.11735628631E+01  0.53944329735E+00  0.17704329550E+01  0.21915022186E+01  0.51100000000E-03 0. -1.
        -11    1    4    4    0    0 -0.20390128404E+01 -0.33588091764E+01 -0.19224332746E+02  0.19621777244E+02  0.51100000000E-03 0.  1.
         12    1    4    4    0    0 -0.50090232471E+01  0.41960618435E+01 -0.25138690005E+02  0.25974044430E+02  0.00000000000E+00 0. -1.
</event>
<event>
 8    1  0.6019723E-011  0.9118800E+02  0.7816164E-02  0.1184000E+00
        -11   -1    0    0    0    0  0.00000000000E+00  0.00000000000E+00  0.45593999997E+02  0.45594000000E+02  0.51100000000E-03 0. -1.
         11   -1    0    0    0    0 -0.00000000000E+00 -0.00000000000E+00 -0.45593999997E+02  0.45594000000E+02  0.51100000000E-03 0.  1.
         23    2    1    2    0    0 -0.35527136788E-14 -0.35527136788E-14  0.00000000000E+00  0.91188000000E+02  0.91188000000E+02 0.  0.
    9900012    2    3    3    0    0 -0.23592122032E+02 -0.22929247577E+02  0.28306966438E+02  0.47787274599E+02  0.20000016208E+02 0.  0.
        -12    1    3    3    0    0  0.23592122032E+02  0.22929247577E+02 -0.28306966438E+02  0.43400725401E+02  0.00000000000E+00 0.  1.
         11    1    4    4    0    0 -0.89075432576E+01 -0.16696466637E+02  0.12148464053E+02  0.22487807900E+02  0.51100000000E-03 0. -1.
        -11    1    4    4    0    0 -0.17997752764E+01  0.30775004875E+01  0.31930329043E+01  0.47859857590E+01  0.51100000000E-03 0.  1.
         12    1    4    4    0    0 -0.12884803498E+02 -0.93102814277E+01  0.12965469480E+02  0.20513480940E+02  0.00000000000E+00 0. -1.
</event>
<event>
 8    1  0.6019723E-011  0.9118800E+02  0.7816164E-02  0.1184000E+00
        -11   -1    0    0    0    0  0.00000000000E+00  0.00000000000E+00  0.45593999997E+02  0.45594000000E+02  0.51100000000E-03 0. -1.
         11   -1    0    0    0    0 -0.00000000000E+00 -0.00000000000E+00 -0.45593999997E+02  0.45594000000E+02  0.51100000000E-03 0.  1.
         23    2    1    2    0    0 -0.44408920985E-15 -0.35527136788E-14  0.00000000000E+00  0.91188000000E+02  0.91188000000E+02 0.  0.
    9900012    2    3    3    0    0 -0.11385480481E+01 -0.23269629430E+02 -0.36617637346E+02  0.47787270625E+02  0.19999998087E+02 0.  0.
         12    1    3    3    0    0  0.11385480481E+01  0.23269629430E+02  0.36617637346E+02  0.43400729375E+02  0.00000000000E+00 0. -1.
         11    1    4    4    0    0  0.23049296195E+01 -0.71734495869E+01 -0.10760924051E+01  0.76111138904E+01  0.51100000000E-03 0. -1.
        -11    1    4    4    0    0 -0.35292049251E+00 -0.77532028062E+01 -0.76408324645E+01  0.10891236277E+02  0.51100000000E-03 0.  1.
         12    1    4    4    0    0 -0.30905571751E+01 -0.83429770370E+01 -0.27900712477E+02  0.29284920457E+02  0.00000000000E+00 0. -1.
</event>
<event>
 8    1  0.6019723E-011  0.9118800E+02  0.7816164E-02  0.1184000E+00
        -11   -1    0    0    0    0  0.00000000000E+00  0.00000000000E+00  0.45593999997E+02  0.45594000000E+02  0.51100000000E-03 0. -1.
         11   -1    0    0    0    0 -0.00000000000E+00 -0.00000000000E+00 -0.45593999997E+02  0.45594000000E+02  0.51100000000E-03 0.  1.
         23    2    1    2    0    0 -0.71054273576E-14 -0.35527136788E-14 -0.17763568394E-14  0.91188000000E+02  0.91188000000E+02 0.  0.
    9900012    2    3    3    0    0 -0.25217418733E+02 -0.31871173106E+02 -0.15229363177E+02  0.47787269758E+02  0.19999994137E+02 0.  0.
         12    1    3    3    0    0  0.25217418733E+02  0.31871173106E+02  0.15229363177E+02  0.43400730242E+02  0.00000000000E+00 0. -1.
         11    1    4    4    0    0 -0.18658795982E+00 -0.80491929499E+00  0.25266414891E+00  0.86403100145E+00  0.51100000000E-03 0. -1.
        -11    1    4    4    0    0 -0.75909096136E+00 -0.12709304904E+02  0.10386572054E+00  0.12732377569E+02  0.51100000000E-03 0.  1.
        -12    1    4    4    0    0 -0.24271739812E+02 -0.18356948908E+02 -0.15585893047E+02  0.34190861188E+02  0.00000000000E+00 0.  1.
</event>
<event>
 8    1  0.6019723E-011  0.9118800E+02  0.7816164E-02  0.1184000E+00
        -11   -1    0    0    0    0  0.00000000000E+00  0.00000000000E+00  0.45593999997E+02  0.45594000000E+02  0.51100000000E-03 0. -1.
         11   -1    0    0    0    0 -0.00000000000E+00 -0.00000000000E+00 -0.45593999997E+02  0.45594000000E+02  0.51100000000E-03 0.  1.
         23    2    1    2    0    0  0.35527136788E-14 -0.44408920985E-15  0.00000000000E+00  0.91188000000E+02  0.91188000000E+02 0.  0.
    9900012    2    3    3    0    0 -0.17263796591E+02  0.61678679209E+00 -0.39814613888E+02  0.47787279065E+02  0.20000036569E+02 0.  0.
         12    1    3    3    0    0  0.17263796591E+02 -0.61678679209E+00  0.39814613888E+02  0.43400720935E+02  0.00000000000E+00 0. -1.
         11    1    4    4    0    0 -0.14821729795E+02  0.47222270614E+01 -0.14556913415E+02  0.21304619944E+02  0.51100000000E-03 0. -1.
        -11    1    4    4    0    0 -0.32235636171E+01 -0.47517917869E+01 -0.24628878225E+02  0.25289375841E+02  0.51100000000E-03 0.  1.
        -12    1    4    4    0    0  0.78149682126E+00  0.64635151757E+00 -0.62882224811E+00  0.11932832797E+01  0.00000000000E+00 0.  1.
</event>
<event>
 8    1  0.6019723E-011  0.9118800E+02  0.7816164E-02  0.1184000E+00
        -11   -1    0    0    0    0  0.00000000000E+00  0.00000000000E+00  0.45593999997E+02  0.45594000000E+02  0.51100000000E-03 0. -1.
         11   -1    0    0    0    0 -0.00000000000E+00 -0.00000000000E+00 -0.45593999997E+02  0.45594000000E+02  0.51100000000E-03 0.  1.
         23    2    1    2    0    0  0.35527136788E-14  0.00000000000E+00 -0.35527136788E-14  0.91188000000E+02  0.91188000000E+02 0.  0.
    9900012    2    3    3    0    0 -0.31598806022E+02  0.12009095881E+02  0.27219849938E+02  0.47787272396E+02  0.20000006163E+02 0.  0.
        -12    1    3    3    0    0  0.31598806022E+02 -0.12009095881E+02 -0.27219849938E+02  0.43400727604E+02  0.00000000000E+00 0.  1.
         11    1    4    4    0    0 -0.63913434962E+01  0.38549003299E+01  0.58064635670E-01  0.74641074486E+01  0.51100000000E-03 0. -1.
        -11    1    4    4    0    0 -0.80186892796E+01  0.25947560686E+00  0.17122645657E+02  0.18909037519E+02  0.51100000000E-03 0.  1.
        -12    1    4    4    0    0 -0.17188773246E+02  0.78947199440E+01  0.10039139646E+02  0.21414127428E+02  0.00000000000E+00 0.  1.
</event>
<event>
 8    1  0.6019723E-011  0.9118800E+02  0.7816164E-02  0.1184000E+00
        -11   -1    0    0    0    0  0.00000000000E+00  0.00000000000E+00  0.45593999997E+02  0.45594000000E+02  0.51100000000E-03 0. -1.
         11   -1    0    0    0    0 -0.00000000000E+00 -0.00000000000E+00 -0.45593999997E+02  0.45594000000E+02  0.51100000000E-03 0.  1.
         23    2    1    2    0    0  0.17763568394E-14  0.00000000000E+00  0.00000000000E+00  0.91188000000E+02  0.91188000000E+02 0.  0.
    9900012    2    3    3    0    0 -0.13866672800E+02  0.31443158281E+02 -0.26507855423E+02  0.47787271707E+02  0.20000003022E+02 0.  0.
         12    1    3    3    0    0  0.13866672800E+02 -0.31443158281E+02  0.26507855423E+02  0.43400728293E+02  0.00000000000E+00 0. -1.
         11    1    4    4    0    0 -0.20774604479E+01  0.69665265333E+01 -0.96973127593E+00  0.73340788693E+01  0.51100000000E-03 0. -1.
        -11    1    4    4    0    0 -0.72466184555E+01  0.24477224276E+02 -0.16667054036E+02  0.30486696734E+02  0.51100000000E-03 0.  1.
        -12    1    4    4    0    0 -0.45425938962E+01 -0.59252832900E-03 -0.88710701117E+01  0.99664961037E+01  0.00000000000E+00 0.  1.
</event>
<event>
 8    1  0.6019723E-011  0.9118800E+02  0.7816164E-02  0.1184000E+00
        -11   -1    0    0    0    0  0.00000000000E+00  0.00000000000E+00  0.45593999997E+02  0.45594000000E+02  0.51100000000E-03 0. -1.
         11   -1    0    0    0    0 -0.00000000000E+00 -0.00000000000E+00 -0.45593999997E+02  0.45594000000E+02  0.51100000000E-03 0.  1.
         23    2    1    2    0    0 -0.17763568394E-14  0.35527136788E-14  0.00000000000E+00  0.91188000000E+02  0.91188000000E+02 0.  0.
    9900012    2    3    3    0    0  0.15393827754E+02 -0.20578581862E+02  0.34973923960E+02  0.47787270495E+02  0.19999997497E+02 0.  0.
        -12    1    3    3    0    0 -0.15393827754E+02  0.20578581862E+02 -0.34973923960E+02  0.43400729505E+02  0.00000000000E+00 0.  1.
         11    1    4    4    0    0 -0.27934121552E+01 -0.83419611941E+01  0.74330293925E+01  0.11517004569E+02  0.51100000000E-03 0. -1.
        -11    1    4    4    0    0  0.61148680443E+01 -0.16644591267E+01  0.31580940907E+01  0.70806492591E+01  0.51100000000E-03 0.  1.
         12    1    4    4    0    0  0.12072371865E+02 -0.10572161541E+02  0.24382800477E+02  0.29189616667E+02  0.00000000000E+00 0. -1.
</event>
<event>
 8    1  0.6019723E-011  0.9118800E+02  0.7816164E-02  0.1184000E+00
        -11   -1    0    0    0    0  0.00000000000E+00  0.00000000000E+00  0.45593999997E+02  0.45594000000E+02  0.51100000000E-03 0. -1.
         11   -1    0    0    0    0 -0.00000000000E+00 -0.00000000000E+00 -0.45593999997E+02  0.45594000000E+02  0.51100000000E-03 0.  1.
         23    2    1    2    0    0  0.44408920985E-15 -0.17763568394E-14  0.00000000000E+00  0.91188000000E+02  0.91188000000E+02 0.  0.
    9900012    2    3    3    0    0 -0.28286896317E+01  0.84036259695E+01 -0.42485305404E+02  0.47787267405E+02  0.19999983407E+02 0.  0.
         12    1    3    3    0    0  0.28286896317E+01 -0.84036259695E+01  0.42485305404E+02  0.43400732595E+02  0.00000000000E+00 0. -1.
         11    1    4    4    0    0  0.16457769760E+01 -0.28526977930E+01 -0.11760461000E+02  0.12212899318E+02  0.51100000000E-03 0. -1.
        -11    1    4    4    0    0 -0.47862732081E+01  0.13776389994E+02 -0.29126933897E+02  0.32574155568E+02  0.51100000000E-03 0.  1.
        -12    1    4    4    0    0  0.31180660042E+00 -0.25200662318E+01 -0.15979105071E+01  0.30002125187E+01  0.00000000000E+00 0.  1.
</event>
<event>
 8    1  0.6019723E-011  0.9118800E+02  0.7816164E-02  0.1184000E+00
        -11   -1    0    0    0    0  0.00000000000E+00  0.00000000000E+00  0.45593999997E+02  0.45594000000E+02  0.51100000000E-03 0. -1.
         11   -1    0    0    0    0 -0.00000000000E+00 -0.00000000000E+00 -0.45593999997E+02  0.45594000000E+02  0.51100000000E-03 0.  1.
         23    2    1    2    0    0  0.00000000000E+00 -0.88817841970E-15  0.00000000000E+00  0.91188000000E+02  0.91188000000E+02 0.  0.
    9900012    2    3    3    0    0 -0.10210873998E+02 -0.73388478336E+01 -0.41539168591E+02  0.47787272327E+02  0.20000005847E+02 0.  0.
         12    1    3    3    0    0  0.10210873998E+02  0.73388478336E+01  0.41539168591E+02  0.43400727673E+02  0.00000000000E+00 0. -1.
         11    1    4    4    0    0  0.12148662748E+01 -0.78572718080E+01 -0.75625780350E+01  0.10972930653E+02  0.51100000000E-03 0. -1.
        -11    1    4    4    0    0 -0.87874954247E+01  0.96766936424E+00 -0.32653174244E+02  0.33828778404E+02  0.51100000000E-03 0.  1.
        -12    1    4    4    0    0 -0.26382448480E+01 -0.44924538988E+00 -0.13234163119E+01  0.29855632690E+01  0.00000000000E+00 0.  1.
</event>
<event>
 8    1  0.6019723E-011  0.9118800E+02  0.7816164E-02  0.1184000E+00
        -11   -1    0    0    0    0  0.00000000000E+00  0.00000000000E+00  0.45593999997E+02  0.45594000000E+02  0.51100000000E-03 0.  1.
         11   -1    0    0    0    0 -0.00000000000E+00 -0.00000000000E+00 -0.45593999997E+02  0.45594000000E+02  0.51100000000E-03 0. -1.
         23    2    1    2    0    0  0.71054273576E-14  0.17763568394E-14  0.00000000000E+00  0.91188000000E+02  0.91188000000E+02 0.  0.
    9900012    2    3    3    0    0 -0.38540723222E+02 -0.10934135142E+02  0.16693730036E+02  0.47787270971E+02  0.19999999664E+02 0.  0.
        -12    1    3    3    0    0  0.38540723222E+02  0.10934135142E+02 -0.16693730036E+02  0.43400729029E+02  0.00000000000E+00 0.  1.
         11    1    4    4    0    0 -0.18858641804E+02 -0.37011195211E+01 -0.16101551726E+01  0.19285726752E+02  0.51100000000E-03 0. -1.
        -11    1    4    4    0    0 -0.10129796257E+02 -0.35083431768E+01  0.13330377491E+02  0.17106145340E+02  0.51100000000E-03 0.  1.
         12    1    4    4    0    0 -0.95522851601E+01 -0.37246724444E+01  0.49735077177E+01  0.11395398879E+02  0.00000000000E+00 0. -1.
</event>
<event>
 8    1  0.6019723E-011  0.9118800E+02  0.7816164E-02  0.1184000E+00
        -11   -1    0    0    0    0  0.00000000000E+00  0.00000000000E+00  0.45593999997E+02  0.45594000000E+02  0.51100000000E-03 0. -1.
         11   -1    0    0    0    0 -0.00000000000E+00 -0.00000000000E+00 -0.45593999997E+02  0.45594000000E+02  0.51100000000E-03 0.  1.
         23    2    1    2    0    0  0.00000000000E+00 -0.17763568394E-14 -0.71054273576E-14  0.91188000000E+02  0.91188000000E+02 0.  0.
    9900012    2    3    3    0    0  0.17818603729E+02  0.76923763277E+01 -0.38819431029E+02  0.47787268234E+02  0.19999987186E+02 0.  0.
         12    1    3    3    0    0 -0.17818603729E+02 -0.76923763277E+01  0.38819431029E+02  0.43400731766E+02  0.00000000000E+00 0. -1.
         11    1    4    4    0    0  0.78775812017E+01  0.84699668428E+01 -0.15306336358E+02  0.19185425637E+02  0.51100000000E-03 0. -1.
        -11    1    4    4    0    0  0.10534608061E+02 -0.48071592416E+01 -0.13463191540E+02  0.17757935513E+02  0.51100000000E-03 0.  1.
        -12    1    4    4    0    0 -0.59358553377E+00  0.40295687264E+01 -0.10049903132E+02  0.10843907085E+02  0.00000000000E+00 0.  1.
</event>
<event>
 8    1  0.6019723E-011  0.9118800E+02  0.7816164E-02  0.1184000E+00
        -11   -1    0    0    0    0  0.00000000000E+00  0.00000000000E+00  0.45593999997E+02  0.45594000000E+02  0.51100000000E-03 0. -1.
         11   -1    0    0    0    0 -0.00000000000E+00 -0.00000000000E+00 -0.45593999997E+02  0.45594000000E+02  0.51100000000E-03 0.  1.
         23    2    1    2    0    0  0.17763568394E-14  0.00000000000E+00  0.00000000000E+00  0.91188000000E+02  0.91188000000E+02 0.  0.
    9900012    2    3    3    0    0  0.74611795959E+01  0.23233103585E+02  0.35891147601E+02  0.47787299784E+02  0.20000131035E+02 0.  0.
        -12    1    3    3    0    0 -0.74611795959E+01 -0.23233103585E+02 -0.35891147601E+02  0.43400700216E+02  0.00000000000E+00 0.  1.
         11    1    4    4    0    0 -0.45157523614E+00 -0.27206553068E+01  0.22377666619E+01  0.35515469006E+01  0.51100000000E-03 0. -1.
        -11    1    4    4    0    0  0.17848422662E+01  0.12770287314E+02  0.93930239873E+01  0.15952893151E+02  0.51100000000E-03 0.  1.
         12    1    4    4    0    0  0.61279125659E+01  0.13183471578E+02  0.24260356951E+02  0.28282859733E+02  0.00000000000E+00 0. -1.
</event>
<event>
 8    1  0.6019723E-011  0.9118800E+02  0.7816164E-02  0.1184000E+00
        -11   -1    0    0    0    0  0.00000000000E+00  0.00000000000E+00  0.45593999997E+02  0.45594000000E+02  0.51100000000E-03 0. -1.
         11   -1    0    0    0    0 -0.00000000000E+00 -0.00000000000E+00 -0.45593999997E+02  0.45594000000E+02  0.51100000000E-03 0.  1.
         23    2    1    2    0    0  0.17763568394E-14  0.00000000000E+00 -0.17763568394E-14  0.91188000000E+02  0.91188000000E+02 0.  0.
    9900012    2    3    3    0    0  0.14926056193E+02 -0.38063202479E+02 -0.14561205916E+02  0.47787271272E+02  0.20000001038E+02 0.  0.
         12    1    3    3    0    0 -0.14926056193E+02  0.38063202479E+02  0.14561205916E+02  0.43400728728E+02  0.00000000000E+00 0. -1.
         11    1    4    4    0    0  0.15116641416E+02 -0.23232121403E+02 -0.11384288079E+02  0.29964083966E+02  0.51100000000E-03 0. -1.
        -11    1    4    4    0    0  0.31816558779E+01 -0.68094127664E+01 -0.48733212390E+01  0.89576948211E+01  0.51100000000E-03 0.  1.
         12    1    4    4    0    0 -0.33722411010E+01 -0.80216683089E+01  0.16964034018E+01  0.88654924851E+01  0.00000000000E+00 0. -1.
</event>
<event>
 8    1  0.6019723E-011  0.9118800E+02  0.7816164E-02  0.1184000E+00
        -11   -1    0    0    0    0  0.00000000000E+00  0.00000000000E+00  0.45593999997E+02  0.45594000000E+02  0.51100000000E-03 0. -1.
         11   -1    0    0    0    0 -0.00000000000E+00 -0.00000000000E+00 -0.45593999997E+02  0.45594000000E+02  0.51100000000E-03 0.  1.
         23    2    1    2    0    0  0.00000000000E+00  0.00000000000E+00  0.00000000000E+00  0.91188000000E+02  0.91188000000E+02 0.  0.
    9900012    2    3    3    0    0 -0.10443449448E+02  0.25842001569E+02  0.33267833581E+02  0.47787269215E+02  0.19999991660E+02 0.  0.
        -12    1    3    3    0    0  0.10443449448E+02 -0.25842001569E+02 -0.33267833581E+02  0.43400730785E+02  0.00000000000E+00 0.  1.
         11    1    4    4    0    0 -0.70166799256E+01  0.21970887291E+02  0.24016594534E+02  0.33297905321E+02  0.51100000000E-03 0. -1.
        -11    1    4    4    0    0  0.31312947080E+01 -0.63380641791E+00  0.25931275150E+01  0.41147330040E+01  0.51100000000E-03 0.  1.
        -12    1    4    4    0    0 -0.65580642300E+01  0.45049206958E+01  0.66581115324E+01  0.10374630890E+02  0.00000000000E+00 0.  1.
</event>
<event>
 8    1  0.6019723E-011  0.9118800E+02  0.7816164E-02  0.1184000E+00
        -11   -1    0    0    0    0  0.00000000000E+00  0.00000000000E+00  0.45593999997E+02  0.45594000000E+02  0.51100000000E-03 0.  1.
         11   -1    0    0    0    0 -0.00000000000E+00 -0.00000000000E+00 -0.45593999997E+02  0.45594000000E+02  0.51100000000E-03 0. -1.
         23    2    1    2    0    0  0.00000000000E+00  0.88817841970E-15  0.00000000000E+00  0.91188000000E+02  0.91188000000E+02 0.  0.
    9900012    2    3    3    0    0  0.42907702000E+02 -0.21717629153E+01  0.61510619698E+01  0.47787274103E+02  0.20000013944E+02 0.  0.
        -12    1    3    3    0    0 -0.42907702000E+02  0.21717629153E+01 -0.61510619698E+01  0.43400725897E+02  0.00000000000E+00 0.  1.
         11    1    4    4    0    0  0.25204289435E+02  0.51430844138E+01  0.31879434019E+01  0.25920465015E+02  0.51100000000E-03 0. -1.
        -11    1    4    4    0    0  0.23256361591E+01 -0.41808329477E+01  0.38602316919E+01  0.61473032020E+01  0.51100000000E-03 0.  1.
         12    1    4    4    0    0  0.15377776405E+02 -0.31340143814E+01 -0.89711312398E+00  0.15719505885E+02  0.00000000000E+00 0. -1.
</event>
<event>
 8    1  0.6019723E-011  0.9118800E+02  0.7816164E-02  0.1184000E+00
        -11   -1    0    0    0    0  0.00000000000E+00  0.00000000000E+00  0.45593999997E+02  0.45594000000E+02  0.51100000000E-03 0. -1.
         11   -1    0    0    0    0 -0.00000000000E+00 -0.00000000000E+00 -0.45593999997E+02  0.45594000000E+02  0.51100000000E-03 0.  1.
         23    2    1    2    0    0 -0.35527136788E-14  0.35527136788E-14  0.00000000000E+00  0.91188000000E+02  0.91188000000E+02 0.  0.
    9900012    2    3    3    0    0  0.31623432816E+02  0.18679877311E+02 -0.23122368614E+02  0.47787271323E+02  0.20000001268E+02 0.  0.
         12    1    3    3    0    0 -0.31623432816E+02 -0.18679877311E+02  0.23122368614E+02  0.43400728677E+02  0.00000000000E+00 0. -1.
         11    1    4    4    0    0  0.16455699254E+02  0.16767016923E+02 -0.17641939407E+02  0.29379600418E+02  0.51100000000E-03 0. -1.
        -11    1    4    4    0    0  0.84989593423E+01 -0.21370090637E+01  0.18509299466E+00  0.87654650372E+01  0.51100000000E-03 0.  1.
        -12    1    4    4    0    0  0.66687742202E+01  0.40498694518E+01 -0.56655222014E+01  0.96422058675E+01  0.00000000000E+00 0.  1.
</event>
<event>
 8    1  0.6019723E-011  0.9118800E+02  0.7816164E-02  0.1184000E+00
        -11   -1    0    0    0    0  0.00000000000E+00  0.00000000000E+00  0.45593999997E+02  0.45594000000E+02  0.51100000000E-03 0. -1.
         11   -1    0    0    0    0 -0.00000000000E+00 -0.00000000000E+00 -0.45593999997E+02  0.45594000000E+02  0.51100000000E-03 0.  1.
         23    2    1    2    0    0  0.00000000000E+00  0.35527136788E-14  0.71054273576E-14  0.91188000000E+02  0.91188000000E+02 0.  0.
    9900012    2    3    3    0    0  0.11494742880E+02  0.22753952126E+02  0.35124799905E+02  0.47787273974E+02  0.20000013357E+02 0.  0.
        -12    1    3    3    0    0 -0.11494742880E+02 -0.22753952126E+02 -0.35124799905E+02  0.43400726026E+02  0.00000000000E+00 0.  1.
         11    1    4    4    0    0 -0.14706830181E+01  0.43763983617E+01 -0.82650040826E+00  0.46902957632E+01  0.51100000000E-03 0. -1.
        -11    1    4    4    0    0  0.72772939334E+01  0.79111408682E+01  0.23623993189E+02  0.25954541245E+02  0.51100000000E-03 0.  1.
        -12    1    4    4    0    0  0.56881319648E+01  0.10466412896E+02  0.12327307124E+02  0.17142436965E+02  0.00000000000E+00 0.  1.
</event>
<event>
 8    1  0.6019723E-011  0.9118800E+02  0.7816164E-02  0.1184000E+00
        -11   -1    0    0    0    0  0.00000000000E+00  0.00000000000E+00  0.45593999997E+02  0.45594000000E+02  0.51100000000E-03 0. -1.
         11   -1    0    0    0    0 -0.00000000000E+00 -0.00000000000E+00 -0.45593999997E+02  0.45594000000E+02  0.51100000000E-03 0.  1.
         23    2    1    2    0    0  0.00000000000E+00 -0.35527136788E-14 -0.71054273576E-14  0.91188000000E+02  0.91188000000E+02 0.  0.
    9900012    2    3    3    0    0  0.40828671850E+00 -0.20704909795E+02 -0.38141367183E+02  0.47787264081E+02  0.19999968253E+02 0.  0.
         12    1    3    3    0    0 -0.40828671850E+00  0.20704909795E+02  0.38141367183E+02  0.43400735919E+02  0.00000000000E+00 0. -1.
         11    1    4    4    0    0 -0.27177484789E+00  0.87177294493E+00 -0.89417962775E+01  0.89883018732E+01  0.51100000000E-03 0.  1.
        -11    1    4    4    0    0  0.88584135413E+00 -0.12185802760E+02 -0.56812797543E+01  0.13474251138E+02  0.51100000000E-03 0. -1.
        -12    1    4    4    0    0 -0.20577978774E+00 -0.93908799800E+01 -0.23518291151E+02  0.25324711070E+02  0.00000000000E+00 0.  1.
</event>
<event>
 8    1  0.6019723E-011  0.9118800E+02  0.7816164E-02  0.1184000E+00
        -11   -1    0    0    0    0  0.00000000000E+00  0.00000000000E+00  0.45593999997E+02  0.45594000000E+02  0.51100000000E-03 0. -1.
         11   -1    0    0    0    0 -0.00000000000E+00 -0.00000000000E+00 -0.45593999997E+02  0.45594000000E+02  0.51100000000E-03 0.  1.
         23    2    1    2    0    0 -0.35527136788E-14  0.35527136788E-14  0.00000000000E+00  0.91188000000E+02  0.91188000000E+02 0.  0.
    9900012    2    3    3    0    0 -0.31005477007E+02  0.21755365009E+02  0.21189348520E+02  0.47787262658E+02  0.19999961763E+02 0.  0.
        -12    1    3    3    0    0  0.31005477007E+02 -0.21755365009E+02 -0.21189348520E+02  0.43400737342E+02  0.00000000000E+00 0.  1.
         11    1    4    4    0    0 -0.23103795034E+02  0.20792861567E+02  0.16317938480E+02  0.35105605729E+02  0.51100000000E-03 0. -1.
        -11    1    4    4    0    0 -0.42257858391E+01 -0.26758096336E+01 -0.73335059958E+00  0.50551979701E+01  0.51100000000E-03 0.  1.
        -12    1    4    4    0    0 -0.36758961343E+01  0.36383130758E+01  0.56047606396E+01  0.76264589591E+01  0.00000000000E+00 0.  1.
</event>
<event>
 8    1  0.6777615E-011  0.9118800E+02  0.7816164E-02  0.1184000E+00
        -11   -1    0    0    0    0  0.00000000000E+00  0.00000000000E+00  0.45593999997E+02  0.45594000000E+02  0.51100000000E-03 0. -1.
         11   -1    0    0    0    0 -0.00000000000E+00 -0.00000000000E+00 -0.45593999997E+02  0.45594000000E+02  0.51100000000E-03 0.  1.
         23    2    1    2    0    0  0.35527136788E-14  0.00000000000E+00  0.71054273576E-14  0.91188000000E+02  0.91188000000E+02 0.  0.
    9900012    2    3    3    0    0 -0.23253428709E+02  0.17071954685E+02 -0.32426065299E+02  0.47787270810E+02  0.19999998930E+02 0.  0.
         12    1    3    3    0    0  0.23253428709E+02 -0.17071954685E+02  0.32426065299E+02  0.43400729190E+02  0.00000000000E+00 0. -1.
         11    1    4    4    0    0 -0.57901266278E+01  0.17891866846E+01 -0.17373220789E+02  0.18399879244E+02  0.51100000000E-03 0. -1.
        -11    1    4    4    0    0 -0.16669249072E+02  0.99432084302E+01 -0.13883706760E+02  0.23863959692E+02  0.51100000000E-03 0.  1.
         12    1    4    4    0    0 -0.79405300870E+00  0.53395595703E+01 -0.11691377499E+01  0.55234318737E+01  0.00000000000E+00 0. -1.
</event>
<event>
 8    1  0.6885681E-011  0.9118800E+02  0.7816164E-02  0.1184000E+00
        -11   -1    0    0    0    0  0.00000000000E+00  0.00000000000E+00  0.45593999997E+02  0.45594000000E+02  0.51100000000E-03 0. -1.
         11   -1    0    0    0    0 -0.00000000000E+00 -0.00000000000E+00 -0.45593999997E+02  0.45594000000E+02  0.51100000000E-03 0.  1.
         23    2    1    2    0    0  0.00000000000E+00  0.00000000000E+00  0.00000000000E+00  0.91188000000E+02  0.91188000000E+02 0.  0.
    9900012    2    3    3    0    0 -0.17162100686E+02  0.56685722808E+01 -0.39458239844E+02  0.47787273011E+02  0.20000008965E+02 0.  0.
         12    1    3    3    0    0  0.17162100686E+02 -0.56685722808E+01  0.39458239844E+02  0.43400726989E+02  0.00000000000E+00 0. -1.
         11    1    4    4    0    0 -0.11747206371E+02  0.40629798305E+01 -0.32463668912E+02  0.34761968616E+02  0.51100000000E-03 0. -1.
        -11    1    4    4    0    0 -0.22415840707E+01  0.13902665964E+01 -0.89237081172E+01  0.93053805498E+01  0.51100000000E-03 0.  1.
         12    1    4    4    0    0 -0.31733102440E+01  0.21532585390E+00  0.19291371852E+01  0.37199238443E+01  0.00000000000E+00 0. -1.
</event>
<event>
 8    1  0.6019723E-011  0.9118800E+02  0.7816164E-02  0.1184000E+00
        -11   -1    0    0    0    0  0.00000000000E+00  0.00000000000E+00  0.45593999997E+02  0.45594000000E+02  0.51100000000E-03 0. -1.
         11   -1    0    0    0    0 -0.00000000000E+00 -0.00000000000E+00 -0.45593999997E+02  0.45594000000E+02  0.51100000000E-03 0.  1.
         23    2    1    2    0    0  0.00000000000E+00  0.00000000000E+00  0.00000000000E+00  0.91188000000E+02  0.91188000000E+02 0.  0.
    9900012    2    3    3    0    0  0.11499394271E+02  0.63801497745E+01  0.41360396407E+02  0.47787253800E+02  0.19999921375E+02 0.  0.
        -12    1    3    3    0    0 -0.11499394271E+02 -0.63801497745E+01 -0.41360396407E+02  0.43400746200E+02  0.00000000000E+00 0.  1.
         11    1    4    4    0    0 -0.31561362809E+01 -0.21070920855E+01  0.82460913056E+01  0.90773925420E+01  0.51100000000E-03 0.  1.
        -11    1    4    4    0    0 -0.10603782828E+01  0.33317049194E+01  0.53027163673E+01  0.63516502506E+01  0.51100000000E-03 0. -1.
         12    1    4    4    0    0  0.15715908835E+02  0.51555369406E+01  0.27811588735E+02  0.32358211007E+02  0.00000000000E+00 0. -1.
</event>
<event>
 8    1  0.6019723E-011  0.9118800E+02  0.7816164E-02  0.1184000E+00
        -11   -1    0    0    0    0  0.00000000000E+00  0.00000000000E+00  0.45593999997E+02  0.45594000000E+02  0.51100000000E-03 0. -1.
         11   -1    0    0    0    0 -0.00000000000E+00 -0.00000000000E+00 -0.45593999997E+02  0.45594000000E+02  0.51100000000E-03 0.  1.
         23    2    1    2    0    0 -0.88817841970E-15  0.00000000000E+00  0.00000000000E+00  0.91188000000E+02  0.91188000000E+02 0.  0.
    9900012    2    3    3    0    0 -0.35081432447E+01 -0.35989963296E+02 -0.24000824692E+02  0.47787261378E+02  0.19999955925E+02 0.  0.
         12    1    3    3    0    0  0.35081432447E+01  0.35989963296E+02  0.24000824692E+02  0.43400738622E+02  0.00000000000E+00 0. -1.
         11    1    4    4    0    0 -0.69744711650E+01 -0.15667190239E+02 -0.16375572119E+02  0.23712095237E+02  0.51100000000E-03 0. -1.
        -11    1    4    4    0    0  0.68085365252E+01 -0.12238813188E+02 -0.56845823750E+01  0.15114866685E+02  0.51100000000E-03 0.  1.
        -12    1    4    4    0    0 -0.33422086049E+01 -0.80839598687E+01 -0.19406701972E+01  0.89602994555E+01  0.00000000000E+00 0.  1.
</event>
<event>
 8    1  0.6019723E-011  0.9118800E+02  0.7816164E-02  0.1184000E+00
        -11   -1    0    0    0    0  0.00000000000E+00  0.00000000000E+00  0.45593999997E+02  0.45594000000E+02  0.51100000000E-03 0. -1.
         11   -1    0    0    0    0 -0.00000000000E+00 -0.00000000000E+00 -0.45593999997E+02  0.45594000000E+02  0.51100000000E-03 0.  1.
         23    2    1    2    0    0  0.35527136788E-14  0.00000000000E+00  0.71054273576E-14  0.91188000000E+02  0.91188000000E+02 0.  0.
    9900012    2    3    3    0    0 -0.21543456333E+02  0.17125493022E+02 -0.33559202641E+02  0.47787273002E+02  0.20000008927E+02 0.  0.
         12    1    3    3    0    0  0.21543456333E+02 -0.17125493022E+02  0.33559202641E+02  0.43400726998E+02  0.00000000000E+00 0. -1.
         11    1    4    4    0    0  0.58984050335E+00  0.85548169674E+00  0.16594463335E+01  0.19579384944E+01  0.51100000000E-03 0. -1.
        -11    1    4    4    0    0 -0.20776414334E+02  0.11275643968E+02 -0.31812019397E+02  0.39633371265E+02  0.51100000000E-03 0.  1.
         12    1    4    4    0    0 -0.13568825023E+01  0.49943673573E+01 -0.34066295775E+01  0.61959632425E+01  0.00000000000E+00 0. -1.
</event>
<event>
 8    1  0.6019723E-011  0.9118800E+02  0.7816164E-02  0.1184000E+00
        -11   -1    0    0    0    0  0.00000000000E+00  0.00000000000E+00  0.45593999997E+02  0.45594000000E+02  0.51100000000E-03 0. -1.
         11   -1    0    0    0    0 -0.00000000000E+00 -0.00000000000E+00 -0.45593999997E+02  0.45594000000E+02  0.51100000000E-03 0.  1.
         23    2    1    2    0    0  0.35527136788E-14 -0.33306690739E-15  0.00000000000E+00  0.91188000000E+02  0.91188000000E+02 0.  0.
    9900012    2    3    3    0    0 -0.25687681718E+02 -0.46182539115E+00 -0.34979291125E+02  0.47787296292E+02  0.20000115112E+02 0.  0.
         12    1    3    3    0    0  0.25687681718E+02  0.46182539115E+00  0.34979291125E+02  0.43400703708E+02  0.00000000000E+00 0. -1.
         11    1    4    4    0    0 -0.59993404290E+01  0.19220987826E+01 -0.16938270789E+02  0.18071844590E+02  0.51100000000E-03 0. -1.
        -11    1    4    4    0    0 -0.70478267065E+01 -0.25138354681E+01  0.24336033345E+00  0.74866851516E+01  0.51100000000E-03 0.  1.
        -12    1    4    4    0    0 -0.12640514582E+02  0.12991129435E+00 -0.18284380670E+02  0.22228766550E+02  0.00000000000E+00 0.  1.
</event>
<event>
 8    1  0.6019723E-011  0.9118800E+02  0.7816164E-02  0.1184000E+00
        -11   -1    0    0    0    0  0.00000000000E+00  0.00000000000E+00  0.45593999997E+02  0.45594000000E+02  0.51100000000E-03 0. -1.
         11   -1    0    0    0    0 -0.00000000000E+00 -0.00000000000E+00 -0.45593999997E+02  0.45594000000E+02  0.51100000000E-03 0.  1.
         23    2    1    2    0    0  0.35527136788E-14 -0.35527136788E-14  0.00000000000E+00  0.91188000000E+02  0.91188000000E+02 0.  0.
    9900012    2    3    3    0    0  0.23611888687E+02 -0.16915418661E+02 -0.32248567443E+02  0.47787276757E+02  0.20000026048E+02 0.  0.
         12    1    3    3    0    0 -0.23611888687E+02  0.16915418661E+02  0.32248567443E+02  0.43400723243E+02  0.00000000000E+00 0. -1.
         11    1    4    4    0    0  0.68569495340E-01 -0.21342221720E+01 -0.11251124789E+00  0.21382855509E+01  0.51100000000E-03 0. -1.
        -11    1    4    4    0    0  0.79996864174E+01  0.14254281032E+01 -0.25707883950E+01  0.85226628050E+01  0.51100000000E-03 0.  1.
        -12    1    4    4    0    0  0.15543632775E+02 -0.16206624592E+02 -0.29565267800E+02  0.37126328402E+02  0.00000000000E+00 0.  1.
</event>
<event>
 8    1  0.6019723E-011  0.9118800E+02  0.7816164E-02  0.1184000E+00
        -11   -1    0    0    0    0  0.00000000000E+00  0.00000000000E+00  0.45593999997E+02  0.45594000000E+02  0.51100000000E-03 0. -1.
         11   -1    0    0    0    0 -0.00000000000E+00 -0.00000000000E+00 -0.45593999997E+02  0.45594000000E+02  0.51100000000E-03 0.  1.
         23    2    1    2    0    0  0.44408920985E-15  0.00000000000E+00  0.00000000000E+00  0.91188000000E+02  0.91188000000E+02 0.  0.
    9900012    2    3    3    0    0  0.27285244372E+01 -0.39828704330E+02  0.17025071360E+02  0.47787267414E+02  0.19999983449E+02 0.  0.
        -12    1    3    3    0    0 -0.27285244372E+01  0.39828704330E+02 -0.17025071360E+02  0.43400732586E+02  0.00000000000E+00 0.  1.
         11    1    4    4    0    0 -0.89849974199E+00 -0.99803369760E+01 -0.20299195257E+01  0.10224235985E+02  0.51100000000E-03 0. -1.
        -11    1    4    4    0    0  0.80148377962E+01 -0.17364544972E+02  0.10725076524E+02  0.21926976848E+02  0.51100000000E-03 0.  1.
        -12    1    4    4    0    0 -0.43878136170E+01 -0.12483822381E+02  0.83299143614E+01  0.15636054581E+02  0.00000000000E+00 0.  1.
</event>
<event>
 8    1  0.6019723E-011  0.9118800E+02  0.7816164E-02  0.1184000E+00
        -11   -1    0    0    0    0  0.00000000000E+00  0.00000000000E+00  0.45593999997E+02  0.45594000000E+02  0.51100000000E-03 0.  1.
         11   -1    0    0    0    0 -0.00000000000E+00 -0.00000000000E+00 -0.45593999997E+02  0.45594000000E+02  0.51100000000E-03 0. -1.
         23    2    1    2    0    0  0.00000000000E+00  0.71054273576E-14  0.00000000000E+00  0.91188000000E+02  0.91188000000E+02 0.  0.
    9900012    2    3    3    0    0 -0.47252328953E+01 -0.42955042364E+02  0.40199417708E+01  0.47787269335E+02  0.19999992205E+02 0.  0.
        -12    1    3    3    0    0  0.47252328953E+01  0.42955042364E+02 -0.40199417708E+01  0.43400730665E+02  0.00000000000E+00 0.  1.
         11    1    4    4    0    0 -0.32572078347E+01 -0.35496348481E+02 -0.96797922866E+00  0.35658619468E+02  0.51100000000E-03 0. -1.
        -11    1    4    4    0    0  0.19315856470E+01  0.68984310188E+00  0.18386257928E+01  0.27545329339E+01  0.51100000000E-03 0.  1.
        -12    1    4    4    0    0 -0.33996107076E+01 -0.81485369854E+01  0.31492952067E+01  0.93741169326E+01  0.00000000000E+00 0.  1.
</event>
<event>
 8    1  0.6019723E-011  0.9118800E+02  0.7816164E-02  0.1184000E+00
        -11   -1    0    0    0    0  0.00000000000E+00  0.00000000000E+00  0.45593999997E+02  0.45594000000E+02  0.51100000000E-03 0.  1.
         11   -1    0    0    0    0 -0.00000000000E+00 -0.00000000000E+00 -0.45593999997E+02  0.45594000000E+02  0.51100000000E-03 0. -1.
         23    2    1    2    0    0  0.00000000000E+00  0.44408920985E-15  0.00000000000E+00  0.91188000000E+02  0.91188000000E+02 0.  0.
    9900012    2    3    3    0    0 -0.39357240688E+02 -0.18925650251E+01  0.18194753835E+02  0.47787271157E+02  0.20000000515E+02 0.  0.
         12    1    3    3    0    0  0.39357240688E+02  0.18925650251E+01 -0.18194753835E+02  0.43400728843E+02  0.00000000000E+00 0. -1.
         11    1    4    4    0    0 -0.17794142998E+01  0.28166261270E+01 -0.64942368665E+00  0.33943260561E+01  0.51100000000E-03 0. -1.
        -11    1    4    4    0    0 -0.25261940179E+02 -0.94637057560E+01  0.13251148457E+02  0.30055287121E+02  0.51100000000E-03 0.  1.
        -12    1    4    4    0    0 -0.12315886209E+02  0.47545146040E+01  0.55930290644E+01  0.14337657980E+02  0.00000000000E+00 0.  1.
</event>
<event>
 8    1  0.6019723E-011  0.9118800E+02  0.7816164E-02  0.1184000E+00
        -11   -1    0    0    0    0  0.00000000000E+00  0.00000000000E+00  0.45593999997E+02  0.45594000000E+02  0.51100000000E-03 0. -1.
         11   -1    0    0    0    0 -0.00000000000E+00 -0.00000000000E+00 -0.45593999997E+02  0.45594000000E+02  0.51100000000E-03 0.  1.
         23    2    1    2    0    0 -0.35527136788E-14  0.00000000000E+00  0.00000000000E+00  0.91188000000E+02  0.91188000000E+02 0.  0.
    9900012    2    3    3    0    0 -0.30382292988E+02  0.25766762637E+02  0.17222433772E+02  0.47787285616E+02  0.20000066439E+02 0.  0.
        -12    1    3    3    0    0  0.30382292988E+02 -0.25766762637E+02 -0.17222433772E+02  0.43400714384E+02  0.00000000000E+00 0.  1.
         11    1    4    4    0    0 -0.13780236960E+02  0.69244274579E+01  0.10635865606E+01  0.15458778830E+02  0.51100000000E-03 0. -1.
        -11    1    4    4    0    0 -0.13075258485E+02  0.16477136140E+02  0.18014386446E+02  0.27694340922E+02  0.51100000000E-03 0.  1.
        -12    1    4    4    0    0 -0.35267975432E+01  0.23651990394E+01 -0.18555392348E+01  0.46341658644E+01  0.00000000000E+00 0.  1.
</event>
<event>
 8    1  0.6019723E-011  0.9118800E+02  0.7816164E-02  0.1184000E+00
        -11   -1    0    0    0    0  0.00000000000E+00  0.00000000000E+00  0.45593999997E+02  0.45594000000E+02  0.51100000000E-03 0. -1.
         11   -1    0    0    0    0 -0.00000000000E+00 -0.00000000000E+00 -0.45593999997E+02  0.45594000000E+02  0.51100000000E-03 0.  1.
         23    2    1    2    0    0  0.00000000000E+00  0.00000000000E+00  0.71054273576E-14  0.91188000000E+02  0.91188000000E+02 0.  0.
    9900012    2    3    3    0    0  0.26547312449E+02 -0.99118428297E+01  0.32872740436E+02  0.47787291592E+02  0.20000093682E+02 0.  0.
        -12    1    3    3    0    0 -0.26547312449E+02  0.99118428297E+01 -0.32872740436E+02  0.43400708408E+02  0.00000000000E+00 0.  1.
         11    1    4    4    0    0  0.45577570584E+01  0.38316324062E+01  0.13279057322E+02  0.14552935096E+02  0.51100000000E-03 0.  1.
        -11    1    4    4    0    0  0.15572904898E+02 -0.12874155844E+02  0.16350674680E+02  0.25992380007E+02  0.51100000000E-03 0. -1.
        -12    1    4    4    0    0  0.64166504930E+01 -0.86931939172E+00  0.32430084344E+01  0.72419764885E+01  0.00000000000E+00 0.  1.
</event>
<event>
 8    1  0.6019723E-011  0.9118800E+02  0.7816164E-02  0.1184000E+00
        -11   -1    0    0    0    0  0.00000000000E+00  0.00000000000E+00  0.45593999997E+02  0.45594000000E+02  0.51100000000E-03 0. -1.
         11   -1    0    0    0    0 -0.00000000000E+00 -0.00000000000E+00 -0.45593999997E+02  0.45594000000E+02  0.51100000000E-03 0.  1.
         23    2    1    2    0    0  0.88817841970E-15  0.35527136788E-14  0.00000000000E+00  0.91188000000E+02  0.91188000000E+02 0.  0.
    9900012    2    3    3    0    0  0.46927927312E+01 -0.30596626564E+02 -0.30421154716E+02  0.47787279788E+02  0.20000039864E+02 0.  0.
         12    1    3    3    0    0 -0.46927927312E+01  0.30596626564E+02  0.30421154716E+02  0.43400720212E+02  0.00000000000E+00 0. -1.
         11    1    4    4    0    0 -0.49413034817E+01 -0.13886888702E+02 -0.56761324763E+01  0.15794956096E+02  0.51100000000E-03 0. -1.
        -11    1    4    4    0    0  0.96847588339E+01 -0.11670031693E+02 -0.17355788463E+02  0.23047941054E+02  0.51100000000E-03 0.  1.
        -12    1    4    4    0    0 -0.50662620952E-01 -0.50397061691E+01 -0.73892337769E+01  0.89443826384E+01  0.00000000000E+00 0.  1.
</event>
<event>
 8    1  0.6019723E-011  0.9118800E+02  0.7816164E-02  0.1184000E+00
        -11   -1    0    0    0    0  0.00000000000E+00  0.00000000000E+00  0.45593999997E+02  0.45594000000E+02  0.51100000000E-03 0. -1.
         11   -1    0    0    0    0 -0.00000000000E+00 -0.00000000000E+00 -0.45593999997E+02  0.45594000000E+02  0.51100000000E-03 0.  1.
         23    2    1    2    0    0 -0.44408920985E-15  0.44408920985E-15  0.71054273576E-14  0.91188000000E+02  0.91188000000E+02 0.  0.
    9900012    2    3    3    0    0  0.30402332527E+01  0.31405680879E+01  0.43180058677E+02  0.47787266671E+02  0.19999980062E+02 0.  0.
        -12    1    3    3    0    0 -0.30402332527E+01 -0.31405680879E+01 -0.43180058677E+02  0.43400733329E+02  0.00000000000E+00 0.  1.
         11    1    4    4    0    0  0.70070722850E+01  0.52611559810E+01  0.13204852552E+02  0.15847616712E+02  0.51100000000E-03 0. -1.
        -11    1    4    4    0    0  0.55012075477E+00  0.26302245227E+01  0.24226976397E+01  0.36180351020E+01  0.51100000000E-03 0.  1.
         12    1    4    4    0    0 -0.45169597871E+01 -0.47508124159E+01  0.27552508485E+02  0.28321614858E+02  0.00000000000E+00 0. -1.
</event>
<event>
 8    1  0.6019723E-011  0.9118800E+02  0.7816164E-02  0.1184000E+00
        -11   -1    0    0    0    0  0.00000000000E+00  0.00000000000E+00  0.45593999997E+02  0.45594000000E+02  0.51100000000E-03 0. -1.
         11   -1    0    0    0    0 -0.00000000000E+00 -0.00000000000E+00 -0.45593999997E+02  0.45594000000E+02  0.51100000000E-03 0.  1.
         23    2    1    2    0    0  0.17763568394E-14  0.17347234760E-16  0.00000000000E+00  0.91188000000E+02  0.91188000000E+02 0.  0.
    9900012    2    3    3    0    0 -0.15462977849E+02  0.22985397894E-01 -0.40552671860E+02  0.47787269508E+02  0.19999992994E+02 0.  0.
         12    1    3    3    0    0  0.15462977849E+02 -0.22985397894E-01  0.40552671860E+02  0.43400730492E+02  0.00000000000E+00 0. -1.
         11    1    4    4    0    0  0.53545443680E+00  0.23476985103E+00 -0.11627271830E+02  0.11641961982E+02  0.51100000000E-03 0. -1.
        -11    1    4    4    0    0 -0.16602046502E+02  0.26863242667E+01 -0.17215214015E+02  0.24066738042E+02  0.51100000000E-03 0.  1.
        -12    1    4    4    0    0  0.60361421623E+00 -0.28981087199E+01 -0.11710186015E+02  0.12078569484E+02  0.00000000000E+00 0.  1.
</event>
<event>
 8    1  0.6019723E-011  0.9118800E+02  0.7816164E-02  0.1184000E+00
        -11   -1    0    0    0    0  0.00000000000E+00  0.00000000000E+00  0.45593999997E+02  0.45594000000E+02  0.51100000000E-03 0. -1.
         11   -1    0    0    0    0 -0.00000000000E+00 -0.00000000000E+00 -0.45593999997E+02  0.45594000000E+02  0.51100000000E-03 0.  1.
         23    2    1    2    0    0  0.00000000000E+00  0.44408920985E-15  0.00000000000E+00  0.91188000000E+02  0.91188000000E+02 0.  0.
    9900012    2    3    3    0    0 -0.35367139810E+02  0.30574915147E+01 -0.24968793698E+02  0.47787268538E+02  0.19999988573E+02 0.  0.
         12    1    3    3    0    0  0.35367139810E+02 -0.30574915147E+01  0.24968793698E+02  0.43400731462E+02  0.00000000000E+00 0. -1.
         11    1    4    4    0    0 -0.22938607817E+02 -0.59409985713E+01 -0.88317192176E+01  0.25287832197E+02  0.51100000000E-03 0.  1.
        -11    1    4    4    0    0 -0.96016785454E+01  0.79294803959E+01 -0.14302683295E+02  0.18964061800E+02  0.51100000000E-03 0. -1.
         12    1    4    4    0    0 -0.28268534472E+01  0.10690096901E+01 -0.18343911848E+01  0.35353745415E+01  0.00000000000E+00 0. -1.
</event>
<event>
 8    1  0.6019723E-011  0.9118800E+02  0.7816164E-02  0.1184000E+00
        -11   -1    0    0    0    0  0.00000000000E+00  0.00000000000E+00  0.45593999997E+02  0.45594000000E+02  0.51100000000E-03 0. -1.
         11   -1    0    0    0    0 -0.00000000000E+00 -0.00000000000E+00 -0.45593999997E+02  0.45594000000E+02  0.51100000000E-03 0.  1.
         23    2    1    2    0    0  0.00000000000E+00  0.00000000000E+00  0.00000000000E+00  0.91188000000E+02  0.91188000000E+02 0.  0.
    9900012    2    3    3    0    0  0.16119120763E+02 -0.37274353398E+02 -0.15310759260E+02  0.47787276221E+02  0.20000023602E+02 0.  0.
         12    1    3    3    0    0 -0.16119120763E+02  0.37274353398E+02  0.15310759260E+02  0.43400723779E+02  0.00000000000E+00 0. -1.
         11    1    4    4    0    0  0.82920089364E+01 -0.11600248693E+02 -0.14561625172E+02  0.20380483553E+02  0.51100000000E-03 0. -1.
        -11    1    4    4    0    0  0.79226987793E+01 -0.18174467556E+02 -0.14172570409E+01  0.19876846950E+02  0.51100000000E-03 0.  1.
         12    1    4    4    0    0 -0.95586952679E-01 -0.74996371487E+01  0.66812295306E+00  0.75299457175E+01  0.00000000000E+00 0. -1.
</event>
<event>
 8    1  0.6019723E-011  0.9118800E+02  0.7816164E-02  0.1184000E+00
        -11   -1    0    0    0    0  0.00000000000E+00  0.00000000000E+00  0.45593999997E+02  0.45594000000E+02  0.51100000000E-03 0. -1.
         11   -1    0    0    0    0 -0.00000000000E+00 -0.00000000000E+00 -0.45593999997E+02  0.45594000000E+02  0.51100000000E-03 0.  1.
         23    2    1    2    0    0  0.00000000000E+00  0.35527136788E-14  0.35527136788E-14  0.91188000000E+02  0.91188000000E+02 0.  0.
    9900012    2    3    3    0    0 -0.22410487137E+02  0.27501520550E+02  0.25001202720E+02  0.47787266092E+02  0.19999977419E+02 0.  0.
        -12    1    3    3    0    0  0.22410487137E+02 -0.27501520550E+02 -0.25001202720E+02  0.43400733908E+02  0.00000000000E+00 0.  1.
         11    1    4    4    0    0 -0.38943809809E+01 -0.11365570067E+01  0.14291218859E+01  0.43012038641E+01  0.51100000000E-03 0. -1.
        -11    1    4    4    0    0 -0.29455868208E+01  0.51699840532E+01  0.11287462090E+02  0.12759781249E+02  0.51100000000E-03 0.  1.
        -12    1    4    4    0    0 -0.15570519335E+02  0.23468093504E+02  0.12284618745E+02  0.30726280979E+02  0.00000000000E+00 0.  1.
</event>
<event>
 8    1  0.6019723E-011  0.9118800E+02  0.7816164E-02  0.1184000E+00
        -11   -1    0    0    0    0  0.00000000000E+00  0.00000000000E+00  0.45593999997E+02  0.45594000000E+02  0.51100000000E-03 0. -1.
         11   -1    0    0    0    0 -0.00000000000E+00 -0.00000000000E+00 -0.45593999997E+02  0.45594000000E+02  0.51100000000E-03 0.  1.
         23    2    1    2    0    0  0.00000000000E+00  0.35527136788E-14  0.00000000000E+00  0.91188000000E+02  0.91188000000E+02 0.  0.
    9900012    2    3    3    0    0  0.16445098742E+02 -0.22364581473E+02 -0.33361748389E+02  0.47787285344E+02  0.20000065195E+02 0.  0.
         12    1    3    3    0    0 -0.16445098742E+02  0.22364581473E+02  0.33361748389E+02  0.43400714656E+02  0.00000000000E+00 0. -1.
         11    1    4    4    0    0 -0.32271828588E+01  0.57273895727E+00 -0.25714268824E+01  0.41659303390E+01  0.51100000000E-03 0. -1.
        -11    1    4    4    0    0  0.83539600104E+01 -0.12129409800E+02 -0.18933242660E+02  0.23987057090E+02  0.51100000000E-03 0.  1.
         12    1    4    4    0    0  0.11318321590E+02 -0.10807910630E+02 -0.11857078847E+02  0.19634297914E+02  0.00000000000E+00 0. -1.
</event>
<event>
 8    1  0.6019723E-011  0.9118800E+02  0.7816164E-02  0.1184000E+00
        -11   -1    0    0    0    0  0.00000000000E+00  0.00000000000E+00  0.45593999997E+02  0.45594000000E+02  0.51100000000E-03 0. -1.
         11   -1    0    0    0    0 -0.00000000000E+00 -0.00000000000E+00 -0.45593999997E+02  0.45594000000E+02  0.51100000000E-03 0.  1.
         23    2    1    2    0    0  0.22204460493E-15  0.00000000000E+00  0.71054273576E-14  0.91188000000E+02  0.91188000000E+02 0.  0.
    9900012    2    3    3    0    0  0.84218276435E+00  0.83422382377E+01 -0.42583108133E+02  0.47787270641E+02  0.19999998161E+02 0.  0.
         12    1    3    3    0    0 -0.84218276435E+00 -0.83422382377E+01  0.42583108133E+02  0.43400729359E+02  0.00000000000E+00 0. -1.
         11    1    4    4    0    0 -0.57470969288E+01  0.13460016437E+00 -0.49173331148E+01  0.75648797436E+01  0.51100000000E-03 0. -1.
        -11    1    4    4    0    0  0.37119129346E+01  0.55053326758E+01 -0.34580921837E+02  0.35212599178E+02  0.51100000000E-03 0.  1.
        -12    1    4    4    0    0  0.28773667586E+01  0.27023053976E+01 -0.30848531809E+01  0.50097917195E+01  0.00000000000E+00 0.  1.
</event>
<event>
 8    1  0.6790139E-011  0.9118800E+02  0.7816164E-02  0.1184000E+00
        -11   -1    0    0    0    0  0.00000000000E+00  0.00000000000E+00  0.45593999997E+02  0.45594000000E+02  0.51100000000E-03 0. -1.
         11   -1    0    0    0    0 -0.00000000000E+00 -0.00000000000E+00 -0.45593999997E+02  0.45594000000E+02  0.51100000000E-03 0.  1.
         23    2    1    2    0    0  0.00000000000E+00  0.00000000000E+00  0.00000000000E+00  0.91188000000E+02  0.91188000000E+02 0.  0.
    9900012    2    3    3    0    0  0.19177094661E+02 -0.18630014712E+02 -0.34187496217E+02  0.47787270682E+02  0.19999998345E+02 0.  0.
         12    1    3    3    0    0 -0.19177094661E+02  0.18630014712E+02  0.34187496217E+02  0.43400729318E+02  0.00000000000E+00 0. -1.
         11    1    4    4    0    0  0.97556050532E+01 -0.10411366078E+02 -0.54043730805E+01  0.15256986013E+02  0.51100000000E-03 0. -1.
        -11    1    4    4    0    0  0.94558152788E+01 -0.30834578783E+01 -0.17389503689E+02  0.20032847873E+02  0.51100000000E-03 0.  1.
         12    1    4    4    0    0 -0.34325671054E-01 -0.51351907557E+01 -0.11393619447E+02  0.12497436796E+02  0.00000000000E+00 0. -1.
</event>
<event>
 8    1  0.6019723E-011  0.9118800E+02  0.7816164E-02  0.1184000E+00
        -11   -1    0    0    0    0  0.00000000000E+00  0.00000000000E+00  0.45593999997E+02  0.45594000000E+02  0.51100000000E-03 0.  1.
         11   -1    0    0    0    0 -0.00000000000E+00 -0.00000000000E+00 -0.45593999997E+02  0.45594000000E+02  0.51100000000E-03 0. -1.
         23    2    1    2    0    0  0.00000000000E+00 -0.17763568394E-14  0.00000000000E+00  0.91188000000E+02  0.91188000000E+02 0.  0.
    9900012    2    3    3    0    0  0.41325369123E+02  0.11645726736E+02  0.63414780762E+01  0.47787269262E+02  0.19999991875E+02 0.  0.
        -12    1    3    3    0    0 -0.41325369123E+02 -0.11645726736E+02 -0.63414780762E+01  0.43400730738E+02  0.00000000000E+00 0.  1.
         11    1    4    4    0    0  0.38268809298E+02  0.96972857857E+01  0.74140684018E+01  0.40168489233E+02  0.51100000000E-03 0. -1.
        -11    1    4    4    0    0 -0.21713642340E-01  0.27823063923E+01 -0.28372734270E+01  0.39738924374E+01  0.51100000000E-03 0.  1.
         12    1    4    4    0    0  0.30782734671E+01 -0.83386544170E+00  0.17646831014E+01  0.36448875924E+01  0.00000000000E+00 0. -1.
</event>
<event>
 8    1  0.6019723E-011  0.9118800E+02  0.7816164E-02  0.1184000E+00
        -11   -1    0    0    0    0  0.00000000000E+00  0.00000000000E+00  0.45593999997E+02  0.45594000000E+02  0.51100000000E-03 0. -1.
         11   -1    0    0    0    0 -0.00000000000E+00 -0.00000000000E+00 -0.45593999997E+02  0.45594000000E+02  0.51100000000E-03 0.  1.
         23    2    1    2    0    0 -0.35527136788E-14  0.00000000000E+00 -0.17763568394E-14  0.91188000000E+02  0.91188000000E+02 0.  0.
    9900012    2    3    3    0    0 -0.19883867960E+02  0.37685659823E+02  0.82489831762E+01  0.47787275527E+02  0.20000020436E+02 0.  0.
        -12    1    3    3    0    0  0.19883867960E+02 -0.37685659823E+02 -0.82489831762E+01  0.43400724473E+02  0.00000000000E+00 0.  1.
         11    1    4    4    0    0 -0.20274970007E+02  0.35131655719E+02  0.93192980342E+01  0.41619189786E+02  0.51100000000E-03 0. -1.
        -11    1    4    4    0    0 -0.24554630818E+00 -0.16292996971E+01 -0.10169868347E+01  0.19362781245E+01  0.51100000000E-03 0.  1.
        -12    1    4    4    0    0  0.63664835475E+00  0.41833038010E+01 -0.53328023301E-01  0.42318076158E+01  0.00000000000E+00 0.  1.
</event>
<event>
 8    1  0.6019723E-011  0.9118800E+02  0.7816164E-02  0.1184000E+00
        -11   -1    0    0    0    0  0.00000000000E+00  0.00000000000E+00  0.45593999997E+02  0.45594000000E+02  0.51100000000E-03 0. -1.
         11   -1    0    0    0    0 -0.00000000000E+00 -0.00000000000E+00 -0.45593999997E+02  0.45594000000E+02  0.51100000000E-03 0.  1.
         23    2    1    2    0    0  0.00000000000E+00  0.00000000000E+00  0.00000000000E+00  0.91188000000E+02  0.91188000000E+02 0.  0.
    9900012    2    3    3    0    0  0.66850926980E+01 -0.42478206034E+02 -0.58765792588E+01  0.47787278393E+02  0.20000033505E+02 0.  0.
        -12    1    3    3    0    0 -0.66850926980E+01  0.42478206034E+02  0.58765792588E+01  0.43400721607E+02  0.00000000000E+00 0.  1.
         11    1    4    4    0    0 -0.35069824457E+01 -0.49885515585E+01  0.73287409454E+00  0.61417975566E+01  0.51100000000E-03 0. -1.
        -11    1    4    4    0    0  0.13023904628E+02 -0.24186802787E+02 -0.34880519865E+01  0.27690973759E+02  0.51100000000E-03 0.  1.
        -12    1    4    4    0    0 -0.28318294843E+01 -0.13302851688E+02 -0.31214013668E+01  0.13954507077E+02  0.00000000000E+00 0.  1.
</event>
<event>
 8    1  0.6019723E-011  0.9118800E+02  0.7816164E-02  0.1184000E+00
        -11   -1    0    0    0    0  0.00000000000E+00  0.00000000000E+00  0.45593999997E+02  0.45594000000E+02  0.51100000000E-03 0. -1.
         11   -1    0    0    0    0 -0.00000000000E+00 -0.00000000000E+00 -0.45593999997E+02  0.45594000000E+02  0.51100000000E-03 0.  1.
         23    2    1    2    0    0  0.44408920985E-15  0.00000000000E+00  0.00000000000E+00  0.91188000000E+02  0.91188000000E+02 0.  0.
    9900012    2    3    3    0    0  0.25909331245E+01 -0.25013441852E+01  0.43251051951E+02  0.47787272448E+02  0.20000006398E+02 0.  0.
        -12    1    3    3    0    0 -0.25909331245E+01  0.25013441852E+01 -0.43251051951E+02  0.43400727552E+02  0.00000000000E+00 0.  1.
         11    1    4    4    0    0  0.41944632822E+01 -0.16036721903E+01  0.77390168635E+00  0.45567763607E+01  0.51100000000E-03 0.  1.
        -11    1    4    4    0    0 -0.20688408551E+01 -0.28095708697E+01  0.39549042005E+02  0.39702651230E+02  0.51100000000E-03 0. -1.
        -12    1    4    4    0    0  0.46531069731E+00  0.19118988747E+01  0.29281082600E+01  0.35278448569E+01  0.00000000000E+00 0.  1.
</event>
<event>
 8    1  0.6019723E-011  0.9118800E+02  0.7816164E-02  0.1184000E+00
        -11   -1    0    0    0    0  0.00000000000E+00  0.00000000000E+00  0.45593999997E+02  0.45594000000E+02  0.51100000000E-03 0. -1.
         11   -1    0    0    0    0 -0.00000000000E+00 -0.00000000000E+00 -0.45593999997E+02  0.45594000000E+02  0.51100000000E-03 0.  1.
         23    2    1    2    0    0  0.35527136788E-14  0.00000000000E+00  0.00000000000E+00  0.91188000000E+02  0.91188000000E+02 0.  0.
    9900012    2    3    3    0    0  0.25657315049E+02 -0.24444025232E+02 -0.25056239589E+02  0.47787270428E+02  0.19999997188E+02 0.  0.
         12    1    3    3    0    0 -0.25657315049E+02  0.24444025232E+02  0.25056239589E+02  0.43400729572E+02  0.00000000000E+00 0. -1.
         11    1    4    4    0    0 -0.15483028045E+01 -0.28591927206E+00  0.97987753871E+00  0.18544949870E+01  0.51100000000E-03 0. -1.
        -11    1    4    4    0    0  0.21866747288E+02 -0.24000305840E+02 -0.22998823826E+02  0.39788380402E+02  0.51100000000E-03 0.  1.
        -12    1    4    4    0    0  0.53388705657E+01 -0.15780012072E+00 -0.30372933011E+01  0.61443950388E+01  0.00000000000E+00 0.  1.
</event>
<event>
 8    1  0.6019723E-011  0.9118800E+02  0.7816164E-02  0.1184000E+00
        -11   -1    0    0    0    0  0.00000000000E+00  0.00000000000E+00  0.45593999997E+02  0.45594000000E+02  0.51100000000E-03 0. -1.
         11   -1    0    0    0    0 -0.00000000000E+00 -0.00000000000E+00 -0.45593999997E+02  0.45594000000E+02  0.51100000000E-03 0.  1.
         23    2    1    2    0    0  0.88817841970E-15 -0.66613381478E-15  0.71054273576E-14  0.91188000000E+02  0.91188000000E+02 0.  0.
    9900012    2    3    3    0    0 -0.52029918169E+01  0.14053463139E+01 -0.43064830227E+02  0.47787242811E+02  0.19999871270E+02 0.  0.
         12    1    3    3    0    0  0.52029918169E+01 -0.14053463139E+01  0.43064830227E+02  0.43400757189E+02  0.00000000000E+00 0. -1.
         11    1    4    4    0    0 -0.22161494024E+01 -0.44660888449E+01 -0.49146268661E+01  0.70007731886E+01  0.51100000000E-03 0. -1.
        -11    1    4    4    0    0  0.28381495838E+01  0.40338509562E+01 -0.30967709082E+02  0.31358030114E+02  0.51100000000E-03 0.  1.
        -12    1    4    4    0    0 -0.58249919983E+01  0.18375842025E+01 -0.71824942797E+01  0.94284395082E+01  0.00000000000E+00 0.  1.
</event>
<event>
 8    1  0.6019723E-011  0.9118800E+02  0.7816164E-02  0.1184000E+00
        -11   -1    0    0    0    0  0.00000000000E+00  0.00000000000E+00  0.45593999997E+02  0.45594000000E+02  0.51100000000E-03 0. -1.
         11   -1    0    0    0    0 -0.00000000000E+00 -0.00000000000E+00 -0.45593999997E+02  0.45594000000E+02  0.51100000000E-03 0.  1.
         23    2    1    2    0    0  0.13322676296E-14  0.00000000000E+00  0.00000000000E+00  0.91188000000E+02  0.91188000000E+02 0.  0.
    9900012    2    3    3    0    0  0.31390140156E+01 -0.13713498298E+02  0.41057395242E+02  0.47787272487E+02  0.20000006577E+02 0.  0.
        -12    1    3    3    0    0 -0.31390140156E+01  0.13713498298E+02 -0.41057395242E+02  0.43400727513E+02  0.00000000000E+00 0.  1.
         11    1    4    4    0    0  0.80511971381E+01 -0.93547774064E+01  0.25327311053E+02  0.28174568694E+02  0.51100000000E-03 0. -1.
        -11    1    4    4    0    0 -0.68069485357E+01  0.85492335534E-01  0.10278628856E+02  0.12328506346E+02  0.51100000000E-03 0.  1.
        -12    1    4    4    0    0  0.18947654133E+01 -0.44442132276E+01  0.54514553334E+01  0.72841974462E+01  0.00000000000E+00 0.  1.
</event>
<event>
 8    1  0.6019723E-011  0.9118800E+02  0.7816164E-02  0.1184000E+00
        -11   -1    0    0    0    0  0.00000000000E+00  0.00000000000E+00  0.45593999997E+02  0.45594000000E+02  0.51100000000E-03 0. -1.
         11   -1    0    0    0    0 -0.00000000000E+00 -0.00000000000E+00 -0.45593999997E+02  0.45594000000E+02  0.51100000000E-03 0.  1.
         23    2    1    2    0    0  0.00000000000E+00  0.00000000000E+00 -0.17763568394E-14  0.91188000000E+02  0.91188000000E+02 0.  0.
    9900012    2    3    3    0    0  0.21045703025E+02 -0.35367936297E+02 -0.13777222618E+02  0.47787258108E+02  0.19999941015E+02 0.  0.
         12    1    3    3    0    0 -0.21045703025E+02  0.35367936297E+02  0.13777222618E+02  0.43400741892E+02  0.00000000000E+00 0. -1.
         11    1    4    4    0    0  0.78154412044E+01 -0.14982776554E+02 -0.16088153039E+02  0.23332239133E+02  0.51100000000E-03 0. -1.
        -11    1    4    4    0    0  0.69825347577E+01 -0.11436779199E+02  0.18977524682E+01  0.13533557359E+02  0.51100000000E-03 0.  1.
         12    1    4    4    0    0  0.62477270624E+01 -0.89483805440E+01  0.41317795194E+00  0.10921461616E+02  0.00000000000E+00 0. -1.
</event>
<event>
 8    1  0.6019723E-011  0.9118800E+02  0.7816164E-02  0.1184000E+00
        -11   -1    0    0    0    0  0.00000000000E+00  0.00000000000E+00  0.45593999997E+02  0.45594000000E+02  0.51100000000E-03 0. -1.
         11   -1    0    0    0    0 -0.00000000000E+00 -0.00000000000E+00 -0.45593999997E+02  0.45594000000E+02  0.51100000000E-03 0.  1.
         23    2    1    2    0    0  0.00000000000E+00  0.17763568394E-14  0.71054273576E-14  0.91188000000E+02  0.91188000000E+02 0.  0.
    9900012    2    3    3    0    0 -0.10422694728E+02  0.10161123241E+02 -0.40886945933E+02  0.47787270298E+02  0.19999996596E+02 0.  0.
         12    1    3    3    0    0  0.10422694728E+02 -0.10161123241E+02  0.40886945933E+02  0.43400729702E+02  0.00000000000E+00 0. -1.
         11    1    4    4    0    0 -0.67950386461E+01  0.89126516411E+01 -0.19125134455E+02  0.22167062901E+02  0.51100000000E-03 0.  1.
        -11    1    4    4    0    0 -0.42486315548E+01 -0.53846056936E+01 -0.11069092017E+02  0.13021891065E+02  0.51100000000E-03 0. -1.
        -12    1    4    4    0    0  0.62097547261E+00  0.66330772936E+01 -0.10692719461E+02  0.12598316332E+02  0.00000000000E+00 0.  1.
</event>
<event>
 8    1  0.6019723E-011  0.9118800E+02  0.7816164E-02  0.1184000E+00
        -11   -1    0    0    0    0  0.00000000000E+00  0.00000000000E+00  0.45593999997E+02  0.45594000000E+02  0.51100000000E-03 0. -1.
         11   -1    0    0    0    0 -0.00000000000E+00 -0.00000000000E+00 -0.45593999997E+02  0.45594000000E+02  0.51100000000E-03 0.  1.
         23    2    1    2    0    0  0.00000000000E+00  0.35527136788E-14  0.00000000000E+00  0.91188000000E+02  0.91188000000E+02 0.  0.
    9900012    2    3    3    0    0  0.23051276796E+02 -0.17930055348E+02 -0.32105684164E+02  0.47787271869E+02  0.20000003758E+02 0.  0.
         12    1    3    3    0    0 -0.23051276796E+02  0.17930055348E+02  0.32105684164E+02  0.43400728131E+02  0.00000000000E+00 0. -1.
         11    1    4    4    0    0  0.16283874451E+01  0.28266129764E+01 -0.21888755677E+01  0.39284301066E+01  0.51100000000E-03 0. -1.
        -11    1    4    4    0    0  0.21164984535E+02 -0.20862086157E+02 -0.24723092728E+02  0.38657658019E+02  0.51100000000E-03 0.  1.
        -12    1    4    4    0    0  0.25790481566E+00  0.10541783239E+00 -0.51937158683E+01  0.52011837435E+01  0.00000000000E+00 0.  1.
</event>
<event>
 8    1  0.6019723E-011  0.9118800E+02  0.7816164E-02  0.1184000E+00
        -11   -1    0    0    0    0  0.00000000000E+00  0.00000000000E+00  0.45593999997E+02  0.45594000000E+02  0.51100000000E-03 0. -1.
         11   -1    0    0    0    0 -0.00000000000E+00 -0.00000000000E+00 -0.45593999997E+02  0.45594000000E+02  0.51100000000E-03 0.  1.
         23    2    1    2    0    0  0.00000000000E+00 -0.35527136788E-14  0.00000000000E+00  0.91188000000E+02  0.91188000000E+02 0.  0.
    9900012    2    3    3    0    0 -0.35367874187E+02  0.19066153987E+02 -0.16407885880E+02  0.47787268769E+02  0.19999989626E+02 0.  0.
         12    1    3    3    0    0  0.35367874187E+02 -0.19066153987E+02  0.16407885880E+02  0.43400731231E+02  0.00000000000E+00 0. -1.
         11    1    4    4    0    0 -0.12044514255E+02 -0.30667837853E+01 -0.39042500643E+01  0.13027611264E+02  0.51100000000E-03 0. -1.
        -11    1    4    4    0    0 -0.10614064423E+02  0.12333061096E+02 -0.48478456789E+01  0.16978349966E+02  0.51100000000E-03 0.  1.
         12    1    4    4    0    0 -0.12709295509E+02  0.97998766760E+01 -0.76557901368E+01  0.17781307539E+02  0.00000000000E+00 0. -1.
</event>
<event>
 8    1  0.6019723E-011  0.9118800E+02  0.7816164E-02  0.1184000E+00
        -11   -1    0    0    0    0  0.00000000000E+00  0.00000000000E+00  0.45593999997E+02  0.45594000000E+02  0.51100000000E-03 0. -1.
         11   -1    0    0    0    0 -0.00000000000E+00 -0.00000000000E+00 -0.45593999997E+02  0.45594000000E+02  0.51100000000E-03 0.  1.
         23    2    1    2    0    0  0.00000000000E+00 -0.33306690739E-15  0.00000000000E+00  0.91188000000E+02  0.91188000000E+02 0.  0.
    9900012    2    3    3    0    0 -0.71853076001E+01 -0.92041941431E+00  0.42791909864E+02  0.47787269971E+02  0.19999995108E+02 0.  0.
        -12    1    3    3    0    0  0.71853076001E+01  0.92041941431E+00 -0.42791909864E+02  0.43400730029E+02  0.00000000000E+00 0.  1.
         11    1    4    4    0    0 -0.73268667963E+01 -0.17168787431E+00  0.58648065428E+01  0.93866080041E+01  0.51100000000E-03 0. -1.
        -11    1    4    4    0    0  0.20444670972E+01  0.12116742019E+01  0.34944008721E+02  0.35024730489E+02  0.51100000000E-03 0.  1.
        -12    1    4    4    0    0 -0.19029079009E+01 -0.19604057419E+01  0.19830946003E+01  0.33759314783E+01  0.00000000000E+00 0.  1.
</event>
<event>
 8    1  0.6019723E-011  0.9118800E+02  0.7816164E-02  0.1184000E+00
        -11   -1    0    0    0    0  0.00000000000E+00  0.00000000000E+00  0.45593999997E+02  0.45594000000E+02  0.51100000000E-03 0.  1.
         11   -1    0    0    0    0 -0.00000000000E+00 -0.00000000000E+00 -0.45593999997E+02  0.45594000000E+02  0.51100000000E-03 0. -1.
         23    2    1    2    0    0  0.00000000000E+00  0.88817841970E-15  0.00000000000E+00  0.91188000000E+02  0.91188000000E+02 0.  0.
    9900012    2    3    3    0    0  0.31158640246E+02  0.59729476000E+01  0.29615640326E+02  0.47787272852E+02  0.20000008242E+02 0.  0.
        -12    1    3    3    0    0 -0.31158640246E+02 -0.59729476000E+01 -0.29615640326E+02  0.43400727148E+02  0.00000000000E+00 0.  1.
         11    1    4    4    0    0  0.13139069772E+02  0.67846156887E+01  0.60834756944E+01  0.15989835562E+02  0.51100000000E-03 0. -1.
        -11    1    4    4    0    0  0.27005940344E+01 -0.34198878381E+01  0.11008467343E+02  0.11839560569E+02  0.51100000000E-03 0.  1.
        -12    1    4    4    0    0  0.15318976440E+02  0.26082197493E+01  0.12523697289E+02  0.19957876721E+02  0.00000000000E+00 0.  1.
</event>
<event>
 8    1  0.6019723E-011  0.9118800E+02  0.7816164E-02  0.1184000E+00
        -11   -1    0    0    0    0  0.00000000000E+00  0.00000000000E+00  0.45593999997E+02  0.45594000000E+02  0.51100000000E-03 0. -1.
         11   -1    0    0    0    0 -0.00000000000E+00 -0.00000000000E+00 -0.45593999997E+02  0.45594000000E+02  0.51100000000E-03 0.  1.
         23    2    1    2    0    0  0.00000000000E+00  0.00000000000E+00  0.00000000000E+00  0.91188000000E+02  0.91188000000E+02 0.  0.
    9900012    2    3    3    0    0 -0.17629950650E+02 -0.32443688153E+02  0.22808225535E+02  0.47787271747E+02  0.20000003202E+02 0.  0.
        -12    1    3    3    0    0  0.17629950650E+02  0.32443688153E+02 -0.22808225535E+02  0.43400728253E+02  0.00000000000E+00 0.  1.
         11    1    4    4    0    0 -0.12006598840E+02 -0.26250939245E+02  0.67721179395E+01  0.29650156974E+02  0.51100000000E-03 0. -1.
        -11    1    4    4    0    0 -0.31696536632E+01 -0.44504864212E+01  0.10280289913E+02  0.11642074330E+02  0.51100000000E-03 0.  1.
         12    1    4    4    0    0 -0.24536981465E+01 -0.17422624864E+01  0.57558176821E+01  0.64950404429E+01  0.00000000000E+00 0. -1.
</event>
<event>
 8    1  0.6019723E-011  0.9118800E+02  0.7816164E-02  0.1184000E+00
        -11   -1    0    0    0    0  0.00000000000E+00  0.00000000000E+00  0.45593999997E+02  0.45594000000E+02  0.51100000000E-03 0. -1.
         11   -1    0    0    0    0 -0.00000000000E+00 -0.00000000000E+00 -0.45593999997E+02  0.45594000000E+02  0.51100000000E-03 0.  1.
         23    2    1    2    0    0  0.00000000000E+00  0.00000000000E+00  0.00000000000E+00  0.91188000000E+02  0.91188000000E+02 0.  0.
    9900012    2    3    3    0    0  0.89762884026E+01  0.87068889366E+01  0.41560073027E+02  0.47787270301E+02  0.19999996610E+02 0.  0.
        -12    1    3    3    0    0 -0.89762884026E+01 -0.87068889366E+01 -0.41560073027E+02  0.43400729699E+02  0.00000000000E+00 0.  1.
         11    1    4    4    0    0  0.62914631981E+01 -0.35674921185E+01  0.14374954550E+02  0.16091887017E+02  0.51100000000E-03 0. -1.
        -11    1    4    4    0    0 -0.67474828147E-01  0.88181504597E+01  0.76729429284E+01  0.11689242226E+02  0.51100000000E-03 0.  1.
        -12    1    4    4    0    0  0.27523000326E+01  0.34562305953E+01  0.19512175548E+02  0.20006141058E+02  0.00000000000E+00 0.  1.
</event>
<event>
 8    1  0.6019723E-011  0.9118800E+02  0.7816164E-02  0.1184000E+00
        -11   -1    0    0    0    0  0.00000000000E+00  0.00000000000E+00  0.45593999997E+02  0.45594000000E+02  0.51100000000E-03 0.  1.
         11   -1    0    0    0    0 -0.00000000000E+00 -0.00000000000E+00 -0.45593999997E+02  0.45594000000E+02  0.51100000000E-03 0. -1.
         23    2    1    2    0    0  0.00000000000E+00  0.44408920985E-15  0.00000000000E+00  0.91188000000E+02  0.91188000000E+02 0.  0.
    9900012    2    3    3    0    0  0.42338346599E+02  0.71123347546E+00 -0.95173002856E+01  0.47787303571E+02  0.20000148302E+02 0.  0.
         12    1    3    3    0    0 -0.42338346599E+02 -0.71123347546E+00  0.95173002856E+01  0.43400696429E+02  0.00000000000E+00 0. -1.
         11    1    4    4    0    0  0.25176537481E+02 -0.18560249764E+01 -0.76023572993E+01  0.26364724634E+02  0.51100000000E-03 0. -1.
        -11    1    4    4    0    0  0.81845223428E+01  0.63651551658E+01  0.25861086902E+01  0.10685951744E+02  0.51100000000E-03 0.  1.
         12    1    4    4    0    0  0.89772867748E+01 -0.37978967139E+01 -0.45010516765E+01  0.10736627193E+02  0.00000000000E+00 0. -1.
</event>
<event>
 8    1  0.6019723E-011  0.9118800E+02  0.7816164E-02  0.1184000E+00
        -11   -1    0    0    0    0  0.00000000000E+00  0.00000000000E+00  0.45593999997E+02  0.45594000000E+02  0.51100000000E-03 0. -1.
         11   -1    0    0    0    0 -0.00000000000E+00 -0.00000000000E+00 -0.45593999997E+02  0.45594000000E+02  0.51100000000E-03 0.  1.
         23    2    1    2    0    0 -0.17763568394E-14  0.00000000000E+00  0.35527136788E-14  0.91188000000E+02  0.91188000000E+02 0.  0.
    9900012    2    3    3    0    0  0.40150816226E+01 -0.32611078032E+02  0.28355245090E+02  0.47787271723E+02  0.20000003094E+02 0.  0.
        -12    1    3    3    0    0 -0.40150816226E+01  0.32611078032E+02 -0.28355245090E+02  0.43400728277E+02  0.00000000000E+00 0.  1.
         11    1    4    4    0    0 -0.51200521877E+01 -0.34607122545E+01  0.62266218163E+01  0.87728150110E+01  0.51100000000E-03 0. -1.
        -11    1    4    4    0    0  0.78776623892E+01 -0.91147280855E+01  0.78416283611E+01  0.14374524980E+02  0.51100000000E-03 0.  1.
         12    1    4    4    0    0  0.12574714212E+01 -0.20035637692E+02  0.14286994913E+02  0.24639931732E+02  0.00000000000E+00 0. -1.
</event>
<event>
 8    1  0.6019723E-011  0.9118800E+02  0.7816164E-02  0.1184000E+00
        -11   -1    0    0    0    0  0.00000000000E+00  0.00000000000E+00  0.45593999997E+02  0.45594000000E+02  0.51100000000E-03 0.  1.
         11   -1    0    0    0    0 -0.00000000000E+00 -0.00000000000E+00 -0.45593999997E+02  0.45594000000E+02  0.51100000000E-03 0. -1.
         23    2    1    2    0    0 -0.88817841970E-15  0.00000000000E+00  0.35527136788E-14  0.91188000000E+02  0.91188000000E+02 0.  0.
    9900012    2    3    3    0    0 -0.28514436678E+01  0.42125410766E+02  0.10047012296E+02  0.47787269370E+02  0.19999992363E+02 0.  0.
         12    1    3    3    0    0  0.28514436678E+01 -0.42125410766E+02 -0.10047012296E+02  0.43400730630E+02  0.00000000000E+00 0. -1.
         11    1    4    4    0    0  0.90646209840E+00 -0.64624702226E+00  0.93215593494E+00  0.14519723475E+01  0.51100000000E-03 0. -1.
        -11    1    4    4    0    0  0.25954537607E+01  0.24752579823E+02 -0.61140084370E+00  0.24895790797E+02  0.51100000000E-03 0.  1.
        -12    1    4    4    0    0 -0.63533595269E+01  0.18019077965E+02  0.97262572047E+01  0.21439506226E+02  0.00000000000E+00 0.  1.
</event>
<event>
 8    1  0.6019723E-011  0.9118800E+02  0.7816164E-02  0.1184000E+00
        -11   -1    0    0    0    0  0.00000000000E+00  0.00000000000E+00  0.45593999997E+02  0.45594000000E+02  0.51100000000E-03 0. -1.
         11   -1    0    0    0    0 -0.00000000000E+00 -0.00000000000E+00 -0.45593999997E+02  0.45594000000E+02  0.51100000000E-03 0.  1.
         23    2    1    2    0    0 -0.44408920985E-15  0.00000000000E+00  0.00000000000E+00  0.91188000000E+02  0.91188000000E+02 0.  0.
    9900012    2    3    3    0    0 -0.14621064327E+01  0.30417791996E+02  0.30923187364E+02  0.47787270261E+02  0.19999996427E+02 0.  0.
        -12    1    3    3    0    0  0.14621064327E+01 -0.30417791996E+02 -0.30923187364E+02  0.43400729739E+02  0.00000000000E+00 0.  1.
         11    1    4    4    0    0 -0.36691311770E+01  0.73496525990E+00  0.27651657520E+01  0.46528313342E+01  0.51100000000E-03 0. -1.
        -11    1    4    4    0    0  0.37623061691E+01  0.18412929558E+02  0.25096061120E+02  0.31352881951E+02  0.51100000000E-03 0.  1.
        -12    1    4    4    0    0 -0.15552814247E+01  0.11269897178E+02  0.30619604921E+01  0.11781556976E+02  0.00000000000E+00 0.  1.
</event>
<event>
 8    1  0.6019723E-011  0.9118800E+02  0.7816164E-02  0.1184000E+00
        -11   -1    0    0    0    0  0.00000000000E+00  0.00000000000E+00  0.45593999997E+02  0.45594000000E+02  0.51100000000E-03 0. -1.
         11   -1    0    0    0    0 -0.00000000000E+00 -0.00000000000E+00 -0.45593999997E+02  0.45594000000E+02  0.51100000000E-03 0.  1.
         23    2    1    2    0    0  0.00000000000E+00  0.17763568394E-14  0.71054273576E-14  0.91188000000E+02  0.91188000000E+02 0.  0.
    9900012    2    3    3    0    0  0.16010556465E+02  0.13146071243E+02  0.38137463600E+02  0.47787271466E+02  0.20000001921E+02 0.  0.
        -12    1    3    3    0    0 -0.16010556465E+02 -0.13146071243E+02 -0.38137463600E+02  0.43400728534E+02  0.00000000000E+00 0.  1.
         11    1    4    4    0    0  0.33541673242E+01 -0.28711620731E+01  0.13665746133E+01  0.46218542301E+01  0.51100000000E-03 0.  1.
        -11    1    4    4    0    0  0.11083513296E+02  0.12693216874E+02  0.20763565026E+02  0.26741122909E+02  0.51100000000E-03 0. -1.
         12    1    4    4    0    0  0.15728758439E+01  0.33240164430E+01  0.16007323961E+02  0.16424294326E+02  0.00000000000E+00 0. -1.
</event>
<event>
 8    1  0.6019723E-011  0.9118800E+02  0.7816164E-02  0.1184000E+00
        -11   -1    0    0    0    0  0.00000000000E+00  0.00000000000E+00  0.45593999997E+02  0.45594000000E+02  0.51100000000E-03 0. -1.
         11   -1    0    0    0    0 -0.00000000000E+00 -0.00000000000E+00 -0.45593999997E+02  0.45594000000E+02  0.51100000000E-03 0.  1.
         23    2    1    2    0    0  0.33306690739E-15  0.66613381478E-15 -0.71054273576E-14  0.91188000000E+02  0.91188000000E+02 0.  0.
    9900012    2    3    3    0    0  0.62826086614E+00  0.19832921825E+01 -0.43350829241E+02  0.47787279321E+02  0.20000037734E+02 0.  0.
         12    1    3    3    0    0 -0.62826086614E+00 -0.19832921825E+01  0.43350829241E+02  0.43400720679E+02  0.00000000000E+00 0. -1.
         11    1    4    4    0    0  0.40858765559E+01  0.88740410244E+01 -0.17882227059E+02  0.20376875035E+02  0.51100000000E-03 0. -1.
        -11    1    4    4    0    0 -0.50039547822E+01 -0.29154510943E+01 -0.16297584082E+02  0.17295972529E+02  0.51100000000E-03 0.  1.
        -12    1    4    4    0    0  0.15463390924E+01 -0.39752977476E+01 -0.91710181003E+01  0.10114431757E+02  0.00000000000E+00 0.  1.
</event>
<event>
 8    1  0.6019723E-011  0.9118800E+02  0.7816164E-02  0.1184000E+00
        -11   -1    0    0    0    0  0.00000000000E+00  0.00000000000E+00  0.45593999997E+02  0.45594000000E+02  0.51100000000E-03 0. -1.
         11   -1    0    0    0    0 -0.00000000000E+00 -0.00000000000E+00 -0.45593999997E+02  0.45594000000E+02  0.51100000000E-03 0.  1.
         23    2    1    2    0    0 -0.17763568394E-14  0.00000000000E+00  0.00000000000E+00  0.91188000000E+02  0.91188000000E+02 0.  0.
    9900012    2    3    3    0    0  0.90905336770E+01 -0.33911073755E+02  0.25515189022E+02  0.47787267327E+02  0.19999983051E+02 0.  0.
        -12    1    3    3    0    0 -0.90905336770E+01  0.33911073755E+02 -0.25515189022E+02  0.43400732673E+02  0.00000000000E+00 0.  1.
         11    1    4    4    0    0  0.47412956112E+01 -0.14997981689E+02  0.10859574086E+02  0.19114122748E+02  0.51100000000E-03 0. -1.
        -11    1    4    4    0    0  0.13258255945E+01 -0.20109679518E+02  0.88328534177E+01  0.22004006989E+02  0.51100000000E-03 0.  1.
        -12    1    4    4    0    0  0.30234124713E+01  0.11965874526E+01  0.58227615173E+01  0.66691375897E+01  0.00000000000E+00 0.  1.
</event>
<event>
 8    1  0.6019723E-011  0.9118800E+02  0.7816164E-02  0.1184000E+00
        -11   -1    0    0    0    0  0.00000000000E+00  0.00000000000E+00  0.45593999997E+02  0.45594000000E+02  0.51100000000E-03 0. -1.
         11   -1    0    0    0    0 -0.00000000000E+00 -0.00000000000E+00 -0.45593999997E+02  0.45594000000E+02  0.51100000000E-03 0.  1.
         23    2    1    2    0    0  0.00000000000E+00  0.88817841970E-15  0.00000000000E+00  0.91188000000E+02  0.91188000000E+02 0.  0.
    9900012    2    3    3    0    0 -0.16132336001E+02 -0.53088632370E+01 -0.39939781062E+02  0.47787281054E+02  0.20000045638E+02 0.  0.
         12    1    3    3    0    0  0.16132336001E+02  0.53088632370E+01  0.39939781062E+02  0.43400718946E+02  0.00000000000E+00 0. -1.
         11    1    4    4    0    0  0.89373449300E+00  0.24041696101E+01 -0.87009934177E+01  0.90711674868E+01  0.51100000000E-03 0. -1.
        -11    1    4    4    0    0 -0.95497754005E+01 -0.35793997586E+01 -0.54799178527E+01  0.11577556425E+02  0.51100000000E-03 0.  1.
        -12    1    4    4    0    0 -0.74762950938E+01 -0.41336330885E+01 -0.25758869792E+02  0.27138557143E+02  0.00000000000E+00 0.  1.
</event>
<event>
 8    1  0.6019723E-011  0.9118800E+02  0.7816164E-02  0.1184000E+00
        -11   -1    0    0    0    0  0.00000000000E+00  0.00000000000E+00  0.45593999997E+02  0.45594000000E+02  0.51100000000E-03 0. -1.
         11   -1    0    0    0    0 -0.00000000000E+00 -0.00000000000E+00 -0.45593999997E+02  0.45594000000E+02  0.51100000000E-03 0.  1.
         23    2    1    2    0    0  0.00000000000E+00  0.71054273576E-14  0.00000000000E+00  0.91188000000E+02  0.91188000000E+02 0.  0.
    9900012    2    3    3    0    0 -0.24100403462E+02  0.32319170254E+02 -0.16070627115E+02  0.47787271102E+02  0.20000000264E+02 0.  0.
         12    1    3    3    0    0  0.24100403462E+02 -0.32319170254E+02  0.16070627115E+02  0.43400728898E+02  0.00000000000E+00 0. -1.
         11    1    4    4    0    0 -0.48638873797E+00  0.21150073167E+01  0.40889376067E+00  0.22083985879E+01  0.51100000000E-03 0. -1.
        -11    1    4    4    0    0  0.37280170297E+00  0.70927667314E+00 -0.61243171008E+01  0.61765131523E+01  0.51100000000E-03 0.  1.
        -12    1    4    4    0    0 -0.23986816427E+02  0.29494886264E+02 -0.10355203775E+02  0.39402359362E+02  0.00000000000E+00 0.  1.
</event>
<event>
 8    1  0.6019723E-011  0.9118800E+02  0.7816164E-02  0.1184000E+00
        -11   -1    0    0    0    0  0.00000000000E+00  0.00000000000E+00  0.45593999997E+02  0.45594000000E+02  0.51100000000E-03 0. -1.
         11   -1    0    0    0    0 -0.00000000000E+00 -0.00000000000E+00 -0.45593999997E+02  0.45594000000E+02  0.51100000000E-03 0.  1.
         23    2    1    2    0    0  0.00000000000E+00  0.00000000000E+00  0.00000000000E+00  0.91188000000E+02  0.91188000000E+02 0.  0.
    9900012    2    3    3    0    0 -0.60399486665E+01 -0.13777620610E+02  0.40710188810E+02  0.47787270945E+02  0.19999999544E+02 0.  0.
        -12    1    3    3    0    0  0.60399486665E+01  0.13777620610E+02 -0.40710188810E+02  0.43400729055E+02  0.00000000000E+00 0.  1.
         11    1    4    4    0    0 -0.52981641967E+01 -0.47395907579E+00  0.32268726697E+01  0.62215664063E+01  0.51100000000E-03 0.  1.
        -11    1    4    4    0    0  0.11647032462E+01 -0.15192483181E+02  0.30775015782E+02  0.34340496145E+02  0.51100000000E-03 0. -1.
         12    1    4    4    0    0 -0.19064877160E+01  0.18888216461E+01  0.67083003583E+01  0.72252083928E+01  0.00000000000E+00 0. -1.
</event>
<event>
 8    1  0.9005940E-011  0.9118800E+02  0.7816164E-02  0.1184000E+00
        -11   -1    0    0    0    0  0.00000000000E+00  0.00000000000E+00  0.45593999997E+02  0.45594000000E+02  0.51100000000E-03 0. -1.
         11   -1    0    0    0    0 -0.00000000000E+00 -0.00000000000E+00 -0.45593999997E+02  0.45594000000E+02  0.51100000000E-03 0.  1.
         23    2    1    2    0    0  0.00000000000E+00  0.00000000000E+00  0.00000000000E+00  0.91188000000E+02  0.91188000000E+02 0.  0.
    9900012    2    3    3    0    0  0.94308961589E+01  0.15055712474E+02 -0.39598068927E+02  0.47787270246E+02  0.19999996361E+02 0.  0.
         12    1    3    3    0    0 -0.94308961589E+01 -0.15055712474E+02  0.39598068927E+02  0.43400729754E+02  0.00000000000E+00 0. -1.
         11    1    4    4    0    0  0.55728853661E+01  0.62271150116E+01 -0.23660567466E+01  0.86851734272E+01  0.51100000000E-03 0. -1.
        -11    1    4    4    0    0  0.57930476019E+01  0.69537431140E+01 -0.25313748718E+02  0.26883076800E+02  0.51100000000E-03 0.  1.
         12    1    4    4    0    0 -0.19350368090E+01  0.18748543479E+01 -0.11918263462E+02  0.12219020019E+02  0.00000000000E+00 0. -1.
</event>
<event>
 8    1  0.6019723E-011  0.9118800E+02  0.7816164E-02  0.1184000E+00
        -11   -1    0    0    0    0  0.00000000000E+00  0.00000000000E+00  0.45593999997E+02  0.45594000000E+02  0.51100000000E-03 0. -1.
         11   -1    0    0    0    0 -0.00000000000E+00 -0.00000000000E+00 -0.45593999997E+02  0.45594000000E+02  0.51100000000E-03 0.  1.
         23    2    1    2    0    0  0.14432899320E-14  0.00000000000E+00  0.00000000000E+00  0.91188000000E+02  0.91188000000E+02 0.  0.
    9900012    2    3    3    0    0 -0.42961405084E+00  0.17903531157E+02  0.39533559399E+02  0.47787270572E+02  0.19999997846E+02 0.  0.
        -12    1    3    3    0    0  0.42961405084E+00 -0.17903531157E+02 -0.39533559399E+02  0.43400729428E+02  0.00000000000E+00 0.  1.
         11    1    4    4    0    0  0.56310774738E+01  0.91402129170E+01  0.23127426779E+02  0.25497654703E+02  0.51100000000E-03 0. -1.
        -11    1    4    4    0    0 -0.74435282875E+01  0.78740943098E+01  0.73681674101E+01  0.13103334149E+02  0.51100000000E-03 0.  1.
        -12    1    4    4    0    0  0.13828367628E+01  0.88922393047E+00  0.90379652100E+01  0.91862817205E+01  0.00000000000E+00 0.  1.
</event>
<event>
 8    1  0.6019723E-011  0.9118800E+02  0.7816164E-02  0.1184000E+00
        -11   -1    0    0    0    0  0.00000000000E+00  0.00000000000E+00  0.45593999997E+02  0.45594000000E+02  0.51100000000E-03 0. -1.
         11   -1    0    0    0    0 -0.00000000000E+00 -0.00000000000E+00 -0.45593999997E+02  0.45594000000E+02  0.51100000000E-03 0.  1.
         23    2    1    2    0    0  0.00000000000E+00  0.00000000000E+00  0.00000000000E+00  0.91188000000E+02  0.91188000000E+02 0.  0.
    9900012    2    3    3    0    0 -0.25972412244E+02 -0.59818163488E+01 -0.34253079610E+02  0.47787288170E+02  0.20000078081E+02 0.  0.
         12    1    3    3    0    0  0.25972412244E+02  0.59818163488E+01  0.34253079610E+02  0.43400711830E+02  0.00000000000E+00 0. -1.
         11    1    4    4    0    0 -0.11520550390E+02 -0.30500575722E+01 -0.29482394129E+01  0.12276727918E+02  0.51100000000E-03 0. -1.
        -11    1    4    4    0    0 -0.33877209911E+01 -0.35403762219E+01 -0.15133572255E+02  0.15907103028E+02  0.51100000000E-03 0.  1.
         12    1    4    4    0    0 -0.11064140863E+02  0.60861744527E+00 -0.16171267942E+02  0.19603457223E+02  0.00000000000E+00 0. -1.
</event>
<event>
 8    1  0.6019723E-011  0.9118800E+02  0.7816164E-02  0.1184000E+00
        -11   -1    0    0    0    0  0.00000000000E+00  0.00000000000E+00  0.45593999997E+02  0.45594000000E+02  0.51100000000E-03 0. -1.
         11   -1    0    0    0    0 -0.00000000000E+00 -0.00000000000E+00 -0.45593999997E+02  0.45594000000E+02  0.51100000000E-03 0.  1.
         23    2    1    2    0    0 -0.16653345369E-15 -0.71054273576E-14  0.35527136788E-14  0.91188000000E+02  0.91188000000E+02 0.  0.
    9900012    2    3    3    0    0  0.33269446093E+00  0.38580433067E+02  0.19876201673E+02  0.47787263899E+02  0.19999967419E+02 0.  0.
        -12    1    3    3    0    0 -0.33269446093E+00 -0.38580433067E+02 -0.19876201673E+02  0.43400736101E+02  0.00000000000E+00 0.  1.
         11    1    4    4    0    0 -0.65769823183E+01  0.30089450275E+02  0.16447904481E+02  0.34916547314E+02  0.51100000000E-03 0. -1.
        -11    1    4    4    0    0  0.57727442716E+01  0.46899429214E+01  0.45858608802E+01  0.87378636579E+01  0.51100000000E-03 0.  1.
        -12    1    4    4    0    0  0.11369325077E+01  0.38010398705E+01 -0.11575636881E+01  0.41328529270E+01  0.00000000000E+00 0.  1.
</event>
<event>
 8    1  0.6019723E-011  0.9118800E+02  0.7816164E-02  0.1184000E+00
        -11   -1    0    0    0    0  0.00000000000E+00  0.00000000000E+00  0.45593999997E+02  0.45594000000E+02  0.51100000000E-03 0. -1.
         11   -1    0    0    0    0 -0.00000000000E+00 -0.00000000000E+00 -0.45593999997E+02  0.45594000000E+02  0.51100000000E-03 0.  1.
         23    2    1    2    0    0 -0.35527136788E-14  0.00000000000E+00  0.00000000000E+00  0.91188000000E+02  0.91188000000E+02 0.  0.
    9900012    2    3    3    0    0  0.13444198328E+02  0.39581064305E+02 -0.11671173227E+02  0.47787269538E+02  0.19999993130E+02 0.  0.
         12    1    3    3    0    0 -0.13444198328E+02 -0.39581064305E+02  0.11671173227E+02  0.43400730462E+02  0.00000000000E+00 0. -1.
         11    1    4    4    0    0  0.10379139515E+02  0.18663935137E+02  0.27099564634E+01  0.21527026644E+02  0.51100000000E-03 0. -1.
        -11    1    4    4    0    0  0.29129588711E+01  0.21330962958E+02 -0.14146502111E+02  0.25760800305E+02  0.51100000000E-03 0.  1.
        -12    1    4    4    0    0  0.15209994212E+00 -0.41383379012E+00 -0.23462757949E+00  0.49944258859E+00  0.00000000000E+00 0.  1.
</event>
<event>
 8    1  0.9070915E-011  0.9118800E+02  0.7816164E-02  0.1184000E+00
        -11   -1    0    0    0    0  0.00000000000E+00  0.00000000000E+00  0.45593999997E+02  0.45594000000E+02  0.51100000000E-03 0. -1.
         11   -1    0    0    0    0 -0.00000000000E+00 -0.00000000000E+00 -0.45593999997E+02  0.45594000000E+02  0.51100000000E-03 0.  1.
         23    2    1    2    0    0 -0.35527136788E-14 -0.35527136788E-14  0.35527136788E-14  0.91188000000E+02  0.91188000000E+02 0.  0.
    9900012    2    3    3    0    0 -0.26097404593E+02  0.22586418588E+02 -0.26313542645E+02  0.47787270080E+02  0.19999995601E+02 0.  0.
         12    1    3    3    0    0  0.26097404593E+02 -0.22586418588E+02  0.26313542645E+02  0.43400729920E+02  0.00000000000E+00 0. -1.
         11    1    4    4    0    0 -0.49022767889E+01 -0.20580938848E+01 -0.56548423303E+01  0.77617852454E+01  0.51100000000E-03 0. -1.
        -11    1    4    4    0    0 -0.21665251095E+02  0.19651111662E+02 -0.17184964415E+02  0.33924508792E+02  0.51100000000E-03 0.  1.
         12    1    4    4    0    0  0.47012329170E+00  0.49934008105E+01 -0.34737359001E+01  0.61009760422E+01  0.00000000000E+00 0. -1.
</event>
<event>
 8    1  0.6019723E-011  0.9118800E+02  0.7816164E-02  0.1184000E+00
        -11   -1    0    0    0    0  0.00000000000E+00  0.00000000000E+00  0.45593999997E+02  0.45594000000E+02  0.51100000000E-03 0.  1.
         11   -1    0    0    0    0 -0.00000000000E+00 -0.00000000000E+00 -0.45593999997E+02  0.45594000000E+02  0.51100000000E-03 0. -1.
         23    2    1    2    0    0  0.00000000000E+00  0.00000000000E+00  0.44408920985E-15  0.91188000000E+02  0.91188000000E+02 0.  0.
    9900012    2    3    3    0    0 -0.41847257922E+02  0.10837460909E+02  0.38705018586E+01  0.47787258772E+02  0.19999944045E+02 0.  0.
        -12    1    3    3    0    0  0.41847257922E+02 -0.10837460909E+02 -0.38705018586E+01  0.43400741228E+02  0.00000000000E+00 0.  1.
         11    1    4    4    0    0 -0.30623965975E+02  0.15763637297E+02  0.46446588260E+01  0.34754746564E+02  0.51100000000E-03 0. -1.
        -11    1    4    4    0    0 -0.47698732967E+01 -0.38808225835E+01 -0.18176945943E+01  0.64122140552E+01  0.51100000000E-03 0.  1.
         12    1    4    4    0    0 -0.64534186499E+01 -0.10453538052E+01  0.10435376268E+01  0.66202981525E+01  0.00000000000E+00 0. -1.
</event>
<event>
 8    1  0.6019723E-011  0.9118800E+02  0.7816164E-02  0.1184000E+00
        -11   -1    0    0    0    0  0.00000000000E+00  0.00000000000E+00  0.45593999997E+02  0.45594000000E+02  0.51100000000E-03 0. -1.
         11   -1    0    0    0    0 -0.00000000000E+00 -0.00000000000E+00 -0.45593999997E+02  0.45594000000E+02  0.51100000000E-03 0.  1.
         23    2    1    2    0    0  0.00000000000E+00  0.88817841970E-15 -0.35527136788E-14  0.91188000000E+02  0.91188000000E+02 0.  0.
    9900012    2    3    3    0    0 -0.37404177856E+02 -0.58747797449E+01  0.21214096782E+02  0.47787268895E+02  0.19999990201E+02 0.  0.
        -12    1    3    3    0    0  0.37404177856E+02  0.58747797449E+01 -0.21214096782E+02  0.43400731105E+02  0.00000000000E+00 0.  1.
         11    1    4    4    0    0 -0.89025666498E+01 -0.56846145422E+01 -0.75710824062E+00  0.10589794549E+02  0.51100000000E-03 0. -1.
        -11    1    4    4    0    0  0.38712131690E+00  0.73455362792E-01 -0.47162838144E+00  0.61456667305E+00  0.51100000000E-03 0.  1.
         12    1    4    4    0    0 -0.28888732523E+02 -0.26362056550E+00  0.22442833404E+02  0.36582907673E+02  0.00000000000E+00 0. -1.
</event>
<event>
 8    1  0.6019723E-011  0.9118800E+02  0.7816164E-02  0.1184000E+00
        -11   -1    0    0    0    0  0.00000000000E+00  0.00000000000E+00  0.45593999997E+02  0.45594000000E+02  0.51100000000E-03 0. -1.
         11   -1    0    0    0    0 -0.00000000000E+00 -0.00000000000E+00 -0.45593999997E+02  0.45594000000E+02  0.51100000000E-03 0.  1.
         23    2    1    2    0    0  0.00000000000E+00  0.00000000000E+00 -0.44408920985E-15  0.91188000000E+02  0.91188000000E+02 0.  0.
    9900012    2    3    3    0    0 -0.24113149201E+02  0.35889796308E+02 -0.37551974335E+01  0.47787274762E+02  0.20000016949E+02 0.  0.
        -12    1    3    3    0    0  0.24113149201E+02 -0.35889796308E+02  0.37551974335E+01  0.43400725238E+02  0.00000000000E+00 0.  1.
         11    1    4    4    0    0 -0.39414896811E+00  0.78519545713E+01  0.54647011598E+01  0.95745236449E+01  0.51100000000E-03 0. -1.
        -11    1    4    4    0    0 -0.18761292570E+02  0.24879173240E+02 -0.70595185749E+01  0.31949900826E+02  0.51100000000E-03 0.  1.
         12    1    4    4    0    0 -0.49577076626E+01  0.31586684968E+01 -0.21603800184E+01  0.62628502907E+01  0.00000000000E+00 0. -1.
</event>
<event>
 8    1  0.6019723E-011  0.9118800E+02  0.7816164E-02  0.1184000E+00
        -11   -1    0    0    0    0  0.00000000000E+00  0.00000000000E+00  0.45593999997E+02  0.45594000000E+02  0.51100000000E-03 0. -1.
         11   -1    0    0    0    0 -0.00000000000E+00 -0.00000000000E+00 -0.45593999997E+02  0.45594000000E+02  0.51100000000E-03 0.  1.
         23    2    1    2    0    0  0.00000000000E+00  0.00000000000E+00  0.00000000000E+00  0.91188000000E+02  0.91188000000E+02 0.  0.
    9900012    2    3    3    0    0  0.28445228234E+02 -0.35952554078E+01 -0.32581686050E+02  0.47787272626E+02  0.20000007212E+02 0.  0.
         12    1    3    3    0    0 -0.28445228234E+02  0.35952554078E+01  0.32581686050E+02  0.43400727374E+02  0.00000000000E+00 0. -1.
         11    1    4    4    0    0  0.41696083049E+01 -0.25939521271E+01 -0.18599188855E+02  0.19236528985E+02  0.51100000000E-03 0. -1.
        -11    1    4    4    0    0  0.23191421081E+02  0.84380491518E-01 -0.13845907901E+02  0.27010336868E+02  0.51100000000E-03 0.  1.
        -12    1    4    4    0    0  0.10841988475E+01 -0.10856837722E+01 -0.13658929394E+00  0.15404067740E+01  0.00000000000E+00 0.  1.
</event>
<event>
 8    1  0.6019723E-011  0.9118800E+02  0.7816164E-02  0.1184000E+00
        -11   -1    0    0    0    0  0.00000000000E+00  0.00000000000E+00  0.45593999997E+02  0.45594000000E+02  0.51100000000E-03 0. -1.
         11   -1    0    0    0    0 -0.00000000000E+00 -0.00000000000E+00 -0.45593999997E+02  0.45594000000E+02  0.51100000000E-03 0.  1.
         23    2    1    2    0    0  0.71054273576E-14  0.00000000000E+00  0.00000000000E+00  0.91188000000E+02  0.91188000000E+02 0.  0.
    9900012    2    3    3    0    0 -0.24812661525E+02  0.76697497927E+01  0.34772546542E+02  0.47787271586E+02  0.20000002471E+02 0.  0.
        -12    1    3    3    0    0  0.24812661525E+02 -0.76697497927E+01 -0.34772546542E+02  0.43400728414E+02  0.00000000000E+00 0.  1.
         11    1    4    4    0    0  0.10659126550E+01 -0.22284353306E+00  0.75322128251E+00  0.13240738612E+01  0.51100000000E-03 0.  1.
        -11    1    4    4    0    0 -0.11093132394E+02  0.10756398367E+02  0.23377197565E+02  0.28022331423E+02  0.51100000000E-03 0. -1.
        -12    1    4    4    0    0 -0.14785441786E+02 -0.28638050408E+01  0.10642127694E+02  0.18440866302E+02  0.00000000000E+00 0.  1.
</event>
<event>
 8    1  0.6019723E-011  0.9118800E+02  0.7816164E-02  0.1184000E+00
        -11   -1    0    0    0    0  0.00000000000E+00  0.00000000000E+00  0.45593999997E+02  0.45594000000E+02  0.51100000000E-03 0.  1.
         11   -1    0    0    0    0 -0.00000000000E+00 -0.00000000000E+00 -0.45593999997E+02  0.45594000000E+02  0.51100000000E-03 0. -1.
         23    2    1    2    0    0 -0.71054273576E-14  0.00000000000E+00 -0.17763568394E-14  0.91188000000E+02  0.91188000000E+02 0.  0.
    9900012    2    3    3    0    0 -0.33051440098E+02  0.25736125308E+02  0.11352354190E+02  0.47787288208E+02  0.20000078256E+02 0.  0.
        -12    1    3    3    0    0  0.33051440098E+02 -0.25736125308E+02 -0.11352354190E+02  0.43400711792E+02  0.00000000000E+00 0.  1.
         11    1    4    4    0    0 -0.22280358652E+02  0.17898162498E+02  0.12000289773E+02  0.30996218437E+02  0.51100000000E-03 0. -1.
        -11    1    4    4    0    0 -0.96931841187E+01  0.27719831424E+01 -0.37467465416E+01  0.10755455305E+02  0.51100000000E-03 0.  1.
         12    1    4    4    0    0 -0.10778973267E+01  0.50659796672E+01  0.30988109580E+01  0.60356144666E+01  0.00000000000E+00 0. -1.
</event>
<event>
 8    1  0.6019723E-011  0.9118800E+02  0.7816164E-02  0.1184000E+00
        -11   -1    0    0    0    0  0.00000000000E+00  0.00000000000E+00  0.45593999997E+02  0.45594000000E+02  0.51100000000E-03 0. -1.
         11   -1    0    0    0    0 -0.00000000000E+00 -0.00000000000E+00 -0.45593999997E+02  0.45594000000E+02  0.51100000000E-03 0.  1.
         23    2    1    2    0    0  0.00000000000E+00  0.00000000000E+00  0.00000000000E+00  0.91188000000E+02  0.91188000000E+02 0.  0.
    9900012    2    3    3    0    0 -0.19230547224E+02  0.16891377882E+02 -0.35049832742E+02  0.47787269954E+02  0.19999995027E+02 0.  0.
         12    1    3    3    0    0  0.19230547224E+02 -0.16891377882E+02  0.35049832742E+02  0.43400730046E+02  0.00000000000E+00 0. -1.
         11    1    4    4    0    0  0.86740339871E+00  0.21586562774E+00  0.14687053377E+01  0.17193261050E+01  0.51100000000E-03 0. -1.
        -11    1    4    4    0    0 -0.18428901737E+02  0.15987334195E+02 -0.36887145760E+02  0.44225341112E+02  0.51100000000E-03 0.  1.
        -12    1    4    4    0    0 -0.16690488860E+01  0.68817805925E+00  0.36860767960E+00  0.18426027370E+01  0.00000000000E+00 0.  1.
</event>
<event>
 8    1  0.6019723E-011  0.9118800E+02  0.7816164E-02  0.1184000E+00
        -11   -1    0    0    0    0  0.00000000000E+00  0.00000000000E+00  0.45593999997E+02  0.45594000000E+02  0.51100000000E-03 0. -1.
         11   -1    0    0    0    0 -0.00000000000E+00 -0.00000000000E+00 -0.45593999997E+02  0.45594000000E+02  0.51100000000E-03 0.  1.
         23    2    1    2    0    0  0.00000000000E+00  0.00000000000E+00  0.00000000000E+00  0.91188000000E+02  0.91188000000E+02 0.  0.
    9900012    2    3    3    0    0 -0.21977115995E+02 -0.10595274143E+02  0.35893863457E+02  0.47787275403E+02  0.20000019874E+02 0.  0.
        -12    1    3    3    0    0  0.21977115995E+02  0.10595274143E+02 -0.35893863457E+02  0.43400724597E+02  0.00000000000E+00 0.  1.
         11    1    4    4    0    0 -0.78468978194E+01  0.19764070567E+00  0.12216759428E+02  0.14521090814E+02  0.51100000000E-03 0. -1.
        -11    1    4    4    0    0 -0.58846178803E+01 -0.13160332610E+02  0.11884218196E+02  0.18683086587E+02  0.51100000000E-03 0.  1.
        -12    1    4    4    0    0 -0.82456002954E+01  0.23674177614E+01  0.11792885833E+02  0.14583098003E+02  0.00000000000E+00 0.  1.
</event>
<event>
 8    1  0.6019723E-011  0.9118800E+02  0.7816164E-02  0.1184000E+00
        -11   -1    0    0    0    0  0.00000000000E+00  0.00000000000E+00  0.45593999997E+02  0.45594000000E+02  0.51100000000E-03 0. -1.
         11   -1    0    0    0    0 -0.00000000000E+00 -0.00000000000E+00 -0.45593999997E+02  0.45594000000E+02  0.51100000000E-03 0.  1.
         23    2    1    2    0    0  0.00000000000E+00  0.00000000000E+00  0.00000000000E+00  0.91188000000E+02  0.91188000000E+02 0.  0.
    9900012    2    3    3    0    0 -0.20328179504E+02  0.19303280881E+02 -0.33132640204E+02  0.47787269803E+02  0.19999994341E+02 0.  0.
         12    1    3    3    0    0  0.20328179504E+02 -0.19303280881E+02  0.33132640204E+02  0.43400730197E+02  0.00000000000E+00 0. -1.
         11    1    4    4    0    0 -0.49386599713E+01 -0.11089201700E+01 -0.67169917146E+01  0.84105911926E+01  0.51100000000E-03 0. -1.
        -11    1    4    4    0    0 -0.63025942637E+01  0.18671390377E+02 -0.20263787910E+02  0.28265962106E+02  0.51100000000E-03 0.  1.
        -12    1    4    4    0    0 -0.90869252694E+01  0.17408106742E+01 -0.61518605789E+01  0.11110716504E+02  0.00000000000E+00 0.  1.
</event>
<event>
 8    1  0.6019723E-011  0.9118800E+02  0.7816164E-02  0.1184000E+00
        -11   -1    0    0    0    0  0.00000000000E+00  0.00000000000E+00  0.45593999997E+02  0.45594000000E+02  0.51100000000E-03 0. -1.
         11   -1    0    0    0    0 -0.00000000000E+00 -0.00000000000E+00 -0.45593999997E+02  0.45594000000E+02  0.51100000000E-03 0.  1.
         23    2    1    2    0    0  0.00000000000E+00 -0.44408920985E-15  0.00000000000E+00  0.91188000000E+02  0.91188000000E+02 0.  0.
    9900012    2    3    3    0    0  0.16643160657E+02 -0.31721259860E+01  0.39957087251E+02  0.47787239620E+02  0.19999856725E+02 0.  0.
        -12    1    3    3    0    0 -0.16643160657E+02  0.31721259860E+01 -0.39957087251E+02  0.43400760380E+02  0.00000000000E+00 0.  1.
         11    1    4    4    0    0  0.58786545930E+01  0.68827885646E+01  0.14940608182E+02  0.17468632784E+02  0.51100000000E-03 0. -1.
        -11    1    4    4    0    0  0.95998160634E+01 -0.62529315365E+01  0.11513935341E+02  0.16242731561E+02  0.51100000000E-03 0.  1.
        -12    1    4    4    0    0  0.11646900007E+01 -0.38019830141E+01  0.13502543728E+02  0.14075875276E+02  0.00000000000E+00 0.  1.
</event>
<event>
 8    1  0.6019723E-011  0.9118800E+02  0.7816164E-02  0.1184000E+00
        -11   -1    0    0    0    0  0.00000000000E+00  0.00000000000E+00  0.45593999997E+02  0.45594000000E+02  0.51100000000E-03 0. -1.
         11   -1    0    0    0    0 -0.00000000000E+00 -0.00000000000E+00 -0.45593999997E+02  0.45594000000E+02  0.51100000000E-03 0.  1.
         23    2    1    2    0    0  0.00000000000E+00  0.00000000000E+00  0.00000000000E+00  0.91188000000E+02  0.91188000000E+02 0.  0.
    9900012    2    3    3    0    0 -0.28009860897E+02 -0.33415423101E+01 -0.32983447058E+02  0.47787239726E+02  0.19999857207E+02 0.  0.
         12    1    3    3    0    0  0.28009860897E+02  0.33415423101E+01  0.32983447058E+02  0.43400760274E+02  0.00000000000E+00 0. -1.
         11    1    4    4    0    0 -0.29603631577E+01 -0.62322819366E+01 -0.25996479345E+01  0.73731443636E+01  0.51100000000E-03 0. -1.
        -11    1    4    4    0    0 -0.76149419404E+01  0.46640275221E+01 -0.12630885744E+02  0.15468670545E+02  0.51100000000E-03 0.  1.
         12    1    4    4    0    0 -0.17434555799E+02 -0.17732878956E+01 -0.17752913380E+02  0.24945424818E+02  0.00000000000E+00 0. -1.
</event>
<event>
 8    1  0.6019723E-011  0.9118800E+02  0.7816164E-02  0.1184000E+00
        -11   -1    0    0    0    0  0.00000000000E+00  0.00000000000E+00  0.45593999997E+02  0.45594000000E+02  0.51100000000E-03 0. -1.
         11   -1    0    0    0    0 -0.00000000000E+00 -0.00000000000E+00 -0.45593999997E+02  0.45594000000E+02  0.51100000000E-03 0.  1.
         23    2    1    2    0    0  0.35527136788E-14 -0.35527136788E-14  0.35527136788E-14  0.91188000000E+02  0.91188000000E+02 0.  0.
    9900012    2    3    3    0    0  0.19476509510E+02 -0.23738949609E+02  0.30671660248E+02  0.47787275425E+02  0.20000019972E+02 0.  0.
        -12    1    3    3    0    0 -0.19476509510E+02  0.23738949609E+02 -0.30671660248E+02  0.43400724575E+02  0.00000000000E+00 0.  1.
         11    1    4    4    0    0  0.39972233830E+01 -0.65133604765E+01  0.15361454757E+02  0.17157387680E+02  0.51100000000E-03 0. -1.
        -11    1    4    4    0    0  0.15364236930E+02 -0.13057434466E+02  0.70203954320E+01  0.21350464247E+02  0.51100000000E-03 0.  1.
        -12    1    4    4    0    0  0.11504919720E+00 -0.41681546664E+01  0.82898100591E+01  0.92794234981E+01  0.00000000000E+00 0.  1.
</event>
<event>
 8    1  0.6019723E-011  0.9118800E+02  0.7816164E-02  0.1184000E+00
        -11   -1    0    0    0    0  0.00000000000E+00  0.00000000000E+00  0.45593999997E+02  0.45594000000E+02  0.51100000000E-03 0. -1.
         11   -1    0    0    0    0 -0.00000000000E+00 -0.00000000000E+00 -0.45593999997E+02  0.45594000000E+02  0.51100000000E-03 0.  1.
         23    2    1    2    0    0 -0.17763568394E-14  0.44408920985E-15  0.71054273576E-14  0.91188000000E+02  0.91188000000E+02 0.  0.
    9900012    2    3    3    0    0 -0.11516770386E+02  0.34500511158E+01  0.41702328539E+02  0.47787273527E+02  0.20000011317E+02 0.  0.
        -12    1    3    3    0    0  0.11516770386E+02 -0.34500511158E+01 -0.41702328539E+02  0.43400726473E+02  0.00000000000E+00 0.  1.
         11    1    4    4    0    0 -0.32705429140E+01 -0.21437982017E+01  0.13790389367E+02  0.14334125744E+02  0.51100000000E-03 0. -1.
        -11    1    4    4    0    0 -0.83557794715E+01 -0.32399196007E+01  0.96682966984E+01  0.13183022829E+02  0.51100000000E-03 0.  1.
        -12    1    4    4    0    0  0.10955199988E+00  0.88337689182E+01  0.18243642474E+02  0.20270124954E+02  0.00000000000E+00 0.  1.
</event>
<event>
 8    1  0.6019723E-011  0.9118800E+02  0.7816164E-02  0.1184000E+00
        -11   -1    0    0    0    0  0.00000000000E+00  0.00000000000E+00  0.45593999997E+02  0.45594000000E+02  0.51100000000E-03 0. -1.
         11   -1    0    0    0    0 -0.00000000000E+00 -0.00000000000E+00 -0.45593999997E+02  0.45594000000E+02  0.51100000000E-03 0.  1.
         23    2    1    2    0    0  0.00000000000E+00  0.00000000000E+00  0.35527136788E-14  0.91188000000E+02  0.91188000000E+02 0.  0.
    9900012    2    3    3    0    0 -0.19643690106E+02  0.28259088773E+02  0.26441870507E+02  0.47787272182E+02  0.20000005186E+02 0.  0.
        -12    1    3    3    0    0  0.19643690106E+02 -0.28259088773E+02 -0.26441870507E+02  0.43400727818E+02  0.00000000000E+00 0.  1.
         11    1    4    4    0    0 -0.13479995423E+02  0.21240217640E+02  0.24494057866E+02  0.35111479505E+02  0.51100000000E-03 0. -1.
        -11    1    4    4    0    0 -0.41883938655E+01  0.83064433718E+01 -0.44912870968E+00  0.93135042557E+01  0.51100000000E-03 0.  1.
        -12    1    4    4    0    0 -0.19753008173E+01 -0.12875722392E+01  0.23969413502E+01  0.33622884211E+01  0.00000000000E+00 0.  1.
</event>
<event>
 8    1  0.6019723E-011  0.9118800E+02  0.7816164E-02  0.1184000E+00
        -11   -1    0    0    0    0  0.00000000000E+00  0.00000000000E+00  0.45593999997E+02  0.45594000000E+02  0.51100000000E-03 0. -1.
         11   -1    0    0    0    0 -0.00000000000E+00 -0.00000000000E+00 -0.45593999997E+02  0.45594000000E+02  0.51100000000E-03 0.  1.
         23    2    1    2    0    0  0.88817841970E-15 -0.71054273576E-14  0.35527136788E-14  0.91188000000E+02  0.91188000000E+02 0.  0.
    9900012    2    3    3    0    0 -0.36776306036E+01  0.37147975897E+02 -0.22138791889E+02  0.47787272052E+02  0.20000004594E+02 0.  0.
         12    1    3    3    0    0  0.36776306036E+01 -0.37147975897E+02  0.22138791889E+02  0.43400727948E+02  0.00000000000E+00 0. -1.
         11    1    4    4    0    0 -0.14287303930E+01  0.10107153241E+01 -0.58945152702E+01  0.61488313145E+01  0.51100000000E-03 0. -1.
        -11    1    4    4    0    0 -0.48404871237E+01  0.35158784579E+02 -0.15733650527E+02  0.38821620366E+02  0.51100000000E-03 0.  1.
         12    1    4    4    0    0  0.25915869132E+01  0.97847599408E+00 -0.51062609144E+00  0.28168203714E+01  0.00000000000E+00 0. -1.
</event>
<event>
 8    1  0.6019723E-011  0.9118800E+02  0.7816164E-02  0.1184000E+00
        -11   -1    0    0    0    0  0.00000000000E+00  0.00000000000E+00  0.45593999997E+02  0.45594000000E+02  0.51100000000E-03 0. -1.
         11   -1    0    0    0    0 -0.00000000000E+00 -0.00000000000E+00 -0.45593999997E+02  0.45594000000E+02  0.51100000000E-03 0.  1.
         23    2    1    2    0    0  0.00000000000E+00  0.88817841970E-15  0.00000000000E+00  0.91188000000E+02  0.91188000000E+02 0.  0.
    9900012    2    3    3    0    0 -0.13871591912E+01  0.54401032039E+01 -0.43036080230E+02  0.47787272644E+02  0.20000007293E+02 0.  0.
         12    1    3    3    0    0  0.13871591912E+01 -0.54401032039E+01  0.43036080230E+02  0.43400727356E+02  0.00000000000E+00 0. -1.
         11    1    4    4    0    0 -0.47096130614E+01 -0.16275927030E+01 -0.10361475410E+02  0.11497377359E+02  0.51100000000E-03 0. -1.
        -11    1    4    4    0    0  0.63077687952E+01  0.53626546296E+01 -0.84769918199E+01  0.11849278561E+02  0.51100000000E-03 0.  1.
        -12    1    4    4    0    0 -0.29853149250E+01  0.17050412772E+01 -0.24197613000E+02  0.24440616724E+02  0.00000000000E+00 0.  1.
</event>
<event>
 8    1  0.6019723E-011  0.9118800E+02  0.7816164E-02  0.1184000E+00
        -11   -1    0    0    0    0  0.00000000000E+00  0.00000000000E+00  0.45593999997E+02  0.45594000000E+02  0.51100000000E-03 0. -1.
         11   -1    0    0    0    0 -0.00000000000E+00 -0.00000000000E+00 -0.45593999997E+02  0.45594000000E+02  0.51100000000E-03 0.  1.
         23    2    1    2    0    0  0.00000000000E+00  0.00000000000E+00  0.71054273576E-14  0.91188000000E+02  0.91188000000E+02 0.  0.
    9900012    2    3    3    0    0 -0.80779214523E+01  0.53379043480E+01  0.42306943117E+02  0.47787268742E+02  0.19999989504E+02 0.  0.
        -12    1    3    3    0    0  0.80779214523E+01 -0.53379043480E+01 -0.42306943117E+02  0.43400731258E+02  0.00000000000E+00 0.  1.
         11    1    4    4    0    0 -0.32392378693E+01 -0.42863769330E+01  0.14256264351E+02  0.15235050465E+02  0.51100000000E-03 0. -1.
        -11    1    4    4    0    0 -0.70395709784E+01  0.68609169271E+01  0.95075414931E+01  0.13675565295E+02  0.51100000000E-03 0.  1.
        -12    1    4    4    0    0  0.22008873954E+01  0.27633643539E+01  0.18543137273E+02  0.18876652982E+02  0.00000000000E+00 0.  1.
</event>
<event>
 8    1  0.6019723E-011  0.9118800E+02  0.7816164E-02  0.1184000E+00
        -11   -1    0    0    0    0  0.00000000000E+00  0.00000000000E+00  0.45593999997E+02  0.45594000000E+02  0.51100000000E-03 0. -1.
         11   -1    0    0    0    0 -0.00000000000E+00 -0.00000000000E+00 -0.45593999997E+02  0.45594000000E+02  0.51100000000E-03 0.  1.
         23    2    1    2    0    0 -0.71054273576E-14 -0.44408920985E-15  0.00000000000E+00  0.91188000000E+02  0.91188000000E+02 0.  0.
    9900012    2    3    3    0    0  0.27712881259E+02 -0.19058286065E+01 -0.33346467500E+02  0.47787275754E+02  0.20000021475E+02 0.  0.
         12    1    3    3    0    0 -0.27712881259E+02  0.19058286065E+01  0.33346467500E+02  0.43400724246E+02  0.00000000000E+00 0. -1.
         11    1    4    4    0    0 -0.34408691769E+00 -0.15872474470E+01  0.12090750071E+01  0.20247500831E+01  0.51100000000E-03 0. -1.
        -11    1    4    4    0    0  0.13418898792E+02  0.51273656875E+01 -0.17362018831E+02  0.22534338726E+02  0.51100000000E-03 0.  1.
         12    1    4    4    0    0  0.14638069384E+02 -0.54459468469E+01 -0.17193523676E+02  0.23228186945E+02  0.00000000000E+00 0. -1.
</event>
<event>
 8    1  0.6019723E-011  0.9118800E+02  0.7816164E-02  0.1184000E+00
        -11   -1    0    0    0    0  0.00000000000E+00  0.00000000000E+00  0.45593999997E+02  0.45594000000E+02  0.51100000000E-03 0. -1.
         11   -1    0    0    0    0 -0.00000000000E+00 -0.00000000000E+00 -0.45593999997E+02  0.45594000000E+02  0.51100000000E-03 0.  1.
         23    2    1    2    0    0  0.44408920985E-15 -0.33306690739E-15  0.00000000000E+00  0.91188000000E+02  0.91188000000E+02 0.  0.
    9900012    2    3    3    0    0 -0.22233967785E+01 -0.56509485421E+00  0.43340057360E+02  0.47787269621E+02  0.19999993510E+02 0.  0.
        -12    1    3    3    0    0  0.22233967785E+01  0.56509485421E+00 -0.43340057360E+02  0.43400730379E+02  0.00000000000E+00 0.  1.
         11    1    4    4    0    0  0.21497183868E+01 -0.32398985488E+01  0.58570150014E+01  0.70301391691E+01  0.51100000000E-03 0. -1.
        -11    1    4    4    0    0 -0.84291134654E+01  0.60154498354E+01  0.28832269010E+02  0.30635523940E+02  0.51100000000E-03 0.  1.
        -12    1    4    4    0    0  0.40559983001E+01 -0.33406461408E+01  0.86507733489E+01  0.10121606512E+02  0.00000000000E+00 0.  1.
</event>
<event>
 8    1  0.6019723E-011  0.9118800E+02  0.7816164E-02  0.1184000E+00
        -11   -1    0    0    0    0  0.00000000000E+00  0.00000000000E+00  0.45593999997E+02  0.45594000000E+02  0.51100000000E-03 0.  1.
         11   -1    0    0    0    0 -0.00000000000E+00 -0.00000000000E+00 -0.45593999997E+02  0.45594000000E+02  0.51100000000E-03 0. -1.
         23    2    1    2    0    0 -0.71054273576E-14  0.00000000000E+00  0.11102230246E-14  0.91188000000E+02  0.91188000000E+02 0.  0.
    9900012    2    3    3    0    0  0.42179367577E+02  0.10115983216E+02 -0.14801927993E+01  0.47787272628E+02  0.20000007222E+02 0.  0.
        -12    1    3    3    0    0 -0.42179367577E+02 -0.10115983216E+02  0.14801927993E+01  0.43400727372E+02  0.00000000000E+00 0.  1.
         11    1    4    4    0    0  0.13613931522E+02 -0.34227342363E+01 -0.91398955768E+00  0.14067324490E+02  0.51100000000E-03 0. -1.
        -11    1    4    4    0    0  0.92616265301E+01  0.96934082806E+01  0.29444626430E+01  0.13726243135E+02  0.51100000000E-03 0.  1.
        -12    1    4    4    0    0  0.19303809526E+02  0.38453091721E+01 -0.35106658846E+01  0.19993705004E+02  0.00000000000E+00 0.  1.
</event>
<event>
 8    1  0.6019723E-011  0.9118800E+02  0.7816164E-02  0.1184000E+00
        -11   -1    0    0    0    0  0.00000000000E+00  0.00000000000E+00  0.45593999997E+02  0.45594000000E+02  0.51100000000E-03 0. -1.
         11   -1    0    0    0    0 -0.00000000000E+00 -0.00000000000E+00 -0.45593999997E+02  0.45594000000E+02  0.51100000000E-03 0.  1.
         23    2    1    2    0    0  0.35527136788E-14  0.13877787808E-15  0.00000000000E+00  0.91188000000E+02  0.91188000000E+02 0.  0.
    9900012    2    3    3    0    0 -0.20456038798E+02 -0.14727310292E+00  0.38277305370E+02  0.47787270524E+02  0.19999997625E+02 0.  0.
        -12    1    3    3    0    0  0.20456038798E+02  0.14727310292E+00 -0.38277305370E+02  0.43400729476E+02  0.00000000000E+00 0.  1.
         11    1    4    4    0    0 -0.15835165735E+02  0.51119482499E+01  0.15040744145E+02  0.22430079658E+02  0.51100000000E-03 0. -1.
        -11    1    4    4    0    0 -0.74427600826E+00 -0.71976995332E+00  0.15741008076E+02  0.15775023014E+02  0.51100000000E-03 0.  1.
        -12    1    4    4    0    0 -0.38765970546E+01 -0.45394513995E+01  0.74955531486E+01  0.95821678516E+01  0.00000000000E+00 0.  1.
</event>
<event>
 8    1  0.6019723E-011  0.9118800E+02  0.7816164E-02  0.1184000E+00
        -11   -1    0    0    0    0  0.00000000000E+00  0.00000000000E+00  0.45593999997E+02  0.45594000000E+02  0.51100000000E-03 0. -1.
         11   -1    0    0    0    0 -0.00000000000E+00 -0.00000000000E+00 -0.45593999997E+02  0.45594000000E+02  0.51100000000E-03 0.  1.
         23    2    1    2    0    0  0.00000000000E+00  0.00000000000E+00 -0.17763568394E-14  0.91188000000E+02  0.91188000000E+02 0.  0.
    9900012    2    3    3    0    0  0.38724388083E+02 -0.12372400462E+02 -0.15197655070E+02  0.47787271375E+02  0.20000001507E+02 0.  0.
         12    1    3    3    0    0 -0.38724388083E+02  0.12372400462E+02  0.15197655070E+02  0.43400728625E+02  0.00000000000E+00 0. -1.
         11    1    4    4    0    0  0.22664557145E+02 -0.13347126880E+02 -0.26796692721E+01  0.26438770286E+02  0.51100000000E-03 0. -1.
        -11    1    4    4    0    0  0.47750312563E+01 -0.25538720446E+01 -0.47341660714E+01  0.71927404076E+01  0.51100000000E-03 0.  1.
         12    1    4    4    0    0  0.11284799681E+02  0.35285984626E+01 -0.77838197260E+01  0.14155760682E+02  0.00000000000E+00 0. -1.
</event>
<event>
 8    1  0.6019723E-011  0.9118800E+02  0.7816164E-02  0.1184000E+00
        -11   -1    0    0    0    0  0.00000000000E+00  0.00000000000E+00  0.45593999997E+02  0.45594000000E+02  0.51100000000E-03 0.  1.
         11   -1    0    0    0    0 -0.00000000000E+00 -0.00000000000E+00 -0.45593999997E+02  0.45594000000E+02  0.51100000000E-03 0. -1.
         23    2    1    2    0    0  0.35527136788E-14  0.35527136788E-14  0.35527136788E-14  0.91188000000E+02  0.91188000000E+02 0.  0.
    9900012    2    3    3    0    0 -0.29194345947E+02 -0.23287760757E+02 -0.22113197533E+02  0.47787272570E+02  0.20000006955E+02 0.  0.
         12    1    3    3    0    0  0.29194345947E+02  0.23287760757E+02  0.22113197533E+02  0.43400727430E+02  0.00000000000E+00 0. -1.
         11    1    4    4    0    0 -0.16662892851E+02 -0.87144979737E+01 -0.99869921550E+01  0.21291652958E+02  0.51100000000E-03 0. -1.
        -11    1    4    4    0    0  0.23090800418E+01 -0.21574643955E+01 -0.49211418377E+01  0.58484306019E+01  0.51100000000E-03 0.  1.
        -12    1    4    4    0    0 -0.14840533138E+02 -0.12415798387E+02 -0.72050635406E+01  0.20647189010E+02  0.00000000000E+00 0.  1.
</event>
<event>
 8    1  0.6019723E-011  0.9118800E+02  0.7816164E-02  0.1184000E+00
        -11   -1    0    0    0    0  0.00000000000E+00  0.00000000000E+00  0.45593999997E+02  0.45594000000E+02  0.51100000000E-03 0.  1.
         11   -1    0    0    0    0 -0.00000000000E+00 -0.00000000000E+00 -0.45593999997E+02  0.45594000000E+02  0.51100000000E-03 0. -1.
         23    2    1    2    0    0  0.00000000000E+00  0.00000000000E+00 -0.88817841970E-15  0.91188000000E+02  0.91188000000E+02 0.  0.
    9900012    2    3    3    0    0 -0.42847388911E+02 -0.48146142521E+01 -0.49541960940E+01  0.47787270677E+02  0.19999998324E+02 0.  0.
        -12    1    3    3    0    0  0.42847388911E+02  0.48146142521E+01  0.49541960940E+01  0.43400729323E+02  0.00000000000E+00 0.  1.
         11    1    4    4    0    0 -0.19402583753E+02 -0.26149081942E+01  0.15357068293E+01  0.19638136289E+02  0.51100000000E-03 0. -1.
        -11    1    4    4    0    0 -0.19236486754E+02  0.32081564864E+01 -0.80881315007E+01  0.21112853008E+02  0.51100000000E-03 0.  1.
        -12    1    4    4    0    0 -0.42083184029E+01 -0.54078625443E+01  0.15982285774E+01  0.70362813804E+01  0.00000000000E+00 0.  1.
</event>
<event>
 8    1  0.6019723E-011  0.9118800E+02  0.7816164E-02  0.1184000E+00
        -11   -1    0    0    0    0  0.00000000000E+00  0.00000000000E+00  0.45593999997E+02  0.45594000000E+02  0.51100000000E-03 0. -1.
         11   -1    0    0    0    0 -0.00000000000E+00 -0.00000000000E+00 -0.45593999997E+02  0.45594000000E+02  0.51100000000E-03 0.  1.
         23    2    1    2    0    0 -0.35527136788E-14  0.35527136788E-14  0.00000000000E+00  0.91188000000E+02  0.91188000000E+02 0.  0.
    9900012    2    3    3    0    0 -0.16490830660E+02  0.27248722182E+02 -0.29481909865E+02  0.47787269986E+02  0.19999995176E+02 0.  0.
         12    1    3    3    0    0  0.16490830660E+02 -0.27248722182E+02  0.29481909865E+02  0.43400730014E+02  0.00000000000E+00 0. -1.
         11    1    4    4    0    0 -0.13197314578E+02  0.18481551653E+02 -0.96928678735E+01  0.24691872174E+02  0.51100000000E-03 0. -1.
        -11    1    4    4    0    0  0.19211272109E+01  0.47317015804E+01 -0.10807662509E+02  0.11953463882E+02  0.51100000000E-03 0.  1.
        -12    1    4    4    0    0 -0.52146432933E+01  0.40354689489E+01 -0.89813794822E+01  0.11141933931E+02  0.00000000000E+00 0.  1.
</event>
<event>
 8    1  0.6019723E-011  0.9118800E+02  0.7816164E-02  0.1184000E+00
        -11   -1    0    0    0    0  0.00000000000E+00  0.00000000000E+00  0.45593999997E+02  0.45594000000E+02  0.51100000000E-03 0. -1.
         11   -1    0    0    0    0 -0.00000000000E+00 -0.00000000000E+00 -0.45593999997E+02  0.45594000000E+02  0.51100000000E-03 0.  1.
         23    2    1    2    0    0  0.00000000000E+00  0.00000000000E+00  0.71054273576E-14  0.91188000000E+02  0.91188000000E+02 0.  0.
    9900012    2    3    3    0    0  0.23545519421E+02 -0.61862169024E+01 -0.35929968667E+02  0.47787269445E+02  0.19999992705E+02 0.  0.
         12    1    3    3    0    0 -0.23545519421E+02  0.61862169024E+01  0.35929968667E+02  0.43400730555E+02  0.00000000000E+00 0. -1.
         11    1    4    4    0    0  0.12518732869E+02 -0.21273835130E+01 -0.51929314566E+01  0.13719000351E+02  0.51100000000E-03 0. -1.
        -11    1    4    4    0    0  0.53899342847E+01  0.24910070680E+01 -0.10483022118E+02  0.12047832203E+02  0.51100000000E-03 0.  1.
         12    1    4    4    0    0  0.56368522671E+01 -0.65498404574E+01 -0.20254015092E+02  0.22020436890E+02  0.00000000000E+00 0. -1.
</event>
<event>
 8    1  0.6019723E-011  0.9118800E+02  0.7816164E-02  0.1184000E+00
        -11   -1    0    0    0    0  0.00000000000E+00  0.00000000000E+00  0.45593999997E+02  0.45594000000E+02  0.51100000000E-03 0. -1.
         11   -1    0    0    0    0 -0.00000000000E+00 -0.00000000000E+00 -0.45593999997E+02  0.45594000000E+02  0.51100000000E-03 0.  1.
         23    2    1    2    0    0  0.00000000000E+00 -0.35527136788E-14  0.00000000000E+00  0.91188000000E+02  0.91188000000E+02 0.  0.
    9900012    2    3    3    0    0 -0.19691589001E+02  0.30547210014E+02 -0.23721983114E+02  0.47787271897E+02  0.20000003887E+02 0.  0.
         12    1    3    3    0    0  0.19691589001E+02 -0.30547210014E+02  0.23721983114E+02  0.43400728103E+02  0.00000000000E+00 0. -1.
         11    1    4    4    0    0 -0.96702290637E+01  0.21863255924E+02 -0.20001709440E+02  0.31170236934E+02  0.51100000000E-03 0. -1.
        -11    1    4    4    0    0 -0.11075996774E+02  0.49465607757E+01 -0.38642874251E+01  0.12731020604E+02  0.51100000000E-03 0.  1.
         12    1    4    4    0    0  0.10546368373E+01  0.37373933135E+01  0.14401375037E+00  0.38860143591E+01  0.00000000000E+00 0. -1.
</event>
<event>
 8    1  0.6019723E-011  0.9118800E+02  0.7816164E-02  0.1184000E+00
        -11   -1    0    0    0    0  0.00000000000E+00  0.00000000000E+00  0.45593999997E+02  0.45594000000E+02  0.51100000000E-03 0. -1.
         11   -1    0    0    0    0 -0.00000000000E+00 -0.00000000000E+00 -0.45593999997E+02  0.45594000000E+02  0.51100000000E-03 0.  1.
         23    2    1    2    0    0  0.00000000000E+00 -0.88817841970E-15  0.00000000000E+00  0.91188000000E+02  0.91188000000E+02 0.  0.
    9900012    2    3    3    0    0  0.36588489678E+02 -0.60695785846E+01 -0.22540315968E+02  0.47787271837E+02  0.20000003616E+02 0.  0.
         12    1    3    3    0    0 -0.36588489678E+02  0.60695785846E+01  0.22540315968E+02  0.43400728163E+02  0.00000000000E+00 0. -1.
         11    1    4    4    0    0  0.12038624944E+02 -0.90214498552E+01 -0.99969437605E+01  0.18062500736E+02  0.51100000000E-03 0. -1.
        -11    1    4    4    0    0  0.24636354189E+02  0.84216344237E+00 -0.10524503055E+02  0.26803439179E+02  0.51100000000E-03 0.  1.
        -12    1    4    4    0    0 -0.86489455409E-01  0.21097078282E+01 -0.20188691520E+01  0.29213319221E+01  0.00000000000E+00 0.  1.
</event>
<event>
 8    1  0.6019723E-011  0.9118800E+02  0.7816164E-02  0.1184000E+00
        -11   -1    0    0    0    0  0.00000000000E+00  0.00000000000E+00  0.45593999997E+02  0.45594000000E+02  0.51100000000E-03 0. -1.
         11   -1    0    0    0    0 -0.00000000000E+00 -0.00000000000E+00 -0.45593999997E+02  0.45594000000E+02  0.51100000000E-03 0.  1.
         23    2    1    2    0    0  0.66613381478E-15 -0.17763568394E-14  0.00000000000E+00  0.91188000000E+02  0.91188000000E+02 0.  0.
    9900012    2    3    3    0    0 -0.17685388390E+01  0.92653126692E+01  0.42363325976E+02  0.47787249589E+02  0.19999902175E+02 0.  0.
        -12    1    3    3    0    0  0.17685388390E+01 -0.92653126692E+01 -0.42363325976E+02  0.43400750411E+02  0.00000000000E+00 0.  1.
         11    1    4    4    0    0 -0.80536560662E+01  0.11252986347E+02  0.25533841334E+02  0.29042522812E+02  0.51100000000E-03 0. -1.
        -11    1    4    4    0    0  0.31033644756E+00 -0.19910050853E+01  0.65722899606E+01  0.68742567269E+01  0.51100000000E-03 0.  1.
         12    1    4    4    0    0  0.59747807796E+01  0.33314071361E-02  0.10257194681E+02  0.11870470049E+02  0.00000000000E+00 0. -1.
</event>
<event>
 8    1  0.6019723E-011  0.9118800E+02  0.7816164E-02  0.1184000E+00
        -11   -1    0    0    0    0  0.00000000000E+00  0.00000000000E+00  0.45593999997E+02  0.45594000000E+02  0.51100000000E-03 0. -1.
         11   -1    0    0    0    0 -0.00000000000E+00 -0.00000000000E+00 -0.45593999997E+02  0.45594000000E+02  0.51100000000E-03 0.  1.
         23    2    1    2    0    0  0.00000000000E+00  0.00000000000E+00  0.00000000000E+00  0.91188000000E+02  0.91188000000E+02 0.  0.
    9900012    2    3    3    0    0  0.28346945723E+02 -0.11832470121E+02  0.30660501539E+02  0.47787273789E+02  0.20000012515E+02 0.  0.
        -12    1    3    3    0    0 -0.28346945723E+02  0.11832470121E+02 -0.30660501539E+02  0.43400726211E+02  0.00000000000E+00 0.  1.
         11    1    4    4    0    0  0.71115196794E+01 -0.46442150069E+01  0.65493049290E+01  0.10725476236E+02  0.51100000000E-03 0. -1.
        -11    1    4    4    0    0  0.94666917706E+01 -0.15632302107E+01 -0.60613455026E-01  0.95950829086E+01  0.51100000000E-03 0.  1.
        -12    1    4    4    0    0  0.11768734273E+02 -0.56250249031E+01  0.24171810065E+02  0.27466714645E+02  0.00000000000E+00 0.  1.
</event>
<event>
 8    1  0.6019723E-011  0.9118800E+02  0.7816164E-02  0.1184000E+00
        -11   -1    0    0    0    0  0.00000000000E+00  0.00000000000E+00  0.45593999997E+02  0.45594000000E+02  0.51100000000E-03 0. -1.
         11   -1    0    0    0    0 -0.00000000000E+00 -0.00000000000E+00 -0.45593999997E+02  0.45594000000E+02  0.51100000000E-03 0.  1.
         23    2    1    2    0    0  0.00000000000E+00  0.00000000000E+00  0.35527136788E-14  0.91188000000E+02  0.91188000000E+02 0.  0.
    9900012    2    3    3    0    0 -0.25429061558E+02 -0.20050037111E+02  0.28896055395E+02  0.47787272158E+02  0.20000005076E+02 0.  0.
        -12    1    3    3    0    0  0.25429061558E+02  0.20050037111E+02 -0.28896055395E+02  0.43400727842E+02  0.00000000000E+00 0.  1.
         11    1    4    4    0    0 -0.57157708500E+01 -0.85423303708E+01  0.13846238755E+02  0.17244122839E+02  0.51100000000E-03 0. -1.
        -11    1    4    4    0    0 -0.13301815783E+02 -0.12267306984E+01  0.35121762865E+01  0.13812260998E+02  0.51100000000E-03 0.  1.
        -12    1    4    4    0    0 -0.64114749244E+01 -0.10280976042E+02  0.11537640353E+02  0.16730888321E+02  0.00000000000E+00 0.  1.
</event>
<event>
 8    1  0.6019723E-011  0.9118800E+02  0.7816164E-02  0.1184000E+00
        -11   -1    0    0    0    0  0.00000000000E+00  0.00000000000E+00  0.45593999997E+02  0.45594000000E+02  0.51100000000E-03 0. -1.
         11   -1    0    0    0    0 -0.00000000000E+00 -0.00000000000E+00 -0.45593999997E+02  0.45594000000E+02  0.51100000000E-03 0.  1.
         23    2    1    2    0    0 -0.35527136788E-14  0.00000000000E+00  0.71054273576E-14  0.91188000000E+02  0.91188000000E+02 0.  0.
    9900012    2    3    3    0    0  0.15810569118E+02  0.16243078165E+02 -0.37010973029E+02  0.47787264884E+02  0.19999971910E+02 0.  0.
         12    1    3    3    0    0 -0.15810569118E+02 -0.16243078165E+02  0.37010973029E+02  0.43400735116E+02  0.00000000000E+00 0. -1.
         11    1    4    4    0    0 -0.34086639849E+01  0.76395852547E+00 -0.78946614984E+01  0.86329776570E+01  0.51100000000E-03 0.  1.
        -11    1    4    4    0    0  0.13913805091E+02  0.14671623332E+02 -0.19223893347E+02  0.27899974534E+02  0.51100000000E-03 0. -1.
         12    1    4    4    0    0  0.53054280115E+01  0.80749630756E+00 -0.98924181834E+01  0.11254312693E+02  0.00000000000E+00 0. -1.
</event>
<event>
 8    1  0.6019723E-011  0.9118800E+02  0.7816164E-02  0.1184000E+00
        -11   -1    0    0    0    0  0.00000000000E+00  0.00000000000E+00  0.45593999997E+02  0.45594000000E+02  0.51100000000E-03 0. -1.
         11   -1    0    0    0    0 -0.00000000000E+00 -0.00000000000E+00 -0.45593999997E+02  0.45594000000E+02  0.51100000000E-03 0.  1.
         23    2    1    2    0    0 -0.35527136788E-14  0.13322676296E-14  0.00000000000E+00  0.91188000000E+02  0.91188000000E+02 0.  0.
    9900012    2    3    3    0    0 -0.25530460211E+02 -0.89734429953E+00  0.35085802062E+02  0.47787272682E+02  0.20000007467E+02 0.  0.
        -12    1    3    3    0    0  0.25530460211E+02  0.89734429953E+00 -0.35085802062E+02  0.43400727318E+02  0.00000000000E+00 0.  1.
         11    1    4    4    0    0 -0.18189104972E+02 -0.55654907281E+01  0.22906694820E+02  0.29774735844E+02  0.51100000000E-03 0. -1.
        -11    1    4    4    0    0 -0.23463127631E+01  0.23370515837E+01 -0.12158127237E+01  0.35277747274E+01  0.51100000000E-03 0.  1.
         12    1    4    4    0    0 -0.49950424751E+01  0.23310948449E+01  0.13394919966E+02  0.14484762111E+02  0.00000000000E+00 0. -1.
</event>
<event>
 8    1  0.6019723E-011  0.9118800E+02  0.7816164E-02  0.1184000E+00
        -11   -1    0    0    0    0  0.00000000000E+00  0.00000000000E+00  0.45593999997E+02  0.45594000000E+02  0.51100000000E-03 0. -1.
         11   -1    0    0    0    0 -0.00000000000E+00 -0.00000000000E+00 -0.45593999997E+02  0.45594000000E+02  0.51100000000E-03 0.  1.
         23    2    1    2    0    0  0.71054273576E-14  0.00000000000E+00  0.17763568394E-14  0.91188000000E+02  0.91188000000E+02 0.  0.
    9900012    2    3    3    0    0  0.32388987450E+02 -0.26196847217E+02  0.12177931075E+02  0.47787270543E+02  0.19999997713E+02 0.  0.
        -12    1    3    3    0    0 -0.32388987450E+02  0.26196847217E+02 -0.12177931075E+02  0.43400729457E+02  0.00000000000E+00 0.  1.
         11    1    4    4    0    0  0.12081237141E+02 -0.99262944305E+01  0.12242839996E+02  0.19858870648E+02  0.51100000000E-03 0. -1.
        -11    1    4    4    0    0  0.11019997281E+02 -0.10162163031E+02  0.48759700327E+01  0.15763406407E+02  0.51100000000E-03 0.  1.
         12    1    4    4    0    0  0.92877530284E+01 -0.61083897556E+01 -0.49408789540E+01  0.12164993488E+02  0.00000000000E+00 0. -1.
</event>
<event>
 8    1  0.6019723E-011  0.9118800E+02  0.7816164E-02  0.1184000E+00
        -11   -1    0    0    0    0  0.00000000000E+00  0.00000000000E+00  0.45593999997E+02  0.45594000000E+02  0.51100000000E-03 0. -1.
         11   -1    0    0    0    0 -0.00000000000E+00 -0.00000000000E+00 -0.45593999997E+02  0.45594000000E+02  0.51100000000E-03 0.  1.
         23    2    1    2    0    0 -0.71054273576E-14  0.00000000000E+00  0.00000000000E+00  0.91188000000E+02  0.91188000000E+02 0.  0.
    9900012    2    3    3    0    0 -0.35996973247E+02  0.15840125490E+02 -0.18355697819E+02  0.47787270733E+02  0.19999998580E+02 0.  0.
         12    1    3    3    0    0  0.35996973247E+02 -0.15840125490E+02  0.18355697819E+02  0.43400729267E+02  0.00000000000E+00 0. -1.
         11    1    4    4    0    0 -0.26668038584E+02  0.92066223651E+01 -0.19590185268E+02  0.34347074641E+02  0.51100000000E-03 0. -1.
        -11    1    4    4    0    0 -0.70217592246E+01  0.28526969769E+01 -0.21360859693E+01  0.78743790981E+01  0.51100000000E-03 0.  1.
         12    1    4    4    0    0 -0.23071754387E+01  0.37808061483E+01  0.33705734190E+01  0.55658169939E+01  0.00000000000E+00 0. -1.
</event>
<event>
 8    1  0.6019723E-011  0.9118800E+02  0.7816164E-02  0.1184000E+00
        -11   -1    0    0    0    0  0.00000000000E+00  0.00000000000E+00  0.45593999997E+02  0.45594000000E+02  0.51100000000E-03 0. -1.
         11   -1    0    0    0    0 -0.00000000000E+00 -0.00000000000E+00 -0.45593999997E+02  0.45594000000E+02  0.51100000000E-03 0.  1.
         23    2    1    2    0    0  0.00000000000E+00  0.00000000000E+00  0.00000000000E+00  0.91188000000E+02  0.91188000000E+02 0.  0.
    9900012    2    3    3    0    0  0.30403568360E+02  0.24092750804E+02  0.19462409376E+02  0.47787274326E+02  0.20000014962E+02 0.  0.
        -12    1    3    3    0    0 -0.30403568360E+02 -0.24092750804E+02 -0.19462409376E+02  0.43400725674E+02  0.00000000000E+00 0.  1.
         11    1    4    4    0    0  0.17669140739E+02  0.17510182321E+02  0.29807865041E+01  0.25053744387E+02  0.51100000000E-03 0. -1.
        -11    1    4    4    0    0  0.43332891364E+01  0.55092811501E+01  0.91885149306E+01  0.11556746100E+02  0.51100000000E-03 0.  1.
         12    1    4    4    0    0  0.84011384840E+01  0.10732873325E+01  0.72931079417E+01  0.11176783839E+02  0.00000000000E+00 0. -1.
</event>
<event>
 8    1  0.6019723E-011  0.9118800E+02  0.7816164E-02  0.1184000E+00
        -11   -1    0    0    0    0  0.00000000000E+00  0.00000000000E+00  0.45593999997E+02  0.45594000000E+02  0.51100000000E-03 0. -1.
         11   -1    0    0    0    0 -0.00000000000E+00 -0.00000000000E+00 -0.45593999997E+02  0.45594000000E+02  0.51100000000E-03 0.  1.
         23    2    1    2    0    0  0.17763568394E-14 -0.35527136788E-14  0.00000000000E+00  0.91188000000E+02  0.91188000000E+02 0.  0.
    9900012    2    3    3    0    0  0.94790997467E+01 -0.13545142441E+02 -0.40128534559E+02  0.47787268421E+02  0.19999988040E+02 0.  0.
         12    1    3    3    0    0 -0.94790997467E+01  0.13545142441E+02  0.40128534559E+02  0.43400731579E+02  0.00000000000E+00 0. -1.
         11    1    4    4    0    0  0.27856362701E+00  0.40741972503E+01 -0.10693403141E+02  0.11446639329E+02  0.51100000000E-03 0. -1.
        -11    1    4    4    0    0  0.59972233055E+01 -0.96971663178E+01 -0.10222912704E+02  0.15313708446E+02  0.51100000000E-03 0.  1.
         12    1    4    4    0    0  0.32033128142E+01 -0.79221733734E+01 -0.19212218714E+02  0.21026920646E+02  0.00000000000E+00 0. -1.
</event>
<event>
 8    1  0.6019723E-011  0.9118800E+02  0.7816164E-02  0.1184000E+00
        -11   -1    0    0    0    0  0.00000000000E+00  0.00000000000E+00  0.45593999997E+02  0.45594000000E+02  0.51100000000E-03 0. -1.
         11   -1    0    0    0    0 -0.00000000000E+00 -0.00000000000E+00 -0.45593999997E+02  0.45594000000E+02  0.51100000000E-03 0.  1.
         23    2    1    2    0    0  0.00000000000E+00  0.00000000000E+00  0.00000000000E+00  0.91188000000E+02  0.91188000000E+02 0.  0.
    9900012    2    3    3    0    0  0.92862043750E+01  0.37249260657E+02  0.20245575172E+02  0.47787258932E+02  0.19999944776E+02 0.  0.
        -12    1    3    3    0    0 -0.92862043750E+01 -0.37249260657E+02 -0.20245575172E+02  0.43400741068E+02  0.00000000000E+00 0.  1.
         11    1    4    4    0    0  0.24235353225E+01 -0.15060828264E+01 -0.43792601180E-01  0.28537216039E+01  0.51100000000E-03 0. -1.
        -11    1    4    4    0    0  0.32322417758E+01  0.40075151984E+01  0.28777252552E+01  0.58982088695E+01  0.51100000000E-03 0.  1.
         12    1    4    4    0    0  0.36304272766E+01  0.34747828285E+02  0.17411642518E+02  0.39035328459E+02  0.00000000000E+00 0. -1.
</event>
<event>
 8    1  0.6019723E-011  0.9118800E+02  0.7816164E-02  0.1184000E+00
        -11   -1    0    0    0    0  0.00000000000E+00  0.00000000000E+00  0.45593999997E+02  0.45594000000E+02  0.51100000000E-03 0. -1.
         11   -1    0    0    0    0 -0.00000000000E+00 -0.00000000000E+00 -0.45593999997E+02  0.45594000000E+02  0.51100000000E-03 0.  1.
         23    2    1    2    0    0  0.00000000000E+00  0.71054273576E-14 -0.88817841970E-15  0.91188000000E+02  0.91188000000E+02 0.  0.
    9900012    2    3    3    0    0  0.24300588017E+02  0.35184043594E+02 -0.74288428700E+01  0.47787271803E+02  0.20000003458E+02 0.  0.
         12    1    3    3    0    0 -0.24300588017E+02 -0.35184043594E+02  0.74288428700E+01  0.43400728197E+02  0.00000000000E+00 0. -1.
         11    1    4    4    0    0  0.25362385867E+01  0.82168573088E+01  0.56414818661E+00  0.86178601543E+01  0.51100000000E-03 0. -1.
        -11    1    4    4    0    0  0.63538255544E+01  0.17303553710E+02 -0.98239612072E+01  0.20887658659E+02  0.51100000000E-03 0.  1.
        -12    1    4    4    0    0  0.15410523876E+02  0.96636325756E+01  0.18309701505E+01  0.18281752990E+02  0.00000000000E+00 0.  1.
</event>
<event>
 8    1  0.6019723E-011  0.9118800E+02  0.7816164E-02  0.1184000E+00
        -11   -1    0    0    0    0  0.00000000000E+00  0.00000000000E+00  0.45593999997E+02  0.45594000000E+02  0.51100000000E-03 0. -1.
         11   -1    0    0    0    0 -0.00000000000E+00 -0.00000000000E+00 -0.45593999997E+02  0.45594000000E+02  0.51100000000E-03 0.  1.
         23    2    1    2    0    0  0.00000000000E+00 -0.71054273576E-14  0.00000000000E+00  0.91188000000E+02  0.91188000000E+02 0.  0.
    9900012    2    3    3    0    0  0.24408393759E+02  0.33764106735E+02 -0.12158972050E+02  0.47787248960E+02  0.19999899306E+02 0.  0.
         12    1    3    3    0    0 -0.24408393759E+02 -0.33764106735E+02  0.12158972050E+02  0.43400751040E+02  0.00000000000E+00 0. -1.
         11    1    4    4    0    0 -0.95575087695E+00 -0.15850945314E+01 -0.51166868382E+00  0.19203618188E+01  0.51100000000E-03 0. -1.
        -11    1    4    4    0    0  0.11358674642E+01  0.60336647985E+01 -0.17348291484E+00  0.61421008116E+01  0.51100000000E-03 0.  1.
         12    1    4    4    0    0  0.24228277172E+02  0.29315536468E+02 -0.11473820452E+02  0.39724786329E+02  0.00000000000E+00 0. -1.
</event>
<event>
 8    1  0.6019723E-011  0.9118800E+02  0.7816164E-02  0.1184000E+00
        -11   -1    0    0    0    0  0.00000000000E+00  0.00000000000E+00  0.45593999997E+02  0.45594000000E+02  0.51100000000E-03 0. -1.
         11   -1    0    0    0    0 -0.00000000000E+00 -0.00000000000E+00 -0.45593999997E+02  0.45594000000E+02  0.51100000000E-03 0.  1.
         23    2    1    2    0    0  0.35527136788E-14  0.00000000000E+00  0.35527136788E-14  0.91188000000E+02  0.91188000000E+02 0.  0.
    9900012    2    3    3    0    0 -0.30158567611E+02  0.17700460587E+02 -0.25705593266E+02  0.47787273848E+02  0.20000012784E+02 0.  0.
         12    1    3    3    0    0  0.30158567611E+02 -0.17700460587E+02  0.25705593266E+02  0.43400726152E+02  0.00000000000E+00 0. -1.
         11    1    4    4    0    0 -0.34459822260E+01 -0.57432689977E+00 -0.76683213342E+00  0.35766851513E+01  0.51100000000E-03 0. -1.
        -11    1    4    4    0    0  0.10954843237E+01  0.12379232285E+01  0.14966764288E+01  0.22299283434E+01  0.51100000000E-03 0.  1.
        -12    1    4    4    0    0 -0.27808069709E+02  0.17036864259E+02 -0.26435437561E+02  0.41980660354E+02  0.00000000000E+00 0.  1.
</event>
<event>
 8    1  0.6019723E-011  0.9118800E+02  0.7816164E-02  0.1184000E+00
        -11   -1    0    0    0    0  0.00000000000E+00  0.00000000000E+00  0.45593999997E+02  0.45594000000E+02  0.51100000000E-03 0. -1.
         11   -1    0    0    0    0 -0.00000000000E+00 -0.00000000000E+00 -0.45593999997E+02  0.45594000000E+02  0.51100000000E-03 0.  1.
         23    2    1    2    0    0  0.00000000000E+00  0.17763568394E-14  0.00000000000E+00  0.91188000000E+02  0.91188000000E+02 0.  0.
    9900012    2    3    3    0    0  0.15784548541E+02 -0.13444003847E+02  0.38127813877E+02  0.47787269555E+02  0.19999993209E+02 0.  0.
        -12    1    3    3    0    0 -0.15784548541E+02  0.13444003847E+02 -0.38127813877E+02  0.43400730445E+02  0.00000000000E+00 0.  1.
         11    1    4    4    0    0  0.57163929073E+01  0.12902923710E+01  0.18332890272E+02  0.19246736562E+02  0.51100000000E-03 0. -1.
        -11    1    4    4    0    0  0.94981907939E+01 -0.10604969151E+02  0.86905376852E+01  0.16679521713E+02  0.51100000000E-03 0.  1.
        -12    1    4    4    0    0  0.56996484007E+00 -0.41293270678E+01  0.11104385920E+02  0.11861011281E+02  0.00000000000E+00 0.  1.
</event>
<event>
 8    1  0.6019723E-011  0.9118800E+02  0.7816164E-02  0.1184000E+00
        -11   -1    0    0    0    0  0.00000000000E+00  0.00000000000E+00  0.45593999997E+02  0.45594000000E+02  0.51100000000E-03 0. -1.
         11   -1    0    0    0    0 -0.00000000000E+00 -0.00000000000E+00 -0.45593999997E+02  0.45594000000E+02  0.51100000000E-03 0.  1.
         23    2    1    2    0    0  0.00000000000E+00  0.00000000000E+00  0.00000000000E+00  0.91188000000E+02  0.91188000000E+02 0.  0.
    9900012    2    3    3    0    0 -0.24083077548E+02 -0.94482018882E+01  0.34847669305E+02  0.47787271906E+02  0.20000003928E+02 0.  0.
        -12    1    3    3    0    0  0.24083077548E+02  0.94482018882E+01 -0.34847669305E+02  0.43400728094E+02  0.00000000000E+00 0.  1.
         11    1    4    4    0    0 -0.14096399269E+02 -0.66392597536E+01  0.15421027108E+02  0.21922507150E+02  0.51100000000E-03 0. -1.
        -11    1    4    4    0    0  0.23496354680E+01 -0.18551969418E+01  0.96247536910E+01  0.10079604476E+02  0.51100000000E-03 0.  1.
        -12    1    4    4    0    0 -0.12336313748E+02 -0.95374519280E+00  0.98018885055E+01  0.15785160280E+02  0.00000000000E+00 0.  1.
</event>
<event>
 8    1  0.6019723E-011  0.9118800E+02  0.7816164E-02  0.1184000E+00
        -11   -1    0    0    0    0  0.00000000000E+00  0.00000000000E+00  0.45593999997E+02  0.45594000000E+02  0.51100000000E-03 0. -1.
         11   -1    0    0    0    0 -0.00000000000E+00 -0.00000000000E+00 -0.45593999997E+02  0.45594000000E+02  0.51100000000E-03 0.  1.
         23    2    1    2    0    0  0.00000000000E+00  0.44408920985E-15  0.00000000000E+00  0.91188000000E+02  0.91188000000E+02 0.  0.
    9900012    2    3    3    0    0 -0.17800999295E+02  0.50991721284E+00  0.39578947667E+02  0.47787208649E+02  0.19999715512E+02 0.  0.
        -12    1    3    3    0    0  0.17800999295E+02 -0.50991721284E+00 -0.39578947667E+02  0.43400791351E+02  0.00000000000E+00 0.  1.
         11    1    4    4    0    0 -0.51297170638E+01 -0.81530434085E+01  0.16450859408E+02  0.19063496256E+02  0.51100000000E-03 0.  1.
        -11    1    4    4    0    0 -0.11519571623E+02  0.60496743257E+01  0.22179670759E+02  0.25714526733E+02  0.51100000000E-03 0. -1.
        -12    1    4    4    0    0 -0.11517106076E+01  0.26132862956E+01  0.94841750010E+00  0.30091856608E+01  0.00000000000E+00 0.  1.
</event>
<event>
 8    1  0.6019723E-011  0.9118800E+02  0.7816164E-02  0.1184000E+00
        -11   -1    0    0    0    0  0.00000000000E+00  0.00000000000E+00  0.45593999997E+02  0.45594000000E+02  0.51100000000E-03 0. -1.
         11   -1    0    0    0    0 -0.00000000000E+00 -0.00000000000E+00 -0.45593999997E+02  0.45594000000E+02  0.51100000000E-03 0.  1.
         23    2    1    2    0    0 -0.35527136788E-14 -0.88817841970E-15 -0.71054273576E-14  0.91188000000E+02  0.91188000000E+02 0.  0.
    9900012    2    3    3    0    0 -0.26083025154E+02 -0.30185421322E+01  0.34557015671E+02  0.47787272703E+02  0.20000007563E+02 0.  0.
        -12    1    3    3    0    0  0.26083025154E+02  0.30185421322E+01 -0.34557015671E+02  0.43400727297E+02  0.00000000000E+00 0.  1.
         11    1    4    4    0    0 -0.19781519063E+02  0.68234600332E+01  0.18649704801E+02  0.28029976680E+02  0.51100000000E-03 0. -1.
        -11    1    4    4    0    0 -0.36017856963E+01 -0.50760068459E+01  0.79398813761E+01  0.10088628362E+02  0.51100000000E-03 0.  1.
         12    1    4    4    0    0 -0.26997203948E+01 -0.47659953195E+01  0.79674294941E+01  0.96686676610E+01  0.00000000000E+00 0. -1.
</event>
<event>
 8    1  0.6019723E-011  0.9118800E+02  0.7816164E-02  0.1184000E+00
        -11   -1    0    0    0    0  0.00000000000E+00  0.00000000000E+00  0.45593999997E+02  0.45594000000E+02  0.51100000000E-03 0. -1.
         11   -1    0    0    0    0 -0.00000000000E+00 -0.00000000000E+00 -0.45593999997E+02  0.45594000000E+02  0.51100000000E-03 0.  1.
         23    2    1    2    0    0  0.00000000000E+00 -0.17763568394E-14  0.71054273576E-14  0.91188000000E+02  0.91188000000E+02 0.  0.
    9900012    2    3    3    0    0  0.45304615826E+01  0.15246512467E+02  0.40381209814E+02  0.47787270391E+02  0.19999997020E+02 0.  0.
        -12    1    3    3    0    0 -0.45304615826E+01 -0.15246512467E+02 -0.40381209814E+02  0.43400729609E+02  0.00000000000E+00 0.  1.
         11    1    4    4    0    0  0.11512092890E+01 -0.15340326060E+01 -0.91989934862E+00  0.21271469004E+01  0.51100000000E-03 0. -1.
        -11    1    4    4    0    0  0.13488089594E+01  0.13313696083E+02  0.20545265256E+02  0.24519007192E+02  0.51100000000E-03 0.  1.
         12    1    4    4    0    0  0.20304433342E+01  0.34668489903E+01  0.20755843907E+02  0.21141116298E+02  0.00000000000E+00 0. -1.
</event>
<event>
 8    1  0.6019723E-011  0.9118800E+02  0.7816164E-02  0.1184000E+00
        -11   -1    0    0    0    0  0.00000000000E+00  0.00000000000E+00  0.45593999997E+02  0.45594000000E+02  0.51100000000E-03 0.  1.
         11   -1    0    0    0    0 -0.00000000000E+00 -0.00000000000E+00 -0.45593999997E+02  0.45594000000E+02  0.51100000000E-03 0. -1.
         23    2    1    2    0    0  0.00000000000E+00  0.35527136788E-14  0.00000000000E+00  0.91188000000E+02  0.91188000000E+02 0.  0.
    9900012    2    3    3    0    0  0.30922911040E+02 -0.24510941538E+02 -0.18072362418E+02  0.47787274595E+02  0.20000016189E+02 0.  0.
         12    1    3    3    0    0 -0.30922911040E+02  0.24510941538E+02  0.18072362418E+02  0.43400725405E+02  0.00000000000E+00 0. -1.
         11    1    4    4    0    0  0.14655251477E+02 -0.11430758353E+02 -0.13673040860E+02  0.23073592677E+02  0.51100000000E-03 0. -1.
        -11    1    4    4    0    0  0.10190785098E+02 -0.33050418164E+01  0.28815742194E+01  0.11094091787E+02  0.51100000000E-03 0.  1.
        -12    1    4    4    0    0  0.60768744650E+01 -0.97751413687E+01 -0.72808957771E+01  0.13619590132E+02  0.00000000000E+00 0.  1.
</event>
<event>
 8    1  0.6019723E-011  0.9118800E+02  0.7816164E-02  0.1184000E+00
        -11   -1    0    0    0    0  0.00000000000E+00  0.00000000000E+00  0.45593999997E+02  0.45594000000E+02  0.51100000000E-03 0. -1.
         11   -1    0    0    0    0 -0.00000000000E+00 -0.00000000000E+00 -0.45593999997E+02  0.45594000000E+02  0.51100000000E-03 0.  1.
         23    2    1    2    0    0  0.00000000000E+00  0.00000000000E+00 -0.35527136788E-14  0.91188000000E+02  0.91188000000E+02 0.  0.
    9900012    2    3    3    0    0  0.21364181590E+02 -0.27807238789E+02 -0.25572482964E+02  0.47787278012E+02  0.20000031769E+02 0.  0.
         12    1    3    3    0    0 -0.21364181590E+02  0.27807238789E+02  0.25572482964E+02  0.43400721988E+02  0.00000000000E+00 0. -1.
         11    1    4    4    0    0  0.15391818510E+02 -0.27811439166E+02 -0.22061163933E+02  0.38692107462E+02  0.51100000000E-03 0.  1.
        -11    1    4    4    0    0  0.12403272197E+01  0.13255172972E+01 -0.37605755205E+01  0.41758036620E+01  0.51100000000E-03 0. -1.
        -12    1    4    4    0    0  0.47320358599E+01 -0.13213169211E+01  0.24925648891E+00  0.49193668884E+01  0.00000000000E+00 0.  1.
</event>
<event>
 8    1  0.6019723E-011  0.9118800E+02  0.7816164E-02  0.1184000E+00
        -11   -1    0    0    0    0  0.00000000000E+00  0.00000000000E+00  0.45593999997E+02  0.45594000000E+02  0.51100000000E-03 0. -1.
         11   -1    0    0    0    0 -0.00000000000E+00 -0.00000000000E+00 -0.45593999997E+02  0.45594000000E+02  0.51100000000E-03 0.  1.
         23    2    1    2    0    0 -0.35527136788E-14  0.00000000000E+00  0.00000000000E+00  0.91188000000E+02  0.91188000000E+02 0.  0.
    9900012    2    3    3    0    0  0.25643153987E+02  0.11332485923E+02  0.33130451135E+02  0.47787269868E+02  0.19999994636E+02 0.  0.
        -12    1    3    3    0    0 -0.25643153987E+02 -0.11332485923E+02 -0.33130451135E+02  0.43400730132E+02  0.00000000000E+00 0.  1.
         11    1    4    4    0    0  0.18484491991E+02  0.11027444854E+02  0.26221936139E+02  0.33924488490E+02  0.51100000000E-03 0. -1.
        -11    1    4    4    0    0  0.71702139091E+01 -0.86832325781E+00  0.38315541946E+00  0.72327561219E+01  0.51100000000E-03 0.  1.
         12    1    4    4    0    0 -0.11551913361E-01  0.11733643262E+01  0.65253595765E+01  0.66300252557E+01  0.00000000000E+00 0. -1.
</event>
<event>
 8    1  0.6019723E-011  0.9118800E+02  0.7816164E-02  0.1184000E+00
        -11   -1    0    0    0    0  0.00000000000E+00  0.00000000000E+00  0.45593999997E+02  0.45594000000E+02  0.51100000000E-03 0. -1.
         11   -1    0    0    0    0 -0.00000000000E+00 -0.00000000000E+00 -0.45593999997E+02  0.45594000000E+02  0.51100000000E-03 0.  1.
         23    2    1    2    0    0  0.35527136788E-14  0.00000000000E+00  0.35527136788E-14  0.91188000000E+02  0.91188000000E+02 0.  0.
    9900012    2    3    3    0    0 -0.29618546657E+02 -0.95647032354E+01 -0.30246970874E+02  0.47787296076E+02  0.20000114127E+02 0.  0.
         12    1    3    3    0    0  0.29618546657E+02  0.95647032354E+01  0.30246970874E+02  0.43400703924E+02  0.00000000000E+00 0. -1.
         11    1    4    4    0    0 -0.11930283919E+02 -0.37871730459E+01 -0.20641822055E+02  0.24140405383E+02  0.51100000000E-03 0.  1.
        -11    1    4    4    0    0 -0.51392859164E+01 -0.67586451967E+00 -0.86279714771E+01  0.10065333807E+02  0.51100000000E-03 0. -1.
         12    1    4    4    0    0 -0.12548976822E+02 -0.51016656698E+01 -0.97717734280E+00  0.13581556886E+02  0.00000000000E+00 0. -1.
</event>
<event>
 8    1  0.6019723E-011  0.9118800E+02  0.7816164E-02  0.1184000E+00
        -11   -1    0    0    0    0  0.00000000000E+00  0.00000000000E+00  0.45593999997E+02  0.45594000000E+02  0.51100000000E-03 0. -1.
         11   -1    0    0    0    0 -0.00000000000E+00 -0.00000000000E+00 -0.45593999997E+02  0.45594000000E+02  0.51100000000E-03 0.  1.
         23    2    1    2    0    0 -0.35527136788E-14 -0.35527136788E-14  0.00000000000E+00  0.91188000000E+02  0.91188000000E+02 0.  0.
    9900012    2    3    3    0    0 -0.27853303964E+02 -0.25318404970E+02  0.21605444118E+02  0.47787269736E+02  0.19999994034E+02 0.  0.
        -12    1    3    3    0    0  0.27853303964E+02  0.25318404970E+02 -0.21605444118E+02  0.43400730264E+02  0.00000000000E+00 0.  1.
         11    1    4    4    0    0 -0.53093047892E+01 -0.48230956100E+01  0.73265329242E+01  0.10253246001E+02  0.51100000000E-03 0. -1.
        -11    1    4    4    0    0 -0.31904316312E+01  0.23611208336E+01  0.45634439889E+01  0.60480382675E+01  0.51100000000E-03 0.  1.
        -12    1    4    4    0    0 -0.19353567543E+02 -0.22856430194E+02  0.97154672045E+01  0.31485985467E+02  0.00000000000E+00 0.  1.
</event>
<event>
 8    1  0.6019723E-011  0.9118800E+02  0.7816164E-02  0.1184000E+00
        -11   -1    0    0    0    0  0.00000000000E+00  0.00000000000E+00  0.45593999997E+02  0.45594000000E+02  0.51100000000E-03 0. -1.
         11   -1    0    0    0    0 -0.00000000000E+00 -0.00000000000E+00 -0.45593999997E+02  0.45594000000E+02  0.51100000000E-03 0.  1.
         23    2    1    2    0    0 -0.71054273576E-14 -0.35527136788E-14  0.17763568394E-14  0.91188000000E+02  0.91188000000E+02 0.  0.
    9900012    2    3    3    0    0 -0.38751897674E+02 -0.16763041336E+02  0.10045605544E+02  0.47787270526E+02  0.19999997636E+02 0.  0.
        -12    1    3    3    0    0  0.38751897674E+02  0.16763041336E+02 -0.10045605544E+02  0.43400729474E+02  0.00000000000E+00 0.  1.
         11    1    4    4    0    0 -0.65345328232E+01 -0.69456890607E+01 -0.60158287230E+00  0.95553449943E+01  0.51100000000E-03 0. -1.
        -11    1    4    4    0    0 -0.32395272012E+02 -0.72409634572E+01  0.12024062798E+02  0.35305286955E+02  0.51100000000E-03 0.  1.
        -12    1    4    4    0    0  0.17790716162E+00 -0.25763888179E+01 -0.13768743812E+01  0.29266385770E+01  0.00000000000E+00 0.  1.
</event>
<event>
 8    1  0.6019723E-011  0.9118800E+02  0.7816164E-02  0.1184000E+00
        -11   -1    0    0    0    0  0.00000000000E+00  0.00000000000E+00  0.45593999997E+02  0.45594000000E+02  0.51100000000E-03 0.  1.
         11   -1    0    0    0    0 -0.00000000000E+00 -0.00000000000E+00 -0.45593999997E+02  0.45594000000E+02  0.51100000000E-03 0. -1.
         23    2    1    2    0    0 -0.71054273576E-14 -0.17763568394E-14 -0.13322676296E-14  0.91188000000E+02  0.91188000000E+02 0.  0.
    9900012    2    3    3    0    0  0.42030456088E+02  0.10243537608E+02  0.34833873292E+01  0.47787270870E+02  0.19999999206E+02 0.  0.
        -12    1    3    3    0    0 -0.42030456088E+02 -0.10243537608E+02 -0.34833873292E+01  0.43400729130E+02  0.00000000000E+00 0.  1.
         11    1    4    4    0    0  0.18684198330E+02  0.51207253865E+01 -0.79185266496E+01  0.20929026740E+02  0.51100000000E-03 0. -1.
        -11    1    4    4    0    0  0.19723669021E+02  0.57045661811E+01  0.10582723595E+02  0.23098901141E+02  0.51100000000E-03 0.  1.
         12    1    4    4    0    0  0.36225887362E+01 -0.58175395965E+00  0.81919038350E+00  0.37593429886E+01  0.00000000000E+00 0. -1.
</event>
<event>
 8    1  0.6019723E-011  0.9118800E+02  0.7816164E-02  0.1184000E+00
        -11   -1    0    0    0    0  0.00000000000E+00  0.00000000000E+00  0.45593999997E+02  0.45594000000E+02  0.51100000000E-03 0.  1.
         11   -1    0    0    0    0 -0.00000000000E+00 -0.00000000000E+00 -0.45593999997E+02  0.45594000000E+02  0.51100000000E-03 0. -1.
         23    2    1    2    0    0  0.00000000000E+00  0.17763568394E-14  0.00000000000E+00  0.91188000000E+02  0.91188000000E+02 0.  0.
    9900012    2    3    3    0    0 -0.42095683737E+02  0.78328617226E+01  0.70868632067E+01  0.47787263346E+02  0.19999964898E+02 0.  0.
        -12    1    3    3    0    0  0.42095683737E+02 -0.78328617226E+01 -0.70868632067E+01  0.43400736654E+02  0.00000000000E+00 0.  1.
         11    1    4    4    0    0 -0.52277523761E+01  0.54749022484E+01 -0.37017003996E+01  0.84265375835E+01  0.51100000000E-03 0. -1.
        -11    1    4    4    0    0 -0.29289800577E+02 -0.13464877738E+01  0.71857471916E+01  0.30188415164E+02  0.51100000000E-03 0.  1.
        -12    1    4    4    0    0 -0.75781307838E+01  0.37044472480E+01  0.36028164147E+01  0.91723105981E+01  0.00000000000E+00 0.  1.
</event>
<event>
 8    1  0.6019723E-011  0.9118800E+02  0.7816164E-02  0.1184000E+00
        -11   -1    0    0    0    0  0.00000000000E+00  0.00000000000E+00  0.45593999997E+02  0.45594000000E+02  0.51100000000E-03 0.  1.
         11   -1    0    0    0    0 -0.00000000000E+00 -0.00000000000E+00 -0.45593999997E+02  0.45594000000E+02  0.51100000000E-03 0. -1.
         23    2    1    2    0    0  0.00000000000E+00  0.00000000000E+00  0.17763568394E-14  0.91188000000E+02  0.91188000000E+02 0.  0.
    9900012    2    3    3    0    0  0.17893216880E+02  0.37720853019E+02 -0.11857108957E+02  0.47787297292E+02  0.20000119672E+02 0.  0.
         12    1    3    3    0    0 -0.17893216880E+02 -0.37720853019E+02  0.11857108957E+02  0.43400702708E+02  0.00000000000E+00 0. -1.
         11    1    4    4    0    0 -0.11677890358E+01  0.14076120567E+02 -0.20038307724E+01  0.14265911800E+02  0.51100000000E-03 0. -1.
        -11    1    4    4    0    0  0.19588604756E+02  0.19416878073E+02 -0.72126071041E+01  0.28508775699E+02  0.51100000000E-03 0.  1.
        -12    1    4    4    0    0 -0.52759883957E+00  0.42278543784E+01 -0.26406710801E+01  0.50126097927E+01  0.00000000000E+00 0.  1.
</event>
<event>
 8    1  0.6019723E-011  0.9118800E+02  0.7816164E-02  0.1184000E+00
        -11   -1    0    0    0    0  0.00000000000E+00  0.00000000000E+00  0.45593999997E+02  0.45594000000E+02  0.51100000000E-03 0. -1.
         11   -1    0    0    0    0 -0.00000000000E+00 -0.00000000000E+00 -0.45593999997E+02  0.45594000000E+02  0.51100000000E-03 0.  1.
         23    2    1    2    0    0 -0.35527136788E-14 -0.17763568394E-14  0.00000000000E+00  0.91188000000E+02  0.91188000000E+02 0.  0.
    9900012    2    3    3    0    0  0.18904501509E+02  0.12899776869E+02  0.36876014942E+02  0.47787252327E+02  0.19999914660E+02 0.  0.
        -12    1    3    3    0    0 -0.18904501509E+02 -0.12899776869E+02 -0.36876014942E+02  0.43400747673E+02  0.00000000000E+00 0.  1.
         11    1    4    4    0    0  0.12794412572E+02  0.23191714230E+00  0.22667976960E+02  0.26030519748E+02  0.51100000000E-03 0. -1.
        -11    1    4    4    0    0  0.45501130286E+01  0.15974140228E+01  0.20503714167E+01  0.52401606216E+01  0.51100000000E-03 0.  1.
         12    1    4    4    0    0  0.15599759085E+01  0.11070445704E+02  0.12157666565E+02  0.16516571958E+02  0.00000000000E+00 0. -1.
</event>
<event>
 8    1  0.6019723E-011  0.9118800E+02  0.7816164E-02  0.1184000E+00
        -11   -1    0    0    0    0  0.00000000000E+00  0.00000000000E+00  0.45593999997E+02  0.45594000000E+02  0.51100000000E-03 0. -1.
         11   -1    0    0    0    0 -0.00000000000E+00 -0.00000000000E+00 -0.45593999997E+02  0.45594000000E+02  0.51100000000E-03 0.  1.
         23    2    1    2    0    0  0.35527136788E-14  0.00000000000E+00  0.00000000000E+00  0.91188000000E+02  0.91188000000E+02 0.  0.
    9900012    2    3    3    0    0 -0.21696340942E+02 -0.26052960364E+01 -0.37498036257E+02  0.47787291471E+02  0.20000093132E+02 0.  0.
         12    1    3    3    0    0  0.21696340942E+02  0.26052960364E+01  0.37498036257E+02  0.43400708529E+02  0.00000000000E+00 0. -1.
         11    1    4    4    0    0 -0.12352659835E+02 -0.78316587656E+01 -0.14430499418E+02  0.20546590903E+02  0.51100000000E-03 0.  1.
        -11    1    4    4    0    0 -0.61364884292E+01  0.71833260464E+01 -0.10505124038E+02  0.14128492299E+02  0.51100000000E-03 0. -1.
         12    1    4    4    0    0 -0.32071926771E+01 -0.19569633172E+01 -0.12562412801E+02  0.13112208269E+02  0.00000000000E+00 0. -1.
</event>
<event>
 8    1  0.6019723E-011  0.9118800E+02  0.7816164E-02  0.1184000E+00
        -11   -1    0    0    0    0  0.00000000000E+00  0.00000000000E+00  0.45593999997E+02  0.45594000000E+02  0.51100000000E-03 0. -1.
         11   -1    0    0    0    0 -0.00000000000E+00 -0.00000000000E+00 -0.45593999997E+02  0.45594000000E+02  0.51100000000E-03 0.  1.
         23    2    1    2    0    0 -0.88817841970E-15  0.00000000000E+00  0.00000000000E+00  0.91188000000E+02  0.91188000000E+02 0.  0.
    9900012    2    3    3    0    0  0.73606485818E+01  0.17179329748E+02 -0.39170334764E+02  0.47787266784E+02  0.19999980574E+02 0.  0.
         12    1    3    3    0    0 -0.73606485818E+01 -0.17179329748E+02  0.39170334764E+02  0.43400733216E+02  0.00000000000E+00 0. -1.
         11    1    4    4    0    0  0.13545656938E+01  0.81793103112E+01 -0.33093271680E+01  0.89267918063E+01  0.51100000000E-03 0. -1.
        -11    1    4    4    0    0  0.24629869479E+01  0.66556178802E+01 -0.32961566151E+02  0.33716885939E+02  0.51100000000E-03 0.  1.
        -12    1    4    4    0    0  0.35430959400E+01  0.23444015567E+01 -0.28994414458E+01  0.51435890385E+01  0.00000000000E+00 0.  1.
</event>
<event>
 8    1  0.6019723E-011  0.9118800E+02  0.7816164E-02  0.1184000E+00
        -11   -1    0    0    0    0  0.00000000000E+00  0.00000000000E+00  0.45593999997E+02  0.45594000000E+02  0.51100000000E-03 0. -1.
         11   -1    0    0    0    0 -0.00000000000E+00 -0.00000000000E+00 -0.45593999997E+02  0.45594000000E+02  0.51100000000E-03 0.  1.
         23    2    1    2    0    0  0.00000000000E+00  0.00000000000E+00  0.00000000000E+00  0.91188000000E+02  0.91188000000E+02 0.  0.
    9900012    2    3    3    0    0  0.22385764983E+02 -0.28535585539E+02 -0.23837384173E+02  0.47787274198E+02  0.20000014379E+02 0.  0.
         12    1    3    3    0    0 -0.22385764983E+02  0.28535585539E+02  0.23837384173E+02  0.43400725802E+02  0.00000000000E+00 0. -1.
         11    1    4    4    0    0  0.17361256677E+02 -0.81169679656E+01 -0.10682913108E+02  0.21941354450E+02  0.51100000000E-03 0. -1.
        -11    1    4    4    0    0 -0.18696631635E+01 -0.33095249496E+01 -0.23373102636E+01  0.44622432998E+01  0.51100000000E-03 0.  1.
         12    1    4    4    0    0  0.68941714694E+01 -0.17109092623E+02 -0.10817160801E+02  0.21383676448E+02  0.00000000000E+00 0. -1.
</event>
<event>
 8    1  0.6019723E-011  0.9118800E+02  0.7816164E-02  0.1184000E+00
        -11   -1    0    0    0    0  0.00000000000E+00  0.00000000000E+00  0.45593999997E+02  0.45594000000E+02  0.51100000000E-03 0. -1.
         11   -1    0    0    0    0 -0.00000000000E+00 -0.00000000000E+00 -0.45593999997E+02  0.45594000000E+02  0.51100000000E-03 0.  1.
         23    2    1    2    0    0 -0.88817841970E-15  0.88817841970E-15  0.71054273576E-14  0.91188000000E+02  0.91188000000E+02 0.  0.
    9900012    2    3    3    0    0 -0.68845064030E+01  0.69539631888E+01  0.42283203598E+02  0.47787270295E+02  0.19999996582E+02 0.  0.
        -12    1    3    3    0    0  0.68845064030E+01 -0.69539631888E+01 -0.42283203598E+02  0.43400729705E+02  0.00000000000E+00 0.  1.
         11    1    4    4    0    0 -0.95177970334E+01  0.66986305711E+01  0.28533521542E+02  0.30815936847E+02  0.51100000000E-03 0. -1.
        -11    1    4    4    0    0  0.28029034641E+01 -0.44088462757E+01  0.81620160797E+01  0.96908565183E+01  0.51100000000E-03 0.  1.
        -12    1    4    4    0    0 -0.16961283362E+00  0.46641788934E+01  0.55876659764E+01  0.72804769299E+01  0.00000000000E+00 0.  1.
</event>
<event>
 8    1  0.6019723E-011  0.9118800E+02  0.7816164E-02  0.1184000E+00
        -11   -1    0    0    0    0  0.00000000000E+00  0.00000000000E+00  0.45593999997E+02  0.45594000000E+02  0.51100000000E-03 0. -1.
         11   -1    0    0    0    0 -0.00000000000E+00 -0.00000000000E+00 -0.45593999997E+02  0.45594000000E+02  0.51100000000E-03 0.  1.
         23    2    1    2    0    0 -0.35527136788E-14  0.00000000000E+00 -0.71054273576E-14  0.91188000000E+02  0.91188000000E+02 0.  0.
    9900012    2    3    3    0    0 -0.24158945532E+02  0.12921301991E+02 -0.33660195877E+02  0.47787268660E+02  0.19999989129E+02 0.  0.
         12    1    3    3    0    0  0.24158945532E+02 -0.12921301991E+02  0.33660195877E+02  0.43400731340E+02  0.00000000000E+00 0. -1.
         11    1    4    4    0    0 -0.15491175840E+02  0.11623587113E+01 -0.16620982639E+02  0.22750487266E+02  0.51100000000E-03 0. -1.
        -11    1    4    4    0    0 -0.48019301158E+01 -0.91813032483E+00 -0.30297082977E+01  0.57515761979E+01  0.51100000000E-03 0.  1.
         12    1    4    4    0    0 -0.38658395760E+01  0.12677073604E+02 -0.14009504940E+02  0.19285205196E+02  0.00000000000E+00 0. -1.
</event>
<event>
 8    1  0.6019723E-011  0.9118800E+02  0.7816164E-02  0.1184000E+00
        -11   -1    0    0    0    0  0.00000000000E+00  0.00000000000E+00  0.45593999997E+02  0.45594000000E+02  0.51100000000E-03 0. -1.
         11   -1    0    0    0    0 -0.00000000000E+00 -0.00000000000E+00 -0.45593999997E+02  0.45594000000E+02  0.51100000000E-03 0.  1.
         23    2    1    2    0    0  0.00000000000E+00  0.00000000000E+00  0.00000000000E+00  0.91188000000E+02  0.91188000000E+02 0.  0.
    9900012    2    3    3    0    0 -0.16620055452E+02  0.89861649064E+01  0.39072317313E+02  0.47787269785E+02  0.19999994258E+02 0.  0.
        -12    1    3    3    0    0  0.16620055452E+02 -0.89861649064E+01 -0.39072317313E+02  0.43400730215E+02  0.00000000000E+00 0.  1.
         11    1    4    4    0    0 -0.96033251011E+01  0.10961101154E+00  0.26673454391E+02  0.28349762556E+02  0.51100000000E-03 0. -1.
        -11    1    4    4    0    0 -0.64363290134E+01  0.10486450122E+02  0.12719032868E+02  0.17696490180E+02  0.51100000000E-03 0.  1.
        -12    1    4    4    0    0 -0.58040133785E+00 -0.16098962267E+01 -0.32016994523E+00  0.17410170497E+01  0.00000000000E+00 0.  1.
</event>
<event>
 8    1  0.6019723E-011  0.9118800E+02  0.7816164E-02  0.1184000E+00
        -11   -1    0    0    0    0  0.00000000000E+00  0.00000000000E+00  0.45593999997E+02  0.45594000000E+02  0.51100000000E-03 0. -1.
         11   -1    0    0    0    0 -0.00000000000E+00 -0.00000000000E+00 -0.45593999997E+02  0.45594000000E+02  0.51100000000E-03 0.  1.
         23    2    1    2    0    0  0.15543122345E-14  0.00000000000E+00 -0.71054273576E-14  0.91188000000E+02  0.91188000000E+02 0.  0.
    9900012    2    3    3    0    0  0.15869633197E+01  0.21270922899E+02  0.37797524602E+02  0.47787268675E+02  0.19999989195E+02 0.  0.
        -12    1    3    3    0    0 -0.15869633197E+01 -0.21270922899E+02 -0.37797524602E+02  0.43400731325E+02  0.00000000000E+00 0.  1.
         11    1    4    4    0    0  0.89383138242E+01  0.41983234058E+01  0.10981114890E+02  0.14768353257E+02  0.51100000000E-03 0. -1.
        -11    1    4    4    0    0 -0.45888391763E+01  0.14994541183E+02  0.20398210624E+02  0.25728985739E+02  0.51100000000E-03 0.  1.
         12    1    4    4    0    0 -0.27625113281E+01  0.20780583110E+01  0.64181990876E+01  0.72899296779E+01  0.00000000000E+00 0. -1.
</event>
<event>
 8    1  0.6019723E-011  0.9118800E+02  0.7816164E-02  0.1184000E+00
        -11   -1    0    0    0    0  0.00000000000E+00  0.00000000000E+00  0.45593999997E+02  0.45594000000E+02  0.51100000000E-03 0. -1.
         11   -1    0    0    0    0 -0.00000000000E+00 -0.00000000000E+00 -0.45593999997E+02  0.45594000000E+02  0.51100000000E-03 0.  1.
         23    2    1    2    0    0 -0.22204460493E-15  0.35527136788E-14  0.00000000000E+00  0.91188000000E+02  0.91188000000E+02 0.  0.
    9900012    2    3    3    0    0  0.11504473066E+01 -0.26400012221E+02  0.34428753046E+02  0.47787271773E+02  0.20000003324E+02 0.  0.
        -12    1    3    3    0    0 -0.11504473066E+01  0.26400012221E+02 -0.34428753046E+02  0.43400728227E+02  0.00000000000E+00 0.  1.
         11    1    4    4    0    0 -0.15163836259E+01 -0.11157503095E+02  0.13196902560E+02  0.17347839406E+02  0.51100000000E-03 0. -1.
        -11    1    4    4    0    0  0.76472873203E+01 -0.75610697018E+01  0.17527420138E+02  0.20563590041E+02  0.51100000000E-03 0.  1.
        -12    1    4    4    0    0 -0.49804563879E+01 -0.76814394243E+01  0.37044303477E+01  0.98758423267E+01  0.00000000000E+00 0.  1.
</event>
<event>
 8    1  0.7580932E-011  0.9118800E+02  0.7816164E-02  0.1184000E+00
        -11   -1    0    0    0    0  0.00000000000E+00  0.00000000000E+00  0.45593999997E+02  0.45594000000E+02  0.51100000000E-03 0. -1.
         11   -1    0    0    0    0 -0.00000000000E+00 -0.00000000000E+00 -0.45593999997E+02  0.45594000000E+02  0.51100000000E-03 0.  1.
         23    2    1    2    0    0 -0.35527136788E-14  0.00000000000E+00  0.00000000000E+00  0.91188000000E+02  0.91188000000E+02 0.  0.
    9900012    2    3    3    0    0  0.30394986112E+02 -0.18856767319E+02 -0.24580275158E+02  0.47787276719E+02  0.20000025871E+02 0.  0.
         12    1    3    3    0    0 -0.30394986112E+02  0.18856767319E+02  0.24580275158E+02  0.43400723281E+02  0.00000000000E+00 0. -1.
         11    1    4    4    0    0  0.17282621889E+02 -0.28413406367E+01 -0.70010076243E+01  0.18862034461E+02  0.51100000000E-03 0. -1.
        -11    1    4    4    0    0  0.14047322759E+02 -0.16175114115E+02 -0.14933443044E+02  0.26114542208E+02  0.51100000000E-03 0.  1.
         12    1    4    4    0    0 -0.93495853653E+00  0.15968743194E+00 -0.26458244890E+01  0.28107000494E+01  0.00000000000E+00 0. -1.
</event>
<event>
 8    1  0.6019723E-011  0.9118800E+02  0.7816164E-02  0.1184000E+00
        -11   -1    0    0    0    0  0.00000000000E+00  0.00000000000E+00  0.45593999997E+02  0.45594000000E+02  0.51100000000E-03 0. -1.
         11   -1    0    0    0    0 -0.00000000000E+00 -0.00000000000E+00 -0.45593999997E+02  0.45594000000E+02  0.51100000000E-03 0.  1.
         23    2    1    2    0    0 -0.17763568394E-14 -0.17763568394E-14  0.71054273576E-14  0.91188000000E+02  0.91188000000E+02 0.  0.
    9900012    2    3    3    0    0  0.83203364485E+01  0.10348980398E+02 -0.41319414570E+02  0.47787269426E+02  0.19999992623E+02 0.  0.
         12    1    3    3    0    0 -0.83203364485E+01 -0.10348980398E+02  0.41319414570E+02  0.43400730574E+02  0.00000000000E+00 0. -1.
         11    1    4    4    0    0  0.64775976152E+01 -0.12422602692E+01 -0.21128345517E+02  0.22133898571E+02  0.51100000000E-03 0. -1.
        -11    1    4    4    0    0 -0.40355930255E+01  0.68901805912E+01 -0.12917779562E+02  0.15186494945E+02  0.51100000000E-03 0.  1.
        -12    1    4    4    0    0  0.58783318588E+01  0.47010600763E+01 -0.72732894914E+01  0.10466875910E+02  0.00000000000E+00 0.  1.
</event>
<event>
 8    1  0.6019723E-011  0.9118800E+02  0.7816164E-02  0.1184000E+00
        -11   -1    0    0    0    0  0.00000000000E+00  0.00000000000E+00  0.45593999997E+02  0.45594000000E+02  0.51100000000E-03 0. -1.
         11   -1    0    0    0    0 -0.00000000000E+00 -0.00000000000E+00 -0.45593999997E+02  0.45594000000E+02  0.51100000000E-03 0.  1.
         23    2    1    2    0    0  0.00000000000E+00  0.00000000000E+00  0.00000000000E+00  0.91188000000E+02  0.91188000000E+02 0.  0.
    9900012    2    3    3    0    0 -0.10180824090E+02 -0.10870202712E+02 -0.40765337675E+02  0.47787271413E+02  0.20000001679E+02 0.  0.
         12    1    3    3    0    0  0.10180824090E+02  0.10870202712E+02  0.40765337675E+02  0.43400728587E+02  0.00000000000E+00 0. -1.
         11    1    4    4    0    0 -0.47934725068E+01 -0.18576255967E+01 -0.25243003049E+02  0.25761159809E+02  0.51100000000E-03 0. -1.
        -11    1    4    4    0    0 -0.84931819506E+01 -0.61226447596E+01 -0.72679958125E+01  0.12745378844E+02  0.51100000000E-03 0.  1.
         12    1    4    4    0    0  0.31058303673E+01 -0.28899323558E+01 -0.82543388136E+01  0.92807327589E+01  0.00000000000E+00 0. -1.
</event>
<event>
 8    1  0.6019723E-011  0.9118800E+02  0.7816164E-02  0.1184000E+00
        -11   -1    0    0    0    0  0.00000000000E+00  0.00000000000E+00  0.45593999997E+02  0.45594000000E+02  0.51100000000E-03 0. -1.
         11   -1    0    0    0    0 -0.00000000000E+00 -0.00000000000E+00 -0.45593999997E+02  0.45594000000E+02  0.51100000000E-03 0.  1.
         23    2    1    2    0    0  0.00000000000E+00  0.35527136788E-14  0.00000000000E+00  0.91188000000E+02  0.91188000000E+02 0.  0.
    9900012    2    3    3    0    0 -0.11271859858E+02 -0.16147281891E+02 -0.38676013380E+02  0.47787267885E+02  0.19999985596E+02 0.  0.
         12    1    3    3    0    0  0.11271859858E+02  0.16147281891E+02  0.38676013380E+02  0.43400732115E+02  0.00000000000E+00 0. -1.
         11    1    4    4    0    0 -0.32066983124E+01 -0.99385032962E+01 -0.16552838418E+02  0.19571745497E+02  0.51100000000E-03 0. -1.
        -11    1    4    4    0    0 -0.14655207599E+01  0.43188285117E+01 -0.31760105093E+01  0.55576140409E+01  0.51100000000E-03 0.  1.
        -12    1    4    4    0    0 -0.65996407856E+01 -0.10527607107E+02 -0.18947164452E+02  0.22657908347E+02  0.00000000000E+00 0.  1.
</event>
<event>
 8    1  0.6019723E-011  0.9118800E+02  0.7816164E-02  0.1184000E+00
        -11   -1    0    0    0    0  0.00000000000E+00  0.00000000000E+00  0.45593999997E+02  0.45594000000E+02  0.51100000000E-03 0. -1.
         11   -1    0    0    0    0 -0.00000000000E+00 -0.00000000000E+00 -0.45593999997E+02  0.45594000000E+02  0.51100000000E-03 0.  1.
         23    2    1    2    0    0  0.00000000000E+00  0.00000000000E+00  0.66613381478E-15  0.91188000000E+02  0.91188000000E+02 0.  0.
    9900012    2    3    3    0    0  0.34777051669E+02  0.25937265375E+02 -0.11992937750E+01  0.47787270012E+02  0.19999995293E+02 0.  0.
        -12    1    3    3    0    0 -0.34777051669E+02 -0.25937265375E+02  0.11992937750E+01  0.43400729988E+02  0.00000000000E+00 0.  1.
         11    1    4    4    0    0  0.18686738131E+02  0.65480886484E+01  0.50067118917E+01  0.20423976380E+02  0.51100000000E-03 0. -1.
        -11    1    4    4    0    0  0.11722391844E+02  0.18476151736E+02 -0.66744985958E+01  0.22876441709E+02  0.51100000000E-03 0.  1.
        -12    1    4    4    0    0  0.43679216934E+01  0.91302499079E+00  0.46849292910E+00  0.44868519229E+01  0.00000000000E+00 0.  1.
</event>
<event>
 8    1  0.6019723E-011  0.9118800E+02  0.7816164E-02  0.1184000E+00
        -11   -1    0    0    0    0  0.00000000000E+00  0.00000000000E+00  0.45593999997E+02  0.45594000000E+02  0.51100000000E-03 0. -1.
         11   -1    0    0    0    0 -0.00000000000E+00 -0.00000000000E+00 -0.45593999997E+02  0.45594000000E+02  0.51100000000E-03 0.  1.
         23    2    1    2    0    0 -0.88817841970E-15  0.35527136788E-14 -0.35527136788E-14  0.91188000000E+02  0.91188000000E+02 0.  0.
    9900012    2    3    3    0    0  0.69027529556E+01 -0.31256670442E+02  0.29308630977E+02  0.47787270798E+02  0.19999998878E+02 0.  0.
        -12    1    3    3    0    0 -0.69027529556E+01  0.31256670442E+02 -0.29308630977E+02  0.43400729202E+02  0.00000000000E+00 0.  1.
         11    1    4    4    0    0  0.10203262739E+02 -0.23726010741E+02  0.13845444537E+02  0.29304035403E+02  0.51100000000E-03 0. -1.
        -11    1    4    4    0    0 -0.14755162485E+01 -0.59176596901E+01  0.14725208873E+02  0.15938243975E+02  0.51100000000E-03 0.  1.
         12    1    4    4    0    0 -0.18249935349E+01 -0.16130000108E+01  0.73797756666E+00  0.25449914197E+01  0.00000000000E+00 0. -1.
</event>
<event>
 8    1  0.6019723E-011  0.9118800E+02  0.7816164E-02  0.1184000E+00
        -11   -1    0    0    0    0  0.00000000000E+00  0.00000000000E+00  0.45593999997E+02  0.45594000000E+02  0.51100000000E-03 0. -1.
         11   -1    0    0    0    0 -0.00000000000E+00 -0.00000000000E+00 -0.45593999997E+02  0.45594000000E+02  0.51100000000E-03 0.  1.
         23    2    1    2    0    0  0.44408920985E-15  0.00000000000E+00  0.00000000000E+00  0.91188000000E+02  0.91188000000E+02 0.  0.
    9900012    2    3    3    0    0 -0.21135644878E+01  0.15682294504E+02  0.40413136510E+02  0.47787272836E+02  0.20000008169E+02 0.  0.
        -12    1    3    3    0    0  0.21135644878E+01 -0.15682294504E+02 -0.40413136510E+02  0.43400727164E+02  0.00000000000E+00 0.  1.
         11    1    4    4    0    0 -0.55782598808E+01  0.68639976865E+01  0.34427395481E+02  0.35545421751E+02  0.51100000000E-03 0. -1.
        -11    1    4    4    0    0  0.45989007488E+01  0.68953935181E+01  0.55286721211E+01  0.99630595477E+01  0.51100000000E-03 0.  1.
         12    1    4    4    0    0 -0.11342053558E+01  0.19229032991E+01  0.45706890786E+00  0.22787915379E+01  0.00000000000E+00 0. -1.
</event>
<event>
 8    1  0.6019723E-011  0.9118800E+02  0.7816164E-02  0.1184000E+00
        -11   -1    0    0    0    0  0.00000000000E+00  0.00000000000E+00  0.45593999997E+02  0.45594000000E+02  0.51100000000E-03 0. -1.
         11   -1    0    0    0    0 -0.00000000000E+00 -0.00000000000E+00 -0.45593999997E+02  0.45594000000E+02  0.51100000000E-03 0.  1.
         23    2    1    2    0    0  0.14432899320E-14  0.00000000000E+00  0.71054273576E-14  0.91188000000E+02  0.91188000000E+02 0.  0.
    9900012    2    3    3    0    0  0.51145224699E+00  0.18839918106E+02 -0.39095000460E+02  0.47787272373E+02  0.20000006057E+02 0.  0.
         12    1    3    3    0    0 -0.51145224699E+00 -0.18839918106E+02  0.39095000460E+02  0.43400727627E+02  0.00000000000E+00 0. -1.
         11    1    4    4    0    0 -0.46671071689E+01  0.10550884220E+02 -0.25514858939E+02  0.28001983395E+02  0.51100000000E-03 0. -1.
        -11    1    4    4    0    0  0.81002496227E+01  0.65156952588E+01 -0.12373451875E+02  0.16160774741E+02  0.51100000000E-03 0.  1.
        -12    1    4    4    0    0 -0.29216902069E+01  0.17733386271E+01 -0.12066896459E+01  0.36245142368E+01  0.00000000000E+00 0.  1.
</event>
<event>
 8    1  0.6019723E-011  0.9118800E+02  0.7816164E-02  0.1184000E+00
        -11   -1    0    0    0    0  0.00000000000E+00  0.00000000000E+00  0.45593999997E+02  0.45594000000E+02  0.51100000000E-03 0. -1.
         11   -1    0    0    0    0 -0.00000000000E+00 -0.00000000000E+00 -0.45593999997E+02  0.45594000000E+02  0.51100000000E-03 0.  1.
         23    2    1    2    0    0  0.00000000000E+00  0.00000000000E+00  0.44408920985E-15  0.91188000000E+02  0.91188000000E+02 0.  0.
    9900012    2    3    3    0    0 -0.39389160465E+02 -0.18036203923E+02  0.26102154489E+01  0.47787264537E+02  0.19999970328E+02 0.  0.
        -12    1    3    3    0    0  0.39389160465E+02  0.18036203923E+02 -0.26102154489E+01  0.43400735463E+02  0.00000000000E+00 0.  1.
         11    1    4    4    0    0 -0.30964256682E+02 -0.18493577318E+02  0.41586289973E+01  0.36305533865E+02  0.51100000000E-03 0. -1.
        -11    1    4    4    0    0 -0.23193924825E+01  0.36907451094E+01  0.17017578090E+00  0.43623549842E+01  0.51100000000E-03 0.  1.
         12    1    4    4    0    0 -0.61055113008E+01 -0.32333717146E+01 -0.17185893293E+01  0.71193756869E+01  0.00000000000E+00 0. -1.
</event>
<event>
 8    1  0.6019723E-011  0.9118800E+02  0.7816164E-02  0.1184000E+00
        -11   -1    0    0    0    0  0.00000000000E+00  0.00000000000E+00  0.45593999997E+02  0.45594000000E+02  0.51100000000E-03 0. -1.
         11   -1    0    0    0    0 -0.00000000000E+00 -0.00000000000E+00 -0.45593999997E+02  0.45594000000E+02  0.51100000000E-03 0.  1.
         23    2    1    2    0    0 -0.72164496601E-15  0.00000000000E+00  0.35527136788E-14  0.91188000000E+02  0.91188000000E+02 0.  0.
    9900012    2    3    3    0    0  0.13990590891E+00  0.34006978301E+02  0.26965322272E+02  0.47787277056E+02  0.20000027409E+02 0.  0.
        -12    1    3    3    0    0 -0.13990590891E+00 -0.34006978301E+02 -0.26965322272E+02  0.43400722944E+02  0.00000000000E+00 0.  1.
         11    1    4    4    0    0  0.65118887375E+00 -0.53937436672E+00  0.18241691214E+01  0.20106130661E+01  0.51100000000E-03 0. -1.
        -11    1    4    4    0    0 -0.77767790103E+01  0.11913353260E+02  0.12021573537E+02  0.18625909595E+02  0.51100000000E-03 0.  1.
        -12    1    4    4    0    0  0.72654960454E+01  0.22632999408E+02  0.13119579613E+02  0.27150754395E+02  0.00000000000E+00 0.  1.
</event>
<event>
 8    1  0.6019723E-011  0.9118800E+02  0.7816164E-02  0.1184000E+00
        -11   -1    0    0    0    0  0.00000000000E+00  0.00000000000E+00  0.45593999997E+02  0.45594000000E+02  0.51100000000E-03 0. -1.
         11   -1    0    0    0    0 -0.00000000000E+00 -0.00000000000E+00 -0.45593999997E+02  0.45594000000E+02  0.51100000000E-03 0.  1.
         23    2    1    2    0    0 -0.22204460493E-15  0.00000000000E+00  0.71054273576E-14  0.91188000000E+02  0.91188000000E+02 0.  0.
    9900012    2    3    3    0    0  0.17312020965E+01 -0.15465811236E+02 -0.40514625657E+02  0.47787271089E+02  0.20000000203E+02 0.  0.
         12    1    3    3    0    0 -0.17312020965E+01  0.15465811236E+02  0.40514625657E+02  0.43400728911E+02  0.00000000000E+00 0. -1.
         11    1    4    4    0    0  0.17755885492E+01 -0.87597048159E+00 -0.19278379299E+02  0.19379781930E+02  0.51100000000E-03 0. -1.
        -11    1    4    4    0    0 -0.41271675315E+01 -0.23499320056E+01 -0.10849330491E+02  0.11843296190E+02  0.51100000000E-03 0.  1.
         12    1    4    4    0    0  0.40827810788E+01 -0.12239908749E+02 -0.10386915866E+02  0.16564192969E+02  0.00000000000E+00 0. -1.
</event>
<event>
 8    1  0.6019723E-011  0.9118800E+02  0.7816164E-02  0.1184000E+00
        -11   -1    0    0    0    0  0.00000000000E+00  0.00000000000E+00  0.45593999997E+02  0.45594000000E+02  0.51100000000E-03 0.  1.
         11   -1    0    0    0    0 -0.00000000000E+00 -0.00000000000E+00 -0.45593999997E+02  0.45594000000E+02  0.51100000000E-03 0. -1.
         23    2    1    2    0    0  0.71054273576E-14 -0.35527136788E-14 -0.17763568394E-14  0.91188000000E+02  0.91188000000E+02 0.  0.
    9900012    2    3    3    0    0 -0.34334876880E+02  0.24558196578E+02  0.10081406802E+02  0.47787267833E+02  0.19999985357E+02 0.  0.
        -12    1    3    3    0    0  0.34334876880E+02 -0.24558196578E+02 -0.10081406802E+02  0.43400732167E+02  0.00000000000E+00 0.  1.
         11    1    4    4    0    0 -0.37516791306E+01 -0.11641278677E+01  0.68489141330E+00  0.39874009706E+01  0.51100000000E-03 0. -1.
        -11    1    4    4    0    0 -0.21381709546E+01  0.18652756974E+01  0.58548137843E+01  0.65061411888E+01  0.51100000000E-03 0.  1.
        -12    1    4    4    0    0 -0.28445026795E+02  0.23857048748E+02  0.35417016040E+01  0.37293725673E+02  0.00000000000E+00 0.  1.
</event>
<event>
 8    1  0.6019723E-011  0.9118800E+02  0.7816164E-02  0.1184000E+00
        -11   -1    0    0    0    0  0.00000000000E+00  0.00000000000E+00  0.45593999997E+02  0.45594000000E+02  0.51100000000E-03 0. -1.
         11   -1    0    0    0    0 -0.00000000000E+00 -0.00000000000E+00 -0.45593999997E+02  0.45594000000E+02  0.51100000000E-03 0.  1.
         23    2    1    2    0    0  0.00000000000E+00 -0.17763568394E-14  0.71054273576E-14  0.91188000000E+02  0.91188000000E+02 0.  0.
    9900012    2    3    3    0    0  0.25260096281E+02  0.10815463047E+02 -0.33594292601E+02  0.47787271891E+02  0.20000003859E+02 0.  0.
         12    1    3    3    0    0 -0.25260096281E+02 -0.10815463047E+02  0.33594292601E+02  0.43400728109E+02  0.00000000000E+00 0. -1.
         11    1    4    4    0    0  0.17074846336E+01  0.74194763471E+01 -0.14022195467E+02  0.15955754417E+02  0.51100000000E-03 0. -1.
        -11    1    4    4    0    0  0.83646503494E+01 -0.10821983124E+01 -0.31082461741E+01  0.89888666246E+01  0.51100000000E-03 0.  1.
         12    1    4    4    0    0  0.15187961298E+02  0.44781850125E+01 -0.16463850960E+02  0.22842650850E+02  0.00000000000E+00 0. -1.
</event>
<event>
 8    1  0.6019723E-011  0.9118800E+02  0.7816164E-02  0.1184000E+00
        -11   -1    0    0    0    0  0.00000000000E+00  0.00000000000E+00  0.45593999997E+02  0.45594000000E+02  0.51100000000E-03 0. -1.
         11   -1    0    0    0    0 -0.00000000000E+00 -0.00000000000E+00 -0.45593999997E+02  0.45594000000E+02  0.51100000000E-03 0.  1.
         23    2    1    2    0    0  0.00000000000E+00  0.17763568394E-14 -0.71054273576E-14  0.91188000000E+02  0.91188000000E+02 0.  0.
    9900012    2    3    3    0    0 -0.19257094982E+02 -0.11888002878E+02  0.37033273082E+02  0.47787266887E+02  0.19999981044E+02 0.  0.
        -12    1    3    3    0    0  0.19257094982E+02  0.11888002878E+02 -0.37033273082E+02  0.43400733113E+02  0.00000000000E+00 0.  1.
         11    1    4    4    0    0 -0.16184188054E+02 -0.18171984129E+01  0.15540695932E+02  0.22510961404E+02  0.51100000000E-03 0. -1.
        -11    1    4    4    0    0  0.25441123563E+01 -0.54932304501E+01  0.95226484278E+01  0.11284011778E+02  0.51100000000E-03 0.  1.
        -12    1    4    4    0    0 -0.56170192849E+01 -0.45775740150E+01  0.11969928722E+02  0.13992293705E+02  0.00000000000E+00 0.  1.
</event>
<event>
 8    1  0.6019723E-011  0.9118800E+02  0.7816164E-02  0.1184000E+00
        -11   -1    0    0    0    0  0.00000000000E+00  0.00000000000E+00  0.45593999997E+02  0.45594000000E+02  0.51100000000E-03 0. -1.
         11   -1    0    0    0    0 -0.00000000000E+00 -0.00000000000E+00 -0.45593999997E+02  0.45594000000E+02  0.51100000000E-03 0.  1.
         23    2    1    2    0    0  0.00000000000E+00  0.88817841970E-15  0.00000000000E+00  0.91188000000E+02  0.91188000000E+02 0.  0.
    9900012    2    3    3    0    0  0.70488337834E+01  0.16094353006E+01  0.42794237744E+02  0.47787272774E+02  0.20000007884E+02 0.  0.
        -12    1    3    3    0    0 -0.70488337834E+01 -0.16094353006E+01 -0.42794237744E+02  0.43400727226E+02  0.00000000000E+00 0.  1.
         11    1    4    4    0    0  0.47804960043E+01 -0.46640568489E+01  0.12763029532E+02  0.14404912059E+02  0.51100000000E-03 0. -1.
        -11    1    4    4    0    0  0.19302486600E+01  0.52540146634E+01  0.30396844152E+01  0.63694749845E+01  0.51100000000E-03 0.  1.
         12    1    4    4    0    0  0.33808911913E+00  0.10194774860E+01  0.26991523797E+02  0.27012885730E+02  0.00000000000E+00 0. -1.
</event>
<event>
 8    1  0.6019723E-011  0.9118800E+02  0.7816164E-02  0.1184000E+00
        -11   -1    0    0    0    0  0.00000000000E+00  0.00000000000E+00  0.45593999997E+02  0.45594000000E+02  0.51100000000E-03 0.  1.
         11   -1    0    0    0    0 -0.00000000000E+00 -0.00000000000E+00 -0.45593999997E+02  0.45594000000E+02  0.51100000000E-03 0. -1.
         23    2    1    2    0    0  0.00000000000E+00  0.00000000000E+00  0.00000000000E+00  0.91188000000E+02  0.91188000000E+02 0.  0.
    9900012    2    3    3    0    0  0.19544780632E+02 -0.34171662907E+02  0.18273526742E+02  0.47787276788E+02  0.20000026186E+02 0.  0.
        -12    1    3    3    0    0 -0.19544780632E+02  0.34171662907E+02 -0.18273526742E+02  0.43400723212E+02  0.00000000000E+00 0.  1.
         11    1    4    4    0    0  0.12001024619E+02 -0.12064620532E+02  0.18221332515E+01  0.17114316532E+02  0.51100000000E-03 0. -1.
        -11    1    4    4    0    0  0.37858997151E+01 -0.13338799549E+02  0.15929888536E+02  0.21119137271E+02  0.51100000000E-03 0.  1.
        -12    1    4    4    0    0  0.37578562976E+01 -0.87682428258E+01  0.52150495419E+00  0.95538229847E+01  0.00000000000E+00 0.  1.
</event>
<event>
 8    1  0.6019723E-011  0.9118800E+02  0.7816164E-02  0.1184000E+00
        -11   -1    0    0    0    0  0.00000000000E+00  0.00000000000E+00  0.45593999997E+02  0.45594000000E+02  0.51100000000E-03 0. -1.
         11   -1    0    0    0    0 -0.00000000000E+00 -0.00000000000E+00 -0.45593999997E+02  0.45594000000E+02  0.51100000000E-03 0.  1.
         23    2    1    2    0    0  0.00000000000E+00  0.00000000000E+00  0.00000000000E+00  0.91188000000E+02  0.91188000000E+02 0.  0.
    9900012    2    3    3    0    0 -0.18670225238E+02  0.14638056662E+02 -0.36342459307E+02  0.47787258511E+02  0.19999942856E+02 0.  0.
         12    1    3    3    0    0  0.18670225238E+02 -0.14638056662E+02  0.36342459307E+02  0.43400741489E+02  0.00000000000E+00 0. -1.
         11    1    4    4    0    0 -0.11719441268E+02  0.14265527728E+02 -0.11616815385E+02  0.21812862833E+02  0.51100000000E-03 0. -1.
        -11    1    4    4    0    0 -0.58542295918E+01  0.48612370603E+00 -0.13867183915E+02  0.15060116546E+02  0.51100000000E-03 0.  1.
         12    1    4    4    0    0 -0.10965543777E+01 -0.11359477180E+00 -0.10858460006E+02  0.10914279133E+02  0.00000000000E+00 0. -1.
</event>
<event>
 8    1  0.6019723E-011  0.9118800E+02  0.7816164E-02  0.1184000E+00
        -11   -1    0    0    0    0  0.00000000000E+00  0.00000000000E+00  0.45593999997E+02  0.45594000000E+02  0.51100000000E-03 0. -1.
         11   -1    0    0    0    0 -0.00000000000E+00 -0.00000000000E+00 -0.45593999997E+02  0.45594000000E+02  0.51100000000E-03 0.  1.
         23    2    1    2    0    0 -0.35527136788E-14  0.00000000000E+00  0.44408920985E-15  0.91188000000E+02  0.91188000000E+02 0.  0.
    9900012    2    3    3    0    0 -0.18094594005E+02  0.39408368663E+02  0.17859625511E+01  0.47787268265E+02  0.19999987329E+02 0.  0.
         12    1    3    3    0    0  0.18094594005E+02 -0.39408368663E+02 -0.17859625511E+01  0.43400731735E+02  0.00000000000E+00 0. -1.
         11    1    4    4    0    0 -0.10355913566E+02  0.27349946094E+02 -0.29641369040E+01  0.29394737709E+02  0.51100000000E-03 0. -1.
        -11    1    4    4    0    0 -0.35071675807E+01  0.65078829582E+01 -0.29862099754E+01  0.79730932088E+01  0.51100000000E-03 0.  1.
         12    1    4    4    0    0 -0.42315128576E+01  0.55505396108E+01  0.77363094305E+01  0.10419437348E+02  0.00000000000E+00 0. -1.
</event>
<event>
 8    1  0.6019723E-011  0.9118800E+02  0.7816164E-02  0.1184000E+00
        -11   -1    0    0    0    0  0.00000000000E+00  0.00000000000E+00  0.45593999997E+02  0.45594000000E+02  0.51100000000E-03 0. -1.
         11   -1    0    0    0    0 -0.00000000000E+00 -0.00000000000E+00 -0.45593999997E+02  0.45594000000E+02  0.51100000000E-03 0.  1.
         23    2    1    2    0    0  0.00000000000E+00  0.71054273576E-14  0.17763568394E-14  0.91188000000E+02  0.91188000000E+02 0.  0.
    9900012    2    3    3    0    0 -0.17436297942E+02  0.37666816701E+02  0.12681094330E+02  0.47787265908E+02  0.19999976580E+02 0.  0.
        -12    1    3    3    0    0  0.17436297942E+02 -0.37666816701E+02 -0.12681094330E+02  0.43400734092E+02  0.00000000000E+00 0.  1.
         11    1    4    4    0    0 -0.12249957888E+02  0.23534742907E+02  0.12703608227E+02  0.29416445303E+02  0.51100000000E-03 0. -1.
        -11    1    4    4    0    0  0.14383189860E+00  0.72055622000E+01  0.45338206105E+01  0.85144784821E+01  0.51100000000E-03 0.  1.
         12    1    4    4    0    0 -0.53301719523E+01  0.69265115939E+01 -0.45563345077E+01  0.98563421231E+01  0.00000000000E+00 0. -1.
</event>
<event>
 8    1  0.6019723E-011  0.9118800E+02  0.7816164E-02  0.1184000E+00
        -11   -1    0    0    0    0  0.00000000000E+00  0.00000000000E+00  0.45593999997E+02  0.45594000000E+02  0.51100000000E-03 0. -1.
         11   -1    0    0    0    0 -0.00000000000E+00 -0.00000000000E+00 -0.45593999997E+02  0.45594000000E+02  0.51100000000E-03 0.  1.
         23    2    1    2    0    0  0.00000000000E+00  0.00000000000E+00  0.00000000000E+00  0.91188000000E+02  0.91188000000E+02 0.  0.
    9900012    2    3    3    0    0  0.22230381556E+02  0.23562127566E+02  0.28883549547E+02  0.47787272426E+02  0.20000006299E+02 0.  0.
        -12    1    3    3    0    0 -0.22230381556E+02 -0.23562127566E+02 -0.28883549547E+02  0.43400727574E+02  0.00000000000E+00 0.  1.
         11    1    4    4    0    0  0.14522772075E+02  0.12863091152E+02  0.21199377782E+02  0.28736451439E+02  0.51100000000E-03 0. -1.
        -11    1    4    4    0    0  0.87666373086E+01  0.27019094438E+01  0.26768165711E+01  0.95561284817E+01  0.51100000000E-03 0.  1.
         12    1    4    4    0    0 -0.10590278282E+01  0.79971269706E+01  0.50073551936E+01  0.94946925048E+01  0.00000000000E+00 0. -1.
</event>
<event>
 8    1  0.6019723E-011  0.9118800E+02  0.7816164E-02  0.1184000E+00
        -11   -1    0    0    0    0  0.00000000000E+00  0.00000000000E+00  0.45593999997E+02  0.45594000000E+02  0.51100000000E-03 0.  1.
         11   -1    0    0    0    0 -0.00000000000E+00 -0.00000000000E+00 -0.45593999997E+02  0.45594000000E+02  0.51100000000E-03 0. -1.
         23    2    1    2    0    0 -0.71054273576E-14  0.00000000000E+00  0.00000000000E+00  0.91188000000E+02  0.91188000000E+02 0.  0.
    9900012    2    3    3    0    0  0.36177107129E+02  0.19097157933E+02 -0.14496142093E+02  0.47787278152E+02  0.20000032406E+02 0.  0.
         12    1    3    3    0    0 -0.36177107129E+02 -0.19097157933E+02  0.14496142093E+02  0.43400721848E+02  0.00000000000E+00 0. -1.
         11    1    4    4    0    0  0.73848963012E+01 -0.12973816310E+01 -0.71298052510E+01  0.10346691049E+02  0.51100000000E-03 0. -1.
        -11    1    4    4    0    0  0.26998601834E+02  0.20674990133E+02 -0.88018124667E+01  0.35126224121E+02  0.51100000000E-03 0.  1.
         12    1    4    4    0    0  0.17936089940E+01 -0.28045056968E+00  0.14354756250E+01  0.23143629826E+01  0.00000000000E+00 0. -1.
</event>
<event>
 8    1  0.6019723E-011  0.9118800E+02  0.7816164E-02  0.1184000E+00
        -11   -1    0    0    0    0  0.00000000000E+00  0.00000000000E+00  0.45593999997E+02  0.45594000000E+02  0.51100000000E-03 0. -1.
         11   -1    0    0    0    0 -0.00000000000E+00 -0.00000000000E+00 -0.45593999997E+02  0.45594000000E+02  0.51100000000E-03 0.  1.
         23    2    1    2    0    0 -0.88817841970E-15  0.00000000000E+00 -0.35527136788E-14  0.91188000000E+02  0.91188000000E+02 0.  0.
    9900012    2    3    3    0    0 -0.55541227034E+01 -0.38833300434E+02  0.18567414696E+02  0.47787281225E+02  0.20000046419E+02 0.  0.
        -12    1    3    3    0    0  0.55541227034E+01  0.38833300434E+02 -0.18567414696E+02  0.43400718775E+02  0.00000000000E+00 0.  1.
         11    1    4    4    0    0  0.35551750355E+01 -0.25555595075E+02  0.63351288013E+01  0.26568055374E+02  0.51100000000E-03 0. -1.
        -11    1    4    4    0    0 -0.46061648393E+01 -0.16896164161E+01  0.34744059377E+01  0.60119094338E+01  0.51100000000E-03 0.  1.
         12    1    4    4    0    0 -0.45031328997E+01 -0.11588088943E+02  0.87578799576E+01  0.15207316417E+02  0.00000000000E+00 0. -1.
</event>
<event>
 8    1  0.6019723E-011  0.9118800E+02  0.7816164E-02  0.1184000E+00
        -11   -1    0    0    0    0  0.00000000000E+00  0.00000000000E+00  0.45593999997E+02  0.45594000000E+02  0.51100000000E-03 0. -1.
         11   -1    0    0    0    0 -0.00000000000E+00 -0.00000000000E+00 -0.45593999997E+02  0.45594000000E+02  0.51100000000E-03 0.  1.
         23    2    1    2    0    0  0.00000000000E+00  0.00000000000E+00  0.00000000000E+00  0.91188000000E+02  0.91188000000E+02 0.  0.
    9900012    2    3    3    0    0  0.34393934181E+02 -0.24184275628E+02 -0.10761131188E+02  0.47787264517E+02  0.19999970238E+02 0.  0.
        -12    1    3    3    0    0 -0.34393934181E+02  0.24184275628E+02  0.10761131188E+02  0.43400735483E+02  0.00000000000E+00 0.  1.
         11    1    4    4    0    0  0.26703099131E+01 -0.10205145256E+02 -0.13605042184E+01  0.10636094993E+02  0.51100000000E-03 0. -1.
        -11    1    4    4    0    0  0.16643737069E+02 -0.44742546136E+01 -0.87144402376E+01  0.19312545324E+02  0.51100000000E-03 0.  1.
        -12    1    4    4    0    0  0.15079887198E+02 -0.95048757585E+01 -0.68618673175E+00  0.17838624199E+02  0.00000000000E+00 0.  1.
</event>
<event>
 8    1  0.6019723E-011  0.9118800E+02  0.7816164E-02  0.1184000E+00
        -11   -1    0    0    0    0  0.00000000000E+00  0.00000000000E+00  0.45593999997E+02  0.45594000000E+02  0.51100000000E-03 0. -1.
         11   -1    0    0    0    0 -0.00000000000E+00 -0.00000000000E+00 -0.45593999997E+02  0.45594000000E+02  0.51100000000E-03 0.  1.
         23    2    1    2    0    0  0.00000000000E+00 -0.17763568394E-14  0.00000000000E+00  0.91188000000E+02  0.91188000000E+02 0.  0.
    9900012    2    3    3    0    0  0.13065417708E+02  0.80315552876E+01 -0.40600645077E+02  0.47787269581E+02  0.19999993328E+02 0.  0.
         12    1    3    3    0    0 -0.13065417708E+02 -0.80315552876E+01  0.40600645077E+02  0.43400730419E+02  0.00000000000E+00 0. -1.
         11    1    4    4    0    0  0.27334061031E+00  0.10015428560E+02 -0.26013408812E+02  0.27876171950E+02  0.51100000000E-03 0. -1.
        -11    1    4    4    0    0  0.60548763034E+01 -0.11996249115E+01 -0.98991076757E+01  0.11665888737E+02  0.51100000000E-03 0.  1.
         12    1    4    4    0    0  0.67372007947E+01 -0.78424836062E+00 -0.46881285890E+01  0.82452088941E+01  0.00000000000E+00 0. -1.
</event>
<event>
 8    1  0.6019723E-011  0.9118800E+02  0.7816164E-02  0.1184000E+00
        -11   -1    0    0    0    0  0.00000000000E+00  0.00000000000E+00  0.45593999997E+02  0.45594000000E+02  0.51100000000E-03 0. -1.
         11   -1    0    0    0    0 -0.00000000000E+00 -0.00000000000E+00 -0.45593999997E+02  0.45594000000E+02  0.51100000000E-03 0.  1.
         23    2    1    2    0    0  0.00000000000E+00  0.00000000000E+00  0.00000000000E+00  0.91188000000E+02  0.91188000000E+02 0.  0.
    9900012    2    3    3    0    0 -0.35803275565E+02  0.58348029514E+01  0.23826548437E+02  0.47787264096E+02  0.19999968317E+02 0.  0.
        -12    1    3    3    0    0  0.35803275565E+02 -0.58348029514E+01 -0.23826548437E+02  0.43400735904E+02  0.00000000000E+00 0.  1.
         11    1    4    4    0    0 -0.12462939973E+02  0.15351087191E+01  0.36247032093E+01  0.13069808919E+02  0.51100000000E-03 0. -1.
        -11    1    4    4    0    0 -0.15524114058E+02  0.76075241928E+01  0.19707667173E+02  0.26215733583E+02  0.51100000000E-03 0.  1.
        -12    1    4    4    0    0 -0.78162215334E+01 -0.33078299605E+01  0.49417805408E+00  0.85017215937E+01  0.00000000000E+00 0.  1.
</event>
<event>
 8    1  0.6019723E-011  0.9118800E+02  0.7816164E-02  0.1184000E+00
        -11   -1    0    0    0    0  0.00000000000E+00  0.00000000000E+00  0.45593999997E+02  0.45594000000E+02  0.51100000000E-03 0. -1.
         11   -1    0    0    0    0 -0.00000000000E+00 -0.00000000000E+00 -0.45593999997E+02  0.45594000000E+02  0.51100000000E-03 0.  1.
         23    2    1    2    0    0  0.00000000000E+00 -0.71054273576E-14  0.00000000000E+00  0.91188000000E+02  0.91188000000E+02 0.  0.
    9900012    2    3    3    0    0 -0.51360785974E+01 -0.41425959203E+02 -0.11879999012E+02  0.47787265262E+02  0.19999973636E+02 0.  0.
         12    1    3    3    0    0  0.51360785974E+01  0.41425959203E+02  0.11879999012E+02  0.43400734738E+02  0.00000000000E+00 0. -1.
         11    1    4    4    0    0  0.17318648506E+01 -0.80331541241E+00 -0.44104902355E+01  0.48059438086E+01  0.51100000000E-03 0. -1.
        -11    1    4    4    0    0  0.79179529069E+00 -0.22302554716E+02 -0.57781258993E+01  0.23052497171E+02  0.51100000000E-03 0.  1.
         12    1    4    4    0    0 -0.76597387387E+01 -0.18320089075E+02 -0.16913828776E+01  0.19928824282E+02  0.00000000000E+00 0. -1.
</event>
<event>
 8    1  0.6019723E-011  0.9118800E+02  0.7816164E-02  0.1184000E+00
        -11   -1    0    0    0    0  0.00000000000E+00  0.00000000000E+00  0.45593999997E+02  0.45594000000E+02  0.51100000000E-03 0.  1.
         11   -1    0    0    0    0 -0.00000000000E+00 -0.00000000000E+00 -0.45593999997E+02  0.45594000000E+02  0.51100000000E-03 0. -1.
         23    2    1    2    0    0 -0.11102230246E-15  0.00000000000E+00  0.00000000000E+00  0.91188000000E+02  0.91188000000E+02 0.  0.
    9900012    2    3    3    0    0  0.52637927940E+00 -0.41123842026E+02 -0.13862751623E+02  0.47787270275E+02  0.19999996493E+02 0.  0.
        -12    1    3    3    0    0 -0.52637927940E+00  0.41123842026E+02  0.13862751623E+02  0.43400729725E+02  0.00000000000E+00 0.  1.
         11    1    4    4    0    0  0.56161264874E+00 -0.18468084959E+02  0.97370553154E+00  0.18502261309E+02  0.51100000000E-03 0. -1.
        -11    1    4    4    0    0 -0.30582344848E+01 -0.11011194897E+02 -0.12667278309E+02  0.17060455775E+02  0.51100000000E-03 0.  1.
        -12    1    4    4    0    0  0.30230011155E+01 -0.11644562170E+02 -0.21691788450E+01  0.12224553191E+02  0.00000000000E+00 0.  1.
</event>
<event>
 8    1  0.6019723E-011  0.9118800E+02  0.7816164E-02  0.1184000E+00
        -11   -1    0    0    0    0  0.00000000000E+00  0.00000000000E+00  0.45593999997E+02  0.45594000000E+02  0.51100000000E-03 0. -1.
         11   -1    0    0    0    0 -0.00000000000E+00 -0.00000000000E+00 -0.45593999997E+02  0.45594000000E+02  0.51100000000E-03 0.  1.
         23    2    1    2    0    0 -0.17763568394E-14 -0.71054273576E-14  0.00000000000E+00  0.91188000000E+02  0.91188000000E+02 0.  0.
    9900012    2    3    3    0    0  0.10841110704E+02  0.36504844909E+02  0.20820420797E+02  0.47787270683E+02  0.19999998352E+02 0.  0.
        -12    1    3    3    0    0 -0.10841110704E+02 -0.36504844909E+02 -0.20820420797E+02  0.43400729317E+02  0.00000000000E+00 0.  1.
         11    1    4    4    0    0 -0.25784532430E+01  0.21791018818E+01  0.97193643135E+00  0.35130566214E+01  0.51100000000E-03 0. -1.
        -11    1    4    4    0    0 -0.76616053488E+00  0.52029274829E+01 -0.15114165930E+01  0.54719134438E+01  0.51100000000E-03 0.  1.
         12    1    4    4    0    0  0.14185724482E+02  0.29122815544E+02  0.21359900959E+02  0.38802300618E+02  0.00000000000E+00 0. -1.
</event>
<event>
 8    1  0.6019723E-011  0.9118800E+02  0.7816164E-02  0.1184000E+00
        -11   -1    0    0    0    0  0.00000000000E+00  0.00000000000E+00  0.45593999997E+02  0.45594000000E+02  0.51100000000E-03 0. -1.
         11   -1    0    0    0    0 -0.00000000000E+00 -0.00000000000E+00 -0.45593999997E+02  0.45594000000E+02  0.51100000000E-03 0.  1.
         23    2    1    2    0    0 -0.17763568394E-14  0.00000000000E+00  0.00000000000E+00  0.91188000000E+02  0.91188000000E+02 0.  0.
    9900012    2    3    3    0    0 -0.10887123704E+02 -0.32396486506E+02 -0.26749952244E+02  0.47787288652E+02  0.20000080279E+02 0.  0.
         12    1    3    3    0    0  0.10887123704E+02  0.32396486506E+02  0.26749952244E+02  0.43400711348E+02  0.00000000000E+00 0. -1.
         11    1    4    4    0    0  0.28954342549E+01  0.37045381777E+00 -0.76267922544E+00  0.30170275799E+01  0.51100000000E-03 0. -1.
        -11    1    4    4    0    0 -0.12538784243E+01 -0.64846506179E+01 -0.86510975483E+01  0.10884134958E+02  0.51100000000E-03 0.  1.
         12    1    4    4    0    0 -0.12528679535E+02 -0.26282289706E+02 -0.17336175470E+02  0.33886126114E+02  0.00000000000E+00 0. -1.
</event>
<event>
 8    1  0.6019723E-011  0.9118800E+02  0.7816164E-02  0.1184000E+00
        -11   -1    0    0    0    0  0.00000000000E+00  0.00000000000E+00  0.45593999997E+02  0.45594000000E+02  0.51100000000E-03 0. -1.
         11   -1    0    0    0    0 -0.00000000000E+00 -0.00000000000E+00 -0.45593999997E+02  0.45594000000E+02  0.51100000000E-03 0.  1.
         23    2    1    2    0    0  0.88817841970E-15  0.71054273576E-14  0.00000000000E+00  0.91188000000E+02  0.91188000000E+02 0.  0.
    9900012    2    3    3    0    0 -0.40557082500E+01  0.35238258299E+02  0.25008804897E+02  0.47787263374E+02  0.19999965026E+02 0.  0.
        -12    1    3    3    0    0  0.40557082500E+01 -0.35238258299E+02 -0.25008804897E+02  0.43400736626E+02  0.00000000000E+00 0.  1.
         11    1    4    4    0    0  0.12198618804E+01  0.14373722073E+02  0.70236674282E+01  0.16044433727E+02  0.51100000000E-03 0. -1.
        -11    1    4    4    0    0 -0.81843936682E+01  0.11503259252E+02  0.16681642467E+02  0.21853751824E+02  0.51100000000E-03 0.  1.
        -12    1    4    4    0    0  0.29088235378E+01  0.93612769739E+01  0.13034950018E+01  0.98890778223E+01  0.00000000000E+00 0.  1.
</event>
<event>
 8    1  0.6019723E-011  0.9118800E+02  0.7816164E-02  0.1184000E+00
        -11   -1    0    0    0    0  0.00000000000E+00  0.00000000000E+00  0.45593999997E+02  0.45594000000E+02  0.51100000000E-03 0. -1.
         11   -1    0    0    0    0 -0.00000000000E+00 -0.00000000000E+00 -0.45593999997E+02  0.45594000000E+02  0.51100000000E-03 0.  1.
         23    2    1    2    0    0  0.71054273576E-14  0.44408920985E-15  0.00000000000E+00  0.91188000000E+02  0.91188000000E+02 0.  0.
    9900012    2    3    3    0    0 -0.39141339480E+02 -0.20126632924E+01 -0.18642080965E+02  0.47787280507E+02  0.20000043144E+02 0.  0.
         12    1    3    3    0    0  0.39141339480E+02  0.20126632924E+01  0.18642080965E+02  0.43400719493E+02  0.00000000000E+00 0. -1.
         11    1    4    4    0    0 -0.15074031604E+02  0.81201818051E+01 -0.47137675948E+01  0.17759036757E+02  0.51100000000E-03 0.  1.
        -11    1    4    4    0    0 -0.13638562325E+02 -0.61326554921E+01 -0.10744617996E+02  0.18413762837E+02  0.51100000000E-03 0. -1.
        -12    1    4    4    0    0 -0.10428745551E+02 -0.40001896053E+01 -0.31836953737E+01  0.11614480913E+02  0.00000000000E+00 0.  1.
</event>
<event>
 8    1  0.6019723E-011  0.9118800E+02  0.7816164E-02  0.1184000E+00
        -11   -1    0    0    0    0  0.00000000000E+00  0.00000000000E+00  0.45593999997E+02  0.45594000000E+02  0.51100000000E-03 0.  1.
         11   -1    0    0    0    0 -0.00000000000E+00 -0.00000000000E+00 -0.45593999997E+02  0.45594000000E+02  0.51100000000E-03 0. -1.
         23    2    1    2    0    0  0.00000000000E+00 -0.35527136788E-14  0.00000000000E+00  0.91188000000E+02  0.91188000000E+02 0.  0.
    9900012    2    3    3    0    0  0.31724514657E+02 -0.24837617364E+02  0.16132914521E+02  0.47787274229E+02  0.20000014518E+02 0.  0.
        -12    1    3    3    0    0 -0.31724514657E+02  0.24837617364E+02 -0.16132914521E+02  0.43400725771E+02  0.00000000000E+00 0.  1.
         11    1    4    4    0    0  0.63293971593E+01 -0.25915079802E+01  0.23114944610E+01  0.72194313430E+01  0.51100000000E-03 0. -1.
        -11    1    4    4    0    0  0.13732058710E+02 -0.89384166060E+00  0.40035801689E+01  0.14331679726E+02  0.51100000000E-03 0.  1.
        -12    1    4    4    0    0  0.11663058787E+02 -0.21352267723E+02  0.98178398912E+01  0.26236163160E+02  0.00000000000E+00 0.  1.
</event>
<event>
 8    1  0.6019723E-011  0.9118800E+02  0.7816164E-02  0.1184000E+00
        -11   -1    0    0    0    0  0.00000000000E+00  0.00000000000E+00  0.45593999997E+02  0.45594000000E+02  0.51100000000E-03 0. -1.
         11   -1    0    0    0    0 -0.00000000000E+00 -0.00000000000E+00 -0.45593999997E+02  0.45594000000E+02  0.51100000000E-03 0.  1.
         23    2    1    2    0    0  0.17763568394E-14  0.00000000000E+00  0.00000000000E+00  0.91188000000E+02  0.91188000000E+02 0.  0.
    9900012    2    3    3    0    0 -0.15621225525E+02  0.31700011156E+02  0.25193398657E+02  0.47787300350E+02  0.20000133615E+02 0.  0.
        -12    1    3    3    0    0  0.15621225525E+02 -0.31700011156E+02 -0.25193398657E+02  0.43400699650E+02  0.00000000000E+00 0.  1.
         11    1    4    4    0    0 -0.85287418205E+01  0.92119506960E+01  0.12420024412E+02  0.17659458636E+02  0.51100000000E-03 0. -1.
        -11    1    4    4    0    0 -0.83458099965E+01  0.21713032403E+02  0.71815082020E+01  0.24345068925E+02  0.51100000000E-03 0.  1.
        -12    1    4    4    0    0  0.12533262922E+01  0.77502805733E+00  0.55918660432E+01  0.57827727891E+01  0.00000000000E+00 0.  1.
</event>
<event>
 8    1  0.6019723E-011  0.9118800E+02  0.7816164E-02  0.1184000E+00
        -11   -1    0    0    0    0  0.00000000000E+00  0.00000000000E+00  0.45593999997E+02  0.45594000000E+02  0.51100000000E-03 0. -1.
         11   -1    0    0    0    0 -0.00000000000E+00 -0.00000000000E+00 -0.45593999997E+02  0.45594000000E+02  0.51100000000E-03 0.  1.
         23    2    1    2    0    0  0.00000000000E+00  0.00000000000E+00  0.00000000000E+00  0.91188000000E+02  0.91188000000E+02 0.  0.
    9900012    2    3    3    0    0  0.30511206544E+02  0.15628009480E+02 -0.26616814687E+02  0.47787271560E+02  0.20000002349E+02 0.  0.
         12    1    3    3    0    0 -0.30511206544E+02 -0.15628009480E+02  0.26616814687E+02  0.43400728440E+02  0.00000000000E+00 0. -1.
         11    1    4    4    0    0  0.48517102186E+00  0.24282245529E+01 -0.22015632190E+01  0.33133889401E+01  0.51100000000E-03 0. -1.
        -11    1    4    4    0    0  0.27578481828E+01  0.37074114689E+01  0.22785212665E+01  0.51519205955E+01  0.51100000000E-03 0.  1.
        -12    1    4    4    0    0  0.27268187339E+02  0.94923734580E+01 -0.26693772735E+02  0.39321962024E+02  0.00000000000E+00 0.  1.
</event>
<event>
 8    1  0.6019723E-011  0.9118800E+02  0.7816164E-02  0.1184000E+00
        -11   -1    0    0    0    0  0.00000000000E+00  0.00000000000E+00  0.45593999997E+02  0.45594000000E+02  0.51100000000E-03 0.  1.
         11   -1    0    0    0    0 -0.00000000000E+00 -0.00000000000E+00 -0.45593999997E+02  0.45594000000E+02  0.51100000000E-03 0. -1.
         23    2    1    2    0    0  0.88817841970E-15  0.71054273576E-14  0.00000000000E+00  0.91188000000E+02  0.91188000000E+02 0.  0.
    9900012    2    3    3    0    0  0.54150743973E+01  0.43033813871E+02  0.15463480616E+01  0.47787270060E+02  0.19999995510E+02 0.  0.
        -12    1    3    3    0    0 -0.54150743973E+01 -0.43033813871E+02 -0.15463480616E+01  0.43400729940E+02  0.00000000000E+00 0.  1.
         11    1    4    4    0    0  0.33360768470E+01 -0.91861134623E+00  0.35112657055E+00  0.34780088649E+01  0.51100000000E-03 0.  1.
        -11    1    4    4    0    0  0.12995728048E+00  0.47345736956E+00  0.60955095281E+00  0.78268984965E+00  0.51100000000E-03 0. -1.
         12    1    4    4    0    0  0.19490402698E+01  0.43478967848E+02  0.58567053826E+00  0.43526571345E+02  0.00000000000E+00 0. -1.
</event>
<event>
 8    1  0.6019723E-011  0.9118800E+02  0.7816164E-02  0.1184000E+00
        -11   -1    0    0    0    0  0.00000000000E+00  0.00000000000E+00  0.45593999997E+02  0.45594000000E+02  0.51100000000E-03 0. -1.
         11   -1    0    0    0    0 -0.00000000000E+00 -0.00000000000E+00 -0.45593999997E+02  0.45594000000E+02  0.51100000000E-03 0.  1.
         23    2    1    2    0    0  0.00000000000E+00  0.35527136788E-14  0.00000000000E+00  0.91188000000E+02  0.91188000000E+02 0.  0.
    9900012    2    3    3    0    0  0.11926893863E+02  0.18679634759E+02 -0.37315460358E+02  0.47787272659E+02  0.20000007363E+02 0.  0.
         12    1    3    3    0    0 -0.11926893863E+02 -0.18679634759E+02  0.37315460358E+02  0.43400727341E+02  0.00000000000E+00 0. -1.
         11    1    4    4    0    0  0.21469996178E+01  0.26621698745E+01 -0.94216873068E+01  0.10023220429E+02  0.51100000000E-03 0. -1.
        -11    1    4    4    0    0  0.11943129183E+01  0.22367797878E+01 -0.19161282468E+02  0.19328329293E+02  0.51100000000E-03 0.  1.
        -12    1    4    4    0    0  0.85855813271E+01  0.13780685096E+02 -0.87324905837E+01  0.18435722938E+02  0.00000000000E+00 0.  1.
</event>
<event>
 8    1  0.6019723E-011  0.9118800E+02  0.7816164E-02  0.1184000E+00
        -11   -1    0    0    0    0  0.00000000000E+00  0.00000000000E+00  0.45593999997E+02  0.45594000000E+02  0.51100000000E-03 0. -1.
         11   -1    0    0    0    0 -0.00000000000E+00 -0.00000000000E+00 -0.45593999997E+02  0.45594000000E+02  0.51100000000E-03 0.  1.
         23    2    1    2    0    0  0.00000000000E+00  0.00000000000E+00 -0.88817841970E-15  0.91188000000E+02  0.91188000000E+02 0.  0.
    9900012    2    3    3    0    0 -0.10964317940E+02 -0.41976174443E+02 -0.11865408571E+01  0.47787269961E+02  0.19999995058E+02 0.  0.
         12    1    3    3    0    0  0.10964317940E+02  0.41976174443E+02  0.11865408571E+01  0.43400730039E+02  0.00000000000E+00 0. -1.
         11    1    4    4    0    0 -0.42576004431E+01 -0.17621220014E+02  0.67770777595E+01  0.19353638922E+02  0.51100000000E-03 0. -1.
        -11    1    4    4    0    0 -0.86237182532E+01 -0.22304843877E+02 -0.51554903875E+01  0.24463312496E+02  0.51100000000E-03 0.  1.
        -12    1    4    4    0    0  0.19170007562E+01 -0.20501105517E+01 -0.28081282292E+01  0.39703185420E+01  0.00000000000E+00 0.  1.
</event>
<event>
 8    1  0.6019723E-011  0.9118800E+02  0.7816164E-02  0.1184000E+00
        -11   -1    0    0    0    0  0.00000000000E+00  0.00000000000E+00  0.45593999997E+02  0.45594000000E+02  0.51100000000E-03 0.  1.
         11   -1    0    0    0    0 -0.00000000000E+00 -0.00000000000E+00 -0.45593999997E+02  0.45594000000E+02  0.51100000000E-03 0. -1.
         23    2    1    2    0    0  0.00000000000E+00  0.00000000000E+00  0.00000000000E+00  0.91188000000E+02  0.91188000000E+02 0.  0.
    9900012    2    3    3    0    0  0.35264410825E+02  0.99022576228E+00 -0.25279776049E+02  0.47787236239E+02  0.19999841309E+02 0.  0.
         12    1    3    3    0    0 -0.35264410825E+02 -0.99022576228E+00  0.25279776049E+02  0.43400763761E+02  0.00000000000E+00 0. -1.
         11    1    4    4    0    0  0.44307323493E+01 -0.33897293623E+01 -0.28523942438E+01  0.62656051171E+01  0.51100000000E-03 0. -1.
        -11    1    4    4    0    0  0.14222678442E+02 -0.57570885889E+01 -0.11742563262E+02  0.19321398586E+02  0.51100000000E-03 0.  1.
        -12    1    4    4    0    0  0.16611000034E+02  0.10137043714E+02 -0.10684818544E+02  0.22200232537E+02  0.00000000000E+00 0.  1.
</event>
<event>
 8    1  0.6019723E-011  0.9118800E+02  0.7816164E-02  0.1184000E+00
        -11   -1    0    0    0    0  0.00000000000E+00  0.00000000000E+00  0.45593999997E+02  0.45594000000E+02  0.51100000000E-03 0. -1.
         11   -1    0    0    0    0 -0.00000000000E+00 -0.00000000000E+00 -0.45593999997E+02  0.45594000000E+02  0.51100000000E-03 0.  1.
         23    2    1    2    0    0  0.71054273576E-14  0.88817841970E-15  0.00000000000E+00  0.91188000000E+02  0.91188000000E+02 0.  0.
    9900012    2    3    3    0    0 -0.35580212444E+02 -0.67801308689E+01  0.23910288098E+02  0.47787267643E+02  0.19999984493E+02 0.  0.
        -12    1    3    3    0    0  0.35580212444E+02  0.67801308689E+01 -0.23910288098E+02  0.43400732357E+02  0.00000000000E+00 0.  1.
         11    1    4    4    0    0 -0.52958993300E+01 -0.46732037731E+01  0.78861740048E+01  0.10586648380E+02  0.51100000000E-03 0. -1.
        -11    1    4    4    0    0 -0.28427121555E+02  0.91070366010E+00  0.98816658899E+01  0.30109432776E+02  0.51100000000E-03 0.  1.
        -12    1    4    4    0    0 -0.18571915585E+01 -0.30176307559E+01  0.61424482038E+01  0.70911864875E+01  0.00000000000E+00 0.  1.
</event>
<event>
 8    1  0.6019723E-011  0.9118800E+02  0.7816164E-02  0.1184000E+00
        -11   -1    0    0    0    0  0.00000000000E+00  0.00000000000E+00  0.45593999997E+02  0.45594000000E+02  0.51100000000E-03 0. -1.
         11   -1    0    0    0    0 -0.00000000000E+00 -0.00000000000E+00 -0.45593999997E+02  0.45594000000E+02  0.51100000000E-03 0.  1.
         23    2    1    2    0    0  0.00000000000E+00  0.00000000000E+00  0.00000000000E+00  0.91188000000E+02  0.91188000000E+02 0.  0.
    9900012    2    3    3    0    0  0.38525630909E+02 -0.10286393203E+02  0.17134397226E+02  0.47787289287E+02  0.20000083176E+02 0.  0.
        -12    1    3    3    0    0 -0.38525630909E+02  0.10286393203E+02 -0.17134397226E+02  0.43400710713E+02  0.00000000000E+00 0.  1.
         11    1    4    4    0    0  0.10656284384E+02  0.34013793990E+01  0.11101160880E+01  0.11240913516E+02  0.51100000000E-03 0. -1.
        -11    1    4    4    0    0  0.23107235970E+02 -0.10374862116E+02  0.17213072257E+02  0.30624695507E+02  0.51100000000E-03 0.  1.
        -12    1    4    4    0    0  0.47621105546E+01 -0.33129104857E+01 -0.11887911190E+01  0.59216802637E+01  0.00000000000E+00 0.  1.
</event>
<event>
 8    1  0.6019723E-011  0.9118800E+02  0.7816164E-02  0.1184000E+00
        -11   -1    0    0    0    0  0.00000000000E+00  0.00000000000E+00  0.45593999997E+02  0.45594000000E+02  0.51100000000E-03 0. -1.
         11   -1    0    0    0    0 -0.00000000000E+00 -0.00000000000E+00 -0.45593999997E+02  0.45594000000E+02  0.51100000000E-03 0.  1.
         23    2    1    2    0    0  0.00000000000E+00  0.00000000000E+00 -0.35527136788E-14  0.91188000000E+02  0.91188000000E+02 0.  0.
    9900012    2    3    3    0    0 -0.34965501105E+02 -0.61108034374E+01 -0.24973906578E+02  0.47787260422E+02  0.19999951569E+02 0.  0.
         12    1    3    3    0    0  0.34965501105E+02  0.61108034374E+01  0.24973906578E+02  0.43400739578E+02  0.00000000000E+00 0. -1.
         11    1    4    4    0    0 -0.56677010021E+01 -0.30854644910E+01  0.16935739229E+01  0.66716653594E+01  0.51100000000E-03 0. -1.
        -11    1    4    4    0    0 -0.28134308366E+02 -0.52369012396E+01 -0.23193320528E+02  0.36836049723E+02  0.51100000000E-03 0.  1.
         12    1    4    4    0    0 -0.11634917365E+01  0.22115622932E+01 -0.34741599724E+01  0.42795453394E+01  0.00000000000E+00 0. -1.
</event>
<event>
 8    1  0.9771903E-011  0.9118800E+02  0.7816164E-02  0.1184000E+00
        -11   -1    0    0    0    0  0.00000000000E+00  0.00000000000E+00  0.45593999997E+02  0.45594000000E+02  0.51100000000E-03 0. -1.
         11   -1    0    0    0    0 -0.00000000000E+00 -0.00000000000E+00 -0.45593999997E+02  0.45594000000E+02  0.51100000000E-03 0.  1.
         23    2    1    2    0    0  0.00000000000E+00  0.00000000000E+00  0.00000000000E+00  0.91188000000E+02  0.91188000000E+02 0.  0.
    9900012    2    3    3    0    0 -0.87176350841E+01 -0.10872417739E+02 -0.41102520873E+02  0.47787264395E+02  0.19999969683E+02 0.  0.
         12    1    3    3    0    0  0.87176350841E+01  0.10872417739E+02  0.41102520873E+02  0.43400735605E+02  0.00000000000E+00 0. -1.
         11    1    4    4    0    0 -0.56846640271E+01 -0.78728318130E+01 -0.61602511816E+01  0.11499807857E+02  0.51100000000E-03 0. -1.
        -11    1    4    4    0    0 -0.36047137048E+01 -0.56112992752E+01 -0.29219280580E+02  0.29970769065E+02  0.51100000000E-03 0.  1.
         12    1    4    4    0    0  0.57174264783E+00  0.26117133494E+01 -0.57229891110E+01  0.63166874736E+01  0.00000000000E+00 0. -1.
</event>
<event>
 8    1  0.6019723E-011  0.9118800E+02  0.7816164E-02  0.1184000E+00
        -11   -1    0    0    0    0  0.00000000000E+00  0.00000000000E+00  0.45593999997E+02  0.45594000000E+02  0.51100000000E-03 0.  1.
         11   -1    0    0    0    0 -0.00000000000E+00 -0.00000000000E+00 -0.45593999997E+02  0.45594000000E+02  0.51100000000E-03 0. -1.
         23    2    1    2    0    0  0.00000000000E+00  0.88817841970E-15  0.00000000000E+00  0.91188000000E+02  0.91188000000E+02 0.  0.
    9900012    2    3    3    0    0  0.40184725825E+02  0.24087148518E+01 -0.16217551923E+02  0.47787273194E+02  0.20000009801E+02 0.  0.
        -12    1    3    3    0    0 -0.40184725825E+02 -0.24087148518E+01  0.16217551923E+02  0.43400726806E+02  0.00000000000E+00 0.  1.
         11    1    4    4    0    0  0.69007620368E+01  0.68898598926E+01 -0.86580967352E+01  0.13040449585E+02  0.51100000000E-03 0.  1.
        -11    1    4    4    0    0  0.31172856660E+02 -0.29963900395E+01 -0.72733586717E+01  0.32150071419E+02  0.51100000000E-03 0. -1.
        -12    1    4    4    0    0  0.21111071283E+01 -0.14847550013E+01 -0.28609651658E+00  0.25967521903E+01  0.00000000000E+00 0.  1.
</event>
<event>
 8    1  0.6019723E-011  0.9118800E+02  0.7816164E-02  0.1184000E+00
        -11   -1    0    0    0    0  0.00000000000E+00  0.00000000000E+00  0.45593999997E+02  0.45594000000E+02  0.51100000000E-03 0.  1.
         11   -1    0    0    0    0 -0.00000000000E+00 -0.00000000000E+00 -0.45593999997E+02  0.45594000000E+02  0.51100000000E-03 0. -1.
         23    2    1    2    0    0 -0.44408920985E-15  0.00000000000E+00  0.22204460493E-15  0.91188000000E+02  0.91188000000E+02 0.  0.
    9900012    2    3    3    0    0  0.21677893090E+01 -0.43300503863E+02 -0.19975685241E+01  0.47787271604E+02  0.20000002551E+02 0.  0.
         12    1    3    3    0    0 -0.21677893090E+01  0.43300503863E+02  0.19975685241E+01  0.43400728396E+02  0.00000000000E+00 0. -1.
         11    1    4    4    0    0  0.65562636326E+00 -0.17374295976E+01  0.39410042928E+01  0.43566067796E+01  0.51100000000E-03 0. -1.
        -11    1    4    4    0    0  0.39207660178E+01 -0.24919585945E+02 -0.80554254190E+01  0.26481088512E+02  0.51100000000E-03 0.  1.
        -12    1    4    4    0    0 -0.24086030720E+01 -0.16643488320E+02  0.21168526022E+01  0.16949576312E+02  0.00000000000E+00 0.  1.
</event>
<event>
 8    1  0.6019723E-011  0.9118800E+02  0.7816164E-02  0.1184000E+00
        -11   -1    0    0    0    0  0.00000000000E+00  0.00000000000E+00  0.45593999997E+02  0.45594000000E+02  0.51100000000E-03 0. -1.
         11   -1    0    0    0    0 -0.00000000000E+00 -0.00000000000E+00 -0.45593999997E+02  0.45594000000E+02  0.51100000000E-03 0.  1.
         23    2    1    2    0    0  0.00000000000E+00  0.88817841970E-15  0.00000000000E+00  0.91188000000E+02  0.91188000000E+02 0.  0.
    9900012    2    3    3    0    0  0.30176592813E+02  0.27624610129E+01  0.31070325999E+02  0.47787273021E+02  0.20000009010E+02 0.  0.
        -12    1    3    3    0    0 -0.30176592813E+02 -0.27624610129E+01 -0.31070325999E+02  0.43400726979E+02  0.00000000000E+00 0.  1.
         11    1    4    4    0    0  0.15478944975E+02 -0.69598593159E+01  0.16560244528E+02  0.23712424556E+02  0.51100000000E-03 0.  1.
        -11    1    4    4    0    0  0.83391940514E+01  0.90237542884E+01  0.67529179013E+01  0.14020420797E+02  0.51100000000E-03 0. -1.
         12    1    4    4    0    0  0.63584537862E+01  0.69856604042E+00  0.77571635697E+01  0.10054427667E+02  0.00000000000E+00 0. -1.
</event>
<event>
 8    1  0.1288026E-010  0.9118800E+02  0.7816164E-02  0.1184000E+00
        -11   -1    0    0    0    0  0.00000000000E+00  0.00000000000E+00  0.45593999997E+02  0.45594000000E+02  0.51100000000E-03 0. -1.
         11   -1    0    0    0    0 -0.00000000000E+00 -0.00000000000E+00 -0.45593999997E+02  0.45594000000E+02  0.51100000000E-03 0.  1.
         23    2    1    2    0    0  0.00000000000E+00  0.88817841970E-15 -0.71054273576E-14  0.91188000000E+02  0.91188000000E+02 0.  0.
    9900012    2    3    3    0    0 -0.15120309729E+02  0.77943145873E+01 -0.39928037036E+02  0.47787271346E+02  0.20000001373E+02 0.  0.
         12    1    3    3    0    0  0.15120309729E+02 -0.77943145873E+01  0.39928037036E+02  0.43400728654E+02  0.00000000000E+00 0. -1.
         11    1    4    4    0    0 -0.95890881974E+01  0.46260693462E+01 -0.78736959928E+01  0.13241835934E+02  0.51100000000E-03 0. -1.
        -11    1    4    4    0    0 -0.66157589132E+01  0.57669194510E+01 -0.29376693013E+02  0.30659675775E+02  0.51100000000E-03 0.  1.
         12    1    4    4    0    0  0.10845373821E+01 -0.25986742099E+01 -0.26776480302E+01  0.38857596369E+01  0.00000000000E+00 0. -1.
</event>
<event>
 8    1  0.6019723E-011  0.9118800E+02  0.7816164E-02  0.1184000E+00
        -11   -1    0    0    0    0  0.00000000000E+00  0.00000000000E+00  0.45593999997E+02  0.45594000000E+02  0.51100000000E-03 0.  1.
         11   -1    0    0    0    0 -0.00000000000E+00 -0.00000000000E+00 -0.45593999997E+02  0.45594000000E+02  0.51100000000E-03 0. -1.
         23    2    1    2    0    0 -0.35527136788E-14  0.00000000000E+00  0.00000000000E+00  0.91188000000E+02  0.91188000000E+02 0.  0.
    9900012    2    3    3    0    0 -0.21821684617E+02 -0.34207649695E+02  0.15403707919E+02  0.47787269190E+02  0.19999991546E+02 0.  0.
        -12    1    3    3    0    0  0.21821684617E+02  0.34207649695E+02 -0.15403707919E+02  0.43400730810E+02  0.00000000000E+00 0.  1.
         11    1    4    4    0    0 -0.87767817048E+01 -0.17473162205E+02  0.11539992419E+02  0.22704949236E+02  0.51100000000E-03 0. -1.
        -11    1    4    4    0    0 -0.10124817274E+02 -0.12985822117E+02 -0.29967835341E+01  0.16736911683E+02  0.51100000000E-03 0.  1.
        -12    1    4    4    0    0 -0.29200856375E+01 -0.37486653741E+01  0.68604990334E+01  0.83454082707E+01  0.00000000000E+00 0.  1.
</event>
<event>
 8    1  0.6019723E-011  0.9118800E+02  0.7816164E-02  0.1184000E+00
        -11   -1    0    0    0    0  0.00000000000E+00  0.00000000000E+00  0.45593999997E+02  0.45594000000E+02  0.51100000000E-03 0. -1.
         11   -1    0    0    0    0 -0.00000000000E+00 -0.00000000000E+00 -0.45593999997E+02  0.45594000000E+02  0.51100000000E-03 0.  1.
         23    2    1    2    0    0  0.71054273576E-14 -0.17763568394E-14  0.00000000000E+00  0.91188000000E+02  0.91188000000E+02 0.  0.
    9900012    2    3    3    0    0 -0.38281429738E+02  0.12970001420E+02  0.15809328303E+02  0.47787266584E+02  0.19999979664E+02 0.  0.
        -12    1    3    3    0    0  0.38281429738E+02 -0.12970001420E+02 -0.15809328303E+02  0.43400733416E+02  0.00000000000E+00 0.  1.
         11    1    4    4    0    0 -0.15579828997E+02  0.11428075289E+02  0.42731705810E+01  0.19788682711E+02  0.51100000000E-03 0. -1.
        -11    1    4    4    0    0 -0.44821574715E+01  0.19938080090E+01 -0.19989346955E+01  0.52972394843E+01  0.51100000000E-03 0.  1.
         12    1    4    4    0    0 -0.18219443270E+02 -0.45188187740E+00  0.13535092418E+02  0.22701344389E+02  0.00000000000E+00 0. -1.
</event>
<event>
 8    1  0.6019723E-011  0.9118800E+02  0.7816164E-02  0.1184000E+00
        -11   -1    0    0    0    0  0.00000000000E+00  0.00000000000E+00  0.45593999997E+02  0.45594000000E+02  0.51100000000E-03 0. -1.
         11   -1    0    0    0    0 -0.00000000000E+00 -0.00000000000E+00 -0.45593999997E+02  0.45594000000E+02  0.51100000000E-03 0.  1.
         23    2    1    2    0    0  0.17763568394E-14  0.00000000000E+00  0.00000000000E+00  0.91188000000E+02  0.91188000000E+02 0.  0.
    9900012    2    3    3    0    0 -0.15660133686E+02 -0.20590839759E+02  0.34848236942E+02  0.47787284718E+02  0.20000062341E+02 0.  0.
        -12    1    3    3    0    0  0.15660133686E+02  0.20590839759E+02 -0.34848236942E+02  0.43400715282E+02  0.00000000000E+00 0.  1.
         11    1    4    4    0    0 -0.14977170668E+02 -0.10984081375E+02  0.25415215825E+02  0.31478546353E+02  0.51100000000E-03 0. -1.
        -11    1    4    4    0    0  0.55493620968E+00 -0.11188519268E+02  0.72572846226E+01  0.13347625180E+02  0.51100000000E-03 0.  1.
        -12    1    4    4    0    0 -0.12378992285E+01  0.15817608835E+01  0.21757364951E+01  0.29611131840E+01  0.00000000000E+00 0.  1.
</event>
<event>
 8    1  0.6019723E-011  0.9118800E+02  0.7816164E-02  0.1184000E+00
        -11   -1    0    0    0    0  0.00000000000E+00  0.00000000000E+00  0.45593999997E+02  0.45594000000E+02  0.51100000000E-03 0. -1.
         11   -1    0    0    0    0 -0.00000000000E+00 -0.00000000000E+00 -0.45593999997E+02  0.45594000000E+02  0.51100000000E-03 0.  1.
         23    2    1    2    0    0  0.00000000000E+00  0.00000000000E+00  0.00000000000E+00  0.91188000000E+02  0.91188000000E+02 0.  0.
    9900012    2    3    3    0    0  0.17240344518E+02 -0.22027486639E+02  0.33184084668E+02  0.47787272794E+02  0.20000007979E+02 0.  0.
        -12    1    3    3    0    0 -0.17240344518E+02  0.22027486639E+02 -0.33184084668E+02  0.43400727206E+02  0.00000000000E+00 0.  1.
         11    1    4    4    0    0 -0.23324998219E+01 -0.84246003775E+01  0.55592347193E+01  0.10359514364E+02  0.51100000000E-03 0. -1.
        -11    1    4    4    0    0  0.37672417284E+01  0.71790248585E+00  0.54123138404E+01  0.66332974897E+01  0.51100000000E-03 0.  1.
         12    1    4    4    0    0  0.15805602611E+02 -0.14320788748E+02  0.22212536108E+02  0.30794460940E+02  0.00000000000E+00 0. -1.
</event>
<event>
 8    1  0.6019723E-011  0.9118800E+02  0.7816164E-02  0.1184000E+00
        -11   -1    0    0    0    0  0.00000000000E+00  0.00000000000E+00  0.45593999997E+02  0.45594000000E+02  0.51100000000E-03 0.  1.
         11   -1    0    0    0    0 -0.00000000000E+00 -0.00000000000E+00 -0.45593999997E+02  0.45594000000E+02  0.51100000000E-03 0. -1.
         23    2    1    2    0    0  0.71054273576E-14 -0.88817841970E-15 -0.66613381478E-15  0.91188000000E+02  0.91188000000E+02 0.  0.
    9900012    2    3    3    0    0  0.42967466585E+02 -0.58863647043E+01 -0.16645807058E+01  0.47787270708E+02  0.19999998465E+02 0.  0.
         12    1    3    3    0    0 -0.42967466585E+02  0.58863647043E+01  0.16645807058E+01  0.43400729292E+02  0.00000000000E+00 0. -1.
         11    1    4    4    0    0  0.32959860508E+02 -0.63931089145E+01  0.63322991253E+00  0.33580131428E+02  0.51100000000E-03 0. -1.
        -11    1    4    4    0    0  0.10209841140E+02 -0.13614554863E+01 -0.45615636262E+01  0.11265091217E+02  0.51100000000E-03 0.  1.
         12    1    4    4    0    0 -0.20223506319E+00  0.18681996964E+01  0.22637530078E+01  0.29420480633E+01  0.00000000000E+00 0. -1.
</event>
<event>
 8    1  0.6019723E-011  0.9118800E+02  0.7816164E-02  0.1184000E+00
        -11   -1    0    0    0    0  0.00000000000E+00  0.00000000000E+00  0.45593999997E+02  0.45594000000E+02  0.51100000000E-03 0. -1.
         11   -1    0    0    0    0 -0.00000000000E+00 -0.00000000000E+00 -0.45593999997E+02  0.45594000000E+02  0.51100000000E-03 0.  1.
         23    2    1    2    0    0 -0.17763568394E-14 -0.22204460493E-15  0.71054273576E-14  0.91188000000E+02  0.91188000000E+02 0.  0.
    9900012    2    3    3    0    0 -0.15172875294E+02  0.17510924471E+01  0.40624393229E+02  0.47787265045E+02  0.19999972646E+02 0.  0.
        -12    1    3    3    0    0  0.15172875294E+02 -0.17510924471E+01 -0.40624393229E+02  0.43400734955E+02  0.00000000000E+00 0.  1.
         11    1    4    4    0    0 -0.66543728423E+01  0.95076949145E+01  0.21641012503E+02  0.24556269321E+02  0.51100000000E-03 0. -1.
        -11    1    4    4    0    0 -0.61570817525E+01 -0.64045565904E+01  0.18422376187E+02  0.20452675753E+02  0.51100000000E-03 0.  1.
         12    1    4    4    0    0 -0.23614206991E+01 -0.13520458770E+01  0.56100453841E+00  0.27783199714E+01  0.00000000000E+00 0. -1.
</event>
<event>
 8    1  0.6019723E-011  0.9118800E+02  0.7816164E-02  0.1184000E+00
        -11   -1    0    0    0    0  0.00000000000E+00  0.00000000000E+00  0.45593999997E+02  0.45594000000E+02  0.51100000000E-03 0. -1.
         11   -1    0    0    0    0 -0.00000000000E+00 -0.00000000000E+00 -0.45593999997E+02  0.45594000000E+02  0.51100000000E-03 0.  1.
         23    2    1    2    0    0  0.00000000000E+00  0.00000000000E+00  0.35527136788E-14  0.91188000000E+02  0.91188000000E+02 0.  0.
    9900012    2    3    3    0    0  0.31172445703E+02  0.87859577530E+00 -0.30184930119E+02  0.47787270653E+02  0.19999998214E+02 0.  0.
         12    1    3    3    0    0 -0.31172445703E+02 -0.87859577530E+00  0.30184930119E+02  0.43400729347E+02  0.00000000000E+00 0. -1.
         11    1    4    4    0    0  0.26093460628E+02 -0.22163345093E+01 -0.13220626168E+02  0.29335401527E+02  0.51100000000E-03 0. -1.
        -11    1    4    4    0    0  0.10286308457E+01  0.29366220351E+01 -0.88580835773E+01  0.93886886900E+01  0.51100000000E-03 0.  1.
         12    1    4    4    0    0  0.40503542293E+01  0.15830824952E+00 -0.81062203728E+01  0.90631804361E+01  0.00000000000E+00 0. -1.
</event>
<event>
 8    1  0.6019723E-011  0.9118800E+02  0.7816164E-02  0.1184000E+00
        -11   -1    0    0    0    0  0.00000000000E+00  0.00000000000E+00  0.45593999997E+02  0.45594000000E+02  0.51100000000E-03 0.  1.
         11   -1    0    0    0    0 -0.00000000000E+00 -0.00000000000E+00 -0.45593999997E+02  0.45594000000E+02  0.51100000000E-03 0. -1.
         23    2    1    2    0    0  0.71054273576E-14  0.66613381478E-15 -0.44408920985E-15  0.91188000000E+02  0.91188000000E+02 0.  0.
    9900012    2    3    3    0    0  0.43294036728E+02 -0.14986145452E+01  0.26464725027E+01  0.47787270991E+02  0.19999999758E+02 0.  0.
        -12    1    3    3    0    0 -0.43294036728E+02  0.14986145452E+01 -0.26464725027E+01  0.43400729009E+02  0.00000000000E+00 0.  1.
         11    1    4    4    0    0  0.17462681304E+02  0.65502836963E+01  0.52261659269E+01  0.19369157580E+02  0.51100000000E-03 0. -1.
        -11    1    4    4    0    0  0.26026280891E+02 -0.77531899606E+01 -0.14068785961E+01  0.27192987317E+02  0.51100000000E-03 0.  1.
        -12    1    4    4    0    0 -0.19492546636E+00 -0.29570828099E+00 -0.11728148281E+01  0.12251260939E+01  0.00000000000E+00 0.  1.
</event>
<event>
 8    1  0.6019723E-011  0.9118800E+02  0.7816164E-02  0.1184000E+00
        -11   -1    0    0    0    0  0.00000000000E+00  0.00000000000E+00  0.45593999997E+02  0.45594000000E+02  0.51100000000E-03 0. -1.
         11   -1    0    0    0    0 -0.00000000000E+00 -0.00000000000E+00 -0.45593999997E+02  0.45594000000E+02  0.51100000000E-03 0.  1.
         23    2    1    2    0    0 -0.17763568394E-14  0.00000000000E+00  0.00000000000E+00  0.91188000000E+02  0.91188000000E+02 0.  0.
    9900012    2    3    3    0    0 -0.12336284001E+02  0.16558089505E+02 -0.38174193051E+02  0.47787271364E+02  0.20000001457E+02 0.  0.
         12    1    3    3    0    0  0.12336284001E+02 -0.16558089505E+02  0.38174193051E+02  0.43400728636E+02  0.00000000000E+00 0. -1.
         11    1    4    4    0    0 -0.17470547152E+01 -0.16637214955E+01 -0.50722344425E+01  0.56167367655E+01  0.51100000000E-03 0. -1.
        -11    1    4    4    0    0  0.38101570181E+00  0.46617802495E+01 -0.19496604835E+02  0.20049812179E+02  0.51100000000E-03 0.  1.
        -12    1    4    4    0    0 -0.10970244988E+02  0.13560030751E+02 -0.13605353774E+02  0.22120722420E+02  0.00000000000E+00 0.  1.
</event>
<event>
 8    1  0.6019723E-011  0.9118800E+02  0.7816164E-02  0.1184000E+00
        -11   -1    0    0    0    0  0.00000000000E+00  0.00000000000E+00  0.45593999997E+02  0.45594000000E+02  0.51100000000E-03 0. -1.
         11   -1    0    0    0    0 -0.00000000000E+00 -0.00000000000E+00 -0.45593999997E+02  0.45594000000E+02  0.51100000000E-03 0.  1.
         23    2    1    2    0    0  0.35527136788E-14  0.35527136788E-14  0.00000000000E+00  0.91188000000E+02  0.91188000000E+02 0.  0.
    9900012    2    3    3    0    0  0.16340342000E+02  0.26103721147E+02  0.30581238986E+02  0.47787271754E+02  0.20000003234E+02 0.  0.
        -12    1    3    3    0    0 -0.16340342000E+02 -0.26103721147E+02 -0.30581238986E+02  0.43400728246E+02  0.00000000000E+00 0.  1.
         11    1    4    4    0    0  0.12902747649E+02  0.20251380604E+02  0.17901715750E+02  0.29951139215E+02  0.51100000000E-03 0. -1.
        -11    1    4    4    0    0  0.43187582005E+01  0.20741984558E+01  0.13085892522E+02  0.13935370644E+02  0.51100000000E-03 0.  1.
         12    1    4    4    0    0 -0.88116384935E+00  0.37781420873E+01 -0.40636928584E+00  0.39007618945E+01  0.00000000000E+00 0. -1.
</event>
<event>
 8    1  0.6019723E-011  0.9118800E+02  0.7816164E-02  0.1184000E+00
        -11   -1    0    0    0    0  0.00000000000E+00  0.00000000000E+00  0.45593999997E+02  0.45594000000E+02  0.51100000000E-03 0.  1.
         11   -1    0    0    0    0 -0.00000000000E+00 -0.00000000000E+00 -0.45593999997E+02  0.45594000000E+02  0.51100000000E-03 0. -1.
         23    2    1    2    0    0  0.00000000000E+00  0.71054273576E-14  0.00000000000E+00  0.91188000000E+02  0.91188000000E+02 0.  0.
    9900012    2    3    3    0    0 -0.11104081660E+02  0.38332063825E+02 -0.17058047718E+02  0.47787254171E+02  0.19999923066E+02 0.  0.
        -12    1    3    3    0    0  0.11104081660E+02 -0.38332063825E+02  0.17058047718E+02  0.43400745829E+02  0.00000000000E+00 0.  1.
         11    1    4    4    0    0  0.48202770316E+01  0.41391608649E+01 -0.30915826458E+01  0.70658054632E+01  0.51100000000E-03 0. -1.
        -11    1    4    4    0    0 -0.64873597695E+01  0.10412667060E+02 -0.18281489567E+01  0.12403693037E+02  0.51100000000E-03 0.  1.
         12    1    4    4    0    0 -0.94369989219E+01  0.23780235900E+02 -0.12138316115E+02  0.28317755670E+02  0.00000000000E+00 0. -1.
</event>
<event>
 8    1  0.6019723E-011  0.9118800E+02  0.7816164E-02  0.1184000E+00
        -11   -1    0    0    0    0  0.00000000000E+00  0.00000000000E+00  0.45593999997E+02  0.45594000000E+02  0.51100000000E-03 0. -1.
         11   -1    0    0    0    0 -0.00000000000E+00 -0.00000000000E+00 -0.45593999997E+02  0.45594000000E+02  0.51100000000E-03 0.  1.
         23    2    1    2    0    0  0.35527136788E-14 -0.88817841970E-15  0.71054273576E-14  0.91188000000E+02  0.91188000000E+02 0.  0.
    9900012    2    3    3    0    0  0.24679688770E+02  0.64796101814E+01 -0.35107707508E+02  0.47787268297E+02  0.19999987472E+02 0.  0.
         12    1    3    3    0    0 -0.24679688770E+02 -0.64796101814E+01  0.35107707508E+02  0.43400731703E+02  0.00000000000E+00 0. -1.
         11    1    4    4    0    0  0.71526944912E+00  0.21553253438E+01  0.14258207766E+01  0.26814180708E+01  0.51100000000E-03 0. -1.
        -11    1    4    4    0    0  0.12580258056E+02  0.73430381846E+01 -0.22230867477E+02  0.26578084422E+02  0.51100000000E-03 0.  1.
         12    1    4    4    0    0  0.11384161265E+02 -0.30187533470E+01 -0.14302660808E+02  0.18527765804E+02  0.00000000000E+00 0. -1.
</event>
<event>
 8    1  0.6019723E-011  0.9118800E+02  0.7816164E-02  0.1184000E+00
        -11   -1    0    0    0    0  0.00000000000E+00  0.00000000000E+00  0.45593999997E+02  0.45594000000E+02  0.51100000000E-03 0. -1.
         11   -1    0    0    0    0 -0.00000000000E+00 -0.00000000000E+00 -0.45593999997E+02  0.45594000000E+02  0.51100000000E-03 0.  1.
         23    2    1    2    0    0 -0.71054273576E-14 -0.44408920985E-15  0.35527136788E-14  0.91188000000E+02  0.91188000000E+02 0.  0.
    9900012    2    3    3    0    0  0.35030856653E+02  0.35893432663E+01 -0.25368861921E+02  0.47787268922E+02  0.19999990323E+02 0.  0.
         12    1    3    3    0    0 -0.35030856653E+02 -0.35893432663E+01  0.25368861921E+02  0.43400731078E+02  0.00000000000E+00 0. -1.
         11    1    4    4    0    0  0.30504762508E+02  0.34149650101E+00 -0.26949420846E+02  0.40705385881E+02  0.51100000000E-03 0. -1.
        -11    1    4    4    0    0  0.48015147205E-01  0.22274157280E+01  0.10166477935E-01  0.22279564399E+01  0.51100000000E-03 0.  1.
         12    1    4    4    0    0  0.44780789974E+01  0.10204310373E+01  0.15703924469E+01  0.48539266008E+01  0.00000000000E+00 0. -1.
</event>
<event>
 8    1  0.6019723E-011  0.9118800E+02  0.7816164E-02  0.1184000E+00
        -11   -1    0    0    0    0  0.00000000000E+00  0.00000000000E+00  0.45593999997E+02  0.45594000000E+02  0.51100000000E-03 0.  1.
         11   -1    0    0    0    0 -0.00000000000E+00 -0.00000000000E+00 -0.45593999997E+02  0.45594000000E+02  0.51100000000E-03 0. -1.
         23    2    1    2    0    0 -0.35527136788E-14 -0.35527136788E-14  0.00000000000E+00  0.91188000000E+02  0.91188000000E+02 0.  0.
    9900012    2    3    3    0    0  0.30988771417E+02  0.29096014518E+02 -0.87602734976E+01  0.47787257995E+02  0.19999940504E+02 0.  0.
        -12    1    3    3    0    0 -0.30988771417E+02 -0.29096014518E+02  0.87602734976E+01  0.43400742005E+02  0.00000000000E+00 0.  1.
         11    1    4    4    0    0  0.14341840911E+02  0.20452570882E+02 -0.10374640407E+02  0.27048645442E+02  0.51100000000E-03 0. -1.
        -11    1    4    4    0    0  0.23494272759E+01  0.29487043719E+01  0.36100387845E+01  0.52198703321E+01  0.51100000000E-03 0.  1.
        -12    1    4    4    0    0  0.14297503230E+02  0.56947392645E+01 -0.19956718753E+01  0.15518742222E+02  0.00000000000E+00 0.  1.
</event>
<event>
 8    1  0.6019723E-011  0.9118800E+02  0.7816164E-02  0.1184000E+00
        -11   -1    0    0    0    0  0.00000000000E+00  0.00000000000E+00  0.45593999997E+02  0.45594000000E+02  0.51100000000E-03 0. -1.
         11   -1    0    0    0    0 -0.00000000000E+00 -0.00000000000E+00 -0.45593999997E+02  0.45594000000E+02  0.51100000000E-03 0.  1.
         23    2    1    2    0    0  0.00000000000E+00 -0.35527136788E-14  0.35527136788E-14  0.91188000000E+02  0.91188000000E+02 0.  0.
    9900012    2    3    3    0    0  0.19702521698E+02  0.27625327355E+02 -0.27060625781E+02  0.47787244933E+02  0.19999880948E+02 0.  0.
         12    1    3    3    0    0 -0.19702521698E+02 -0.27625327355E+02  0.27060625781E+02  0.43400755067E+02  0.00000000000E+00 0. -1.
         11    1    4    4    0    0  0.75815737746E+01  0.18440617468E+02 -0.65877910369E+01  0.20998467194E+02  0.51100000000E-03 0. -1.
        -11    1    4    4    0    0  0.12359749234E+02  0.10328673261E+02 -0.19168703022E+02  0.25037653010E+02  0.51100000000E-03 0.  1.
         12    1    4    4    0    0 -0.23880131059E+00 -0.11439633739E+01 -0.13041317223E+01  0.17511247288E+01  0.00000000000E+00 0. -1.
</event>
<event>
 8    1  0.6019723E-011  0.9118800E+02  0.7816164E-02  0.1184000E+00
        -11   -1    0    0    0    0  0.00000000000E+00  0.00000000000E+00  0.45593999997E+02  0.45594000000E+02  0.51100000000E-03 0. -1.
         11   -1    0    0    0    0 -0.00000000000E+00 -0.00000000000E+00 -0.45593999997E+02  0.45594000000E+02  0.51100000000E-03 0.  1.
         23    2    1    2    0    0 -0.17763568394E-14  0.00000000000E+00  0.00000000000E+00  0.91188000000E+02  0.91188000000E+02 0.  0.
    9900012    2    3    3    0    0  0.10534393878E+02  0.37869081954E+02 -0.18400617322E+02  0.47787267976E+02  0.19999986010E+02 0.  0.
         12    1    3    3    0    0 -0.10534393878E+02 -0.37869081954E+02  0.18400617322E+02  0.43400732024E+02  0.00000000000E+00 0. -1.
         11    1    4    4    0    0  0.59830545401E+00  0.45612398713E+01 -0.60215044029E+01  0.75776905529E+01  0.51100000000E-03 0. -1.
        -11    1    4    4    0    0  0.11383279572E+02  0.27636415005E+02 -0.15399746758E+02  0.33622948839E+02  0.51100000000E-03 0.  1.
        -12    1    4    4    0    0 -0.14471911487E+01  0.56714270772E+01  0.30206338394E+01  0.65866285841E+01  0.00000000000E+00 0.  1.
</event>
<event>
 8    1  0.6019723E-011  0.9118800E+02  0.7816164E-02  0.1184000E+00
        -11   -1    0    0    0    0  0.00000000000E+00  0.00000000000E+00  0.45593999997E+02  0.45594000000E+02  0.51100000000E-03 0. -1.
         11   -1    0    0    0    0 -0.00000000000E+00 -0.00000000000E+00 -0.45593999997E+02  0.45594000000E+02  0.51100000000E-03 0.  1.
         23    2    1    2    0    0  0.00000000000E+00  0.00000000000E+00  0.00000000000E+00  0.91188000000E+02  0.91188000000E+02 0.  0.
    9900012    2    3    3    0    0  0.89629790386E+01  0.13407504976E+02  0.40293015422E+02  0.47787271035E+02  0.19999999956E+02 0.  0.
        -12    1    3    3    0    0 -0.89629790386E+01 -0.13407504976E+02 -0.40293015422E+02  0.43400728965E+02  0.00000000000E+00 0.  1.
         11    1    4    4    0    0  0.14901670869E+02  0.88403306288E+01  0.28191104103E+02  0.33090022532E+02  0.51100000000E-03 0. -1.
        -11    1    4    4    0    0 -0.22191957320E+01 -0.26909205937E+00  0.30661579964E+01  0.37945441562E+01  0.51100000000E-03 0.  1.
         12    1    4    4    0    0 -0.37194960986E+01  0.48362664064E+01  0.90357533221E+01  0.10902704347E+02  0.00000000000E+00 0. -1.
</event>
<event>
 8    1  0.6019723E-011  0.9118800E+02  0.7816164E-02  0.1184000E+00
        -11   -1    0    0    0    0  0.00000000000E+00  0.00000000000E+00  0.45593999997E+02  0.45594000000E+02  0.51100000000E-03 0. -1.
         11   -1    0    0    0    0 -0.00000000000E+00 -0.00000000000E+00 -0.45593999997E+02  0.45594000000E+02  0.51100000000E-03 0.  1.
         23    2    1    2    0    0  0.88817841970E-15  0.00000000000E+00  0.00000000000E+00  0.91188000000E+02  0.91188000000E+02 0.  0.
    9900012    2    3    3    0    0  0.63454720188E+01 -0.38207550867E+02 -0.19584212586E+02  0.47787270271E+02  0.19999996473E+02 0.  0.
         12    1    3    3    0    0 -0.63454720188E+01  0.38207550867E+02  0.19584212586E+02  0.43400729729E+02  0.00000000000E+00 0. -1.
         11    1    4    4    0    0  0.12316499776E+02 -0.21526840883E+02 -0.10837039825E+02  0.27065521934E+02  0.51100000000E-03 0. -1.
        -11    1    4    4    0    0 -0.54363841792E+00 -0.93293063564E+01 -0.25705463434E+01  0.96922241300E+01  0.51100000000E-03 0.  1.
         12    1    4    4    0    0 -0.54273893388E+01 -0.73514036282E+01 -0.61766264174E+01  0.11029524207E+02  0.00000000000E+00 0. -1.
</event>
<event>
 8    1  0.6019723E-011  0.9118800E+02  0.7816164E-02  0.1184000E+00
        -11   -1    0    0    0    0  0.00000000000E+00  0.00000000000E+00  0.45593999997E+02  0.45594000000E+02  0.51100000000E-03 0. -1.
         11   -1    0    0    0    0 -0.00000000000E+00 -0.00000000000E+00 -0.45593999997E+02  0.45594000000E+02  0.51100000000E-03 0.  1.
         23    2    1    2    0    0  0.00000000000E+00 -0.88817841970E-15  0.00000000000E+00  0.91188000000E+02  0.91188000000E+02 0.  0.
    9900012    2    3    3    0    0 -0.31299390090E+02 -0.47780660698E+01  0.29684027439E+02  0.47787271661E+02  0.20000002811E+02 0.  0.
        -12    1    3    3    0    0  0.31299390090E+02  0.47780660698E+01 -0.29684027439E+02  0.43400728339E+02  0.00000000000E+00 0.  1.
         11    1    4    4    0    0 -0.22431198405E+02 -0.78193756301E+01  0.23826852184E+02  0.33645507611E+02  0.51100000000E-03 0. -1.
        -11    1    4    4    0    0 -0.32607566538E+01  0.48746302983E+01  0.51848705849E-01  0.58649162866E+01  0.51100000000E-03 0.  1.
        -12    1    4    4    0    0 -0.56074350311E+01 -0.18333207379E+01  0.58053265494E+01  0.82768477636E+01  0.00000000000E+00 0.  1.
</event>
<event>
 8    1  0.6019723E-011  0.9118800E+02  0.7816164E-02  0.1184000E+00
        -11   -1    0    0    0    0  0.00000000000E+00  0.00000000000E+00  0.45593999997E+02  0.45594000000E+02  0.51100000000E-03 0. -1.
         11   -1    0    0    0    0 -0.00000000000E+00 -0.00000000000E+00 -0.45593999997E+02  0.45594000000E+02  0.51100000000E-03 0.  1.
         23    2    1    2    0    0  0.44408920985E-15  0.00000000000E+00  0.00000000000E+00  0.91188000000E+02  0.91188000000E+02 0.  0.
    9900012    2    3    3    0    0  0.29122377140E+01 -0.91597557046E+01  0.42323050537E+02  0.47787275814E+02  0.20000021748E+02 0.  0.
        -12    1    3    3    0    0 -0.29122377140E+01  0.91597557046E+01 -0.42323050537E+02  0.43400724186E+02  0.00000000000E+00 0.  1.
         11    1    4    4    0    0  0.26248993259E+01 -0.81095700028E+01  0.24034810753E+02  0.25501516628E+02  0.51100000000E-03 0. -1.
        -11    1    4    4    0    0  0.53799822162E+01  0.25057134036E+01  0.56048429511E+01  0.81631533782E+01  0.51100000000E-03 0.  1.
        -12    1    4    4    0    0 -0.50926438281E+01 -0.35558991055E+01  0.12683396833E+02  0.14122605809E+02  0.00000000000E+00 0.  1.
</event>
<event>
 8    1  0.6019723E-011  0.9118800E+02  0.7816164E-02  0.1184000E+00
        -11   -1    0    0    0    0  0.00000000000E+00  0.00000000000E+00  0.45593999997E+02  0.45594000000E+02  0.51100000000E-03 0. -1.
         11   -1    0    0    0    0 -0.00000000000E+00 -0.00000000000E+00 -0.45593999997E+02  0.45594000000E+02  0.51100000000E-03 0.  1.
         23    2    1    2    0    0  0.00000000000E+00  0.00000000000E+00  0.00000000000E+00  0.91188000000E+02  0.91188000000E+02 0.  0.
    9900012    2    3    3    0    0 -0.40120491457E+01 -0.25115967564E+02 -0.35166955460E+02  0.47787272801E+02  0.20000008010E+02 0.  0.
         12    1    3    3    0    0  0.40120491457E+01  0.25115967564E+02  0.35166955460E+02  0.43400727199E+02  0.00000000000E+00 0. -1.
         11    1    4    4    0    0  0.68541292590E+01 -0.83932324927E+01 -0.85907367959E+01  0.13828456115E+02  0.51100000000E-03 0. -1.
        -11    1    4    4    0    0 -0.42041536645E+01 -0.61186348177E+01 -0.48060367737E+01  0.88436751296E+01  0.51100000000E-03 0.  1.
         12    1    4    4    0    0 -0.66620247402E+01 -0.10604100254E+02 -0.21770181891E+02  0.25115141556E+02  0.00000000000E+00 0. -1.
</event>
<event>
 8    1  0.6019723E-011  0.9118800E+02  0.7816164E-02  0.1184000E+00
        -11   -1    0    0    0    0  0.00000000000E+00  0.00000000000E+00  0.45593999997E+02  0.45594000000E+02  0.51100000000E-03 0. -1.
         11   -1    0    0    0    0 -0.00000000000E+00 -0.00000000000E+00 -0.45593999997E+02  0.45594000000E+02  0.51100000000E-03 0.  1.
         23    2    1    2    0    0 -0.17763568394E-14  0.00000000000E+00  0.00000000000E+00  0.91188000000E+02  0.91188000000E+02 0.  0.
    9900012    2    3    3    0    0  0.11746243231E+02 -0.21233686720E+02  0.35983048434E+02  0.47787268943E+02  0.19999990416E+02 0.  0.
        -12    1    3    3    0    0 -0.11746243231E+02  0.21233686720E+02 -0.35983048434E+02  0.43400731057E+02  0.00000000000E+00 0.  1.
         11    1    4    4    0    0  0.88277942640E+01 -0.99559486345E+01  0.31967384096E+02  0.34626066929E+02  0.51100000000E-03 0. -1.
        -11    1    4    4    0    0  0.45663584560E+00 -0.84544425070E+01  0.13739598816E+01  0.85775218110E+01  0.51100000000E-03 0.  1.
         12    1    4    4    0    0  0.24618131210E+01 -0.28232955780E+01  0.26417044560E+01  0.45836802023E+01  0.00000000000E+00 0. -1.
</event>
<event>
 8    1  0.6019723E-011  0.9118800E+02  0.7816164E-02  0.1184000E+00
        -11   -1    0    0    0    0  0.00000000000E+00  0.00000000000E+00  0.45593999997E+02  0.45594000000E+02  0.51100000000E-03 0. -1.
         11   -1    0    0    0    0 -0.00000000000E+00 -0.00000000000E+00 -0.45593999997E+02  0.45594000000E+02  0.51100000000E-03 0.  1.
         23    2    1    2    0    0  0.00000000000E+00 -0.35527136788E-14  0.00000000000E+00  0.91188000000E+02  0.91188000000E+02 0.  0.
    9900012    2    3    3    0    0 -0.11503571588E+02 -0.22225305249E+02  0.35458806338E+02  0.47787270748E+02  0.19999998650E+02 0.  0.
        -12    1    3    3    0    0  0.11503571588E+02  0.22225305249E+02 -0.35458806338E+02  0.43400729252E+02  0.00000000000E+00 0.  1.
         11    1    4    4    0    0 -0.25865330746E+01 -0.15227867967E+02  0.27104706417E+02  0.31196846417E+02  0.51100000000E-03 0. -1.
        -11    1    4    4    0    0 -0.60787866405E+01 -0.22062233351E+01 -0.99395151728E-01  0.64675302924E+01  0.51100000000E-03 0.  1.
        -12    1    4    4    0    0 -0.28382518731E+01 -0.47912139472E+01  0.84534950720E+01  0.10122894039E+02  0.00000000000E+00 0.  1.
</event>
<event>
 8    1  0.6526305E-011  0.9118800E+02  0.7816164E-02  0.1184000E+00
        -11   -1    0    0    0    0  0.00000000000E+00  0.00000000000E+00  0.45593999997E+02  0.45594000000E+02  0.51100000000E-03 0. -1.
         11   -1    0    0    0    0 -0.00000000000E+00 -0.00000000000E+00 -0.45593999997E+02  0.45594000000E+02  0.51100000000E-03 0.  1.
         23    2    1    2    0    0  0.66613381478E-15 -0.35527136788E-14  0.00000000000E+00  0.91188000000E+02  0.91188000000E+02 0.  0.
    9900012    2    3    3    0    0  0.11875377609E+01 -0.21401702346E+02 -0.37738320606E+02  0.47787263239E+02  0.19999964411E+02 0.  0.
         12    1    3    3    0    0 -0.11875377609E+01  0.21401702346E+02  0.37738320606E+02  0.43400736761E+02  0.00000000000E+00 0. -1.
         11    1    4    4    0    0 -0.29533428029E+01 -0.10236726909E+02 -0.50361978643E+01  0.11784570451E+02  0.51100000000E-03 0. -1.
        -11    1    4    4    0    0  0.48580309976E+01 -0.74699086430E+01 -0.11919804920E+02  0.14882262930E+02  0.51100000000E-03 0.  1.
         12    1    4    4    0    0 -0.71715043377E+00 -0.36950667939E+01 -0.20782317822E+02  0.21120429858E+02  0.00000000000E+00 0. -1.
</event>
<event>
 8    1  0.6019723E-011  0.9118800E+02  0.7816164E-02  0.1184000E+00
        -11   -1    0    0    0    0  0.00000000000E+00  0.00000000000E+00  0.45593999997E+02  0.45594000000E+02  0.51100000000E-03 0. -1.
         11   -1    0    0    0    0 -0.00000000000E+00 -0.00000000000E+00 -0.45593999997E+02  0.45594000000E+02  0.51100000000E-03 0.  1.
         23    2    1    2    0    0  0.17763568394E-14 -0.17763568394E-14  0.71054273576E-14  0.91188000000E+02  0.91188000000E+02 0.  0.
    9900012    2    3    3    0    0 -0.10560495009E+02  0.10530756025E+02 -0.40757859594E+02  0.47787262725E+02  0.19999962069E+02 0.  0.
         12    1    3    3    0    0  0.10560495009E+02 -0.10530756025E+02  0.40757859594E+02  0.43400737275E+02  0.00000000000E+00 0. -1.
         11    1    4    4    0    0 -0.22036513202E+01  0.24386581238E+00 -0.11315518064E+01  0.24891684208E+01  0.51100000000E-03 0. -1.
        -11    1    4    4    0    0  0.35865144609E+01 -0.25546142527E+01 -0.84081552609E+01  0.94913758281E+01  0.51100000000E-03 0.  1.
        -12    1    4    4    0    0 -0.11943358150E+02  0.12841504465E+02 -0.31218152527E+02  0.35806718476E+02  0.00000000000E+00 0.  1.
</event>
<event>
 8    1  0.6019723E-011  0.9118800E+02  0.7816164E-02  0.1184000E+00
        -11   -1    0    0    0    0  0.00000000000E+00  0.00000000000E+00  0.45593999997E+02  0.45594000000E+02  0.51100000000E-03 0.  1.
         11   -1    0    0    0    0 -0.00000000000E+00 -0.00000000000E+00 -0.45593999997E+02  0.45594000000E+02  0.51100000000E-03 0. -1.
         23    2    1    2    0    0  0.00000000000E+00 -0.71054273576E-14  0.00000000000E+00  0.91188000000E+02  0.91188000000E+02 0.  0.
    9900012    2    3    3    0    0 -0.29649520068E+02 -0.29712513115E+02 -0.11031574873E+02  0.47787272817E+02  0.20000008082E+02 0.  0.
         12    1    3    3    0    0  0.29649520068E+02  0.29712513115E+02  0.11031574873E+02  0.43400727183E+02  0.00000000000E+00 0. -1.
         11    1    4    4    0    0  0.24236788172E+00  0.98797898128E-02 -0.16141823086E+01  0.16323065235E+01  0.51100000000E-03 0. -1.
        -11    1    4    4    0    0 -0.22998938613E+02 -0.11762813519E+02 -0.70195103934E+01  0.26769170432E+02  0.51100000000E-03 0.  1.
        -12    1    4    4    0    0 -0.68929493362E+01 -0.17959579386E+02 -0.23978821711E+01  0.19385795861E+02  0.00000000000E+00 0.  1.
</event>
<event>
 8    1  0.6019723E-011  0.9118800E+02  0.7816164E-02  0.1184000E+00
        -11   -1    0    0    0    0  0.00000000000E+00  0.00000000000E+00  0.45593999997E+02  0.45594000000E+02  0.51100000000E-03 0. -1.
         11   -1    0    0    0    0 -0.00000000000E+00 -0.00000000000E+00 -0.45593999997E+02  0.45594000000E+02  0.51100000000E-03 0.  1.
         23    2    1    2    0    0  0.17763568394E-14  0.00000000000E+00  0.00000000000E+00  0.91188000000E+02  0.91188000000E+02 0.  0.
    9900012    2    3    3    0    0 -0.81310326690E+01  0.25133915302E+02  0.34435387391E+02  0.47787270796E+02  0.19999998869E+02 0.  0.
        -12    1    3    3    0    0  0.81310326690E+01 -0.25133915302E+02 -0.34435387391E+02  0.43400729204E+02  0.00000000000E+00 0.  1.
         11    1    4    4    0    0  0.24891922271E+01  0.19338825178E+02  0.24618339599E+02  0.31404599696E+02  0.51100000000E-03 0. -1.
        -11    1    4    4    0    0 -0.42348261206E+01  0.60726813488E+00  0.11444856102E+01  0.44285860535E+01  0.51100000000E-03 0.  1.
         12    1    4    4    0    0 -0.63853987755E+01  0.51878219887E+01  0.86725621818E+01  0.11954085047E+02  0.00000000000E+00 0. -1.
</event>
<event>
 8    1  0.6019723E-011  0.9118800E+02  0.7816164E-02  0.1184000E+00
        -11   -1    0    0    0    0  0.00000000000E+00  0.00000000000E+00  0.45593999997E+02  0.45594000000E+02  0.51100000000E-03 0. -1.
         11   -1    0    0    0    0 -0.00000000000E+00 -0.00000000000E+00 -0.45593999997E+02  0.45594000000E+02  0.51100000000E-03 0.  1.
         23    2    1    2    0    0  0.00000000000E+00  0.00000000000E+00  0.00000000000E+00  0.91188000000E+02  0.91188000000E+02 0.  0.
    9900012    2    3    3    0    0  0.16301251903E+02 -0.21206501350E+02  0.34178599099E+02  0.47787272478E+02  0.20000006535E+02 0.  0.
        -12    1    3    3    0    0 -0.16301251903E+02  0.21206501350E+02 -0.34178599099E+02  0.43400727522E+02  0.00000000000E+00 0.  1.
         11    1    4    4    0    0  0.14246447857E+02 -0.18990962582E+02  0.20381161150E+02  0.31289130164E+02  0.51100000000E-03 0. -1.
        -11    1    4    4    0    0  0.22379983990E+01 -0.36555789038E+01  0.14325842847E+02  0.14953316271E+02  0.51100000000E-03 0.  1.
         12    1    4    4    0    0 -0.18319435385E+00  0.14400401362E+01 -0.52840489825E+00  0.15448260425E+01  0.00000000000E+00 0. -1.
</event>
<event>
 8    1  0.6019723E-011  0.9118800E+02  0.7816164E-02  0.1184000E+00
        -11   -1    0    0    0    0  0.00000000000E+00  0.00000000000E+00  0.45593999997E+02  0.45594000000E+02  0.51100000000E-03 0. -1.
         11   -1    0    0    0    0 -0.00000000000E+00 -0.00000000000E+00 -0.45593999997E+02  0.45594000000E+02  0.51100000000E-03 0.  1.
         23    2    1    2    0    0  0.00000000000E+00  0.00000000000E+00 -0.17763568394E-14  0.91188000000E+02  0.91188000000E+02 0.  0.
    9900012    2    3    3    0    0 -0.27452322428E+02 -0.29688042519E+02  0.15767469197E+02  0.47787274659E+02  0.20000016480E+02 0.  0.
        -12    1    3    3    0    0  0.27452322428E+02  0.29688042519E+02 -0.15767469197E+02  0.43400725341E+02  0.00000000000E+00 0.  1.
         11    1    4    4    0    0 -0.13683589147E+02 -0.21395465982E+02  0.11565475339E+02  0.27906393472E+02  0.51100000000E-03 0. -1.
        -11    1    4    4    0    0 -0.46579650064E+01 -0.89143603703E+01  0.63827385762E+00  0.10078186969E+02  0.51100000000E-03 0.  1.
         12    1    4    4    0    0 -0.91107682740E+01  0.62178383378E+00  0.35637200001E+01  0.98026942173E+01  0.00000000000E+00 0. -1.
</event>
<event>
 8    1  0.6019723E-011  0.9118800E+02  0.7816164E-02  0.1184000E+00
        -11   -1    0    0    0    0  0.00000000000E+00  0.00000000000E+00  0.45593999997E+02  0.45594000000E+02  0.51100000000E-03 0. -1.
         11   -1    0    0    0    0 -0.00000000000E+00 -0.00000000000E+00 -0.45593999997E+02  0.45594000000E+02  0.51100000000E-03 0.  1.
         23    2    1    2    0    0  0.00000000000E+00 -0.26645352591E-14  0.00000000000E+00  0.91188000000E+02  0.91188000000E+02 0.  0.
    9900012    2    3    3    0    0 -0.36657982470E+02  0.78172121525E+01  0.21879365617E+02  0.47787272766E+02  0.20000007851E+02 0.  0.
        -12    1    3    3    0    0  0.36657982470E+02 -0.78172121525E+01 -0.21879365617E+02  0.43400727234E+02  0.00000000000E+00 0.  1.
         11    1    4    4    0    0 -0.39127363613E+01  0.34431424047E+01  0.45960487285E+01  0.69489855107E+01  0.51100000000E-03 0. -1.
        -11    1    4    4    0    0 -0.18677718583E+02 -0.57970251010E+01  0.10532265097E+02  0.22212412742E+02  0.51100000000E-03 0.  1.
        -12    1    4    4    0    0 -0.14067527526E+02  0.10171094849E+02  0.67510517908E+01  0.18625874514E+02  0.00000000000E+00 0.  1.
</event>
<event>
 8    1  0.6019723E-011  0.9118800E+02  0.7816164E-02  0.1184000E+00
        -11   -1    0    0    0    0  0.00000000000E+00  0.00000000000E+00  0.45593999997E+02  0.45594000000E+02  0.51100000000E-03 0. -1.
         11   -1    0    0    0    0 -0.00000000000E+00 -0.00000000000E+00 -0.45593999997E+02  0.45594000000E+02  0.51100000000E-03 0.  1.
         23    2    1    2    0    0  0.00000000000E+00  0.00000000000E+00 -0.71054273576E-14  0.91188000000E+02  0.91188000000E+02 0.  0.
    9900012    2    3    3    0    0 -0.84047032773E+00 -0.77480672891E+01 -0.42695250904E+02  0.47787269743E+02  0.19999994064E+02 0.  0.
         12    1    3    3    0    0  0.84047032773E+00  0.77480672891E+01  0.42695250904E+02  0.43400730257E+02  0.00000000000E+00 0. -1.
         11    1    4    4    0    0  0.43713607739E+01 -0.86336600444E+01 -0.19515572486E+02  0.21783168972E+02  0.51100000000E-03 0. -1.
        -11    1    4    4    0    0 -0.57326901991E+01  0.38010118833E+01 -0.21555621465E+02  0.22626450125E+02  0.51100000000E-03 0.  1.
        -12    1    4    4    0    0  0.52085909742E+00 -0.29154191281E+01 -0.16240569541E+01  0.33776506453E+01  0.00000000000E+00 0.  1.
</event>
<event>
 8    1  0.6019723E-011  0.9118800E+02  0.7816164E-02  0.1184000E+00
        -11   -1    0    0    0    0  0.00000000000E+00  0.00000000000E+00  0.45593999997E+02  0.45594000000E+02  0.51100000000E-03 0. -1.
         11   -1    0    0    0    0 -0.00000000000E+00 -0.00000000000E+00 -0.45593999997E+02  0.45594000000E+02  0.51100000000E-03 0.  1.
         23    2    1    2    0    0  0.00000000000E+00  0.00000000000E+00  0.00000000000E+00  0.91188000000E+02  0.91188000000E+02 0.  0.
    9900012    2    3    3    0    0 -0.25325974324E+02 -0.20881449377E+02  0.28393364170E+02  0.47787273826E+02  0.20000012682E+02 0.  0.
        -12    1    3    3    0    0  0.25325974324E+02  0.20881449377E+02 -0.28393364170E+02  0.43400726174E+02  0.00000000000E+00 0.  1.
         11    1    4    4    0    0 -0.95749390332E+01 -0.12150524778E+02  0.19405686792E+02  0.24817239774E+02  0.51100000000E-03 0. -1.
        -11    1    4    4    0    0 -0.60427577854E+01  0.20352474968E+01  0.11139754813E+01  0.64728738331E+01  0.51100000000E-03 0.  1.
         12    1    4    4    0    0 -0.97082775052E+01 -0.10766172096E+02  0.78737018965E+01  0.16497160219E+02  0.00000000000E+00 0. -1.
</event>
<event>
 8    1  0.6019723E-011  0.9118800E+02  0.7816164E-02  0.1184000E+00
        -11   -1    0    0    0    0  0.00000000000E+00  0.00000000000E+00  0.45593999997E+02  0.45594000000E+02  0.51100000000E-03 0. -1.
         11   -1    0    0    0    0 -0.00000000000E+00 -0.00000000000E+00 -0.45593999997E+02  0.45594000000E+02  0.51100000000E-03 0.  1.
         23    2    1    2    0    0 -0.17763568394E-14 -0.35527136788E-14  0.71054273576E-14  0.91188000000E+02  0.91188000000E+02 0.  0.
    9900012    2    3    3    0    0  0.85263794787E+01  0.26635121104E+02 -0.33188768940E+02  0.47787271815E+02  0.20000003512E+02 0.  0.
         12    1    3    3    0    0 -0.85263794787E+01 -0.26635121104E+02  0.33188768940E+02  0.43400728185E+02  0.00000000000E+00 0. -1.
         11    1    4    4    0    0  0.36745471154E+00 -0.28551468195E+01 -0.23943155162E+01  0.37442800881E+01  0.51100000000E-03 0. -1.
        -11    1    4    4    0    0  0.47247894413E+01  0.23706112932E+02 -0.27296876398E+02  0.36461251857E+02  0.51100000000E-03 0.  1.
         12    1    4    4    0    0  0.34341353258E+01  0.57841549909E+01 -0.34975770264E+01  0.75817398696E+01  0.00000000000E+00 0. -1.
</event>
<event>
 8    1  0.6019723E-011  0.9118800E+02  0.7816164E-02  0.1184000E+00
        -11   -1    0    0    0    0  0.00000000000E+00  0.00000000000E+00  0.45593999997E+02  0.45594000000E+02  0.51100000000E-03 0.  1.
         11   -1    0    0    0    0 -0.00000000000E+00 -0.00000000000E+00 -0.45593999997E+02  0.45594000000E+02  0.51100000000E-03 0. -1.
         23    2    1    2    0    0  0.00000000000E+00  0.00000000000E+00  0.36082248300E-15  0.91188000000E+02  0.91188000000E+02 0.  0.
    9900012    2    3    3    0    0  0.32906055005E+01 -0.43275426211E+02  0.18065384031E+00  0.47787271502E+02  0.20000002088E+02 0.  0.
        -12    1    3    3    0    0 -0.32906055005E+01  0.43275426211E+02 -0.18065384031E+00  0.43400728498E+02  0.00000000000E+00 0.  1.
         11    1    4    4    0    0 -0.59982260243E+01 -0.12991885973E+02 -0.50103280174E+01  0.15161504004E+02  0.51100000000E-03 0. -1.
        -11    1    4    4    0    0  0.73647952628E+01 -0.15718181323E+02  0.11897116432E+01  0.17398759939E+02  0.51100000000E-03 0.  1.
        -12    1    4    4    0    0  0.19240362620E+01 -0.14565358915E+02  0.40012702145E+01  0.15227007559E+02  0.00000000000E+00 0.  1.
</event>
<event>
 8    1  0.6019723E-011  0.9118800E+02  0.7816164E-02  0.1184000E+00
        -11   -1    0    0    0    0  0.00000000000E+00  0.00000000000E+00  0.45593999997E+02  0.45594000000E+02  0.51100000000E-03 0. -1.
         11   -1    0    0    0    0 -0.00000000000E+00 -0.00000000000E+00 -0.45593999997E+02  0.45594000000E+02  0.51100000000E-03 0.  1.
         23    2    1    2    0    0  0.71054273576E-14  0.88817841970E-15 -0.35527136788E-14  0.91188000000E+02  0.91188000000E+02 0.  0.
    9900012    2    3    3    0    0  0.37063760328E+02  0.33475889774E+01 -0.22331471360E+02  0.47787270804E+02  0.19999998905E+02 0.  0.
         12    1    3    3    0    0 -0.37063760328E+02 -0.33475889774E+01  0.22331471360E+02  0.43400729196E+02  0.00000000000E+00 0. -1.
         11    1    4    4    0    0  0.18790013296E+01  0.21364051881E+01 -0.70778293932E+01  0.76282725636E+01  0.51100000000E-03 0. -1.
        -11    1    4    4    0    0  0.36010132913E+02  0.60821487789E+00 -0.14266528027E+02  0.38738010015E+02  0.51100000000E-03 0.  1.
        -12    1    4    4    0    0 -0.82537391427E+00  0.60296891133E+00 -0.98711393994E+00  0.14209882254E+01  0.00000000000E+00 0.  1.
</event>
<event>
 8    1  0.6019723E-011  0.9118800E+02  0.7816164E-02  0.1184000E+00
        -11   -1    0    0    0    0  0.00000000000E+00  0.00000000000E+00  0.45593999997E+02  0.45594000000E+02  0.51100000000E-03 0. -1.
         11   -1    0    0    0    0 -0.00000000000E+00 -0.00000000000E+00 -0.45593999997E+02  0.45594000000E+02  0.51100000000E-03 0.  1.
         23    2    1    2    0    0 -0.17763568394E-14  0.00000000000E+00  0.71054273576E-14  0.91188000000E+02  0.91188000000E+02 0.  0.
    9900012    2    3    3    0    0 -0.15939713014E+02 -0.32483387128E+02  0.23966201735E+02  0.47787265952E+02  0.19999976780E+02 0.  0.
        -12    1    3    3    0    0  0.15939713014E+02  0.32483387128E+02 -0.23966201735E+02  0.43400734048E+02  0.00000000000E+00 0.  1.
         11    1    4    4    0    0 -0.56512904744E+01 -0.11443008919E+02 -0.26143759153E+00  0.12765104270E+02  0.51100000000E-03 0.  1.
        -11    1    4    4    0    0 -0.11000563321E+02 -0.17801437732E+02  0.16620172529E+02  0.26723280372E+02  0.51100000000E-03 0. -1.
         12    1    4    4    0    0  0.71214078077E+00 -0.32389404772E+01  0.76074667976E+01  0.82988813092E+01  0.00000000000E+00 0. -1.
</event>
<event>
 8    1  0.6019723E-011  0.9118800E+02  0.7816164E-02  0.1184000E+00
        -11   -1    0    0    0    0  0.00000000000E+00  0.00000000000E+00  0.45593999997E+02  0.45594000000E+02  0.51100000000E-03 0. -1.
         11   -1    0    0    0    0 -0.00000000000E+00 -0.00000000000E+00 -0.45593999997E+02  0.45594000000E+02  0.51100000000E-03 0.  1.
         23    2    1    2    0    0  0.88817841970E-15  0.00000000000E+00  0.00000000000E+00  0.91188000000E+02  0.91188000000E+02 0.  0.
    9900012    2    3    3    0    0  0.67310423466E+01 -0.11510237149E+02  0.41301709890E+02  0.47787265788E+02  0.19999976034E+02 0.  0.
        -12    1    3    3    0    0 -0.67310423466E+01  0.11510237149E+02 -0.41301709890E+02  0.43400734212E+02  0.00000000000E+00 0.  1.
         11    1    4    4    0    0  0.70417646410E+01  0.19266972618E+01  0.23887396793E+02  0.24978117171E+02  0.51100000000E-03 0. -1.
        -11    1    4    4    0    0 -0.25814690257E+01 -0.86305286628E+01  0.13405976636E+02  0.16151477243E+02  0.51100000000E-03 0.  1.
         12    1    4    4    0    0  0.22707467313E+01 -0.48064057478E+01  0.40083364617E+01  0.66576713737E+01  0.00000000000E+00 0. -1.
</event>
<event>
 8    1  0.6019723E-011  0.9118800E+02  0.7816164E-02  0.1184000E+00
        -11   -1    0    0    0    0  0.00000000000E+00  0.00000000000E+00  0.45593999997E+02  0.45594000000E+02  0.51100000000E-03 0. -1.
         11   -1    0    0    0    0 -0.00000000000E+00 -0.00000000000E+00 -0.45593999997E+02  0.45594000000E+02  0.51100000000E-03 0.  1.
         23    2    1    2    0    0  0.00000000000E+00 -0.17763568394E-14  0.00000000000E+00  0.91188000000E+02  0.91188000000E+02 0.  0.
    9900012    2    3    3    0    0 -0.31268069845E+02 -0.47455835431E+01 -0.29722194213E+02  0.47787290515E+02  0.20000088773E+02 0.  0.
         12    1    3    3    0    0  0.31268069845E+02  0.47455835431E+01  0.29722194213E+02  0.43400709485E+02  0.00000000000E+00 0. -1.
         11    1    4    4    0    0  0.84605587634E+00  0.67716657685E+00 -0.25698651208E+01  0.27890091644E+01  0.51100000000E-03 0. -1.
        -11    1    4    4    0    0 -0.15853575992E+02  0.29169312555E+01 -0.19197087586E+02  0.25067359888E+02  0.51100000000E-03 0.  1.
        -12    1    4    4    0    0 -0.16260549729E+02 -0.83396813755E+01 -0.79552415056E+01  0.19930921463E+02  0.00000000000E+00 0.  1.
</event>
<event>
 8    1  0.6019723E-011  0.9118800E+02  0.7816164E-02  0.1184000E+00
        -11   -1    0    0    0    0  0.00000000000E+00  0.00000000000E+00  0.45593999997E+02  0.45594000000E+02  0.51100000000E-03 0. -1.
         11   -1    0    0    0    0 -0.00000000000E+00 -0.00000000000E+00 -0.45593999997E+02  0.45594000000E+02  0.51100000000E-03 0.  1.
         23    2    1    2    0    0 -0.77715611724E-15  0.00000000000E+00  0.00000000000E+00  0.91188000000E+02  0.91188000000E+02 0.  0.
    9900012    2    3    3    0    0  0.95633085319E+00  0.25177851376E+02  0.35338142420E+02  0.47787273298E+02  0.20000010275E+02 0.  0.
        -12    1    3    3    0    0 -0.95633085319E+00 -0.25177851376E+02 -0.35338142420E+02  0.43400726702E+02  0.00000000000E+00 0.  1.
         11    1    4    4    0    0  0.13854501160E+01  0.21035504778E+02  0.28812765687E+02  0.35701364121E+02  0.51100000000E-03 0. -1.
        -11    1    4    4    0    0  0.37357088606E+01 -0.58245158049E+00  0.32556275356E+01  0.49893768596E+01  0.51100000000E-03 0.  1.
        -12    1    4    4    0    0 -0.41648281235E+01  0.47247981785E+01  0.32697491965E+01  0.70965323175E+01  0.00000000000E+00 0.  1.
</event>
<event>
 8    1  0.6019723E-011  0.9118800E+02  0.7816164E-02  0.1184000E+00
        -11   -1    0    0    0    0  0.00000000000E+00  0.00000000000E+00  0.45593999997E+02  0.45594000000E+02  0.51100000000E-03 0. -1.
         11   -1    0    0    0    0 -0.00000000000E+00 -0.00000000000E+00 -0.45593999997E+02  0.45594000000E+02  0.51100000000E-03 0.  1.
         23    2    1    2    0    0  0.00000000000E+00  0.00000000000E+00  0.00000000000E+00  0.91188000000E+02  0.91188000000E+02 0.  0.
    9900012    2    3    3    0    0  0.21322415673E+02  0.37678387471E+02  0.30523737086E+01  0.47787270999E+02  0.19999999794E+02 0.  0.
         12    1    3    3    0    0 -0.21322415673E+02 -0.37678387471E+02 -0.30523737086E+01  0.43400729001E+02  0.00000000000E+00 0. -1.
         11    1    4    4    0    0  0.11408908342E+02  0.85515023614E+01  0.47919524166E+01  0.15041748250E+02  0.51100000000E-03 0. -1.
        -11    1    4    4    0    0  0.10070265153E+02  0.14055530869E+02  0.14089480412E+01  0.17348006315E+02  0.51100000000E-03 0.  1.
         12    1    4    4    0    0 -0.15675782151E+00  0.15071354241E+02 -0.31485267492E+01  0.15397516435E+02  0.00000000000E+00 0. -1.
</event>
<event>
 8    1  0.6019723E-011  0.9118800E+02  0.7816164E-02  0.1184000E+00
        -11   -1    0    0    0    0  0.00000000000E+00  0.00000000000E+00  0.45593999997E+02  0.45594000000E+02  0.51100000000E-03 0.  1.
         11   -1    0    0    0    0 -0.00000000000E+00 -0.00000000000E+00 -0.45593999997E+02  0.45594000000E+02  0.51100000000E-03 0. -1.
         23    2    1    2    0    0  0.00000000000E+00  0.00000000000E+00  0.00000000000E+00  0.91188000000E+02  0.91188000000E+02 0.  0.
    9900012    2    3    3    0    0  0.30180608884E+02  0.30127157200E+02  0.80689771523E+01  0.47787272520E+02  0.20000006726E+02 0.  0.
        -12    1    3    3    0    0 -0.30180608884E+02 -0.30127157200E+02 -0.80689771523E+01  0.43400727480E+02  0.00000000000E+00 0.  1.
         11    1    4    4    0    0  0.24945863595E+02  0.17727823342E+02  0.20134236832E+01  0.30669621878E+02  0.51100000000E-03 0. -1.
        -11    1    4    4    0    0 -0.16922724718E+01  0.14002437803E+01  0.30797593647E+01  0.37827750090E+01  0.51100000000E-03 0.  1.
         12    1    4    4    0    0  0.69270177604E+01  0.10999090077E+02  0.29757941044E+01  0.13334875632E+02  0.00000000000E+00 0. -1.
</event>
<event>
 8    1  0.6019723E-011  0.9118800E+02  0.7816164E-02  0.1184000E+00
        -11   -1    0    0    0    0  0.00000000000E+00  0.00000000000E+00  0.45593999997E+02  0.45594000000E+02  0.51100000000E-03 0. -1.
         11   -1    0    0    0    0 -0.00000000000E+00 -0.00000000000E+00 -0.45593999997E+02  0.45594000000E+02  0.51100000000E-03 0.  1.
         23    2    1    2    0    0  0.00000000000E+00  0.00000000000E+00  0.00000000000E+00  0.91188000000E+02  0.91188000000E+02 0.  0.
    9900012    2    3    3    0    0 -0.21416682426E+02  0.18541609482E+02 -0.32880964851E+02  0.47787269386E+02  0.19999992436E+02 0.  0.
         12    1    3    3    0    0  0.21416682426E+02 -0.18541609482E+02  0.32880964851E+02  0.43400730614E+02  0.00000000000E+00 0. -1.
         11    1    4    4    0    0  0.45233730136E+00  0.23128890968E+01  0.39050028897E+00  0.23888398324E+01  0.51100000000E-03 0. -1.
        -11    1    4    4    0    0 -0.18628608213E+02  0.18390998147E+02 -0.31906094018E+02  0.41270482097E+02  0.51100000000E-03 0.  1.
        -12    1    4    4    0    0 -0.32404115137E+01 -0.21622777617E+01 -0.13653711228E+01  0.41279474560E+01  0.00000000000E+00 0.  1.
</event>
<event>
 8    1  0.6019723E-011  0.9118800E+02  0.7816164E-02  0.1184000E+00
        -11   -1    0    0    0    0  0.00000000000E+00  0.00000000000E+00  0.45593999997E+02  0.45594000000E+02  0.51100000000E-03 0. -1.
         11   -1    0    0    0    0 -0.00000000000E+00 -0.00000000000E+00 -0.45593999997E+02  0.45594000000E+02  0.51100000000E-03 0.  1.
         23    2    1    2    0    0  0.00000000000E+00  0.44408920985E-15  0.35527136788E-14  0.91188000000E+02  0.91188000000E+02 0.  0.
    9900012    2    3    3    0    0  0.33053426619E+02 -0.21362736653E+01 -0.28045151981E+02  0.47787271596E+02  0.20000002513E+02 0.  0.
         12    1    3    3    0    0 -0.33053426619E+02  0.21362736653E+01  0.28045151981E+02  0.43400728404E+02  0.00000000000E+00 0. -1.
         11    1    4    4    0    0  0.10101374951E-01  0.11385681533E+00  0.10983716092E+00  0.15852405248E+00  0.51100000000E-03 0. -1.
        -11    1    4    4    0    0  0.49967611245E+01 -0.46093756140E+01 -0.15187491151E+02  0.16639526826E+02  0.51100000000E-03 0.  1.
        -12    1    4    4    0    0  0.28046564119E+02  0.23592451333E+01 -0.12967497991E+02  0.30989220717E+02  0.00000000000E+00 0.  1.
</event>
<event>
 8    1  0.6019723E-011  0.9118800E+02  0.7816164E-02  0.1184000E+00
        -11   -1    0    0    0    0  0.00000000000E+00  0.00000000000E+00  0.45593999997E+02  0.45594000000E+02  0.51100000000E-03 0.  1.
         11   -1    0    0    0    0 -0.00000000000E+00 -0.00000000000E+00 -0.45593999997E+02  0.45594000000E+02  0.51100000000E-03 0. -1.
         23    2    1    2    0    0  0.00000000000E+00  0.00000000000E+00  0.88817841970E-15  0.91188000000E+02  0.91188000000E+02 0.  0.
    9900012    2    3    3    0    0  0.10092468922E+02 -0.41875825797E+02  0.53085787057E+01  0.47787265871E+02  0.19999976411E+02 0.  0.
        -12    1    3    3    0    0 -0.10092468922E+02  0.41875825797E+02 -0.53085787057E+01  0.43400734129E+02  0.00000000000E+00 0.  1.
         11    1    4    4    0    0  0.10964597174E+02 -0.15679230451E+02 -0.10057687196E+01  0.19159129148E+02  0.51100000000E-03 0. -1.
        -11    1    4    4    0    0 -0.17438543457E+00 -0.26627260685E+02  0.50214642548E+01  0.27097168217E+02  0.51100000000E-03 0.  1.
         12    1    4    4    0    0 -0.69774281700E+00  0.43066533934E+00  0.12928831704E+01  0.15309685057E+01  0.00000000000E+00 0. -1.
</event>
<event>
 8    1  0.6019723E-011  0.9118800E+02  0.7816164E-02  0.1184000E+00
        -11   -1    0    0    0    0  0.00000000000E+00  0.00000000000E+00  0.45593999997E+02  0.45594000000E+02  0.51100000000E-03 0. -1.
         11   -1    0    0    0    0 -0.00000000000E+00 -0.00000000000E+00 -0.45593999997E+02  0.45594000000E+02  0.51100000000E-03 0.  1.
         23    2    1    2    0    0 -0.11102230246E-15 -0.44408920985E-15  0.00000000000E+00  0.91188000000E+02  0.91188000000E+02 0.  0.
    9900012    2    3    3    0    0 -0.70127846424E+00  0.20621821391E+01 -0.43346037583E+02  0.47787270043E+02  0.19999995435E+02 0.  0.
         12    1    3    3    0    0  0.70127846424E+00 -0.20621821391E+01  0.43346037583E+02  0.43400729957E+02  0.00000000000E+00 0. -1.
         11    1    4    4    0    0 -0.37346313705E+01 -0.51314292602E+01 -0.13963422764E+02  0.15338064196E+02  0.51100000000E-03 0. -1.
        -11    1    4    4    0    0  0.84192860517E+00  0.88839392833E+01 -0.27935350096E+02  0.29326046550E+02  0.51100000000E-03 0.  1.
        -12    1    4    4    0    0  0.21914243011E+01 -0.16903278839E+01 -0.14472647220E+01  0.31231592976E+01  0.00000000000E+00 0.  1.
</event>
<event>
 8    1  0.6019723E-011  0.9118800E+02  0.7816164E-02  0.1184000E+00
        -11   -1    0    0    0    0  0.00000000000E+00  0.00000000000E+00  0.45593999997E+02  0.45594000000E+02  0.51100000000E-03 0. -1.
         11   -1    0    0    0    0 -0.00000000000E+00 -0.00000000000E+00 -0.45593999997E+02  0.45594000000E+02  0.51100000000E-03 0.  1.
         23    2    1    2    0    0  0.00000000000E+00  0.00000000000E+00  0.00000000000E+00  0.91188000000E+02  0.91188000000E+02 0.  0.
    9900012    2    3    3    0    0 -0.40320221615E+02  0.10655598578E+02  0.12015043828E+02  0.47787270393E+02  0.19999997032E+02 0.  0.
        -12    1    3    3    0    0  0.40320221615E+02 -0.10655598578E+02 -0.12015043828E+02  0.43400729607E+02  0.00000000000E+00 0.  1.
         11    1    4    4    0    0 -0.41717721733E+01  0.17160656005E+01  0.37131795552E+01  0.58426249992E+01  0.51100000000E-03 0.  1.
        -11    1    4    4    0    0 -0.24652333068E+02  0.78676518070E+01  0.13608620211E+02  0.29237510410E+02  0.51100000000E-03 0. -1.
        -12    1    4    4    0    0 -0.11496116374E+02  0.10718811709E+01 -0.53067559377E+01  0.12707134984E+02  0.00000000000E+00 0.  1.
</event>
<event>
 8    1  0.6019723E-011  0.9118800E+02  0.7816164E-02  0.1184000E+00
        -11   -1    0    0    0    0  0.00000000000E+00  0.00000000000E+00  0.45593999997E+02  0.45594000000E+02  0.51100000000E-03 0. -1.
         11   -1    0    0    0    0 -0.00000000000E+00 -0.00000000000E+00 -0.45593999997E+02  0.45594000000E+02  0.51100000000E-03 0.  1.
         23    2    1    2    0    0 -0.88817841970E-15 -0.17763568394E-14  0.00000000000E+00  0.91188000000E+02  0.91188000000E+02 0.  0.
    9900012    2    3    3    0    0  0.43463946464E+01 -0.15438011198E+02 -0.40328652676E+02  0.47787267716E+02  0.19999984822E+02 0.  0.
         12    1    3    3    0    0 -0.43463946464E+01  0.15438011198E+02  0.40328652676E+02  0.43400732284E+02  0.00000000000E+00 0. -1.
         11    1    4    4    0    0 -0.35066281079E+01 -0.37334514531E+01 -0.66933602318E+01  0.84282959068E+01  0.51100000000E-03 0. -1.
        -11    1    4    4    0    0  0.53735237494E+01  0.25278480355E+01 -0.85258134897E+01  0.10390104383E+02  0.51100000000E-03 0.  1.
        -12    1    4    4    0    0  0.24794990049E+01 -0.14232407780E+02 -0.25109478955E+02  0.28968867425E+02  0.00000000000E+00 0.  1.
</event>
<event>
 8    1  0.6019723E-011  0.9118800E+02  0.7816164E-02  0.1184000E+00
        -11   -1    0    0    0    0  0.00000000000E+00  0.00000000000E+00  0.45593999997E+02  0.45594000000E+02  0.51100000000E-03 0.  1.
         11   -1    0    0    0    0 -0.00000000000E+00 -0.00000000000E+00 -0.45593999997E+02  0.45594000000E+02  0.51100000000E-03 0. -1.
         23    2    1    2    0    0  0.00000000000E+00  0.00000000000E+00 -0.44408920985E-15  0.91188000000E+02  0.91188000000E+02 0.  0.
    9900012    2    3    3    0    0  0.35341643702E+02 -0.25087644240E+02 -0.22807123442E+01  0.47787270492E+02  0.19999997479E+02 0.  0.
        -12    1    3    3    0    0 -0.35341643702E+02  0.25087644240E+02  0.22807123442E+01  0.43400729508E+02  0.00000000000E+00 0.  1.
         11    1    4    4    0    0  0.14517939835E+02 -0.13492659883E+02 -0.81971656176E+01  0.21447982940E+02  0.51100000000E-03 0. -1.
        -11    1    4    4    0    0  0.54800237069E+01 -0.34478875077E+01  0.62002541571E+01  0.89644709809E+01  0.51100000000E-03 0.  1.
         12    1    4    4    0    0  0.15343680160E+02 -0.81470968497E+01 -0.28380088378E+00  0.17374816571E+02  0.00000000000E+00 0. -1.
</event>
<event>
 8    1  0.6019723E-011  0.9118800E+02  0.7816164E-02  0.1184000E+00
        -11   -1    0    0    0    0  0.00000000000E+00  0.00000000000E+00  0.45593999997E+02  0.45594000000E+02  0.51100000000E-03 0. -1.
         11   -1    0    0    0    0 -0.00000000000E+00 -0.00000000000E+00 -0.45593999997E+02  0.45594000000E+02  0.51100000000E-03 0.  1.
         23    2    1    2    0    0  0.00000000000E+00 -0.35527136788E-14  0.00000000000E+00  0.91188000000E+02  0.91188000000E+02 0.  0.
    9900012    2    3    3    0    0  0.40086374681E+01  0.24806133532E+02 -0.35386577091E+02  0.47787271050E+02  0.20000000025E+02 0.  0.
         12    1    3    3    0    0 -0.40086374681E+01 -0.24806133532E+02  0.35386577091E+02  0.43400728950E+02  0.00000000000E+00 0. -1.
         11    1    4    4    0    0 -0.81670217310E+00  0.51829528037E+01 -0.32713078268E+01  0.61831591734E+01  0.51100000000E-03 0. -1.
        -11    1    4    4    0    0 -0.52836545119E+01  0.24685879254E+01 -0.36990360132E+01  0.69060697241E+01  0.51100000000E-03 0.  1.
        -12    1    4    4    0    0  0.10108994153E+02  0.17154592803E+02 -0.28416233251E+02  0.34698042152E+02  0.00000000000E+00 0.  1.
</event>
<event>
 8    1  0.6019723E-011  0.9118800E+02  0.7816164E-02  0.1184000E+00
        -11   -1    0    0    0    0  0.00000000000E+00  0.00000000000E+00  0.45593999997E+02  0.45594000000E+02  0.51100000000E-03 0. -1.
         11   -1    0    0    0    0 -0.00000000000E+00 -0.00000000000E+00 -0.45593999997E+02  0.45594000000E+02  0.51100000000E-03 0.  1.
         23    2    1    2    0    0 -0.88817841970E-15  0.00000000000E+00  0.00000000000E+00  0.91188000000E+02  0.91188000000E+02 0.  0.
    9900012    2    3    3    0    0 -0.78346475098E+01 -0.33098793179E+02  0.26957604635E+02  0.47787259694E+02  0.19999948248E+02 0.  0.
        -12    1    3    3    0    0  0.78346475098E+01  0.33098793179E+02 -0.26957604635E+02  0.43400740306E+02  0.00000000000E+00 0.  1.
         11    1    4    4    0    0 -0.10106876394E+02 -0.18540921306E+02  0.12435524247E+02  0.24506264033E+02  0.51100000000E-03 0. -1.
        -11    1    4    4    0    0  0.43342311794E+01 -0.75003071852E+01  0.22091623706E+01  0.89398303357E+01  0.51100000000E-03 0.  1.
         12    1    4    4    0    0 -0.20620022956E+01 -0.70575646876E+01  0.12312918017E+02  0.14341165325E+02  0.00000000000E+00 0. -1.
</event>
<event>
 8    1  0.6019723E-011  0.9118800E+02  0.7816164E-02  0.1184000E+00
        -11   -1    0    0    0    0  0.00000000000E+00  0.00000000000E+00  0.45593999997E+02  0.45594000000E+02  0.51100000000E-03 0. -1.
         11   -1    0    0    0    0 -0.00000000000E+00 -0.00000000000E+00 -0.45593999997E+02  0.45594000000E+02  0.51100000000E-03 0.  1.
         23    2    1    2    0    0  0.00000000000E+00  0.00000000000E+00  0.00000000000E+00  0.91188000000E+02  0.91188000000E+02 0.  0.
    9900012    2    3    3    0    0  0.11693118738E+02  0.42912039802E+01 -0.41574990423E+02  0.47787270904E+02  0.19999999360E+02 0.  0.
         12    1    3    3    0    0 -0.11693118738E+02 -0.42912039802E+01  0.41574990423E+02  0.43400729096E+02  0.00000000000E+00 0. -1.
         11    1    4    4    0    0  0.10920973798E+02  0.30798745829E+00 -0.89082136776E+01  0.14096765450E+02  0.51100000000E-03 0. -1.
        -11    1    4    4    0    0  0.37707255029E+01  0.16932280659E+01 -0.12265011296E+02  0.12942793147E+02  0.51100000000E-03 0.  1.
         12    1    4    4    0    0 -0.29985805630E+01  0.22899884560E+01 -0.20401765449E+02  0.20747712306E+02  0.00000000000E+00 0. -1.
</event>
<event>
 8    1  0.6019723E-011  0.9118800E+02  0.7816164E-02  0.1184000E+00
        -11   -1    0    0    0    0  0.00000000000E+00  0.00000000000E+00  0.45593999997E+02  0.45594000000E+02  0.51100000000E-03 0. -1.
         11   -1    0    0    0    0 -0.00000000000E+00 -0.00000000000E+00 -0.45593999997E+02  0.45594000000E+02  0.51100000000E-03 0.  1.
         23    2    1    2    0    0 -0.35527136788E-14  0.13322676296E-14  0.00000000000E+00  0.91188000000E+02  0.91188000000E+02 0.  0.
    9900012    2    3    3    0    0  0.24834019462E+02  0.22512107969E+01 -0.35522200189E+02  0.47787272138E+02  0.20000004987E+02 0.  0.
         12    1    3    3    0    0 -0.24834019462E+02 -0.22512107969E+01  0.35522200189E+02  0.43400727862E+02  0.00000000000E+00 0. -1.
         11    1    4    4    0    0  0.15133333607E+01 -0.43035864022E+01 -0.81646826770E+01  0.93527042752E+01  0.51100000000E-03 0. -1.
        -11    1    4    4    0    0  0.23523604682E+02  0.84826635151E+01 -0.24730807473E+02  0.35169992836E+02  0.51100000000E-03 0.  1.
        -12    1    4    4    0    0 -0.20291858066E+00 -0.19278663160E+01 -0.26267100384E+01  0.32645750272E+01  0.00000000000E+00 0.  1.
</event>
<event>
 8    1  0.6019723E-011  0.9118800E+02  0.7816164E-02  0.1184000E+00
        -11   -1    0    0    0    0  0.00000000000E+00  0.00000000000E+00  0.45593999997E+02  0.45594000000E+02  0.51100000000E-03 0. -1.
         11   -1    0    0    0    0 -0.00000000000E+00 -0.00000000000E+00 -0.45593999997E+02  0.45594000000E+02  0.51100000000E-03 0.  1.
         23    2    1    2    0    0  0.00000000000E+00  0.00000000000E+00  0.00000000000E+00  0.91188000000E+02  0.91188000000E+02 0.  0.
    9900012    2    3    3    0    0 -0.22759133800E+02  0.23904244015E+02  0.28182125467E+02  0.47787271330E+02  0.20000001304E+02 0.  0.
        -12    1    3    3    0    0  0.22759133800E+02 -0.23904244015E+02 -0.28182125467E+02  0.43400728670E+02  0.00000000000E+00 0.  1.
         11    1    4    4    0    0 -0.30768337250E+01  0.12848151051E+02  0.17764386835E+02  0.22138548532E+02  0.51100000000E-03 0. -1.
        -11    1    4    4    0    0 -0.10312011937E+02  0.23103747104E+01  0.38558787433E+01  0.11249143196E+02  0.51100000000E-03 0.  1.
         12    1    4    4    0    0 -0.93702881376E+01  0.87457182528E+01  0.65618598884E+01  0.14399579603E+02  0.00000000000E+00 0. -1.
</event>
<event>
 8    1  0.6019723E-011  0.9118800E+02  0.7816164E-02  0.1184000E+00
        -11   -1    0    0    0    0  0.00000000000E+00  0.00000000000E+00  0.45593999997E+02  0.45594000000E+02  0.51100000000E-03 0. -1.
         11   -1    0    0    0    0 -0.00000000000E+00 -0.00000000000E+00 -0.45593999997E+02  0.45594000000E+02  0.51100000000E-03 0.  1.
         23    2    1    2    0    0  0.71054273576E-14  0.00000000000E+00  0.00000000000E+00  0.91188000000E+02  0.91188000000E+02 0.  0.
    9900012    2    3    3    0    0 -0.33429046290E+02  0.95075297127E+01  0.25994789073E+02  0.47787270559E+02  0.19999997785E+02 0.  0.
        -12    1    3    3    0    0  0.33429046290E+02 -0.95075297127E+01 -0.25994789073E+02  0.43400729441E+02  0.00000000000E+00 0.  1.
         11    1    4    4    0    0 -0.24700532617E+02  0.90071354673E+01  0.18722816135E+02  0.32276750846E+02  0.51100000000E-03 0. -1.
        -11    1    4    4    0    0 -0.85717120913E+01  0.35703558043E+01  0.21409863520E+01  0.95291925977E+01  0.51100000000E-03 0.  1.
         12    1    4    4    0    0 -0.15680158174E+00 -0.30699615589E+01  0.51309865860E+01  0.59813271148E+01  0.00000000000E+00 0. -1.
</event>
<event>
 8    1  0.6019723E-011  0.9118800E+02  0.7816164E-02  0.1184000E+00
        -11   -1    0    0    0    0  0.00000000000E+00  0.00000000000E+00  0.45593999997E+02  0.45594000000E+02  0.51100000000E-03 0.  1.
         11   -1    0    0    0    0 -0.00000000000E+00 -0.00000000000E+00 -0.45593999997E+02  0.45594000000E+02  0.51100000000E-03 0. -1.
         23    2    1    2    0    0  0.00000000000E+00  0.35527136788E-14  0.17763568394E-14  0.91188000000E+02  0.91188000000E+02 0.  0.
    9900012    2    3    3    0    0  0.28995412596E+02  0.28799806871E+02 -0.14610296231E+02  0.47787267479E+02  0.19999983743E+02 0.  0.
         12    1    3    3    0    0 -0.28995412596E+02 -0.28799806871E+02  0.14610296231E+02  0.43400732521E+02  0.00000000000E+00 0. -1.
         11    1    4    4    0    0  0.14963897811E+02  0.90484432538E+01  0.21272894987E+01  0.17615842980E+02  0.51100000000E-03 0. -1.
        -11    1    4    4    0    0  0.12514585860E+02  0.14962573250E+02 -0.10467726104E+02  0.22137451244E+02  0.51100000000E-03 0.  1.
         12    1    4    4    0    0  0.15169289245E+01  0.47887903677E+01 -0.62698596256E+01  0.80339732557E+01  0.00000000000E+00 0. -1.
</event>
<event>
 8    1  0.6019723E-011  0.9118800E+02  0.7816164E-02  0.1184000E+00
        -11   -1    0    0    0    0  0.00000000000E+00  0.00000000000E+00  0.45593999997E+02  0.45594000000E+02  0.51100000000E-03 0. -1.
         11   -1    0    0    0    0 -0.00000000000E+00 -0.00000000000E+00 -0.45593999997E+02  0.45594000000E+02  0.51100000000E-03 0.  1.
         23    2    1    2    0    0  0.00000000000E+00  0.00000000000E+00  0.00000000000E+00  0.91188000000E+02  0.91188000000E+02 0.  0.
    9900012    2    3    3    0    0  0.55376320131E+01  0.10536301978E+02 -0.41736583840E+02  0.47787291960E+02  0.20000095364E+02 0.  0.
         12    1    3    3    0    0 -0.55376320131E+01 -0.10536301978E+02  0.41736583840E+02  0.43400708040E+02  0.00000000000E+00 0. -1.
         11    1    4    4    0    0  0.66526089092E+01  0.50935900504E+01 -0.36974334255E+01  0.91582137504E+01  0.51100000000E-03 0. -1.
        -11    1    4    4    0    0 -0.14460941055E+01  0.34895763479E+01 -0.13754163343E+02  0.14263426684E+02  0.51100000000E-03 0.  1.
         12    1    4    4    0    0  0.33111720938E+00  0.19531355798E+01 -0.24284987072E+02  0.24365651526E+02  0.00000000000E+00 0. -1.
</event>
<event>
 8    1  0.6019723E-011  0.9118800E+02  0.7816164E-02  0.1184000E+00
        -11   -1    0    0    0    0  0.00000000000E+00  0.00000000000E+00  0.45593999997E+02  0.45594000000E+02  0.51100000000E-03 0. -1.
         11   -1    0    0    0    0 -0.00000000000E+00 -0.00000000000E+00 -0.45593999997E+02  0.45594000000E+02  0.51100000000E-03 0.  1.
         23    2    1    2    0    0  0.00000000000E+00  0.35527136788E-14  0.00000000000E+00  0.91188000000E+02  0.91188000000E+02 0.  0.
    9900012    2    3    3    0    0 -0.11972196734E+02 -0.29021840804E+02 -0.29967023261E+02  0.47787271649E+02  0.20000002758E+02 0.  0.
         12    1    3    3    0    0  0.11972196734E+02  0.29021840804E+02  0.29967023261E+02  0.43400728351E+02  0.00000000000E+00 0. -1.
         11    1    4    4    0    0 -0.63938487579E+00 -0.34709775438E+01 -0.85242185014E+01  0.92259850124E+01  0.51100000000E-03 0. -1.
        -11    1    4    4    0    0 -0.12340396385E+02 -0.22090761568E+02 -0.23395791057E+02  0.34462300693E+02  0.51100000000E-03 0.  1.
        -12    1    4    4    0    0  0.10075845270E+01 -0.34601016916E+01  0.19529862974E+01  0.40989859445E+01  0.00000000000E+00 0.  1.
</event>
<event>
 8    1  0.6019723E-011  0.9118800E+02  0.7816164E-02  0.1184000E+00
        -11   -1    0    0    0    0  0.00000000000E+00  0.00000000000E+00  0.45593999997E+02  0.45594000000E+02  0.51100000000E-03 0. -1.
         11   -1    0    0    0    0 -0.00000000000E+00 -0.00000000000E+00 -0.45593999997E+02  0.45594000000E+02  0.51100000000E-03 0.  1.
         23    2    1    2    0    0  0.88817841970E-15 -0.71054273576E-14  0.00000000000E+00  0.91188000000E+02  0.91188000000E+02 0.  0.
    9900012    2    3    3    0    0  0.82314072235E+00  0.40168237855E+02 -0.16415184651E+02  0.47787272125E+02  0.20000004925E+02 0.  0.
         12    1    3    3    0    0 -0.82314072235E+00 -0.40168237855E+02  0.16415184651E+02  0.43400727875E+02  0.00000000000E+00 0. -1.
         11    1    4    4    0    0 -0.30120729370E+01  0.22062800055E+01  0.20378311534E+01  0.42535880044E+01  0.51100000000E-03 0. -1.
        -11    1    4    4    0    0  0.71581386927E+01  0.26737155940E+02 -0.13901725970E+02  0.30973737948E+02  0.51100000000E-03 0.  1.
        -12    1    4    4    0    0 -0.33229250333E+01  0.11224801910E+02 -0.45512898340E+01  0.12559946172E+02  0.00000000000E+00 0.  1.
</event>
<event>
 8    1  0.6019723E-011  0.9118800E+02  0.7816164E-02  0.1184000E+00
        -11   -1    0    0    0    0  0.00000000000E+00  0.00000000000E+00  0.45593999997E+02  0.45594000000E+02  0.51100000000E-03 0. -1.
         11   -1    0    0    0    0 -0.00000000000E+00 -0.00000000000E+00 -0.45593999997E+02  0.45594000000E+02  0.51100000000E-03 0.  1.
         23    2    1    2    0    0  0.00000000000E+00  0.00000000000E+00  0.71054273576E-14  0.91188000000E+02  0.91188000000E+02 0.  0.
    9900012    2    3    3    0    0 -0.40454095544E+01 -0.15596907320E+02 -0.40298811689E+02  0.47787273278E+02  0.20000010184E+02 0.  0.
         12    1    3    3    0    0  0.40454095544E+01  0.15596907320E+02  0.40298811689E+02  0.43400726722E+02  0.00000000000E+00 0. -1.
         11    1    4    4    0    0 -0.47290546102E+01 -0.33976455702E+01 -0.21216774867E+02  0.22001351979E+02  0.51100000000E-03 0. -1.
        -11    1    4    4    0    0  0.31460244588E+01 -0.39316990761E+01 -0.21469929559E+00  0.50400221794E+01  0.51100000000E-03 0.  1.
        -12    1    4    4    0    0 -0.24623794030E+01 -0.82675626739E+01 -0.18867337527E+02  0.20745899119E+02  0.00000000000E+00 0.  1.
</event>
<event>
 8    1  0.6019723E-011  0.9118800E+02  0.7816164E-02  0.1184000E+00
        -11   -1    0    0    0    0  0.00000000000E+00  0.00000000000E+00  0.45593999997E+02  0.45594000000E+02  0.51100000000E-03 0. -1.
         11   -1    0    0    0    0 -0.00000000000E+00 -0.00000000000E+00 -0.45593999997E+02  0.45594000000E+02  0.51100000000E-03 0.  1.
         23    2    1    2    0    0  0.35527136788E-14 -0.35527136788E-14 -0.35527136788E-14  0.91188000000E+02  0.91188000000E+02 0.  0.
    9900012    2    3    3    0    0 -0.30960077118E+02  0.17856419556E+02 -0.24622049882E+02  0.47787269189E+02  0.19999991540E+02 0.  0.
         12    1    3    3    0    0  0.30960077118E+02 -0.17856419556E+02  0.24622049882E+02  0.43400730811E+02  0.00000000000E+00 0. -1.
         11    1    4    4    0    0 -0.57339034013E+01 -0.28954353409E+01 -0.23421110442E+01  0.68371542642E+01  0.51100000000E-03 0. -1.
        -11    1    4    4    0    0 -0.95256482993E+01  0.14711221147E+02 -0.10868232406E+02  0.20622232640E+02  0.51100000000E-03 0.  1.
        -12    1    4    4    0    0 -0.15700525418E+02  0.60406337494E+01 -0.11411706433E+02  0.20327882285E+02  0.00000000000E+00 0.  1.
</event>
<event>
 8    1  0.6019723E-011  0.9118800E+02  0.7816164E-02  0.1184000E+00
        -11   -1    0    0    0    0  0.00000000000E+00  0.00000000000E+00  0.45593999997E+02  0.45594000000E+02  0.51100000000E-03 0. -1.
         11   -1    0    0    0    0 -0.00000000000E+00 -0.00000000000E+00 -0.45593999997E+02  0.45594000000E+02  0.51100000000E-03 0.  1.
         23    2    1    2    0    0  0.17763568394E-14  0.00000000000E+00  0.71054273576E-14  0.91188000000E+02  0.91188000000E+02 0.  0.
    9900012    2    3    3    0    0 -0.11847541485E+02  0.18247222085E+02 -0.37553935114E+02  0.47787269643E+02  0.19999993608E+02 0.  0.
         12    1    3    3    0    0  0.11847541485E+02 -0.18247222085E+02  0.37553935114E+02  0.43400730357E+02  0.00000000000E+00 0. -1.
         11    1    4    4    0    0 -0.42209293875E+01 -0.31115330845E+01 -0.57498813604E+01  0.77819675500E+01  0.51100000000E-03 0. -1.
        -11    1    4    4    0    0 -0.30858139637E+01  0.11105540900E+01 -0.26293352155E+01  0.42034488389E+01  0.51100000000E-03 0.  1.
         12    1    4    4    0    0 -0.45407981335E+01  0.20248201079E+02 -0.29174718538E+02  0.35801853254E+02  0.00000000000E+00 0. -1.
</event>
<event>
 8    1  0.6019723E-011  0.9118800E+02  0.7816164E-02  0.1184000E+00
        -11   -1    0    0    0    0  0.00000000000E+00  0.00000000000E+00  0.45593999997E+02  0.45594000000E+02  0.51100000000E-03 0. -1.
         11   -1    0    0    0    0 -0.00000000000E+00 -0.00000000000E+00 -0.45593999997E+02  0.45594000000E+02  0.51100000000E-03 0.  1.
         23    2    1    2    0    0  0.00000000000E+00  0.00000000000E+00  0.00000000000E+00  0.91188000000E+02  0.91188000000E+02 0.  0.
    9900012    2    3    3    0    0 -0.31736866771E+02 -0.19267602625E+02 -0.22475577512E+02  0.47787299454E+02  0.20000129530E+02 0.  0.
         12    1    3    3    0    0  0.31736866771E+02  0.19267602625E+02  0.22475577512E+02  0.43400700546E+02  0.00000000000E+00 0. -1.
         11    1    4    4    0    0 -0.85979213681E+01 -0.43101070454E+01 -0.76741194327E+00  0.96483260697E+01  0.51100000000E-03 0. -1.
        -11    1    4    4    0    0 -0.58064678577E+01 -0.12516351049E+02 -0.10715361865E+02  0.17469776550E+02  0.51100000000E-03 0.  1.
        -12    1    4    4    0    0 -0.17332477545E+02 -0.24411445304E+01 -0.10992803704E+02  0.20669196834E+02  0.00000000000E+00 0.  1.
</event>
<event>
 8    1  0.6019723E-011  0.9118800E+02  0.7816164E-02  0.1184000E+00
        -11   -1    0    0    0    0  0.00000000000E+00  0.00000000000E+00  0.45593999997E+02  0.45594000000E+02  0.51100000000E-03 0. -1.
         11   -1    0    0    0    0 -0.00000000000E+00 -0.00000000000E+00 -0.45593999997E+02  0.45594000000E+02  0.51100000000E-03 0.  1.
         23    2    1    2    0    0 -0.17763568394E-14  0.00000000000E+00  0.00000000000E+00  0.91188000000E+02  0.91188000000E+02 0.  0.
    9900012    2    3    3    0    0  0.14585994173E+02  0.23876389332E+02 -0.33178164897E+02  0.47787264759E+02  0.19999971341E+02 0.  0.
         12    1    3    3    0    0 -0.14585994173E+02 -0.23876389332E+02  0.33178164897E+02  0.43400735241E+02  0.00000000000E+00 0. -1.
         11    1    4    4    0    0 -0.27247983165E+01  0.58516255524E+00 -0.18016150003E+00  0.27927405015E+01  0.51100000000E-03 0. -1.
        -11    1    4    4    0    0  0.14016936182E+02  0.21347077629E+02 -0.23300548574E+02  0.34570041760E+02  0.51100000000E-03 0.  1.
        -12    1    4    4    0    0  0.32938563076E+01  0.19441491485E+01 -0.96974548232E+01  0.10424482497E+02  0.00000000000E+00 0.  1.
</event>
<event>
 8    1  0.6484955E-011  0.9118800E+02  0.7816164E-02  0.1184000E+00
        -11   -1    0    0    0    0  0.00000000000E+00  0.00000000000E+00  0.45593999997E+02  0.45594000000E+02  0.51100000000E-03 0. -1.
         11   -1    0    0    0    0 -0.00000000000E+00 -0.00000000000E+00 -0.45593999997E+02  0.45594000000E+02  0.51100000000E-03 0.  1.
         23    2    1    2    0    0 -0.17763568394E-14 -0.44408920985E-15  0.00000000000E+00  0.91188000000E+02  0.91188000000E+02 0.  0.
    9900012    2    3    3    0    0  0.93912621827E+01  0.29777320226E+01 -0.42267717766E+02  0.47787278134E+02  0.20000032324E+02 0.  0.
         12    1    3    3    0    0 -0.93912621827E+01 -0.29777320226E+01  0.42267717766E+02  0.43400721866E+02  0.00000000000E+00 0. -1.
         11    1    4    4    0    0 -0.26203977645E+01 -0.16122508744E+01 -0.20024938625E+00  0.30831700252E+01  0.51100000000E-03 0. -1.
        -11    1    4    4    0    0  0.83821155309E+01  0.14924163313E+01 -0.35957301292E+02  0.36951518017E+02  0.51100000000E-03 0.  1.
         12    1    4    4    0    0  0.36295444163E+01  0.30975665658E+01 -0.61101670870E+01  0.77525900917E+01  0.00000000000E+00 0. -1.
</event>
<event>
 8    1  0.6019723E-011  0.9118800E+02  0.7816164E-02  0.1184000E+00
        -11   -1    0    0    0    0  0.00000000000E+00  0.00000000000E+00  0.45593999997E+02  0.45594000000E+02  0.51100000000E-03 0. -1.
         11   -1    0    0    0    0 -0.00000000000E+00 -0.00000000000E+00 -0.45593999997E+02  0.45594000000E+02  0.51100000000E-03 0.  1.
         23    2    1    2    0    0  0.00000000000E+00  0.35527136788E-14  0.00000000000E+00  0.91188000000E+02  0.91188000000E+02 0.  0.
    9900012    2    3    3    0    0 -0.80442979587E+01 -0.27396628763E+02  0.32685429148E+02  0.47787271022E+02  0.19999999896E+02 0.  0.
        -12    1    3    3    0    0  0.80442979587E+01  0.27396628763E+02 -0.32685429148E+02  0.43400728978E+02  0.00000000000E+00 0.  1.
         11    1    4    4    0    0 -0.52627662584E+01 -0.99422023907E+01  0.13160932280E+02  0.17313412021E+02  0.51100000000E-03 0. -1.
        -11    1    4    4    0    0 -0.46101704930E+01 -0.20164649285E+01  0.12382561476E+02  0.13365913054E+02  0.51100000000E-03 0.  1.
        -12    1    4    4    0    0  0.18286387927E+01 -0.15437961444E+02  0.71419353919E+01  0.17107945947E+02  0.00000000000E+00 0.  1.
</event>
<event>
 8    1  0.6019723E-011  0.9118800E+02  0.7816164E-02  0.1184000E+00
        -11   -1    0    0    0    0  0.00000000000E+00  0.00000000000E+00  0.45593999997E+02  0.45594000000E+02  0.51100000000E-03 0. -1.
         11   -1    0    0    0    0 -0.00000000000E+00 -0.00000000000E+00 -0.45593999997E+02  0.45594000000E+02  0.51100000000E-03 0.  1.
         23    2    1    2    0    0 -0.35527136788E-14  0.00000000000E+00  0.00000000000E+00  0.91188000000E+02  0.91188000000E+02 0.  0.
    9900012    2    3    3    0    0 -0.17991853816E+02  0.18607317155E+02  0.34837970887E+02  0.47787271078E+02  0.20000000154E+02 0.  0.
        -12    1    3    3    0    0  0.17991853816E+02 -0.18607317155E+02 -0.34837970887E+02  0.43400728922E+02  0.00000000000E+00 0.  1.
         11    1    4    4    0    0 -0.85657985911E+00  0.11031429304E+02  0.79288622838E+01  0.13612237837E+02  0.51100000000E-03 0. -1.
        -11    1    4    4    0    0 -0.29218817042E+01 -0.20860092706E+01  0.27298856409E+01  0.45101112230E+01  0.51100000000E-03 0.  1.
         12    1    4    4    0    0 -0.14213392253E+02  0.96618971214E+01  0.24179222962E+02  0.29664922019E+02  0.00000000000E+00 0. -1.
</event>
<event>
 8    1  0.6019723E-011  0.9118800E+02  0.7816164E-02  0.1184000E+00
        -11   -1    0    0    0    0  0.00000000000E+00  0.00000000000E+00  0.45593999997E+02  0.45594000000E+02  0.51100000000E-03 0.  1.
         11   -1    0    0    0    0 -0.00000000000E+00 -0.00000000000E+00 -0.45593999997E+02  0.45594000000E+02  0.51100000000E-03 0. -1.
         23    2    1    2    0    0  0.00000000000E+00 -0.88817841970E-15  0.00000000000E+00  0.91188000000E+02  0.91188000000E+02 0.  0.
    9900012    2    3    3    0    0  0.41949907017E+02  0.71203071609E+01  0.85515864069E+01  0.47787273015E+02  0.20000008982E+02 0.  0.
        -12    1    3    3    0    0 -0.41949907017E+02 -0.71203071609E+01 -0.85515864069E+01  0.43400726985E+02  0.00000000000E+00 0.  1.
         11    1    4    4    0    0  0.10712124583E+02  0.88560523030E+01  0.74793161905E+01  0.15783518189E+02  0.51100000000E-03 0. -1.
        -11    1    4    4    0    0 -0.33520910709E+00 -0.15032705462E+00 -0.51781784677E-01  0.37100536812E+00  0.51100000000E-03 0.  1.
         12    1    4    4    0    0  0.31572991541E+02 -0.15854180875E+01  0.11240520011E+01  0.31632749457E+02  0.00000000000E+00 0. -1.
</event>
<event>
 8    1  0.6019723E-011  0.9118800E+02  0.7816164E-02  0.1184000E+00
        -11   -1    0    0    0    0  0.00000000000E+00  0.00000000000E+00  0.45593999997E+02  0.45594000000E+02  0.51100000000E-03 0. -1.
         11   -1    0    0    0    0 -0.00000000000E+00 -0.00000000000E+00 -0.45593999997E+02  0.45594000000E+02  0.51100000000E-03 0.  1.
         23    2    1    2    0    0  0.00000000000E+00  0.00000000000E+00  0.00000000000E+00  0.91188000000E+02  0.91188000000E+02 0.  0.
    9900012    2    3    3    0    0 -0.20038689972E+02  0.85466616003E+01  0.37537029815E+02  0.47787272729E+02  0.20000007682E+02 0.  0.
        -12    1    3    3    0    0  0.20038689972E+02 -0.85466616003E+01 -0.37537029815E+02  0.43400727271E+02  0.00000000000E+00 0.  1.
         11    1    4    4    0    0 -0.74977426846E+01 -0.14815849402E+01  0.10739087294E+02  0.13181017998E+02  0.51100000000E-03 0. -1.
        -11    1    4    4    0    0 -0.15687188988E+02  0.64617441267E+01  0.22622202766E+02  0.28277307045E+02  0.51100000000E-03 0.  1.
        -12    1    4    4    0    0  0.31462417007E+01  0.35665024138E+01  0.41757397548E+01  0.63289476856E+01  0.00000000000E+00 0.  1.
</event>
<event>
 8    1  0.6019723E-011  0.9118800E+02  0.7816164E-02  0.1184000E+00
        -11   -1    0    0    0    0  0.00000000000E+00  0.00000000000E+00  0.45593999997E+02  0.45594000000E+02  0.51100000000E-03 0.  1.
         11   -1    0    0    0    0 -0.00000000000E+00 -0.00000000000E+00 -0.45593999997E+02  0.45594000000E+02  0.51100000000E-03 0. -1.
         23    2    1    2    0    0 -0.35527136788E-14  0.71054273576E-14  0.44408920985E-15  0.91188000000E+02  0.91188000000E+02 0.  0.
    9900012    2    3    3    0    0 -0.31319584186E+02  0.29957551581E+02 -0.22915186726E+01  0.47787282170E+02  0.20000050727E+02 0.  0.
         12    1    3    3    0    0  0.31319584186E+02 -0.29957551581E+02  0.22915186726E+01  0.43400717830E+02  0.00000000000E+00 0. -1.
         11    1    4    4    0    0 -0.62722241826E+01  0.95809486469E+01  0.53487871425E+01  0.12639022800E+02  0.51100000000E-03 0. -1.
        -11    1    4    4    0    0 -0.13009734092E+02  0.37467722490E+01 -0.50783226666E+01  0.14459628100E+02  0.51100000000E-03 0.  1.
        -12    1    4    4    0    0 -0.12037625912E+02  0.16629830685E+02 -0.25619831485E+01  0.20688631271E+02  0.00000000000E+00 0.  1.
</event>
<event>
 8    1  0.6019723E-011  0.9118800E+02  0.7816164E-02  0.1184000E+00
        -11   -1    0    0    0    0  0.00000000000E+00  0.00000000000E+00  0.45593999997E+02  0.45594000000E+02  0.51100000000E-03 0. -1.
         11   -1    0    0    0    0 -0.00000000000E+00 -0.00000000000E+00 -0.45593999997E+02  0.45594000000E+02  0.51100000000E-03 0.  1.
         23    2    1    2    0    0  0.00000000000E+00  0.00000000000E+00  0.00000000000E+00  0.91188000000E+02  0.91188000000E+02 0.  0.
    9900012    2    3    3    0    0  0.17350993878E+02 -0.84958826457E+01  0.38863686989E+02  0.47787272162E+02  0.20000005095E+02 0.  0.
        -12    1    3    3    0    0 -0.17350993878E+02  0.84958826457E+01 -0.38863686989E+02  0.43400727838E+02  0.00000000000E+00 0.  1.
         11    1    4    4    0    0  0.15741773467E+02  0.13804452038E+01  0.25473418091E+02  0.29976725811E+02  0.51100000000E-03 0. -1.
        -11    1    4    4    0    0  0.13366292547E+01 -0.24507364557E+00  0.56779865670E-01  0.13600967137E+01  0.51100000000E-03 0.  1.
         12    1    4    4    0    0  0.27259115571E+00 -0.96312542040E+01  0.13333489033E+02  0.16450449637E+02  0.00000000000E+00 0. -1.
</event>
<event>
 8    1  0.6019723E-011  0.9118800E+02  0.7816164E-02  0.1184000E+00
        -11   -1    0    0    0    0  0.00000000000E+00  0.00000000000E+00  0.45593999997E+02  0.45594000000E+02  0.51100000000E-03 0. -1.
         11   -1    0    0    0    0 -0.00000000000E+00 -0.00000000000E+00 -0.45593999997E+02  0.45594000000E+02  0.51100000000E-03 0.  1.
         23    2    1    2    0    0  0.00000000000E+00 -0.35527136788E-14  0.35527136788E-14  0.91188000000E+02  0.91188000000E+02 0.  0.
    9900012    2    3    3    0    0 -0.24225636647E+02  0.18850031868E+02 -0.30682537772E+02  0.47787270784E+02  0.19999998812E+02 0.  0.
         12    1    3    3    0    0  0.24225636647E+02 -0.18850031868E+02  0.30682537772E+02  0.43400729216E+02  0.00000000000E+00 0. -1.
         11    1    4    4    0    0 -0.68344754245E+01  0.99101277281E+01 -0.66897848845E+01  0.13772215072E+02  0.51100000000E-03 0. -1.
        -11    1    4    4    0    0 -0.10581741367E+02  0.39755952663E+01 -0.22873412074E+02  0.25514144866E+02  0.51100000000E-03 0.  1.
        -12    1    4    4    0    0 -0.68094198557E+01  0.49643088737E+01 -0.11193408133E+01  0.85009108465E+01  0.00000000000E+00 0.  1.
</event>
<event>
 8    1  0.6019723E-011  0.9118800E+02  0.7816164E-02  0.1184000E+00
        -11   -1    0    0    0    0  0.00000000000E+00  0.00000000000E+00  0.45593999997E+02  0.45594000000E+02  0.51100000000E-03 0. -1.
         11   -1    0    0    0    0 -0.00000000000E+00 -0.00000000000E+00 -0.45593999997E+02  0.45594000000E+02  0.51100000000E-03 0.  1.
         23    2    1    2    0    0  0.00000000000E+00  0.00000000000E+00  0.00000000000E+00  0.91188000000E+02  0.91188000000E+02 0.  0.
    9900012    2    3    3    0    0  0.22487355626E+02 -0.27961043607E+01  0.37015180868E+02  0.47787274461E+02  0.20000015577E+02 0.  0.
        -12    1    3    3    0    0 -0.22487355626E+02  0.27961043607E+01 -0.37015180868E+02  0.43400725539E+02  0.00000000000E+00 0.  1.
         11    1    4    4    0    0  0.52528405949E+01 -0.64957984932E+01  0.19452886181E+02  0.21170793877E+02  0.51100000000E-03 0. -1.
        -11    1    4    4    0    0  0.55398863671E+01 -0.16486903102E+00  0.48847934520E+00  0.55638237831E+01  0.51100000000E-03 0.  1.
         12    1    4    4    0    0  0.11694628664E+02  0.38645631635E+01  0.17073815342E+02  0.21052656801E+02  0.00000000000E+00 0. -1.
</event>
<event>
 8    1  0.6019723E-011  0.9118800E+02  0.7816164E-02  0.1184000E+00
        -11   -1    0    0    0    0  0.00000000000E+00  0.00000000000E+00  0.45593999997E+02  0.45594000000E+02  0.51100000000E-03 0. -1.
         11   -1    0    0    0    0 -0.00000000000E+00 -0.00000000000E+00 -0.45593999997E+02  0.45594000000E+02  0.51100000000E-03 0.  1.
         23    2    1    2    0    0  0.00000000000E+00 -0.11102230246E-14  0.00000000000E+00  0.91188000000E+02  0.91188000000E+02 0.  0.
    9900012    2    3    3    0    0 -0.21660889980E+02  0.11906442118E+01  0.37590046175E+02  0.47787270055E+02  0.19999995487E+02 0.  0.
        -12    1    3    3    0    0  0.21660889980E+02 -0.11906442118E+01 -0.37590046175E+02  0.43400729945E+02  0.00000000000E+00 0.  1.
         11    1    4    4    0    0 -0.11927682761E+02  0.38373351748E+01  0.16992851678E+02  0.21112834146E+02  0.51100000000E-03 0. -1.
        -11    1    4    4    0    0 -0.28955081741E+01 -0.54749245451E+01  0.17657774932E+02  0.18712449924E+02  0.51100000000E-03 0.  1.
        -12    1    4    4    0    0 -0.68376990454E+01  0.28282335821E+01  0.29394195649E+01  0.79619859839E+01  0.00000000000E+00 0.  1.
</event>
<event>
 8    1  0.6019723E-011  0.9118800E+02  0.7816164E-02  0.1184000E+00
        -11   -1    0    0    0    0  0.00000000000E+00  0.00000000000E+00  0.45593999997E+02  0.45594000000E+02  0.51100000000E-03 0.  1.
         11   -1    0    0    0    0 -0.00000000000E+00 -0.00000000000E+00 -0.45593999997E+02  0.45594000000E+02  0.51100000000E-03 0. -1.
         23    2    1    2    0    0  0.00000000000E+00 -0.35527136788E-14 -0.71054273576E-14  0.91188000000E+02  0.91188000000E+02 0.  0.
    9900012    2    3    3    0    0 -0.13401029383E+02  0.18506682888E+02  0.36899029774E+02  0.47787270763E+02  0.19999998716E+02 0.  0.
        -12    1    3    3    0    0  0.13401029383E+02 -0.18506682888E+02 -0.36899029774E+02  0.43400729237E+02  0.00000000000E+00 0.  1.
         11    1    4    4    0    0 -0.10567458180E+02  0.10079247490E+02  0.34882204049E+02  0.37815744894E+02  0.51100000000E-03 0. -1.
        -11    1    4    4    0    0 -0.19764635905E+00  0.56802167878E+01  0.44765827070E-01  0.56838306696E+01  0.51100000000E-03 0.  1.
        -12    1    4    4    0    0 -0.26359248440E+01  0.27472186105E+01  0.19720598982E+01  0.42876951989E+01  0.00000000000E+00 0.  1.
</event>
<event>
 8    1  0.6019723E-011  0.9118800E+02  0.7816164E-02  0.1184000E+00
        -11   -1    0    0    0    0  0.00000000000E+00  0.00000000000E+00  0.45593999997E+02  0.45594000000E+02  0.51100000000E-03 0. -1.
         11   -1    0    0    0    0 -0.00000000000E+00 -0.00000000000E+00 -0.45593999997E+02  0.45594000000E+02  0.51100000000E-03 0.  1.
         23    2    1    2    0    0  0.00000000000E+00  0.00000000000E+00  0.00000000000E+00  0.91188000000E+02  0.91188000000E+02 0.  0.
    9900012    2    3    3    0    0  0.22112149474E+02  0.34523299393E+02 -0.14241412216E+02  0.47787272157E+02  0.20000005074E+02 0.  0.
         12    1    3    3    0    0 -0.22112149474E+02 -0.34523299393E+02  0.14241412216E+02  0.43400727843E+02  0.00000000000E+00 0. -1.
         11    1    4    4    0    0 -0.17639816215E+01 -0.47153396307E+00  0.23451700434E+00  0.18409165994E+01  0.51100000000E-03 0. -1.
        -11    1    4    4    0    0  0.12062869119E+02  0.15601558483E+02 -0.12045278543E+02  0.23108660150E+02  0.51100000000E-03 0.  1.
        -12    1    4    4    0    0  0.11813261977E+02  0.19393274873E+02 -0.24306506778E+01  0.22837695408E+02  0.00000000000E+00 0.  1.
</event>
<event>
 8    1  0.6019723E-011  0.9118800E+02  0.7816164E-02  0.1184000E+00
        -11   -1    0    0    0    0  0.00000000000E+00  0.00000000000E+00  0.45593999997E+02  0.45594000000E+02  0.51100000000E-03 0. -1.
         11   -1    0    0    0    0 -0.00000000000E+00 -0.00000000000E+00 -0.45593999997E+02  0.45594000000E+02  0.51100000000E-03 0.  1.
         23    2    1    2    0    0  0.00000000000E+00 -0.88817841970E-15 -0.35527136788E-14  0.91188000000E+02  0.91188000000E+02 0.  0.
    9900012    2    3    3    0    0  0.35480205837E+02 -0.31887793060E+01 -0.24791328395E+02  0.47787270937E+02  0.19999999508E+02 0.  0.
         12    1    3    3    0    0 -0.35480205837E+02  0.31887793060E+01  0.24791328395E+02  0.43400729063E+02  0.00000000000E+00 0. -1.
         11    1    4    4    0    0  0.12205144991E+01 -0.17187020422E+01  0.20042245059E+01  0.29086953233E+01  0.51100000000E-03 0. -1.
        -11    1    4    4    0    0  0.17891185323E+02  0.45348241594E+01 -0.12032690362E+02  0.22032811441E+02  0.51100000000E-03 0.  1.
        -12    1    4    4    0    0  0.16368506015E+02 -0.60049014231E+01 -0.14762862539E+02  0.22845764172E+02  0.00000000000E+00 0.  1.
</event>
<event>
 8    1  0.6019723E-011  0.9118800E+02  0.7816164E-02  0.1184000E+00
        -11   -1    0    0    0    0  0.00000000000E+00  0.00000000000E+00  0.45593999997E+02  0.45594000000E+02  0.51100000000E-03 0. -1.
         11   -1    0    0    0    0 -0.00000000000E+00 -0.00000000000E+00 -0.45593999997E+02  0.45594000000E+02  0.51100000000E-03 0.  1.
         23    2    1    2    0    0 -0.17763568394E-14  0.00000000000E+00 -0.44408920985E-15  0.91188000000E+02  0.91188000000E+02 0.  0.
    9900012    2    3    3    0    0 -0.11874111812E+02  0.41645801964E+02  0.28732955944E+01  0.47787272124E+02  0.20000004923E+02 0.  0.
        -12    1    3    3    0    0  0.11874111812E+02 -0.41645801964E+02 -0.28732955944E+01  0.43400727876E+02  0.00000000000E+00 0.  1.
         11    1    4    4    0    0 -0.19656268082E+01  0.41281112463E+01  0.66986641968E+01  0.81103078544E+01  0.51100000000E-03 0. -1.
        -11    1    4    4    0    0 -0.77011983313E+01  0.26986849780E+02 -0.60032413158E+01  0.28699084016E+02  0.51100000000E-03 0.  1.
         12    1    4    4    0    0 -0.22072866721E+01  0.10530840938E+02  0.21778727134E+01  0.10977880254E+02  0.00000000000E+00 0. -1.
</event>
<event>
 8    1  0.6019723E-011  0.9118800E+02  0.7816164E-02  0.1184000E+00
        -11   -1    0    0    0    0  0.00000000000E+00  0.00000000000E+00  0.45593999997E+02  0.45594000000E+02  0.51100000000E-03 0. -1.
         11   -1    0    0    0    0 -0.00000000000E+00 -0.00000000000E+00 -0.45593999997E+02  0.45594000000E+02  0.51100000000E-03 0.  1.
         23    2    1    2    0    0  0.00000000000E+00 -0.35527136788E-14  0.00000000000E+00  0.91188000000E+02  0.91188000000E+02 0.  0.
    9900012    2    3    3    0    0 -0.11555845877E+02  0.20560576217E+02 -0.36432794089E+02  0.47787270128E+02  0.19999995822E+02 0.  0.
         12    1    3    3    0    0  0.11555845877E+02 -0.20560576217E+02  0.36432794089E+02  0.43400729872E+02  0.00000000000E+00 0. -1.
         11    1    4    4    0    0 -0.36809769089E+01 -0.14925078463E+01 -0.14771929562E+02  0.15296636033E+02  0.51100000000E-03 0. -1.
        -11    1    4    4    0    0 -0.40996432595E+01  0.17616457275E+02 -0.18458287873E+02  0.25842891348E+02  0.51100000000E-03 0.  1.
         12    1    4    4    0    0 -0.37752257086E+01  0.44366267886E+01 -0.32025766537E+01  0.66477427474E+01  0.00000000000E+00 0. -1.
</event>
<event>
 8    1  0.6019723E-011  0.9118800E+02  0.7816164E-02  0.1184000E+00
        -11   -1    0    0    0    0  0.00000000000E+00  0.00000000000E+00  0.45593999997E+02  0.45594000000E+02  0.51100000000E-03 0. -1.
         11   -1    0    0    0    0 -0.00000000000E+00 -0.00000000000E+00 -0.45593999997E+02  0.45594000000E+02  0.51100000000E-03 0.  1.
         23    2    1    2    0    0  0.35527136788E-14  0.00000000000E+00  0.00000000000E+00  0.91188000000E+02  0.91188000000E+02 0.  0.
    9900012    2    3    3    0    0  0.25537989171E+02 -0.30109773961E+02 -0.18023232945E+02  0.47787259169E+02  0.19999945854E+02 0.  0.
         12    1    3    3    0    0 -0.25537989171E+02  0.30109773961E+02  0.18023232945E+02  0.43400740831E+02  0.00000000000E+00 0. -1.
         11    1    4    4    0    0  0.45510349009E+01 -0.68073203124E+01  0.26451917407E+01  0.86051477681E+01  0.51100000000E-03 0. -1.
        -11    1    4    4    0    0  0.22133348459E+02 -0.22423439023E+02 -0.18381262366E+02  0.36476931588E+02  0.51100000000E-03 0.  1.
        -12    1    4    4    0    0 -0.11463941881E+01 -0.87901462584E+00 -0.22871623188E+01  0.27051798128E+01  0.00000000000E+00 0.  1.
</event>
<event>
 8    1  0.6019723E-011  0.9118800E+02  0.7816164E-02  0.1184000E+00
        -11   -1    0    0    0    0  0.00000000000E+00  0.00000000000E+00  0.45593999997E+02  0.45594000000E+02  0.51100000000E-03 0. -1.
         11   -1    0    0    0    0 -0.00000000000E+00 -0.00000000000E+00 -0.45593999997E+02  0.45594000000E+02  0.51100000000E-03 0.  1.
         23    2    1    2    0    0  0.35527136788E-14  0.00000000000E+00  0.00000000000E+00  0.91188000000E+02  0.91188000000E+02 0.  0.
    9900012    2    3    3    0    0  0.23106428578E+02 -0.36655147065E+02  0.24731654331E+01  0.47787269646E+02  0.19999993625E+02 0.  0.
        -12    1    3    3    0    0 -0.23106428578E+02  0.36655147065E+02 -0.24731654331E+01  0.43400730354E+02  0.00000000000E+00 0.  1.
         11    1    4    4    0    0  0.18201337335E+02 -0.24062399256E+02  0.78735579919E+01  0.31181415209E+02  0.51100000000E-03 0. -1.
        -11    1    4    4    0    0  0.20129138173E+01 -0.15524454480E+01 -0.44863403090E+01  0.51564676412E+01  0.51100000000E-03 0.  1.
        -12    1    4    4    0    0  0.28921774256E+01 -0.11040302361E+02 -0.91405224983E+00  0.11449386796E+02  0.00000000000E+00 0.  1.
</event>
<event>
 8    1  0.6019723E-011  0.9118800E+02  0.7816164E-02  0.1184000E+00
        -11   -1    0    0    0    0  0.00000000000E+00  0.00000000000E+00  0.45593999997E+02  0.45594000000E+02  0.51100000000E-03 0. -1.
         11   -1    0    0    0    0 -0.00000000000E+00 -0.00000000000E+00 -0.45593999997E+02  0.45594000000E+02  0.51100000000E-03 0.  1.
         23    2    1    2    0    0 -0.35527136788E-14  0.44408920985E-15  0.00000000000E+00  0.91188000000E+02  0.91188000000E+02 0.  0.
    9900012    2    3    3    0    0  0.22879613003E+02  0.24867363182E+01 -0.36796246142E+02  0.47787259467E+02  0.19999947213E+02 0.  0.
         12    1    3    3    0    0 -0.22879613003E+02 -0.24867363182E+01  0.36796246142E+02  0.43400740533E+02  0.00000000000E+00 0. -1.
         11    1    4    4    0    0  0.35545465261E+01 -0.50398532879E+01 -0.12153523114E+02  0.13628758069E+02  0.51100000000E-03 0. -1.
        -11    1    4    4    0    0  0.19816539770E+02  0.84806230702E+01 -0.25016734345E+02  0.33022011048E+02  0.51100000000E-03 0.  1.
         12    1    4    4    0    0 -0.49147329347E+00 -0.95403346418E+00  0.37401131691E+00  0.11364903493E+01  0.00000000000E+00 0. -1.
</event>
<event>
 8    1  0.6019723E-011  0.9118800E+02  0.7816164E-02  0.1184000E+00
        -11   -1    0    0    0    0  0.00000000000E+00  0.00000000000E+00  0.45593999997E+02  0.45594000000E+02  0.51100000000E-03 0. -1.
         11   -1    0    0    0    0 -0.00000000000E+00 -0.00000000000E+00 -0.45593999997E+02  0.45594000000E+02  0.51100000000E-03 0.  1.
         23    2    1    2    0    0  0.00000000000E+00  0.00000000000E+00  0.00000000000E+00  0.91188000000E+02  0.91188000000E+02 0.  0.
    9900012    2    3    3    0    0  0.26945206009E+02 -0.34144366566E+01 -0.33851448524E+02  0.47787273373E+02  0.20000010619E+02 0.  0.
         12    1    3    3    0    0 -0.26945206009E+02  0.34144366566E+01  0.33851448524E+02  0.43400726627E+02  0.00000000000E+00 0. -1.
         11    1    4    4    0    0 -0.18530385902E+01 -0.84200804854E+00 -0.91765152817E+01  0.93995299110E+01  0.51100000000E-03 0. -1.
        -11    1    4    4    0    0  0.99230707991E+01 -0.18906919872E+00 -0.53736961799E+01  0.11286261212E+02  0.51100000000E-03 0.  1.
         12    1    4    4    0    0  0.18875173800E+02 -0.23833594093E+01 -0.19301237062E+02  0.27101482251E+02  0.00000000000E+00 0. -1.
</event>
<event>
 8    1  0.6019723E-011  0.9118800E+02  0.7816164E-02  0.1184000E+00
        -11   -1    0    0    0    0  0.00000000000E+00  0.00000000000E+00  0.45593999997E+02  0.45594000000E+02  0.51100000000E-03 0. -1.
         11   -1    0    0    0    0 -0.00000000000E+00 -0.00000000000E+00 -0.45593999997E+02  0.45594000000E+02  0.51100000000E-03 0.  1.
         23    2    1    2    0    0  0.00000000000E+00  0.17763568394E-14  0.00000000000E+00  0.91188000000E+02  0.91188000000E+02 0.  0.
    9900012    2    3    3    0    0 -0.30514681951E+02 -0.14101356086E+02 -0.27452312912E+02  0.47787267953E+02  0.19999985905E+02 0.  0.
         12    1    3    3    0    0  0.30514681951E+02  0.14101356086E+02  0.27452312912E+02  0.43400732047E+02  0.00000000000E+00 0. -1.
         11    1    4    4    0    0  0.13216260234E+01 -0.20134695487E+00 -0.14146928874E+01  0.19464306227E+01  0.51100000000E-03 0. -1.
        -11    1    4    4    0    0 -0.19219348540E+02 -0.67286136039E+00 -0.10888216516E+02  0.22099533024E+02  0.51100000000E-03 0.  1.
        -12    1    4    4    0    0 -0.12616959434E+02 -0.13227147771E+02 -0.15149403508E+02  0.23741304306E+02  0.00000000000E+00 0.  1.
</event>
<event>
 8    1  0.6019723E-011  0.9118800E+02  0.7816164E-02  0.1184000E+00
        -11   -1    0    0    0    0  0.00000000000E+00  0.00000000000E+00  0.45593999997E+02  0.45594000000E+02  0.51100000000E-03 0. -1.
         11   -1    0    0    0    0 -0.00000000000E+00 -0.00000000000E+00 -0.45593999997E+02  0.45594000000E+02  0.51100000000E-03 0.  1.
         23    2    1    2    0    0  0.00000000000E+00  0.00000000000E+00 -0.35527136788E-14  0.91188000000E+02  0.91188000000E+02 0.  0.
    9900012    2    3    3    0    0 -0.74694887510E+01 -0.35222913807E+02 -0.24231721859E+02  0.47787271164E+02  0.20000000545E+02 0.  0.
         12    1    3    3    0    0  0.74694887510E+01  0.35222913807E+02  0.24231721859E+02  0.43400728836E+02  0.00000000000E+00 0. -1.
         11    1    4    4    0    0  0.39574758850E+01 -0.83333029216E+01  0.47594616592E+00  0.92375363587E+01  0.51100000000E-03 0. -1.
        -11    1    4    4    0    0 -0.43543607714E+01 -0.67776619026E+01 -0.89329536511E+01  0.12028915986E+02  0.51100000000E-03 0.  1.
         12    1    4    4    0    0 -0.70726038646E+01 -0.20111948983E+02 -0.15774714374E+02  0.26520818820E+02  0.00000000000E+00 0. -1.
</event>
<event>
 8    1  0.6019723E-011  0.9118800E+02  0.7816164E-02  0.1184000E+00
        -11   -1    0    0    0    0  0.00000000000E+00  0.00000000000E+00  0.45593999997E+02  0.45594000000E+02  0.51100000000E-03 0. -1.
         11   -1    0    0    0    0 -0.00000000000E+00 -0.00000000000E+00 -0.45593999997E+02  0.45594000000E+02  0.51100000000E-03 0.  1.
         23    2    1    2    0    0  0.00000000000E+00  0.35527136788E-14  0.00000000000E+00  0.91188000000E+02  0.91188000000E+02 0.  0.
    9900012    2    3    3    0    0  0.16860229966E+02  0.25899155671E+02 -0.30472761115E+02  0.47787276631E+02  0.20000025473E+02 0.  0.
         12    1    3    3    0    0 -0.16860229966E+02 -0.25899155671E+02  0.30472761115E+02  0.43400723369E+02  0.00000000000E+00 0. -1.
         11    1    4    4    0    0 -0.24580533081E+01  0.44083583637E+01 -0.23285285568E+01  0.55585695128E+01  0.51100000000E-03 0. -1.
        -11    1    4    4    0    0  0.10511546565E+02  0.29464650312E+01 -0.10752676165E+02  0.15322999456E+02  0.51100000000E-03 0.  1.
        -12    1    4    4    0    0  0.88067367086E+01  0.18544332276E+02 -0.17391556393E+02  0.26905707662E+02  0.00000000000E+00 0.  1.
</event>
<event>
 8    1  0.6019723E-011  0.9118800E+02  0.7816164E-02  0.1184000E+00
        -11   -1    0    0    0    0  0.00000000000E+00  0.00000000000E+00  0.45593999997E+02  0.45594000000E+02  0.51100000000E-03 0. -1.
         11   -1    0    0    0    0 -0.00000000000E+00 -0.00000000000E+00 -0.45593999997E+02  0.45594000000E+02  0.51100000000E-03 0.  1.
         23    2    1    2    0    0  0.00000000000E+00  0.00000000000E+00  0.00000000000E+00  0.91188000000E+02  0.91188000000E+02 0.  0.
    9900012    2    3    3    0    0 -0.29194947118E+02 -0.24739028706E+02 -0.20475811424E+02  0.47787270375E+02  0.19999996946E+02 0.  0.
         12    1    3    3    0    0  0.29194947118E+02  0.24739028706E+02  0.20475811424E+02  0.43400729625E+02  0.00000000000E+00 0. -1.
         11    1    4    4    0    0 -0.29453664204E+01 -0.75955854558E+01 -0.99804145843E+01  0.12883197480E+02  0.51100000000E-03 0. -1.
        -11    1    4    4    0    0 -0.33821007696E+01 -0.63763962301E+01 -0.56549167006E+01  0.91692484780E+01  0.51100000000E-03 0.  1.
         12    1    4    4    0    0 -0.22867479928E+02 -0.10767047020E+02 -0.48404801393E+01  0.25734824417E+02  0.00000000000E+00 0. -1.
</event>
<event>
 8    1  0.6019723E-011  0.9118800E+02  0.7816164E-02  0.1184000E+00
        -11   -1    0    0    0    0  0.00000000000E+00  0.00000000000E+00  0.45593999997E+02  0.45594000000E+02  0.51100000000E-03 0. -1.
         11   -1    0    0    0    0 -0.00000000000E+00 -0.00000000000E+00 -0.45593999997E+02  0.45594000000E+02  0.51100000000E-03 0.  1.
         23    2    1    2    0    0 -0.35527136788E-14  0.35527136788E-14  0.00000000000E+00  0.91188000000E+02  0.91188000000E+02 0.  0.
    9900012    2    3    3    0    0 -0.17793514729E+02  0.11400258523E+02  0.37908411323E+02  0.47787277542E+02  0.20000029626E+02 0.  0.
        -12    1    3    3    0    0  0.17793514729E+02 -0.11400258523E+02 -0.37908411323E+02  0.43400722458E+02  0.00000000000E+00 0.  1.
         11    1    4    4    0    0 -0.10864676510E+02  0.48141003424E+01  0.33204173104E+02  0.35266611257E+02  0.51100000000E-03 0. -1.
        -11    1    4    4    0    0 -0.79127198255E+01  0.61318599982E+01  0.52539420028E+01  0.11305518516E+02  0.51100000000E-03 0.  1.
         12    1    4    4    0    0  0.98388160646E+00  0.45429818219E+00 -0.54970378311E+00  0.12151477700E+01  0.00000000000E+00 0. -1.
</event>
<event>
 8    1  0.6019723E-011  0.9118800E+02  0.7816164E-02  0.1184000E+00
        -11   -1    0    0    0    0  0.00000000000E+00  0.00000000000E+00  0.45593999997E+02  0.45594000000E+02  0.51100000000E-03 0. -1.
         11   -1    0    0    0    0 -0.00000000000E+00 -0.00000000000E+00 -0.45593999997E+02  0.45594000000E+02  0.51100000000E-03 0.  1.
         23    2    1    2    0    0  0.35527136788E-14  0.71054273576E-14 -0.35527136788E-14  0.91188000000E+02  0.91188000000E+02 0.  0.
    9900012    2    3    3    0    0  0.17187554149E+02  0.34789702568E+02  0.19439331068E+02  0.47787274029E+02  0.20000013609E+02 0.  0.
        -12    1    3    3    0    0 -0.17187554149E+02 -0.34789702568E+02 -0.19439331068E+02  0.43400725971E+02  0.00000000000E+00 0.  1.
         11    1    4    4    0    0 -0.19932895305E+01  0.60809241447E+00  0.33740583542E+01  0.39657596467E+01  0.51100000000E-03 0. -1.
        -11    1    4    4    0    0  0.11573531957E+01 -0.73376177867E+00 -0.24382644500E-02  0.13703572431E+01  0.51100000000E-03 0.  1.
         12    1    4    4    0    0  0.18023490484E+02  0.34915371933E+02  0.16067710978E+02  0.42451157139E+02  0.00000000000E+00 0. -1.
</event>
<event>
 8    1  0.6019723E-011  0.9118800E+02  0.7816164E-02  0.1184000E+00
        -11   -1    0    0    0    0  0.00000000000E+00  0.00000000000E+00  0.45593999997E+02  0.45594000000E+02  0.51100000000E-03 0.  1.
         11   -1    0    0    0    0 -0.00000000000E+00 -0.00000000000E+00 -0.45593999997E+02  0.45594000000E+02  0.51100000000E-03 0. -1.
         23    2    1    2    0    0  0.00000000000E+00  0.00000000000E+00 -0.17763568394E-14  0.91188000000E+02  0.91188000000E+02 0.  0.
    9900012    2    3    3    0    0 -0.22589087714E+02  0.34790830613E+02 -0.12765366994E+02  0.47787269903E+02  0.19999994794E+02 0.  0.
         12    1    3    3    0    0  0.22589087714E+02 -0.34790830613E+02  0.12765366994E+02  0.43400730097E+02  0.00000000000E+00 0. -1.
         11    1    4    4    0    0 -0.10028826129E+02  0.87516700592E+01  0.37832137570E+01  0.13837694495E+02  0.51100000000E-03 0. -1.
        -11    1    4    4    0    0 -0.29983940090E+00  0.44453857367E+01 -0.74984332696E+00  0.45181437882E+01  0.51100000000E-03 0.  1.
         12    1    4    4    0    0 -0.12260422185E+02  0.21593774817E+02 -0.15798737424E+02  0.29431431620E+02  0.00000000000E+00 0. -1.
</event>
<event>
 8    1  0.6019723E-011  0.9118800E+02  0.7816164E-02  0.1184000E+00
        -11   -1    0    0    0    0  0.00000000000E+00  0.00000000000E+00  0.45593999997E+02  0.45594000000E+02  0.51100000000E-03 0. -1.
         11   -1    0    0    0    0 -0.00000000000E+00 -0.00000000000E+00 -0.45593999997E+02  0.45594000000E+02  0.51100000000E-03 0.  1.
         23    2    1    2    0    0  0.00000000000E+00 -0.17763568394E-14  0.00000000000E+00  0.91188000000E+02  0.91188000000E+02 0.  0.
    9900012    2    3    3    0    0 -0.26203594686E+01 -0.13983713563E+02  0.41002608949E+02  0.47787257272E+02  0.19999937205E+02 0.  0.
        -12    1    3    3    0    0  0.26203594686E+01  0.13983713563E+02 -0.41002608949E+02  0.43400742728E+02  0.00000000000E+00 0.  1.
         11    1    4    4    0    0 -0.32385029738E+01 -0.95660282172E+01  0.26966700879E+02  0.28795828760E+02  0.51100000000E-03 0.  1.
        -11    1    4    4    0    0  0.10607478506E+00 -0.64046853807E+01  0.15296270111E+02  0.16583338815E+02  0.51100000000E-03 0. -1.
         12    1    4    4    0    0  0.51206872005E+00  0.19870000352E+01 -0.12603620417E+01  0.24080896973E+01  0.00000000000E+00 0. -1.
</event>
<event>
 8    1  0.6019723E-011  0.9118800E+02  0.7816164E-02  0.1184000E+00
        -11   -1    0    0    0    0  0.00000000000E+00  0.00000000000E+00  0.45593999997E+02  0.45594000000E+02  0.51100000000E-03 0. -1.
         11   -1    0    0    0    0 -0.00000000000E+00 -0.00000000000E+00 -0.45593999997E+02  0.45594000000E+02  0.51100000000E-03 0.  1.
         23    2    1    2    0    0  0.17763568394E-14 -0.35527136788E-14 -0.71054273576E-14  0.91188000000E+02  0.91188000000E+02 0.  0.
    9900012    2    3    3    0    0  0.12749600064E+02 -0.26136261032E+02 -0.32217495809E+02  0.47787268684E+02  0.19999989238E+02 0.  0.
         12    1    3    3    0    0 -0.12749600064E+02  0.26136261032E+02  0.32217495809E+02  0.43400731316E+02  0.00000000000E+00 0. -1.
         11    1    4    4    0    0 -0.16134288440E+01 -0.53732475096E+01 -0.14233242121E+02  0.15299023595E+02  0.51100000000E-03 0. -1.
        -11    1    4    4    0    0  0.11471643553E+01 -0.73156740044E+01 -0.88449367592E+01  0.11535509470E+02  0.51100000000E-03 0.  1.
         12    1    4    4    0    0  0.13215864552E+02 -0.13447339518E+02 -0.91393169294E+01  0.20952735619E+02  0.00000000000E+00 0. -1.
</event>
<event>
 8    1  0.6019723E-011  0.9118800E+02  0.7816164E-02  0.1184000E+00
        -11   -1    0    0    0    0  0.00000000000E+00  0.00000000000E+00  0.45593999997E+02  0.45594000000E+02  0.51100000000E-03 0. -1.
         11   -1    0    0    0    0 -0.00000000000E+00 -0.00000000000E+00 -0.45593999997E+02  0.45594000000E+02  0.51100000000E-03 0.  1.
         23    2    1    2    0    0  0.00000000000E+00  0.17763568394E-14  0.00000000000E+00  0.91188000000E+02  0.91188000000E+02 0.  0.
    9900012    2    3    3    0    0  0.24487451431E+02  0.11213088904E+02 -0.34033144458E+02  0.47787267724E+02  0.19999984862E+02 0.  0.
         12    1    3    3    0    0 -0.24487451431E+02 -0.11213088904E+02  0.34033144458E+02  0.43400732276E+02  0.00000000000E+00 0. -1.
         11    1    4    4    0    0 -0.10147310014E+01  0.10939494474E+01 -0.15924062492E+01  0.21822379161E+01  0.51100000000E-03 0. -1.
        -11    1    4    4    0    0  0.10378216362E+02 -0.21851825630E+01 -0.44690514384E+01  0.11508901717E+02  0.51100000000E-03 0.  1.
        -12    1    4    4    0    0  0.15123966070E+02  0.12304322020E+02 -0.27971686770E+02  0.34096128092E+02  0.00000000000E+00 0.  1.
</event>
<event>
 8    1  0.1320762E-010  0.9118800E+02  0.7816164E-02  0.1184000E+00
        -11   -1    0    0    0    0  0.00000000000E+00  0.00000000000E+00  0.45593999997E+02  0.45594000000E+02  0.51100000000E-03 0. -1.
         11   -1    0    0    0    0 -0.00000000000E+00 -0.00000000000E+00 -0.45593999997E+02  0.45594000000E+02  0.51100000000E-03 0.  1.
         23    2    1    2    0    0  0.00000000000E+00  0.00000000000E+00  0.00000000000E+00  0.91188000000E+02  0.91188000000E+02 0.  0.
    9900012    2    3    3    0    0 -0.26809531353E+02  0.16036194307E+02 -0.30128268515E+02  0.47787273475E+02  0.20000011080E+02 0.  0.
         12    1    3    3    0    0  0.26809531353E+02 -0.16036194307E+02  0.30128268515E+02  0.43400726525E+02  0.00000000000E+00 0. -1.
         11    1    4    4    0    0 -0.70967476675E+01 -0.33157595167E+01 -0.74380675599E+01  0.10801987684E+02  0.51100000000E-03 0. -1.
        -11    1    4    4    0    0 -0.10388391839E+02  0.41310829181E+01 -0.10753122172E+02  0.15511742900E+02  0.51100000000E-03 0.  1.
         12    1    4    4    0    0 -0.93243918467E+01  0.15220870905E+02 -0.11937078783E+02  0.21473542891E+02  0.00000000000E+00 0. -1.
</event>
<event>
 8    1  0.6019723E-011  0.9118800E+02  0.7816164E-02  0.1184000E+00
        -11   -1    0    0    0    0  0.00000000000E+00  0.00000000000E+00  0.45593999997E+02  0.45594000000E+02  0.51100000000E-03 0. -1.
         11   -1    0    0    0    0 -0.00000000000E+00 -0.00000000000E+00 -0.45593999997E+02  0.45594000000E+02  0.51100000000E-03 0.  1.
         23    2    1    2    0    0  0.00000000000E+00 -0.71054273576E-14  0.00000000000E+00  0.91188000000E+02  0.91188000000E+02 0.  0.
    9900012    2    3    3    0    0  0.47137782297E+01  0.37453675645E+02  0.21415548164E+02  0.47787271577E+02  0.20000002427E+02 0.  0.
        -12    1    3    3    0    0 -0.47137782297E+01 -0.37453675645E+02 -0.21415548164E+02  0.43400728423E+02  0.00000000000E+00 0.  1.
         11    1    4    4    0    0  0.16974612937E+01  0.16460207245E+02  0.67448189924E+01  0.17869313946E+02  0.51100000000E-03 0. -1.
        -11    1    4    4    0    0 -0.69376789779E+00  0.11674326329E+01  0.88093121570E+01  0.89133716286E+01  0.51100000000E-03 0.  1.
        -12    1    4    4    0    0  0.37100848338E+01  0.19826035767E+02  0.58614170142E+01  0.21004586003E+02  0.00000000000E+00 0.  1.
</event>
<event>
 8    1  0.6019723E-011  0.9118800E+02  0.7816164E-02  0.1184000E+00
        -11   -1    0    0    0    0  0.00000000000E+00  0.00000000000E+00  0.45593999997E+02  0.45594000000E+02  0.51100000000E-03 0. -1.
         11   -1    0    0    0    0 -0.00000000000E+00 -0.00000000000E+00 -0.45593999997E+02  0.45594000000E+02  0.51100000000E-03 0.  1.
         23    2    1    2    0    0  0.00000000000E+00  0.00000000000E+00  0.00000000000E+00  0.91188000000E+02  0.91188000000E+02 0.  0.
    9900012    2    3    3    0    0 -0.83603919438E+01  0.17398727268E+02  0.38871747457E+02  0.47787255602E+02  0.19999929591E+02 0.  0.
        -12    1    3    3    0    0  0.83603919438E+01 -0.17398727268E+02 -0.38871747457E+02  0.43400744398E+02  0.00000000000E+00 0.  1.
         11    1    4    4    0    0  0.17788236833E+01 -0.20272287005E+01  0.13015301961E+02  0.13291800303E+02  0.51100000000E-03 0. -1.
        -11    1    4    4    0    0  0.50200748536E+00  0.53008764771E+00 -0.23769665769E-01  0.73045854622E+00  0.51100000000E-03 0.  1.
         12    1    4    4    0    0 -0.10641223113E+02  0.18895868320E+02  0.25880215162E+02  0.33764996753E+02  0.00000000000E+00 0. -1.
</event>
<event>
 8    1  0.6019723E-011  0.9118800E+02  0.7816164E-02  0.1184000E+00
        -11   -1    0    0    0    0  0.00000000000E+00  0.00000000000E+00  0.45593999997E+02  0.45594000000E+02  0.51100000000E-03 0. -1.
         11   -1    0    0    0    0 -0.00000000000E+00 -0.00000000000E+00 -0.45593999997E+02  0.45594000000E+02  0.51100000000E-03 0.  1.
         23    2    1    2    0    0  0.00000000000E+00  0.17763568394E-14  0.00000000000E+00  0.91188000000E+02  0.91188000000E+02 0.  0.
    9900012    2    3    3    0    0 -0.27399698658E+02  0.13868787759E+02 -0.30668167198E+02  0.47787271438E+02  0.20000001795E+02 0.  0.
         12    1    3    3    0    0  0.27399698658E+02 -0.13868787759E+02  0.30668167198E+02  0.43400728562E+02  0.00000000000E+00 0. -1.
         11    1    4    4    0    0 -0.18130879790E+02  0.58813023331E+01 -0.87132793630E+01  0.20958047538E+02  0.51100000000E-03 0. -1.
        -11    1    4    4    0    0  0.19310434400E+00  0.47629549087E+01 -0.37682524215E+01  0.60764097396E+01  0.51100000000E-03 0.  1.
         12    1    4    4    0    0 -0.94619232119E+01  0.32245305173E+01 -0.18186635413E+02  0.20752814160E+02  0.00000000000E+00 0. -1.
</event>
<event>
 8    1  0.6019723E-011  0.9118800E+02  0.7816164E-02  0.1184000E+00
        -11   -1    0    0    0    0  0.00000000000E+00  0.00000000000E+00  0.45593999997E+02  0.45594000000E+02  0.51100000000E-03 0. -1.
         11   -1    0    0    0    0 -0.00000000000E+00 -0.00000000000E+00 -0.45593999997E+02  0.45594000000E+02  0.51100000000E-03 0.  1.
         23    2    1    2    0    0  0.00000000000E+00  0.17763568394E-14 -0.35527136788E-14  0.91188000000E+02  0.91188000000E+02 0.  0.
    9900012    2    3    3    0    0  0.36054643399E+02  0.10048715972E+02  0.21970598662E+02  0.47787294834E+02  0.20000108466E+02 0.  0.
        -12    1    3    3    0    0 -0.36054643399E+02 -0.10048715972E+02 -0.21970598662E+02  0.43400705166E+02  0.00000000000E+00 0.  1.
         11    1    4    4    0    0  0.87883227691E+01  0.16922135258E+01  0.12643969145E+02  0.15490905710E+02  0.51100000000E-03 0. -1.
        -11    1    4    4    0    0  0.26783138522E+02  0.10384066421E+02  0.93588164236E+01  0.30211798848E+02  0.51100000000E-03 0.  1.
        -12    1    4    4    0    0  0.48318210836E+00 -0.20275639752E+01 -0.32186906115E-01  0.20845902764E+01  0.00000000000E+00 0.  1.
</event>
<event>
 8    1  0.6019723E-011  0.9118800E+02  0.7816164E-02  0.1184000E+00
        -11   -1    0    0    0    0  0.00000000000E+00  0.00000000000E+00  0.45593999997E+02  0.45594000000E+02  0.51100000000E-03 0. -1.
         11   -1    0    0    0    0 -0.00000000000E+00 -0.00000000000E+00 -0.45593999997E+02  0.45594000000E+02  0.51100000000E-03 0.  1.
         23    2    1    2    0    0  0.17763568394E-14  0.00000000000E+00 -0.71054273576E-14  0.91188000000E+02  0.91188000000E+02 0.  0.
    9900012    2    3    3    0    0 -0.15864983259E+02 -0.94722212731E+01  0.39270888018E+02  0.47787270567E+02  0.19999997821E+02 0.  0.
        -12    1    3    3    0    0  0.15864983259E+02  0.94722212731E+01 -0.39270888018E+02  0.43400729433E+02  0.00000000000E+00 0.  1.
         11    1    4    4    0    0 -0.13763414702E+01 -0.85559495118E+01  0.17395642005E+02  0.19434684174E+02  0.51100000000E-03 0. -1.
        -11    1    4    4    0    0 -0.14565024439E+02  0.23637681041E+01  0.17994854491E+02  0.23271057667E+02  0.51100000000E-03 0.  1.
         12    1    4    4    0    0  0.76382649957E-01 -0.32800398653E+01  0.38803915213E+01  0.50815287253E+01  0.00000000000E+00 0. -1.
</event>
<event>
 8    1  0.6019723E-011  0.9118800E+02  0.7816164E-02  0.1184000E+00
        -11   -1    0    0    0    0  0.00000000000E+00  0.00000000000E+00  0.45593999997E+02  0.45594000000E+02  0.51100000000E-03 0. -1.
         11   -1    0    0    0    0 -0.00000000000E+00 -0.00000000000E+00 -0.45593999997E+02  0.45594000000E+02  0.51100000000E-03 0.  1.
         23    2    1    2    0    0  0.00000000000E+00  0.00000000000E+00  0.71054273576E-14  0.91188000000E+02  0.91188000000E+02 0.  0.
    9900012    2    3    3    0    0  0.13288863684E+02  0.13999224051E+02 -0.38872239774E+02  0.47787271929E+02  0.20000004034E+02 0.  0.
         12    1    3    3    0    0 -0.13288863684E+02 -0.13999224051E+02  0.38872239774E+02  0.43400728071E+02  0.00000000000E+00 0. -1.
         11    1    4    4    0    0  0.50717529226E+00 -0.47873135466E+01 -0.48589799347E+01  0.68399769033E+01  0.51100000000E-03 0. -1.
        -11    1    4    4    0    0  0.46254304035E+01  0.84330145443E+01 -0.14276753729E+02  0.17214413671E+02  0.51100000000E-03 0.  1.
         12    1    4    4    0    0  0.81562579879E+01  0.10353523053E+02 -0.19736506110E+02  0.23732881355E+02  0.00000000000E+00 0. -1.
</event>
<event>
 8    1  0.6019723E-011  0.9118800E+02  0.7816164E-02  0.1184000E+00
        -11   -1    0    0    0    0  0.00000000000E+00  0.00000000000E+00  0.45593999997E+02  0.45594000000E+02  0.51100000000E-03 0.  1.
         11   -1    0    0    0    0 -0.00000000000E+00 -0.00000000000E+00 -0.45593999997E+02  0.45594000000E+02  0.51100000000E-03 0. -1.
         23    2    1    2    0    0 -0.35527136788E-14  0.00000000000E+00  0.00000000000E+00  0.91188000000E+02  0.91188000000E+02 0.  0.
    9900012    2    3    3    0    0  0.24940492548E+02 -0.28235535036E+02 -0.21548789701E+02  0.47787263314E+02  0.19999964753E+02 0.  0.
         12    1    3    3    0    0 -0.24940492548E+02  0.28235535036E+02  0.21548789701E+02  0.43400736686E+02  0.00000000000E+00 0. -1.
         11    1    4    4    0    0  0.20718171405E+02 -0.10280726139E+02 -0.10972311509E+02  0.25599366720E+02  0.51100000000E-03 0.  1.
        -11    1    4    4    0    0  0.52533992834E+01 -0.15424606133E+02 -0.10629510414E+02  0.19455157936E+02  0.51100000000E-03 0. -1.
         12    1    4    4    0    0 -0.10310781405E+01 -0.25302027640E+01  0.53032222672E-01  0.27327386584E+01  0.00000000000E+00 0. -1.
</event>
<event>
 8    1  0.6019723E-011  0.9118800E+02  0.7816164E-02  0.1184000E+00
        -11   -1    0    0    0    0  0.00000000000E+00  0.00000000000E+00  0.45593999997E+02  0.45594000000E+02  0.51100000000E-03 0. -1.
         11   -1    0    0    0    0 -0.00000000000E+00 -0.00000000000E+00 -0.45593999997E+02  0.45594000000E+02  0.51100000000E-03 0.  1.
         23    2    1    2    0    0 -0.44408920985E-15  0.00000000000E+00  0.35527136788E-14  0.91188000000E+02  0.91188000000E+02 0.  0.
    9900012    2    3    3    0    0 -0.36048203246E+01  0.30818885854E+02 -0.30345094402E+02  0.47787271790E+02  0.20000003401E+02 0.  0.
         12    1    3    3    0    0  0.36048203246E+01 -0.30818885854E+02  0.30345094402E+02  0.43400728210E+02  0.00000000000E+00 0. -1.
         11    1    4    4    0    0  0.44939743458E+01  0.88617668655E+01 -0.62640227225E+01  0.11745837489E+02  0.51100000000E-03 0. -1.
        -11    1    4    4    0    0 -0.79272377326E+01  0.14206003486E+02 -0.23060935312E+02  0.28221594052E+02  0.51100000000E-03 0.  1.
        -12    1    4    4    0    0 -0.17155693779E+00  0.77511155022E+01 -0.10201363677E+01  0.78198402490E+01  0.00000000000E+00 0.  1.
</event>
<event>
 8    1  0.6019723E-011  0.9118800E+02  0.7816164E-02  0.1184000E+00
        -11   -1    0    0    0    0  0.00000000000E+00  0.00000000000E+00  0.45593999997E+02  0.45594000000E+02  0.51100000000E-03 0. -1.
         11   -1    0    0    0    0 -0.00000000000E+00 -0.00000000000E+00 -0.45593999997E+02  0.45594000000E+02  0.51100000000E-03 0.  1.
         23    2    1    2    0    0  0.83266726847E-16  0.00000000000E+00  0.00000000000E+00  0.91188000000E+02  0.91188000000E+02 0.  0.
    9900012    2    3    3    0    0  0.17342042250E+00  0.52308270520E+01  0.43084006692E+02  0.47787271217E+02  0.20000000787E+02 0.  0.
        -12    1    3    3    0    0 -0.17342042250E+00 -0.52308270520E+01 -0.43084006692E+02  0.43400728783E+02  0.00000000000E+00 0.  1.
         11    1    4    4    0    0 -0.58356431842E+00 -0.48571487461E+01  0.11594514604E+02  0.12584323996E+02  0.51100000000E-03 0. -1.
        -11    1    4    4    0    0 -0.19171405496E+01  0.11940105049E+02  0.27596179526E+02  0.30129564570E+02  0.51100000000E-03 0.  1.
        -12    1    4    4    0    0  0.26741252905E+01 -0.18521292507E+01  0.38933125613E+01  0.50733826517E+01  0.00000000000E+00 0.  1.
</event>
<event>
 8    1  0.6019723E-011  0.9118800E+02  0.7816164E-02  0.1184000E+00
        -11   -1    0    0    0    0  0.00000000000E+00  0.00000000000E+00  0.45593999997E+02  0.45594000000E+02  0.51100000000E-03 0. -1.
         11   -1    0    0    0    0 -0.00000000000E+00 -0.00000000000E+00 -0.45593999997E+02  0.45594000000E+02  0.51100000000E-03 0.  1.
         23    2    1    2    0    0  0.00000000000E+00 -0.35527136788E-14 -0.35527136788E-14  0.91188000000E+02  0.91188000000E+02 0.  0.
    9900012    2    3    3    0    0 -0.24275986398E+02 -0.22816656764E+02 -0.27815481451E+02  0.47787258649E+02  0.19999943483E+02 0.  0.
         12    1    3    3    0    0  0.24275986398E+02  0.22816656764E+02  0.27815481451E+02  0.43400741351E+02  0.00000000000E+00 0. -1.
         11    1    4    4    0    0  0.11536213409E+01  0.22824252685E+01 -0.40774719540E+01  0.48131159451E+01  0.51100000000E-03 0. -1.
        -11    1    4    4    0    0 -0.10692406872E+02 -0.12268385105E+02 -0.11267113324E+02  0.19793652536E+02  0.51100000000E-03 0.  1.
         12    1    4    4    0    0 -0.14737200867E+02 -0.12830696927E+02 -0.12470896173E+02  0.23180490168E+02  0.00000000000E+00 0. -1.
</event>
<event>
 8    1  0.6019723E-011  0.9118800E+02  0.7816164E-02  0.1184000E+00
        -11   -1    0    0    0    0  0.00000000000E+00  0.00000000000E+00  0.45593999997E+02  0.45594000000E+02  0.51100000000E-03 0. -1.
         11   -1    0    0    0    0 -0.00000000000E+00 -0.00000000000E+00 -0.45593999997E+02  0.45594000000E+02  0.51100000000E-03 0.  1.
         23    2    1    2    0    0  0.00000000000E+00  0.00000000000E+00  0.00000000000E+00  0.91188000000E+02  0.91188000000E+02 0.  0.
    9900012    2    3    3    0    0  0.16099623003E+02 -0.71258711760E+01 -0.39669221809E+02  0.47787273510E+02  0.20000011243E+02 0.  0.
         12    1    3    3    0    0 -0.16099623003E+02  0.71258711760E+01  0.39669221809E+02  0.43400726490E+02  0.00000000000E+00 0. -1.
         11    1    4    4    0    0 -0.12887363616E+01 -0.27483885281E+01 -0.47789033099E+01  0.56614837294E+01  0.51100000000E-03 0. -1.
        -11    1    4    4    0    0  0.10219763909E+02  0.18737072824E+01 -0.66726281215E+01  0.12348211192E+02  0.51100000000E-03 0.  1.
        -12    1    4    4    0    0  0.71685954560E+01 -0.62511899303E+01 -0.28217690378E+02  0.29777578589E+02  0.00000000000E+00 0.  1.
</event>
<event>
 8    1  0.6019723E-011  0.9118800E+02  0.7816164E-02  0.1184000E+00
        -11   -1    0    0    0    0  0.00000000000E+00  0.00000000000E+00  0.45593999997E+02  0.45594000000E+02  0.51100000000E-03 0. -1.
         11   -1    0    0    0    0 -0.00000000000E+00 -0.00000000000E+00 -0.45593999997E+02  0.45594000000E+02  0.51100000000E-03 0.  1.
         23    2    1    2    0    0 -0.71054273576E-14  0.13322676296E-14  0.00000000000E+00  0.91188000000E+02  0.91188000000E+02 0.  0.
    9900012    2    3    3    0    0  0.39424340895E+02 -0.31596120868E+01  0.17870684069E+02  0.47787272441E+02  0.20000006368E+02 0.  0.
        -12    1    3    3    0    0 -0.39424340895E+02  0.31596120868E+01 -0.17870684069E+02  0.43400727559E+02  0.00000000000E+00 0.  1.
         11    1    4    4    0    0  0.33983502818E+01 -0.30744278411E+01  0.46743268464E+01  0.65460081665E+01  0.51100000000E-03 0. -1.
        -11    1    4    4    0    0  0.29557168148E+02  0.35858941015E+01  0.15349955292E+02  0.33497849978E+02  0.51100000000E-03 0.  1.
        -12    1    4    4    0    0  0.64688224652E+01 -0.36710783472E+01 -0.21535980693E+01  0.77434142961E+01  0.00000000000E+00 0.  1.
</event>
<event>
 8    1  0.6019723E-011  0.9118800E+02  0.7816164E-02  0.1184000E+00
        -11   -1    0    0    0    0  0.00000000000E+00  0.00000000000E+00  0.45593999997E+02  0.45594000000E+02  0.51100000000E-03 0. -1.
         11   -1    0    0    0    0 -0.00000000000E+00 -0.00000000000E+00 -0.45593999997E+02  0.45594000000E+02  0.51100000000E-03 0.  1.
         23    2    1    2    0    0  0.33306690739E-15  0.00000000000E+00  0.71054273576E-14  0.91188000000E+02  0.91188000000E+02 0.  0.
    9900012    2    3    3    0    0  0.47004690038E+00 -0.12439270916E+02  0.41577246754E+02  0.47787264377E+02  0.19999969599E+02 0.  0.
        -12    1    3    3    0    0 -0.47004690038E+00  0.12439270916E+02 -0.41577246754E+02  0.43400735623E+02  0.00000000000E+00 0.  1.
         11    1    4    4    0    0 -0.16325317237E+01 -0.70062375312E+01  0.11159642630E+02  0.13277430024E+02  0.51100000000E-03 0. -1.
        -11    1    4    4    0    0 -0.41572014747E+01 -0.17907133133E+01  0.25150898670E+02  0.25554973731E+02  0.51100000000E-03 0.  1.
        -12    1    4    4    0    0  0.62597800988E+01 -0.36423200717E+01  0.52667054547E+01  0.89548606207E+01  0.00000000000E+00 0.  1.
</event>
<event>
 8    1  0.6019723E-011  0.9118800E+02  0.7816164E-02  0.1184000E+00
        -11   -1    0    0    0    0  0.00000000000E+00  0.00000000000E+00  0.45593999997E+02  0.45594000000E+02  0.51100000000E-03 0. -1.
         11   -1    0    0    0    0 -0.00000000000E+00 -0.00000000000E+00 -0.45593999997E+02  0.45594000000E+02  0.51100000000E-03 0.  1.
         23    2    1    2    0    0 -0.17763568394E-14  0.00000000000E+00  0.00000000000E+00  0.91188000000E+02  0.91188000000E+02 0.  0.
    9900012    2    3    3    0    0  0.15589839757E+02  0.21739909575E+02 -0.34175375800E+02  0.47787273243E+02  0.20000010025E+02 0.  0.
         12    1    3    3    0    0 -0.15589839757E+02 -0.21739909575E+02  0.34175375800E+02  0.43400726757E+02  0.00000000000E+00 0. -1.
         11    1    4    4    0    0  0.10223406964E+02  0.18819786373E+02 -0.16096875124E+02  0.26792009967E+02  0.51100000000E-03 0. -1.
        -11    1    4    4    0    0  0.10690461415E+01  0.33641848787E+01 -0.15641871795E+02  0.16035234736E+02  0.51100000000E-03 0.  1.
         12    1    4    4    0    0  0.42973866515E+01 -0.44406167692E+00 -0.24366288813E+01  0.49600285393E+01  0.00000000000E+00 0. -1.
</event>
<event>
 8    1  0.6019723E-011  0.9118800E+02  0.7816164E-02  0.1184000E+00
        -11   -1    0    0    0    0  0.00000000000E+00  0.00000000000E+00  0.45593999997E+02  0.45594000000E+02  0.51100000000E-03 0. -1.
         11   -1    0    0    0    0 -0.00000000000E+00 -0.00000000000E+00 -0.45593999997E+02  0.45594000000E+02  0.51100000000E-03 0.  1.
         23    2    1    2    0    0  0.00000000000E+00  0.00000000000E+00  0.71054273576E-14  0.91188000000E+02  0.91188000000E+02 0.  0.
    9900012    2    3    3    0    0 -0.87550827261E+01  0.16654789185E+02 -0.39109985696E+02  0.47787257409E+02  0.19999937832E+02 0.  0.
         12    1    3    3    0    0  0.87550827261E+01 -0.16654789185E+02  0.39109985696E+02  0.43400742591E+02  0.00000000000E+00 0. -1.
         11    1    4    4    0    0  0.46688589466E+01  0.74296959520E+01 -0.72620616459E+01  0.11390178463E+02  0.51100000000E-03 0. -1.
        -11    1    4    4    0    0 -0.11270150519E+02  0.68842477578E+01 -0.29849452085E+02  0.32640449597E+02  0.51100000000E-03 0.  1.
        -12    1    4    4    0    0 -0.21537911538E+01  0.23408454749E+01 -0.19984719649E+01  0.37566293491E+01  0.00000000000E+00 0.  1.
</event>
<event>
 8    1  0.6019723E-011  0.9118800E+02  0.7816164E-02  0.1184000E+00
        -11   -1    0    0    0    0  0.00000000000E+00  0.00000000000E+00  0.45593999997E+02  0.45594000000E+02  0.51100000000E-03 0.  1.
         11   -1    0    0    0    0 -0.00000000000E+00 -0.00000000000E+00 -0.45593999997E+02  0.45594000000E+02  0.51100000000E-03 0. -1.
         23    2    1    2    0    0  0.17763568394E-14 -0.35527136788E-14 -0.35527136788E-14  0.91188000000E+02  0.91188000000E+02 0.  0.
    9900012    2    3    3    0    0  0.12139389077E+02  0.30658062727E+02  0.28219526708E+02  0.47787271148E+02  0.20000000470E+02 0.  0.
        -12    1    3    3    0    0 -0.12139389077E+02 -0.30658062727E+02 -0.28219526708E+02  0.43400728852E+02  0.00000000000E+00 0.  1.
         11    1    4    4    0    0 -0.12585351596E+01  0.63687406301E+01 -0.10143236829E+01  0.65706636466E+01  0.51100000000E-03 0. -1.
        -11    1    4    4    0    0 -0.10475064863E+00  0.28461151119E+01  0.68013483880E+01  0.73735801402E+01  0.51100000000E-03 0.  1.
         12    1    4    4    0    0  0.13502674885E+02  0.21443206985E+02  0.22432502002E+02  0.33843027361E+02  0.00000000000E+00 0. -1.
</event>
<event>
 8    1  0.6019723E-011  0.9118800E+02  0.7816164E-02  0.1184000E+00
        -11   -1    0    0    0    0  0.00000000000E+00  0.00000000000E+00  0.45593999997E+02  0.45594000000E+02  0.51100000000E-03 0. -1.
         11   -1    0    0    0    0 -0.00000000000E+00 -0.00000000000E+00 -0.45593999997E+02  0.45594000000E+02  0.51100000000E-03 0.  1.
         23    2    1    2    0    0 -0.24980018054E-15  0.35527136788E-14  0.00000000000E+00  0.91188000000E+02  0.91188000000E+02 0.  0.
    9900012    2    3    3    0    0  0.17301523458E+00 -0.25534198611E+02  0.35094128908E+02  0.47787272854E+02  0.20000008251E+02 0.  0.
        -12    1    3    3    0    0 -0.17301523458E+00  0.25534198611E+02 -0.35094128908E+02  0.43400727146E+02  0.00000000000E+00 0.  1.
         11    1    4    4    0    0  0.42367076677E+01 -0.18178275812E+02  0.24733234762E+02  0.30986001766E+02  0.51100000000E-03 0. -1.
        -11    1    4    4    0    0 -0.47711534977E+01 -0.56664414555E+01  0.12552015966E+01  0.75131881233E+01  0.51100000000E-03 0.  1.
        -12    1    4    4    0    0  0.70746106460E+00 -0.16894813433E+01  0.91056925490E+01  0.92880829650E+01  0.00000000000E+00 0.  1.
</event>
<event>
 8    1  0.6019723E-011  0.9118800E+02  0.7816164E-02  0.1184000E+00
        -11   -1    0    0    0    0  0.00000000000E+00  0.00000000000E+00  0.45593999997E+02  0.45594000000E+02  0.51100000000E-03 0. -1.
         11   -1    0    0    0    0 -0.00000000000E+00 -0.00000000000E+00 -0.45593999997E+02  0.45594000000E+02  0.51100000000E-03 0.  1.
         23    2    1    2    0    0  0.44408920985E-15  0.00000000000E+00  0.00000000000E+00  0.91188000000E+02  0.91188000000E+02 0.  0.
    9900012    2    3    3    0    0 -0.99597098923E+00 -0.33022867278E+02 -0.28144684220E+02  0.47787251489E+02  0.19999910838E+02 0.  0.
         12    1    3    3    0    0  0.99597098923E+00  0.33022867278E+02  0.28144684220E+02  0.43400748511E+02  0.00000000000E+00 0. -1.
         11    1    4    4    0    0 -0.34580533032E+01 -0.53526563522E+01 -0.12963640012E+00  0.63738425247E+01  0.51100000000E-03 0. -1.
        -11    1    4    4    0    0  0.72480404570E+01 -0.21434626865E+02 -0.20274402370E+02  0.30381387575E+02  0.51100000000E-03 0.  1.
        -12    1    4    4    0    0 -0.47859581431E+01 -0.62355840612E+01 -0.77406454506E+01  0.11032021389E+02  0.00000000000E+00 0.  1.
</event>
<event>
 8    1  0.6019723E-011  0.9118800E+02  0.7816164E-02  0.1184000E+00
        -11   -1    0    0    0    0  0.00000000000E+00  0.00000000000E+00  0.45593999997E+02  0.45594000000E+02  0.51100000000E-03 0. -1.
         11   -1    0    0    0    0 -0.00000000000E+00 -0.00000000000E+00 -0.45593999997E+02  0.45594000000E+02  0.51100000000E-03 0.  1.
         23    2    1    2    0    0  0.35527136788E-14 -0.35527136788E-14 -0.71054273576E-14  0.91188000000E+02  0.91188000000E+02 0.  0.
    9900012    2    3    3    0    0 -0.16685145191E+02  0.20225366377E+02 -0.34585601500E+02  0.47787270211E+02  0.19999996200E+02 0.  0.
         12    1    3    3    0    0  0.16685145191E+02 -0.20225366377E+02  0.34585601500E+02  0.43400729789E+02  0.00000000000E+00 0. -1.
         11    1    4    4    0    0 -0.48136793023E+01  0.42253375067E+01 -0.21385523925E+02  0.22324103997E+02  0.51100000000E-03 0.  1.
        -11    1    4    4    0    0 -0.11940168199E+02  0.16977825506E+02 -0.12267937226E+02  0.24110505170E+02  0.51100000000E-03 0. -1.
        -12    1    4    4    0    0  0.68702310608E-01 -0.97779663591E+00 -0.93214034922E+00  0.13526610438E+01  0.00000000000E+00 0.  1.
</event>
<event>
 8    1  0.6019723E-011  0.9118800E+02  0.7816164E-02  0.1184000E+00
        -11   -1    0    0    0    0  0.00000000000E+00  0.00000000000E+00  0.45593999997E+02  0.45594000000E+02  0.51100000000E-03 0. -1.
         11   -1    0    0    0    0 -0.00000000000E+00 -0.00000000000E+00 -0.45593999997E+02  0.45594000000E+02  0.51100000000E-03 0.  1.
         23    2    1    2    0    0  0.00000000000E+00 -0.17763568394E-14  0.71054273576E-14  0.91188000000E+02  0.91188000000E+02 0.  0.
    9900012    2    3    3    0    0 -0.19563063384E+02  0.49862265245E+01 -0.38419369721E+02  0.47787264134E+02  0.19999968494E+02 0.  0.
         12    1    3    3    0    0  0.19563063384E+02 -0.49862265245E+01  0.38419369721E+02  0.43400735866E+02  0.00000000000E+00 0. -1.
         11    1    4    4    0    0  0.28237833088E+00 -0.33988207654E+01 -0.16206104683E+02  0.16561085392E+02  0.51100000000E-03 0. -1.
        -11    1    4    4    0    0 -0.16761999505E+02  0.67187255550E+01 -0.16169203320E+02  0.24239410817E+02  0.51100000000E-03 0.  1.
         12    1    4    4    0    0 -0.30834422098E+01  0.16663217348E+01 -0.60440617183E+01  0.69867679252E+01  0.00000000000E+00 0. -1.
</event>
<event>
 8    1  0.6019723E-011  0.9118800E+02  0.7816164E-02  0.1184000E+00
        -11   -1    0    0    0    0  0.00000000000E+00  0.00000000000E+00  0.45593999997E+02  0.45594000000E+02  0.51100000000E-03 0. -1.
         11   -1    0    0    0    0 -0.00000000000E+00 -0.00000000000E+00 -0.45593999997E+02  0.45594000000E+02  0.51100000000E-03 0.  1.
         23    2    1    2    0    0  0.00000000000E+00  0.00000000000E+00 -0.35527136788E-14  0.91188000000E+02  0.91188000000E+02 0.  0.
    9900012    2    3    3    0    0  0.17609267402E+02  0.33620062217E+02 -0.21053001358E+02  0.47787265581E+02  0.19999975090E+02 0.  0.
         12    1    3    3    0    0 -0.17609267402E+02 -0.33620062217E+02  0.21053001358E+02  0.43400734419E+02  0.00000000000E+00 0. -1.
         11    1    4    4    0    0  0.43464856637E+01  0.12358482928E+02 -0.41825934882E+01  0.13752022632E+02  0.51100000000E-03 0. -1.
        -11    1    4    4    0    0  0.15896245653E+02  0.13757621769E+02 -0.90712639505E+01  0.22896519660E+02  0.51100000000E-03 0.  1.
        -12    1    4    4    0    0 -0.26334639146E+01  0.75039575202E+01 -0.77991439190E+01  0.11138723290E+02  0.00000000000E+00 0.  1.
</event>
<event>
 8    1  0.6019723E-011  0.9118800E+02  0.7816164E-02  0.1184000E+00
        -11   -1    0    0    0    0  0.00000000000E+00  0.00000000000E+00  0.45593999997E+02  0.45594000000E+02  0.51100000000E-03 0. -1.
         11   -1    0    0    0    0 -0.00000000000E+00 -0.00000000000E+00 -0.45593999997E+02  0.45594000000E+02  0.51100000000E-03 0.  1.
         23    2    1    2    0    0  0.35527136788E-14  0.00000000000E+00  0.00000000000E+00  0.91188000000E+02  0.91188000000E+02 0.  0.
    9900012    2    3    3    0    0 -0.26822866289E+02  0.16781157910E+02  0.29707732238E+02  0.47787276832E+02  0.20000026390E+02 0.  0.
        -12    1    3    3    0    0  0.26822866289E+02 -0.16781157910E+02 -0.29707732238E+02  0.43400723168E+02  0.00000000000E+00 0.  1.
         11    1    4    4    0    0 -0.14666028415E+02  0.19218735924E+02  0.22898043406E+02  0.33298237071E+02  0.51100000000E-03 0. -1.
        -11    1    4    4    0    0 -0.72697199366E+01  0.12488461756E+00  0.39021545618E+01  0.82517413077E+01  0.51100000000E-03 0.  1.
         12    1    4    4    0    0 -0.48871179375E+01 -0.25624626308E+01  0.29075342698E+01  0.62372984536E+01  0.00000000000E+00 0. -1.
</event>
<event>
 8    1  0.6019723E-011  0.9118800E+02  0.7816164E-02  0.1184000E+00
        -11   -1    0    0    0    0  0.00000000000E+00  0.00000000000E+00  0.45593999997E+02  0.45594000000E+02  0.51100000000E-03 0. -1.
         11   -1    0    0    0    0 -0.00000000000E+00 -0.00000000000E+00 -0.45593999997E+02  0.45594000000E+02  0.51100000000E-03 0.  1.
         23    2    1    2    0    0 -0.94368957093E-15 -0.17763568394E-14  0.00000000000E+00  0.91188000000E+02  0.91188000000E+02 0.  0.
    9900012    2    3    3    0    0 -0.32001361402E+00  0.11135771895E+02 -0.41946582068E+02  0.47787267615E+02  0.19999984362E+02 0.  0.
         12    1    3    3    0    0  0.32001361402E+00 -0.11135771895E+02  0.41946582068E+02  0.43400732385E+02  0.00000000000E+00 0. -1.
         11    1    4    4    0    0  0.49441881275E+01  0.44845131307E+00 -0.56770265366E+01  0.75415340203E+01  0.51100000000E-03 0. -1.
        -11    1    4    4    0    0 -0.73347221859E+01  0.84336700644E+00 -0.15391710756E+02  0.17070857556E+02  0.51100000000E-03 0.  1.
        -12    1    4    4    0    0  0.20705204444E+01  0.98439535759E+01 -0.20877844775E+02  0.23174876038E+02  0.00000000000E+00 0.  1.
</event>
<event>
 8    1  0.6019723E-011  0.9118800E+02  0.7816164E-02  0.1184000E+00
        -11   -1    0    0    0    0  0.00000000000E+00  0.00000000000E+00  0.45593999997E+02  0.45594000000E+02  0.51100000000E-03 0. -1.
         11   -1    0    0    0    0 -0.00000000000E+00 -0.00000000000E+00 -0.45593999997E+02  0.45594000000E+02  0.51100000000E-03 0.  1.
         23    2    1    2    0    0  0.88817841970E-15 -0.35527136788E-14  0.00000000000E+00  0.91188000000E+02  0.91188000000E+02 0.  0.
    9900012    2    3    3    0    0  0.51322067072E+01 -0.22580917575E+02  0.36706750840E+02  0.47787274874E+02  0.20000017462E+02 0.  0.
        -12    1    3    3    0    0 -0.51322067072E+01  0.22580917575E+02 -0.36706750840E+02  0.43400725126E+02  0.00000000000E+00 0.  1.
         11    1    4    4    0    0  0.91147214335E+01 -0.55836556000E+01  0.15416046711E+02  0.18759260463E+02  0.51100000000E-03 0. -1.
        -11    1    4    4    0    0 -0.66885997341E+01 -0.13487675837E+02  0.14385375561E+02  0.20822915170E+02  0.51100000000E-03 0.  1.
        -12    1    4    4    0    0  0.27060850077E+01 -0.35095861379E+01  0.69053285678E+01  0.82050992412E+01  0.00000000000E+00 0.  1.
</event>
<event>
 8    1  0.6019723E-011  0.9118800E+02  0.7816164E-02  0.1184000E+00
        -11   -1    0    0    0    0  0.00000000000E+00  0.00000000000E+00  0.45593999997E+02  0.45594000000E+02  0.51100000000E-03 0. -1.
         11   -1    0    0    0    0 -0.00000000000E+00 -0.00000000000E+00 -0.45593999997E+02  0.45594000000E+02  0.51100000000E-03 0.  1.
         23    2    1    2    0    0 -0.71054273576E-14 -0.71054273576E-14  0.00000000000E+00  0.91188000000E+02  0.91188000000E+02 0.  0.
    9900012    2    3    3    0    0 -0.24201335237E+02 -0.35210412337E+02  0.76253177989E+01  0.47787271484E+02  0.20000002002E+02 0.  0.
        -12    1    3    3    0    0  0.24201335237E+02  0.35210412337E+02 -0.76253177989E+01  0.43400728516E+02  0.00000000000E+00 0.  1.
         11    1    4    4    0    0 -0.71959690521E+01 -0.22550379578E+02 -0.12617720384E+01  0.23704296206E+02  0.51100000000E-03 0. -1.
        -11    1    4    4    0    0 -0.15134348762E+02 -0.75055468896E+01  0.64596194968E+01  0.18086139192E+02  0.51100000000E-03 0.  1.
         12    1    4    4    0    0 -0.18710174227E+01 -0.51544858701E+01  0.24274703405E+01  0.59968360854E+01  0.00000000000E+00 0. -1.
</event>
<event>
 8    1  0.6019723E-011  0.9118800E+02  0.7816164E-02  0.1184000E+00
        -11   -1    0    0    0    0  0.00000000000E+00  0.00000000000E+00  0.45593999997E+02  0.45594000000E+02  0.51100000000E-03 0. -1.
         11   -1    0    0    0    0 -0.00000000000E+00 -0.00000000000E+00 -0.45593999997E+02  0.45594000000E+02  0.51100000000E-03 0.  1.
         23    2    1    2    0    0  0.00000000000E+00  0.00000000000E+00  0.35527136788E-14  0.91188000000E+02  0.91188000000E+02 0.  0.
    9900012    2    3    3    0    0  0.38521295159E+02  0.67706524705E+01 -0.18812044628E+02  0.47787251865E+02  0.19999912553E+02 0.  0.
         12    1    3    3    0    0 -0.38521295159E+02 -0.67706524705E+01  0.18812044628E+02  0.43400748135E+02  0.00000000000E+00 0. -1.
         11    1    4    4    0    0  0.10391615096E+02  0.15212631410E+01 -0.15417000108E+02  0.18654323853E+02  0.51100000000E-03 0. -1.
        -11    1    4    4    0    0  0.14297387417E+02  0.38651444512E+01  0.51308429458E-01  0.14810714412E+02  0.51100000000E-03 0.  1.
         12    1    4    4    0    0  0.13832292646E+02  0.13842448784E+01 -0.34463529496E+01  0.14322213600E+02  0.00000000000E+00 0. -1.
</event>
<event>
 8    1  0.6019723E-011  0.9118800E+02  0.7816164E-02  0.1184000E+00
        -11   -1    0    0    0    0  0.00000000000E+00  0.00000000000E+00  0.45593999997E+02  0.45594000000E+02  0.51100000000E-03 0. -1.
         11   -1    0    0    0    0 -0.00000000000E+00 -0.00000000000E+00 -0.45593999997E+02  0.45594000000E+02  0.51100000000E-03 0.  1.
         23    2    1    2    0    0  0.35527136788E-14  0.00000000000E+00  0.00000000000E+00  0.91188000000E+02  0.91188000000E+02 0.  0.
    9900012    2    3    3    0    0  0.21612950097E+02  0.33629350291E+02  0.16898823799E+02  0.47787273523E+02  0.20000011302E+02 0.  0.
        -12    1    3    3    0    0 -0.21612950097E+02 -0.33629350291E+02 -0.16898823799E+02  0.43400726477E+02  0.00000000000E+00 0.  1.
         11    1    4    4    0    0  0.13151887392E+02  0.12232567021E+02  0.84197673408E+01  0.19836842496E+02  0.51100000000E-03 0. -1.
        -11    1    4    4    0    0  0.25388045617E+01  0.16338808624E+02  0.13362228288E+00  0.16535418078E+02  0.51100000000E-03 0.  1.
        -12    1    4    4    0    0  0.59222581436E+01  0.50579746465E+01  0.83454341757E+01  0.11415012949E+02  0.00000000000E+00 0.  1.
</event>
<event>
 8    1  0.6019723E-011  0.9118800E+02  0.7816164E-02  0.1184000E+00
        -11   -1    0    0    0    0  0.00000000000E+00  0.00000000000E+00  0.45593999997E+02  0.45594000000E+02  0.51100000000E-03 0. -1.
         11   -1    0    0    0    0 -0.00000000000E+00 -0.00000000000E+00 -0.45593999997E+02  0.45594000000E+02  0.51100000000E-03 0.  1.
         23    2    1    2    0    0  0.00000000000E+00  0.00000000000E+00  0.00000000000E+00  0.91188000000E+02  0.91188000000E+02 0.  0.
    9900012    2    3    3    0    0  0.23795918123E+02  0.21982028766E+02  0.28881985848E+02  0.47787257903E+02  0.19999940085E+02 0.  0.
        -12    1    3    3    0    0 -0.23795918123E+02 -0.21982028766E+02 -0.28881985848E+02  0.43400742097E+02  0.00000000000E+00 0.  1.
         11    1    4    4    0    0  0.14828192471E+02  0.17106212397E+02  0.10393198953E+02  0.24910166183E+02  0.51100000000E-03 0. -1.
        -11    1    4    4    0    0  0.56298276999E+01  0.24410661992E+00  0.30306935112E+01  0.63984100675E+01  0.51100000000E-03 0.  1.
         12    1    4    4    0    0  0.33378979517E+01  0.46317097494E+01  0.15458093384E+02  0.16478681653E+02  0.00000000000E+00 0. -1.
</event>
<event>
 8    1  0.6019723E-011  0.9118800E+02  0.7816164E-02  0.1184000E+00
        -11   -1    0    0    0    0  0.00000000000E+00  0.00000000000E+00  0.45593999997E+02  0.45594000000E+02  0.51100000000E-03 0. -1.
         11   -1    0    0    0    0 -0.00000000000E+00 -0.00000000000E+00 -0.45593999997E+02  0.45594000000E+02  0.51100000000E-03 0.  1.
         23    2    1    2    0    0 -0.88817841970E-15  0.00000000000E+00  0.35527136788E-14  0.91188000000E+02  0.91188000000E+02 0.  0.
    9900012    2    3    3    0    0 -0.78661168763E+01  0.37285293844E+02 -0.20773888911E+02  0.47787269681E+02  0.19999993781E+02 0.  0.
         12    1    3    3    0    0  0.78661168763E+01 -0.37285293844E+02  0.20773888911E+02  0.43400730319E+02  0.00000000000E+00 0. -1.
         11    1    4    4    0    0 -0.26500977743E+01  0.31629858061E+01  0.22916494406E+00  0.41327973886E+01  0.51100000000E-03 0. -1.
        -11    1    4    4    0    0  0.14065701788E+01  0.53306366160E+01  0.23526057468E+01  0.59940704418E+01  0.51100000000E-03 0.  1.
        -12    1    4    4    0    0 -0.66225892808E+01  0.28791671422E+02 -0.23355659602E+02  0.37660401850E+02  0.00000000000E+00 0.  1.
</event>
<event>
 8    1  0.6019723E-011  0.9118800E+02  0.7816164E-02  0.1184000E+00
        -11   -1    0    0    0    0  0.00000000000E+00  0.00000000000E+00  0.45593999997E+02  0.45594000000E+02  0.51100000000E-03 0. -1.
         11   -1    0    0    0    0 -0.00000000000E+00 -0.00000000000E+00 -0.45593999997E+02  0.45594000000E+02  0.51100000000E-03 0.  1.
         23    2    1    2    0    0 -0.35527136788E-14  0.88817841970E-15  0.00000000000E+00  0.91188000000E+02  0.91188000000E+02 0.  0.
    9900012    2    3    3    0    0 -0.27318646234E+02  0.43174655571E+01  0.33446575612E+02  0.47787281561E+02  0.20000047947E+02 0.  0.
        -12    1    3    3    0    0  0.27318646234E+02 -0.43174655571E+01 -0.33446575612E+02  0.43400718439E+02  0.00000000000E+00 0.  1.
         11    1    4    4    0    0 -0.17306181885E+02  0.82894938244E+01  0.18974116290E+02  0.26985861642E+02  0.51100000000E-03 0. -1.
        -11    1    4    4    0    0 -0.11668881613E+02 -0.52391692378E+01  0.13073790157E+02  0.18290316611E+02  0.51100000000E-03 0.  1.
        -12    1    4    4    0    0  0.16564172637E+01  0.12671409705E+01  0.13986691650E+01  0.25111033080E+01  0.00000000000E+00 0.  1.
</event>
<event>
 8    1  0.6019723E-011  0.9118800E+02  0.7816164E-02  0.1184000E+00
        -11   -1    0    0    0    0  0.00000000000E+00  0.00000000000E+00  0.45593999997E+02  0.45594000000E+02  0.51100000000E-03 0. -1.
         11   -1    0    0    0    0 -0.00000000000E+00 -0.00000000000E+00 -0.45593999997E+02  0.45594000000E+02  0.51100000000E-03 0.  1.
         23    2    1    2    0    0  0.00000000000E+00 -0.88817841970E-15  0.00000000000E+00  0.91188000000E+02  0.91188000000E+02 0.  0.
    9900012    2    3    3    0    0 -0.26440040263E+02  0.64638215430E+01 -0.33804823996E+02  0.47787276003E+02  0.20000022607E+02 0.  0.
         12    1    3    3    0    0  0.26440040263E+02 -0.64638215430E+01  0.33804823996E+02  0.43400723997E+02  0.00000000000E+00 0. -1.
         11    1    4    4    0    0 -0.95741934263E+01 -0.34634308601E+01 -0.47618138628E+01  0.11239902340E+02  0.51100000000E-03 0. -1.
        -11    1    4    4    0    0 -0.72074095713E+01  0.21195614502E+01 -0.19462049472E+02  0.20861703271E+02  0.51100000000E-03 0.  1.
        -12    1    4    4    0    0 -0.96584372654E+01  0.78076909530E+01 -0.95809606617E+01  0.15685670391E+02  0.00000000000E+00 0.  1.
</event>
<event>
 8    1  0.6019723E-011  0.9118800E+02  0.7816164E-02  0.1184000E+00
        -11   -1    0    0    0    0  0.00000000000E+00  0.00000000000E+00  0.45593999997E+02  0.45594000000E+02  0.51100000000E-03 0. -1.
         11   -1    0    0    0    0 -0.00000000000E+00 -0.00000000000E+00 -0.45593999997E+02  0.45594000000E+02  0.51100000000E-03 0.  1.
         23    2    1    2    0    0  0.00000000000E+00  0.17763568394E-14  0.00000000000E+00  0.91188000000E+02  0.91188000000E+02 0.  0.
    9900012    2    3    3    0    0 -0.25600958107E+02 -0.13531930057E+02 -0.32328025755E+02  0.47787269174E+02  0.19999991470E+02 0.  0.
         12    1    3    3    0    0  0.25600958107E+02  0.13531930057E+02  0.32328025755E+02  0.43400730826E+02  0.00000000000E+00 0. -1.
         11    1    4    4    0    0 -0.47568970454E+00 -0.78815579241E+01 -0.99714793794E+01  0.12719105208E+02  0.51100000000E-03 0. -1.
        -11    1    4    4    0    0 -0.14743047759E+02 -0.61249303936E+01 -0.17196311096E+02  0.23464555080E+02  0.51100000000E-03 0.  1.
         12    1    4    4    0    0 -0.10382220644E+02  0.47455826025E+00 -0.51602352792E+01  0.11603608886E+02  0.00000000000E+00 0. -1.
</event>
<event>
 8    1  0.6019723E-011  0.9118800E+02  0.7816164E-02  0.1184000E+00
        -11   -1    0    0    0    0  0.00000000000E+00  0.00000000000E+00  0.45593999997E+02  0.45594000000E+02  0.51100000000E-03 0. -1.
         11   -1    0    0    0    0 -0.00000000000E+00 -0.00000000000E+00 -0.45593999997E+02  0.45594000000E+02  0.51100000000E-03 0.  1.
         23    2    1    2    0    0  0.00000000000E+00  0.44408920985E-15  0.00000000000E+00  0.91188000000E+02  0.91188000000E+02 0.  0.
    9900012    2    3    3    0    0 -0.11391001926E+02  0.38706322153E+01  0.41699971717E+02  0.47787258533E+02  0.19999942957E+02 0.  0.
        -12    1    3    3    0    0  0.11391001926E+02 -0.38706322153E+01 -0.41699971717E+02  0.43400741467E+02  0.00000000000E+00 0.  1.
         11    1    4    4    0    0 -0.22969866166E+00 -0.39480371424E+01  0.15943648998E+01  0.42640073227E+01  0.51100000000E-03 0.  1.
        -11    1    4    4    0    0 -0.43456659778E+01  0.48920110108E+01  0.31453316459E+02  0.32126744327E+02  0.51100000000E-03 0. -1.
        -12    1    4    4    0    0 -0.68156372869E+01  0.29266583469E+01  0.86522903587E+01  0.11396506884E+02  0.00000000000E+00 0.  1.
</event>
<event>
 8    1  0.6019723E-011  0.9118800E+02  0.7816164E-02  0.1184000E+00
        -11   -1    0    0    0    0  0.00000000000E+00  0.00000000000E+00  0.45593999997E+02  0.45594000000E+02  0.51100000000E-03 0. -1.
         11   -1    0    0    0    0 -0.00000000000E+00 -0.00000000000E+00 -0.45593999997E+02  0.45594000000E+02  0.51100000000E-03 0.  1.
         23    2    1    2    0    0  0.00000000000E+00 -0.17763568394E-14  0.00000000000E+00  0.91188000000E+02  0.91188000000E+02 0.  0.
    9900012    2    3    3    0    0  0.19373551927E+02  0.11296374226E+02  0.37157525393E+02  0.47787259474E+02  0.19999947244E+02 0.  0.
        -12    1    3    3    0    0 -0.19373551927E+02 -0.11296374226E+02 -0.37157525393E+02  0.43400740526E+02  0.00000000000E+00 0.  1.
         11    1    4    4    0    0  0.61154647394E+01  0.20584563635E+01  0.16799902959E+02  0.17996468856E+02  0.51100000000E-03 0. -1.
        -11    1    4    4    0    0  0.45657242645E+01  0.10045515335E+02  0.49759157522E+01  0.12104460097E+02  0.51100000000E-03 0.  1.
        -12    1    4    4    0    0  0.86923629233E+01 -0.80759747204E+00  0.15381706681E+02  0.17686330521E+02  0.00000000000E+00 0.  1.
</event>
<event>
 8    1  0.6019723E-011  0.9118800E+02  0.7816164E-02  0.1184000E+00
        -11   -1    0    0    0    0  0.00000000000E+00  0.00000000000E+00  0.45593999997E+02  0.45594000000E+02  0.51100000000E-03 0. -1.
         11   -1    0    0    0    0 -0.00000000000E+00 -0.00000000000E+00 -0.45593999997E+02  0.45594000000E+02  0.51100000000E-03 0.  1.
         23    2    1    2    0    0  0.71054273576E-14  0.00000000000E+00  0.88817841970E-15  0.91188000000E+02  0.91188000000E+02 0.  0.
    9900012    2    3    3    0    0 -0.40420773755E+02  0.15217306588E+02  0.42682339815E+01  0.47787271987E+02  0.20000004296E+02 0.  0.
         12    1    3    3    0    0  0.40420773755E+02 -0.15217306588E+02 -0.42682339815E+01  0.43400728013E+02  0.00000000000E+00 0. -1.
         11    1    4    4    0    0 -0.39737896049E+01  0.62334513658E+01 -0.42202347245E+01  0.85121854506E+01  0.51100000000E-03 0. -1.
        -11    1    4    4    0    0 -0.10896742094E+02  0.48349468447E+01 -0.33990544709E+00  0.11926073756E+02  0.51100000000E-03 0.  1.
         12    1    4    4    0    0 -0.25550242056E+02  0.41489083773E+01  0.88283741531E+01  0.27349012780E+02  0.00000000000E+00 0. -1.
</event>
<event>
 8    1  0.6019723E-011  0.9118800E+02  0.7816164E-02  0.1184000E+00
        -11   -1    0    0    0    0  0.00000000000E+00  0.00000000000E+00  0.45593999997E+02  0.45594000000E+02  0.51100000000E-03 0. -1.
         11   -1    0    0    0    0 -0.00000000000E+00 -0.00000000000E+00 -0.45593999997E+02  0.45594000000E+02  0.51100000000E-03 0.  1.
         23    2    1    2    0    0 -0.35527136788E-14 -0.44408920985E-15  0.71054273576E-14  0.91188000000E+02  0.91188000000E+02 0.  0.
    9900012    2    3    3    0    0  0.27061820351E+02 -0.37177831347E+01 -0.33726250864E+02  0.47787262339E+02  0.19999960308E+02 0.  0.
         12    1    3    3    0    0 -0.27061820351E+02  0.37177831347E+01  0.33726250864E+02  0.43400737661E+02  0.00000000000E+00 0. -1.
         11    1    4    4    0    0 -0.73937599009E+00 -0.13902181217E+01 -0.32107803677E+01  0.35761004057E+01  0.51100000000E-03 0. -1.
        -11    1    4    4    0    0  0.11560356295E+02 -0.86970856752E+01 -0.12291240143E+02  0.18983037729E+02  0.51100000000E-03 0.  1.
        -12    1    4    4    0    0  0.16240840047E+02  0.63695206622E+01 -0.18224230354E+02  0.25228124204E+02  0.00000000000E+00 0.  1.
</event>
<event>
 8    1  0.6019723E-011  0.9118800E+02  0.7816164E-02  0.1184000E+00
        -11   -1    0    0    0    0  0.00000000000E+00  0.00000000000E+00  0.45593999997E+02  0.45594000000E+02  0.51100000000E-03 0. -1.
         11   -1    0    0    0    0 -0.00000000000E+00 -0.00000000000E+00 -0.45593999997E+02  0.45594000000E+02  0.51100000000E-03 0.  1.
         23    2    1    2    0    0  0.00000000000E+00  0.00000000000E+00  0.00000000000E+00  0.91188000000E+02  0.91188000000E+02 0.  0.
    9900012    2    3    3    0    0  0.16326749674E+02 -0.33065423336E+02  0.22885337470E+02  0.47787266753E+02  0.19999980434E+02 0.  0.
        -12    1    3    3    0    0 -0.16326749674E+02  0.33065423336E+02 -0.22885337470E+02  0.43400733247E+02  0.00000000000E+00 0.  1.
         11    1    4    4    0    0  0.15228023998E+02 -0.32085881072E+02  0.25126819911E+02  0.43505787640E+02  0.51100000000E-03 0. -1.
        -11    1    4    4    0    0 -0.53661790264E+00  0.58211102149E+00 -0.18153174628E+01  0.19804519097E+01  0.51100000000E-03 0.  1.
         12    1    4    4    0    0  0.16353435781E+01 -0.15616532850E+01 -0.42616497877E+00  0.23010272033E+01  0.00000000000E+00 0. -1.
</event>
<event>
 8    1  0.6019723E-011  0.9118800E+02  0.7816164E-02  0.1184000E+00
        -11   -1    0    0    0    0  0.00000000000E+00  0.00000000000E+00  0.45593999997E+02  0.45594000000E+02  0.51100000000E-03 0. -1.
         11   -1    0    0    0    0 -0.00000000000E+00 -0.00000000000E+00 -0.45593999997E+02  0.45594000000E+02  0.51100000000E-03 0.  1.
         23    2    1    2    0    0  0.00000000000E+00  0.00000000000E+00  0.35527136788E-14  0.91188000000E+02  0.91188000000E+02 0.  0.
    9900012    2    3    3    0    0  0.25849077785E+02 -0.15620354805E+02 -0.31168178909E+02  0.47787243290E+02  0.19999873454E+02 0.  0.
         12    1    3    3    0    0 -0.25849077785E+02  0.15620354805E+02  0.31168178909E+02  0.43400756710E+02  0.00000000000E+00 0. -1.
         11    1    4    4    0    0  0.12598042090E+02 -0.39493202593E+01 -0.10958133111E+02  0.17157752666E+02  0.51100000000E-03 0. -1.
        -11    1    4    4    0    0  0.13069603366E+02 -0.38212877332E+01 -0.17810001637E+02  0.22419030546E+02  0.51100000000E-03 0.  1.
         12    1    4    4    0    0  0.18143232964E+00 -0.78497468123E+01 -0.24000441609E+01  0.82104600774E+01  0.00000000000E+00 0. -1.
</event>
<event>
 8    1  0.6019723E-011  0.9118800E+02  0.7816164E-02  0.1184000E+00
        -11   -1    0    0    0    0  0.00000000000E+00  0.00000000000E+00  0.45593999997E+02  0.45594000000E+02  0.51100000000E-03 0. -1.
         11   -1    0    0    0    0 -0.00000000000E+00 -0.00000000000E+00 -0.45593999997E+02  0.45594000000E+02  0.51100000000E-03 0.  1.
         23    2    1    2    0    0  0.00000000000E+00  0.00000000000E+00  0.00000000000E+00  0.91188000000E+02  0.91188000000E+02 0.  0.
    9900012    2    3    3    0    0 -0.94851112910E+01 -0.94391842240E+00  0.42341057580E+02  0.47787268725E+02  0.19999989425E+02 0.  0.
        -12    1    3    3    0    0  0.94851112910E+01  0.94391842240E+00 -0.42341057580E+02  0.43400731275E+02  0.00000000000E+00 0.  1.
         11    1    4    4    0    0 -0.25519140485E+01  0.65549857362E+01  0.14924506759E+02  0.16499121357E+02  0.51100000000E-03 0. -1.
        -11    1    4    4    0    0 -0.99968002400E+01 -0.60703825903E+01  0.21250180894E+02  0.24256045600E+02  0.51100000000E-03 0.  1.
         12    1    4    4    0    0  0.30636029975E+01 -0.14285215682E+01  0.61663699274E+01  0.70321017682E+01  0.00000000000E+00 0. -1.
</event>
<event>
 8    1  0.6019723E-011  0.9118800E+02  0.7816164E-02  0.1184000E+00
        -11   -1    0    0    0    0  0.00000000000E+00  0.00000000000E+00  0.45593999997E+02  0.45594000000E+02  0.51100000000E-03 0. -1.
         11   -1    0    0    0    0 -0.00000000000E+00 -0.00000000000E+00 -0.45593999997E+02  0.45594000000E+02  0.51100000000E-03 0.  1.
         23    2    1    2    0    0 -0.35527136788E-14  0.00000000000E+00  0.00000000000E+00  0.91188000000E+02  0.91188000000E+02 0.  0.
    9900012    2    3    3    0    0  0.26294190660E+02  0.27256816514E+01 -0.34421063439E+02  0.47787269462E+02  0.19999992787E+02 0.  0.
         12    1    3    3    0    0 -0.26294190660E+02 -0.27256816514E+01  0.34421063439E+02  0.43400730538E+02  0.00000000000E+00 0. -1.
         11    1    4    4    0    0  0.32377006990E+01  0.47067168239E+00 -0.31875714816E+00  0.32872243656E+01  0.51100000000E-03 0. -1.
        -11    1    4    4    0    0  0.75039729426E+01  0.21315462364E+01 -0.92164498337E+00  0.78550957358E+01  0.51100000000E-03 0.  1.
        -12    1    4    4    0    0  0.15552517019E+02  0.12346373256E+00 -0.33180661307E+02  0.36644949361E+02  0.00000000000E+00 0.  1.
</event>
<event>
 8    1  0.6019723E-011  0.9118800E+02  0.7816164E-02  0.1184000E+00
        -11   -1    0    0    0    0  0.00000000000E+00  0.00000000000E+00  0.45593999997E+02  0.45594000000E+02  0.51100000000E-03 0. -1.
         11   -1    0    0    0    0 -0.00000000000E+00 -0.00000000000E+00 -0.45593999997E+02  0.45594000000E+02  0.51100000000E-03 0.  1.
         23    2    1    2    0    0  0.00000000000E+00 -0.17763568394E-14  0.00000000000E+00  0.91188000000E+02  0.91188000000E+02 0.  0.
    9900012    2    3    3    0    0  0.88217608747E+01 -0.14628635439E+02  0.39897404632E+02  0.47787270328E+02  0.19999996733E+02 0.  0.
        -12    1    3    3    0    0 -0.88217608747E+01  0.14628635439E+02 -0.39897404632E+02  0.43400729672E+02  0.00000000000E+00 0.  1.
         11    1    4    4    0    0  0.33128031071E+01 -0.16167747792E+02  0.21168307251E+02  0.26841534330E+02  0.51100000000E-03 0. -1.
        -11    1    4    4    0    0  0.33789662566E+01  0.79038235305E+00  0.18326767202E+02  0.18652413076E+02  0.51100000000E-03 0.  1.
         12    1    4    4    0    0  0.21299915110E+01  0.74872999944E+00  0.40233017889E+00  0.22933229214E+01  0.00000000000E+00 0. -1.
</event>
<event>
 8    1  0.6019723E-011  0.9118800E+02  0.7816164E-02  0.1184000E+00
        -11   -1    0    0    0    0  0.00000000000E+00  0.00000000000E+00  0.45593999997E+02  0.45594000000E+02  0.51100000000E-03 0. -1.
         11   -1    0    0    0    0 -0.00000000000E+00 -0.00000000000E+00 -0.45593999997E+02  0.45594000000E+02  0.51100000000E-03 0.  1.
         23    2    1    2    0    0  0.17763568394E-14  0.00000000000E+00  0.00000000000E+00  0.91188000000E+02  0.91188000000E+02 0.  0.
    9900012    2    3    3    0    0  0.11098469897E+02 -0.22661515619E+02 -0.35311432746E+02  0.47787336332E+02  0.20000297670E+02 0.  0.
         12    1    3    3    0    0 -0.11098469897E+02  0.22661515619E+02  0.35311432746E+02  0.43400663668E+02  0.00000000000E+00 0. -1.
         11    1    4    4    0    0  0.11020074701E+01 -0.67184238343E+00 -0.60652838981E+00  0.14260678810E+01  0.51100000000E-03 0. -1.
        -11    1    4    4    0    0 -0.30336806391E+01 -0.65735632701E+01 -0.13357370923E+01  0.73620069361E+01  0.51100000000E-03 0.  1.
        -12    1    4    4    0    0  0.13030143066E+02 -0.15416109966E+02 -0.33369167264E+02  0.38999261515E+02  0.00000000000E+00 0.  1.
</event>
<event>
 8    1  0.6019723E-011  0.9118800E+02  0.7816164E-02  0.1184000E+00
        -11   -1    0    0    0    0  0.00000000000E+00  0.00000000000E+00  0.45593999997E+02  0.45594000000E+02  0.51100000000E-03 0. -1.
         11   -1    0    0    0    0 -0.00000000000E+00 -0.00000000000E+00 -0.45593999997E+02  0.45594000000E+02  0.51100000000E-03 0.  1.
         23    2    1    2    0    0  0.00000000000E+00  0.00000000000E+00  0.00000000000E+00  0.91188000000E+02  0.91188000000E+02 0.  0.
    9900012    2    3    3    0    0  0.26489779507E+02 -0.14338307973E+01  0.34349065721E+02  0.47787278750E+02  0.20000035134E+02 0.  0.
        -12    1    3    3    0    0 -0.26489779507E+02  0.14338307973E+01 -0.34349065721E+02  0.43400721250E+02  0.00000000000E+00 0.  1.
         11    1    4    4    0    0  0.18325848325E+02  0.83834997305E+00  0.98666150837E+01  0.20830017787E+02  0.51100000000E-03 0. -1.
        -11    1    4    4    0    0  0.92663944851E+01 -0.12339058098E+01  0.23046685978E+02  0.24870430738E+02  0.51100000000E-03 0.  1.
         12    1    4    4    0    0 -0.11024633037E+01 -0.10382749605E+01  0.14357646601E+01  0.20868302252E+01  0.00000000000E+00 0. -1.
</event>
<event>
 8    1  0.6019723E-011  0.9118800E+02  0.7816164E-02  0.1184000E+00
        -11   -1    0    0    0    0  0.00000000000E+00  0.00000000000E+00  0.45593999997E+02  0.45594000000E+02  0.51100000000E-03 0. -1.
         11   -1    0    0    0    0 -0.00000000000E+00 -0.00000000000E+00 -0.45593999997E+02  0.45594000000E+02  0.51100000000E-03 0.  1.
         23    2    1    2    0    0  0.00000000000E+00  0.00000000000E+00 -0.71054273576E-14  0.91188000000E+02  0.91188000000E+02 0.  0.
    9900012    2    3    3    0    0  0.19976251218E+02 -0.12857637160E+02  0.36321540824E+02  0.47787265285E+02  0.19999973739E+02 0.  0.
        -12    1    3    3    0    0 -0.19976251218E+02  0.12857637160E+02 -0.36321540824E+02  0.43400734715E+02  0.00000000000E+00 0.  1.
         11    1    4    4    0    0  0.13104021909E+02 -0.50601388140E+01  0.27426997243E+02  0.30814940744E+02  0.51100000000E-03 0. -1.
        -11    1    4    4    0    0  0.79386652172E+01 -0.26670620879E+01  0.25724253714E+01  0.87608788465E+01  0.51100000000E-03 0.  1.
         12    1    4    4    0    0 -0.10664359083E+01 -0.51304362578E+01  0.63221182087E+01  0.82114456941E+01  0.00000000000E+00 0. -1.
</event>
<event>
 8    1  0.6019723E-011  0.9118800E+02  0.7816164E-02  0.1184000E+00
        -11   -1    0    0    0    0  0.00000000000E+00  0.00000000000E+00  0.45593999997E+02  0.45594000000E+02  0.51100000000E-03 0. -1.
         11   -1    0    0    0    0 -0.00000000000E+00 -0.00000000000E+00 -0.45593999997E+02  0.45594000000E+02  0.51100000000E-03 0.  1.
         23    2    1    2    0    0  0.00000000000E+00  0.00000000000E+00  0.00000000000E+00  0.91188000000E+02  0.91188000000E+02 0.  0.
    9900012    2    3    3    0    0 -0.62632096227E+01  0.11718303626E+02 -0.41316787733E+02  0.47787269785E+02  0.19999994256E+02 0.  0.
         12    1    3    3    0    0  0.62632096227E+01 -0.11718303626E+02  0.41316787733E+02  0.43400730215E+02  0.00000000000E+00 0. -1.
         11    1    4    4    0    0  0.20937421680E+01 -0.42754332395E+01 -0.43523917121E+01  0.64503022819E+01  0.51100000000E-03 0. -1.
        -11    1    4    4    0    0 -0.86317516949E+01  0.15104836870E+02 -0.36070290930E+02  0.40046586898E+02  0.51100000000E-03 0.  1.
        -12    1    4    4    0    0  0.27479990426E+00  0.88889999587E+00 -0.89410509106E+00  0.12903806043E+01  0.00000000000E+00 0.  1.
</event>
<event>
 8    1  0.6019723E-011  0.9118800E+02  0.7816164E-02  0.1184000E+00
        -11   -1    0    0    0    0  0.00000000000E+00  0.00000000000E+00  0.45593999997E+02  0.45594000000E+02  0.51100000000E-03 0. -1.
         11   -1    0    0    0    0 -0.00000000000E+00 -0.00000000000E+00 -0.45593999997E+02  0.45594000000E+02  0.51100000000E-03 0.  1.
         23    2    1    2    0    0  0.00000000000E+00  0.00000000000E+00  0.00000000000E+00  0.91188000000E+02  0.91188000000E+02 0.  0.
    9900012    2    3    3    0    0  0.19238542444E+02  0.12890617490E+02  0.36706045130E+02  0.47787270931E+02  0.19999999481E+02 0.  0.
        -12    1    3    3    0    0 -0.19238542444E+02 -0.12890617490E+02 -0.36706045130E+02  0.43400729069E+02  0.00000000000E+00 0.  1.
         11    1    4    4    0    0  0.64699212053E+01  0.13740065856E+02  0.23003791603E+02  0.27564900117E+02  0.51100000000E-03 0. -1.
        -11    1    4    4    0    0  0.78085037095E+01 -0.20154800139E+01  0.34453307576E+01  0.87695606593E+01  0.51100000000E-03 0.  1.
        -12    1    4    4    0    0  0.49601175296E+01  0.11660316486E+01  0.10256922770E+02  0.11452810154E+02  0.00000000000E+00 0.  1.
</event>
<event>
 8    1  0.6019723E-011  0.9118800E+02  0.7816164E-02  0.1184000E+00
        -11   -1    0    0    0    0  0.00000000000E+00  0.00000000000E+00  0.45593999997E+02  0.45594000000E+02  0.51100000000E-03 0. -1.
         11   -1    0    0    0    0 -0.00000000000E+00 -0.00000000000E+00 -0.45593999997E+02  0.45594000000E+02  0.51100000000E-03 0.  1.
         23    2    1    2    0    0  0.00000000000E+00  0.00000000000E+00  0.00000000000E+00  0.91188000000E+02  0.91188000000E+02 0.  0.
    9900012    2    3    3    0    0 -0.32840970854E+02 -0.77808941504E+01 -0.27286409693E+02  0.47787310670E+02  0.20000180667E+02 0.  0.
         12    1    3    3    0    0  0.32840970854E+02  0.77808941504E+01  0.27286409693E+02  0.43400689330E+02  0.00000000000E+00 0. -1.
         11    1    4    4    0    0 -0.26390303404E+02 -0.14959475770E+01 -0.13367293961E+02  0.29620440932E+02  0.51100000000E-03 0. -1.
        -11    1    4    4    0    0 -0.72992524264E+01 -0.65791069298E+01 -0.95372134829E+01  0.13693873640E+02  0.51100000000E-03 0.  1.
         12    1    4    4    0    0  0.84858497639E+00  0.29416035633E+00 -0.43819022489E+01  0.44729960984E+01  0.00000000000E+00 0. -1.
</event>
<event>
 8    1  0.6019723E-011  0.9118800E+02  0.7816164E-02  0.1184000E+00
        -11   -1    0    0    0    0  0.00000000000E+00  0.00000000000E+00  0.45593999997E+02  0.45594000000E+02  0.51100000000E-03 0. -1.
         11   -1    0    0    0    0 -0.00000000000E+00 -0.00000000000E+00 -0.45593999997E+02  0.45594000000E+02  0.51100000000E-03 0.  1.
         23    2    1    2    0    0 -0.17763568394E-14 -0.13322676296E-14  0.00000000000E+00  0.91188000000E+02  0.91188000000E+02 0.  0.
    9900012    2    3    3    0    0 -0.92198162243E+01  0.29411322792E+01  0.42308011561E+02  0.47787272903E+02  0.20000008475E+02 0.  0.
        -12    1    3    3    0    0  0.92198162243E+01 -0.29411322792E+01 -0.42308011561E+02  0.43400727097E+02  0.00000000000E+00 0.  1.
         11    1    4    4    0    0 -0.22129826614E+01 -0.50736658053E+01  0.39542221509E+01  0.68025914211E+01  0.51100000000E-03 0. -1.
        -11    1    4    4    0    0  0.36801824567E+00  0.61005792900E+01  0.10936033021E+02  0.12527941714E+02  0.51100000000E-03 0.  1.
         12    1    4    4    0    0 -0.73748518086E+01  0.19142187945E+01  0.27417756389E+02  0.28456739768E+02  0.00000000000E+00 0. -1.
</event>
<event>
 8    1  0.6019723E-011  0.9118800E+02  0.7816164E-02  0.1184000E+00
        -11   -1    0    0    0    0  0.00000000000E+00  0.00000000000E+00  0.45593999997E+02  0.45594000000E+02  0.51100000000E-03 0. -1.
         11   -1    0    0    0    0 -0.00000000000E+00 -0.00000000000E+00 -0.45593999997E+02  0.45594000000E+02  0.51100000000E-03 0.  1.
         23    2    1    2    0    0 -0.17763568394E-14 -0.44408920985E-15  0.71054273576E-14  0.91188000000E+02  0.91188000000E+02 0.  0.
    9900012    2    3    3    0    0 -0.15515352024E+02  0.32048030446E+01  0.40405767561E+02  0.47787274624E+02  0.20000016321E+02 0.  0.
        -12    1    3    3    0    0  0.15515352024E+02 -0.32048030446E+01 -0.40405767561E+02  0.43400725376E+02  0.00000000000E+00 0.  1.
         11    1    4    4    0    0 -0.15109031269E+02  0.65069247544E+01  0.24678973802E+02  0.29659309564E+02  0.51100000000E-03 0. -1.
        -11    1    4    4    0    0  0.35471526930E+01 -0.34487841655E+01  0.72976868874E+01  0.88166115155E+01  0.51100000000E-03 0.  1.
        -12    1    4    4    0    0 -0.39534734483E+01  0.14666245567E+00  0.84291068710E+01  0.93113535442E+01  0.00000000000E+00 0.  1.
</event>
<event>
 8    1  0.6019723E-011  0.9118800E+02  0.7816164E-02  0.1184000E+00
        -11   -1    0    0    0    0  0.00000000000E+00  0.00000000000E+00  0.45593999997E+02  0.45594000000E+02  0.51100000000E-03 0. -1.
         11   -1    0    0    0    0 -0.00000000000E+00 -0.00000000000E+00 -0.45593999997E+02  0.45594000000E+02  0.51100000000E-03 0.  1.
         23    2    1    2    0    0  0.17763568394E-14 -0.35527136788E-14  0.00000000000E+00  0.91188000000E+02  0.91188000000E+02 0.  0.
    9900012    2    3    3    0    0 -0.87820007852E+01  0.19649218081E+02  0.37688300811E+02  0.47787270432E+02  0.19999997210E+02 0.  0.
        -12    1    3    3    0    0  0.87820007852E+01 -0.19649218081E+02 -0.37688300811E+02  0.43400729568E+02  0.00000000000E+00 0.  1.
         11    1    4    4    0    0 -0.11887178390E+01 -0.32665230473E+01  0.26502180199E+01  0.43711415824E+01  0.51100000000E-03 0. -1.
        -11    1    4    4    0    0 -0.64437413846E+01  0.74267940778E+01  0.10582332419E+02  0.14445235650E+02  0.51100000000E-03 0.  1.
         12    1    4    4    0    0 -0.11495415616E+01  0.15488947051E+02  0.24455750371E+02  0.28970893200E+02  0.00000000000E+00 0. -1.
</event>
<event>
 8    1  0.6019723E-011  0.9118800E+02  0.7816164E-02  0.1184000E+00
        -11   -1    0    0    0    0  0.00000000000E+00  0.00000000000E+00  0.45593999997E+02  0.45594000000E+02  0.51100000000E-03 0. -1.
         11   -1    0    0    0    0 -0.00000000000E+00 -0.00000000000E+00 -0.45593999997E+02  0.45594000000E+02  0.51100000000E-03 0.  1.
         23    2    1    2    0    0  0.00000000000E+00  0.00000000000E+00  0.00000000000E+00  0.91188000000E+02  0.91188000000E+02 0.  0.
    9900012    2    3    3    0    0 -0.36796775337E+02  0.20938636865E+02 -0.95495628247E+01  0.47787270293E+02  0.19999996572E+02 0.  0.
         12    1    3    3    0    0  0.36796775337E+02 -0.20938636865E+02  0.95495628247E+01  0.43400729707E+02  0.00000000000E+00 0. -1.
         11    1    4    4    0    0 -0.12248574533E+02  0.91248786668E+01 -0.11704795155E+02  0.19243004408E+02  0.51100000000E-03 0. -1.
        -11    1    4    4    0    0 -0.17794509108E+02  0.11379010163E+02 -0.85122958057E+00  0.21138850932E+02  0.51100000000E-03 0.  1.
         12    1    4    4    0    0 -0.67536916970E+01  0.43474803479E+00  0.30064619109E+01  0.74054149522E+01  0.00000000000E+00 0. -1.
</event>
<event>
 8    1  0.6019723E-011  0.9118800E+02  0.7816164E-02  0.1184000E+00
        -11   -1    0    0    0    0  0.00000000000E+00  0.00000000000E+00  0.45593999997E+02  0.45594000000E+02  0.51100000000E-03 0. -1.
         11   -1    0    0    0    0 -0.00000000000E+00 -0.00000000000E+00 -0.45593999997E+02  0.45594000000E+02  0.51100000000E-03 0.  1.
         23    2    1    2    0    0  0.00000000000E+00 -0.35527136788E-14  0.00000000000E+00  0.91188000000E+02  0.91188000000E+02 0.  0.
    9900012    2    3    3    0    0  0.21648271963E+02  0.22773611955E+02  0.29938909708E+02  0.47787269649E+02  0.19999993639E+02 0.  0.
        -12    1    3    3    0    0 -0.21648271963E+02 -0.22773611955E+02 -0.29938909708E+02  0.43400730351E+02  0.00000000000E+00 0.  1.
         11    1    4    4    0    0  0.14027244685E+02  0.96469261380E+01  0.68660477194E+01  0.18356725985E+02  0.51100000000E-03 0. -1.
        -11    1    4    4    0    0 -0.15828476393E+00 -0.67708413441E+00  0.63698045657E+01  0.64076444547E+01  0.51100000000E-03 0.  1.
         12    1    4    4    0    0  0.77793120424E+01  0.13803769952E+02  0.16703057423E+02  0.23022899209E+02  0.00000000000E+00 0. -1.
</event>
<event>
 8    1  0.6019723E-011  0.9118800E+02  0.7816164E-02  0.1184000E+00
        -11   -1    0    0    0    0  0.00000000000E+00  0.00000000000E+00  0.45593999997E+02  0.45594000000E+02  0.51100000000E-03 0. -1.
         11   -1    0    0    0    0 -0.00000000000E+00 -0.00000000000E+00 -0.45593999997E+02  0.45594000000E+02  0.51100000000E-03 0.  1.
         23    2    1    2    0    0  0.00000000000E+00  0.35527136788E-14  0.00000000000E+00  0.91188000000E+02  0.91188000000E+02 0.  0.
    9900012    2    3    3    0    0 -0.56491671851E+01 -0.21914055855E+02  0.37033566741E+02  0.47787262685E+02  0.19999961888E+02 0.  0.
        -12    1    3    3    0    0  0.56491671851E+01  0.21914055855E+02 -0.37033566741E+02  0.43400737315E+02  0.00000000000E+00 0.  1.
         11    1    4    4    0    0 -0.52501410914E+01 -0.30683428437E+01  0.34261575147E+01  0.69797754163E+01  0.51100000000E-03 0. -1.
        -11    1    4    4    0    0  0.32012164411E+01 -0.12826696138E+02  0.11195256713E+02  0.17323558920E+02  0.51100000000E-03 0.  1.
        -12    1    4    4    0    0 -0.36002425348E+01 -0.60190168731E+01  0.22412152513E+02  0.23483928349E+02  0.00000000000E+00 0.  1.
</event>
<event>
 8    1  0.6019723E-011  0.9118800E+02  0.7816164E-02  0.1184000E+00
        -11   -1    0    0    0    0  0.00000000000E+00  0.00000000000E+00  0.45593999997E+02  0.45594000000E+02  0.51100000000E-03 0. -1.
         11   -1    0    0    0    0 -0.00000000000E+00 -0.00000000000E+00 -0.45593999997E+02  0.45594000000E+02  0.51100000000E-03 0.  1.
         23    2    1    2    0    0  0.00000000000E+00  0.44408920985E-15 -0.71054273576E-14  0.91188000000E+02  0.91188000000E+02 0.  0.
    9900012    2    3    3    0    0  0.28652179039E+02  0.30468132955E+01 -0.32456018309E+02  0.47787267755E+02  0.19999985001E+02 0.  0.
         12    1    3    3    0    0 -0.28652179039E+02 -0.30468132955E+01  0.32456018309E+02  0.43400732245E+02  0.00000000000E+00 0. -1.
         11    1    4    4    0    0 -0.85111378857E+00  0.21229108362E+01  0.73225825009E+00  0.24015302425E+01  0.51100000000E-03 0. -1.
        -11    1    4    4    0    0  0.27511142350E+02  0.31171330961E+01 -0.27793338660E+02  0.39230716872E+02  0.51100000000E-03 0.  1.
        -12    1    4    4    0    0  0.19921504775E+01 -0.21932306367E+01 -0.53949378993E+01  0.61550206407E+01  0.00000000000E+00 0.  1.
</event>
<event>
 8    1  0.6019723E-011  0.9118800E+02  0.7816164E-02  0.1184000E+00
        -11   -1    0    0    0    0  0.00000000000E+00  0.00000000000E+00  0.45593999997E+02  0.45594000000E+02  0.51100000000E-03 0. -1.
         11   -1    0    0    0    0 -0.00000000000E+00 -0.00000000000E+00 -0.45593999997E+02  0.45594000000E+02  0.51100000000E-03 0.  1.
         23    2    1    2    0    0  0.00000000000E+00  0.17763568394E-14  0.00000000000E+00  0.91188000000E+02  0.91188000000E+02 0.  0.
    9900012    2    3    3    0    0  0.83146350102E+01 -0.12924610417E+02 -0.40588720889E+02  0.47787274508E+02  0.20000015794E+02 0.  0.
         12    1    3    3    0    0 -0.83146350102E+01  0.12924610417E+02  0.40588720889E+02  0.43400725492E+02  0.00000000000E+00 0. -1.
         11    1    4    4    0    0 -0.12641452689E+01 -0.29350766187E+01 -0.10905768356E+01  0.33766989967E+01  0.51100000000E-03 0. -1.
        -11    1    4    4    0    0  0.96747605309E+01 -0.97214596984E+00 -0.11848641630E+02  0.15327634124E+02  0.51100000000E-03 0.  1.
        -12    1    4    4    0    0 -0.95980251907E-01 -0.90173878288E+01 -0.27649502424E+02  0.29082941388E+02  0.00000000000E+00 0.  1.
</event>
<event>
 8    1  0.6019723E-011  0.9118800E+02  0.7816164E-02  0.1184000E+00
        -11   -1    0    0    0    0  0.00000000000E+00  0.00000000000E+00  0.45593999997E+02  0.45594000000E+02  0.51100000000E-03 0. -1.
         11   -1    0    0    0    0 -0.00000000000E+00 -0.00000000000E+00 -0.45593999997E+02  0.45594000000E+02  0.51100000000E-03 0.  1.
         23    2    1    2    0    0 -0.35527136788E-14 -0.88817841970E-15  0.71054273576E-14  0.91188000000E+02  0.91188000000E+02 0.  0.
    9900012    2    3    3    0    0 -0.17539427362E+02 -0.75596436679E+01  0.38972342810E+02  0.47787271565E+02  0.20000002374E+02 0.  0.
        -12    1    3    3    0    0  0.17539427362E+02  0.75596436679E+01 -0.38972342810E+02  0.43400728435E+02  0.00000000000E+00 0.  1.
         11    1    4    4    0    0 -0.36867204556E+01  0.43809080157E+01  0.37098688714E+01  0.68225647717E+01  0.51100000000E-03 0. -1.
        -11    1    4    4    0    0 -0.49086929691E+01 -0.10449755039E+02  0.16651798978E+02  0.20262651764E+02  0.51100000000E-03 0.  1.
         12    1    4    4    0    0 -0.89440139376E+01 -0.14907966443E+01  0.18610674961E+02  0.20702055029E+02  0.00000000000E+00 0. -1.
</event>
<event>
 8    1  0.6019723E-011  0.9118800E+02  0.7816164E-02  0.1184000E+00
        -11   -1    0    0    0    0  0.00000000000E+00  0.00000000000E+00  0.45593999997E+02  0.45594000000E+02  0.51100000000E-03 0. -1.
         11   -1    0    0    0    0 -0.00000000000E+00 -0.00000000000E+00 -0.45593999997E+02  0.45594000000E+02  0.51100000000E-03 0.  1.
         23    2    1    2    0    0 -0.44408920985E-15  0.00000000000E+00  0.00000000000E+00  0.91188000000E+02  0.91188000000E+02 0.  0.
    9900012    2    3    3    0    0 -0.34100523207E+01  0.43147759592E+02  0.32039948509E+01  0.47787271922E+02  0.20000004002E+02 0.  0.
         12    1    3    3    0    0  0.34100523207E+01 -0.43147759592E+02 -0.32039948509E+01  0.43400728078E+02  0.00000000000E+00 0. -1.
         11    1    4    4    0    0 -0.84123011710E+01  0.14087928605E+02  0.13412136536E+01  0.16463152727E+02  0.51100000000E-03 0. -1.
        -11    1    4    4    0    0  0.52796177695E+01  0.58692333259E+01  0.19499400759E+01  0.81316990959E+01  0.51100000000E-03 0.  1.
         12    1    4    4    0    0 -0.27736891923E+00  0.23190597661E+02 -0.87158878614E-01  0.23192420099E+02  0.00000000000E+00 0. -1.
</event>
<event>
 8    1  0.6019723E-011  0.9118800E+02  0.7816164E-02  0.1184000E+00
        -11   -1    0    0    0    0  0.00000000000E+00  0.00000000000E+00  0.45593999997E+02  0.45594000000E+02  0.51100000000E-03 0. -1.
         11   -1    0    0    0    0 -0.00000000000E+00 -0.00000000000E+00 -0.45593999997E+02  0.45594000000E+02  0.51100000000E-03 0.  1.
         23    2    1    2    0    0  0.00000000000E+00  0.00000000000E+00  0.00000000000E+00  0.91188000000E+02  0.91188000000E+02 0.  0.
    9900012    2    3    3    0    0  0.28926091733E+02 -0.28184579328E+02  0.15891309043E+02  0.47787274223E+02  0.20000014494E+02 0.  0.
        -12    1    3    3    0    0 -0.28926091733E+02  0.28184579328E+02 -0.15891309043E+02  0.43400725777E+02  0.00000000000E+00 0.  1.
         11    1    4    4    0    0  0.12384512814E+02 -0.14609470561E+02 -0.64913260386E+00  0.19163354642E+02  0.51100000000E-03 0. -1.
        -11    1    4    4    0    0  0.57203661683E+00 -0.52911468179E+01  0.30174144389E+01  0.61178632460E+01  0.51100000000E-03 0.  1.
         12    1    4    4    0    0  0.15969542302E+02 -0.82839619484E+01  0.13523027208E+02  0.22506056336E+02  0.00000000000E+00 0. -1.
</event>
<event>
 8    1  0.6019723E-011  0.9118800E+02  0.7816164E-02  0.1184000E+00
        -11   -1    0    0    0    0  0.00000000000E+00  0.00000000000E+00  0.45593999997E+02  0.45594000000E+02  0.51100000000E-03 0.  1.
         11   -1    0    0    0    0 -0.00000000000E+00 -0.00000000000E+00 -0.45593999997E+02  0.45594000000E+02  0.51100000000E-03 0. -1.
         23    2    1    2    0    0 -0.35527136788E-14  0.17763568394E-14  0.00000000000E+00  0.91188000000E+02  0.91188000000E+02 0.  0.
    9900012    2    3    3    0    0 -0.27158547359E+02 -0.80618363611E+01  0.32879224729E+02  0.47787270526E+02  0.19999997635E+02 0.  0.
        -12    1    3    3    0    0  0.27158547359E+02  0.80618363611E+01 -0.32879224729E+02  0.43400729474E+02  0.00000000000E+00 0.  1.
         11    1    4    4    0    0 -0.13839890046E+02 -0.10370771993E+02  0.27818676393E+02  0.32756285271E+02  0.51100000000E-03 0. -1.
        -11    1    4    4    0    0 -0.77926763225E+01  0.34232495626E+01  0.28512835357E+01  0.89763166108E+01  0.51100000000E-03 0.  1.
         12    1    4    4    0    0 -0.55259809897E+01 -0.11143139311E+01  0.22092647998E+01  0.60546686442E+01  0.00000000000E+00 0. -1.
</event>
<event>
 8    1  0.6019723E-011  0.9118800E+02  0.7816164E-02  0.1184000E+00
        -11   -1    0    0    0    0  0.00000000000E+00  0.00000000000E+00  0.45593999997E+02  0.45594000000E+02  0.51100000000E-03 0. -1.
         11   -1    0    0    0    0 -0.00000000000E+00 -0.00000000000E+00 -0.45593999997E+02  0.45594000000E+02  0.51100000000E-03 0.  1.
         23    2    1    2    0    0 -0.88817841970E-15  0.00000000000E+00  0.71054273576E-14  0.91188000000E+02  0.91188000000E+02 0.  0.
    9900012    2    3    3    0    0  0.49267746488E+01 -0.22123215200E+02 -0.37012330335E+02  0.47787281619E+02  0.20000048212E+02 0.  0.
         12    1    3    3    0    0 -0.49267746488E+01  0.22123215200E+02  0.37012330335E+02  0.43400718381E+02  0.00000000000E+00 0. -1.
         11    1    4    4    0    0  0.19446403388E+01 -0.10962464096E+01 -0.19361338750E+02  0.19489608018E+02  0.51100000000E-03 0. -1.
        -11    1    4    4    0    0 -0.11471927820E+01 -0.10902042969E+02 -0.10831773909E+02  0.15410967473E+02  0.51100000000E-03 0.  1.
         12    1    4    4    0    0  0.41293270919E+01 -0.10124925821E+02 -0.68192176757E+01  0.12886706128E+02  0.00000000000E+00 0. -1.
</event>
<event>
 8    1  0.6019723E-011  0.9118800E+02  0.7816164E-02  0.1184000E+00
        -11   -1    0    0    0    0  0.00000000000E+00  0.00000000000E+00  0.45593999997E+02  0.45594000000E+02  0.51100000000E-03 0. -1.
         11   -1    0    0    0    0 -0.00000000000E+00 -0.00000000000E+00 -0.45593999997E+02  0.45594000000E+02  0.51100000000E-03 0.  1.
         23    2    1    2    0    0 -0.66613381478E-15 -0.88817841970E-15  0.71054273576E-14  0.91188000000E+02  0.91188000000E+02 0.  0.
    9900012    2    3    3    0    0  0.11703910248E+01 -0.43683457519E+01 -0.43164464952E+02  0.47787270809E+02  0.19999998926E+02 0.  0.
         12    1    3    3    0    0 -0.11703910248E+01  0.43683457519E+01  0.43164464952E+02  0.43400729191E+02  0.00000000000E+00 0. -1.
         11    1    4    4    0    0  0.54731495463E+01 -0.79346248442E+01 -0.14257305169E+02  0.17210008376E+02  0.51100000000E-03 0. -1.
        -11    1    4    4    0    0 -0.56572622928E+01  0.41246817616E+01 -0.27981844555E+02  0.28844431720E+02  0.51100000000E-03 0.  1.
        -12    1    4    4    0    0  0.13545037713E+01 -0.55840266932E+00 -0.92531522790E+00  0.17328307126E+01  0.00000000000E+00 0.  1.
</event>
<event>
 8    1  0.6019723E-011  0.9118800E+02  0.7816164E-02  0.1184000E+00
        -11   -1    0    0    0    0  0.00000000000E+00  0.00000000000E+00  0.45593999997E+02  0.45594000000E+02  0.51100000000E-03 0. -1.
         11   -1    0    0    0    0 -0.00000000000E+00 -0.00000000000E+00 -0.45593999997E+02  0.45594000000E+02  0.51100000000E-03 0.  1.
         23    2    1    2    0    0  0.44408920985E-15  0.17763568394E-14  0.00000000000E+00  0.91188000000E+02  0.91188000000E+02 0.  0.
    9900012    2    3    3    0    0 -0.27372825090E+01 -0.91956732092E+01 -0.42326938179E+02  0.47787276309E+02  0.20000024002E+02 0.  0.
         12    1    3    3    0    0  0.27372825090E+01  0.91956732092E+01  0.42326938179E+02  0.43400723691E+02  0.00000000000E+00 0. -1.
         11    1    4    4    0    0  0.26543775963E+01  0.63378135791E+00  0.56272958403E+00  0.27864070197E+01  0.51100000000E-03 0. -1.
        -11    1    4    4    0    0 -0.44236572749E+01 -0.66564684356E+01 -0.39334849410E+02  0.40138606031E+02  0.51100000000E-03 0.  1.
         12    1    4    4    0    0 -0.96800283038E+00 -0.31729861315E+01 -0.35548183530E+01  0.48622632583E+01  0.00000000000E+00 0. -1.
</event>
<event>
 8    1  0.6019723E-011  0.9118800E+02  0.7816164E-02  0.1184000E+00
        -11   -1    0    0    0    0  0.00000000000E+00  0.00000000000E+00  0.45593999997E+02  0.45594000000E+02  0.51100000000E-03 0. -1.
         11   -1    0    0    0    0 -0.00000000000E+00 -0.00000000000E+00 -0.45593999997E+02  0.45594000000E+02  0.51100000000E-03 0.  1.
         23    2    1    2    0    0  0.00000000000E+00  0.71054273576E-14  0.00000000000E+00  0.91188000000E+02  0.91188000000E+02 0.  0.
    9900012    2    3    3    0    0 -0.20693557999E+02 -0.32021132368E+02  0.20737555071E+02  0.47787280523E+02  0.20000043217E+02 0.  0.
        -12    1    3    3    0    0  0.20693557999E+02  0.32021132368E+02 -0.20737555071E+02  0.43400719477E+02  0.00000000000E+00 0.  1.
         11    1    4    4    0    0 -0.59851049883E+00 -0.10908528376E+02  0.10136691105E+02  0.14903245048E+02  0.51100000000E-03 0. -1.
        -11    1    4    4    0    0 -0.16969704116E+02 -0.13476840876E+02  0.34045123336E+01  0.21935970512E+02  0.51100000000E-03 0.  1.
         12    1    4    4    0    0 -0.31253433844E+01 -0.76357631151E+01  0.71963516322E+01  0.10948064963E+02  0.00000000000E+00 0. -1.
</event>
<event>
 8    1  0.6019723E-011  0.9118800E+02  0.7816164E-02  0.1184000E+00
        -11   -1    0    0    0    0  0.00000000000E+00  0.00000000000E+00  0.45593999997E+02  0.45594000000E+02  0.51100000000E-03 0. -1.
         11   -1    0    0    0    0 -0.00000000000E+00 -0.00000000000E+00 -0.45593999997E+02  0.45594000000E+02  0.51100000000E-03 0.  1.
         23    2    1    2    0    0  0.00000000000E+00  0.00000000000E+00  0.00000000000E+00  0.91188000000E+02  0.91188000000E+02 0.  0.
    9900012    2    3    3    0    0  0.16170931230E+02 -0.21197466602E+02 -0.34246049872E+02  0.47787267990E+02  0.19999986074E+02 0.  0.
         12    1    3    3    0    0 -0.16170931230E+02  0.21197466602E+02  0.34246049872E+02  0.43400732010E+02  0.00000000000E+00 0. -1.
         11    1    4    4    0    0  0.55703190498E+01 -0.42152014544E+01 -0.21761864763E+00  0.69888293551E+01  0.51100000000E-03 0. -1.
        -11    1    4    4    0    0  0.10897757024E+02 -0.16718264255E+02 -0.34693439192E+02  0.40023695370E+02  0.51100000000E-03 0.  1.
        -12    1    4    4    0    0 -0.29714484347E+00 -0.26400089258E+00  0.66500796789E+00  0.77474326499E+00  0.00000000000E+00 0.  1.
</event>
<event>
 8    1  0.6019723E-011  0.9118800E+02  0.7816164E-02  0.1184000E+00
        -11   -1    0    0    0    0  0.00000000000E+00  0.00000000000E+00  0.45593999997E+02  0.45594000000E+02  0.51100000000E-03 0. -1.
         11   -1    0    0    0    0 -0.00000000000E+00 -0.00000000000E+00 -0.45593999997E+02  0.45594000000E+02  0.51100000000E-03 0.  1.
         23    2    1    2    0    0 -0.35527136788E-14  0.35527136788E-14  0.00000000000E+00  0.91188000000E+02  0.91188000000E+02 0.  0.
    9900012    2    3    3    0    0  0.21586376865E+02 -0.19497839352E+02  0.32210027103E+02  0.47787271302E+02  0.20000001175E+02 0.  0.
        -12    1    3    3    0    0 -0.21586376865E+02  0.19497839352E+02 -0.32210027103E+02  0.43400728698E+02  0.00000000000E+00 0.  1.
         11    1    4    4    0    0  0.11931720684E+02 -0.14984554045E+02  0.27863473755E+02  0.33812364430E+02  0.51100000000E-03 0. -1.
        -11    1    4    4    0    0  0.96994632743E+01 -0.11657104547E+01  0.41710502722E+01  0.10622435187E+02  0.51100000000E-03 0.  1.
         12    1    4    4    0    0 -0.44807093108E-01 -0.33475748521E+01  0.17550307572E+00  0.33524716845E+01  0.00000000000E+00 0. -1.
</event>
<event>
 8    1  0.6019723E-011  0.9118800E+02  0.7816164E-02  0.1184000E+00
        -11   -1    0    0    0    0  0.00000000000E+00  0.00000000000E+00  0.45593999997E+02  0.45594000000E+02  0.51100000000E-03 0. -1.
         11   -1    0    0    0    0 -0.00000000000E+00 -0.00000000000E+00 -0.45593999997E+02  0.45594000000E+02  0.51100000000E-03 0.  1.
         23    2    1    2    0    0  0.00000000000E+00 -0.35527136788E-14 -0.35527136788E-14  0.91188000000E+02  0.91188000000E+02 0.  0.
    9900012    2    3    3    0    0  0.24612861046E+02 -0.23540496100E+02 -0.26901217884E+02  0.47787269486E+02  0.19999992894E+02 0.  0.
         12    1    3    3    0    0 -0.24612861046E+02  0.23540496100E+02  0.26901217884E+02  0.43400730514E+02  0.00000000000E+00 0. -1.
         11    1    4    4    0    0  0.23180916829E+02 -0.95327709280E+01 -0.17947705327E+02  0.30827727022E+02  0.51100000000E-03 0. -1.
        -11    1    4    4    0    0  0.10960209340E+01 -0.80167281995E+01 -0.33763409206E+01  0.87674894460E+01  0.51100000000E-03 0.  1.
         12    1    4    4    0    0  0.33592328327E+00 -0.59909969729E+01 -0.55771716367E+01  0.81920530178E+01  0.00000000000E+00 0. -1.
</event>
<event>
 8    1  0.6019723E-011  0.9118800E+02  0.7816164E-02  0.1184000E+00
        -11   -1    0    0    0    0  0.00000000000E+00  0.00000000000E+00  0.45593999997E+02  0.45594000000E+02  0.51100000000E-03 0. -1.
         11   -1    0    0    0    0 -0.00000000000E+00 -0.00000000000E+00 -0.45593999997E+02  0.45594000000E+02  0.51100000000E-03 0.  1.
         23    2    1    2    0    0  0.00000000000E+00  0.00000000000E+00  0.00000000000E+00  0.91188000000E+02  0.91188000000E+02 0.  0.
    9900012    2    3    3    0    0  0.28644432347E+02 -0.27093577198E+02 -0.18139899236E+02  0.47787292930E+02  0.20000099787E+02 0.  0.
         12    1    3    3    0    0 -0.28644432347E+02  0.27093577198E+02  0.18139899236E+02  0.43400707070E+02  0.00000000000E+00 0. -1.
         11    1    4    4    0    0 -0.12602406604E+01 -0.73245353729E+01 -0.28333732389E+01  0.79539316770E+01  0.51100000000E-03 0. -1.
        -11    1    4    4    0    0  0.30145941599E+02 -0.19806598307E+02 -0.15724778940E+02  0.39349050870E+02  0.51100000000E-03 0.  1.
        -12    1    4    4    0    0 -0.24126859233E+00  0.37556482080E-01  0.41825294289E+00  0.48431038315E+00  0.00000000000E+00 0.  1.
</event>
<event>
 8    1  0.6019723E-011  0.9118800E+02  0.7816164E-02  0.1184000E+00
        -11   -1    0    0    0    0  0.00000000000E+00  0.00000000000E+00  0.45593999997E+02  0.45594000000E+02  0.51100000000E-03 0. -1.
         11   -1    0    0    0    0 -0.00000000000E+00 -0.00000000000E+00 -0.45593999997E+02  0.45594000000E+02  0.51100000000E-03 0.  1.
         23    2    1    2    0    0  0.00000000000E+00  0.00000000000E+00  0.00000000000E+00  0.91188000000E+02  0.91188000000E+02 0.  0.
    9900012    2    3    3    0    0 -0.10504562005E+02 -0.10192436490E+02 -0.40858191597E+02  0.47787269533E+02  0.19999993107E+02 0.  0.
         12    1    3    3    0    0  0.10504562005E+02  0.10192436490E+02  0.40858191597E+02  0.43400730467E+02  0.00000000000E+00 0. -1.
         11    1    4    4    0    0 -0.77573717133E+01  0.12410591828E+01 -0.10450323068E+02  0.13073878395E+02  0.51100000000E-03 0. -1.
        -11    1    4    4    0    0 -0.40621182896E+01 -0.13371160711E+02 -0.28301872515E+02  0.31563978391E+02  0.51100000000E-03 0.  1.
        -12    1    4    4    0    0  0.13149279975E+01  0.19376650382E+01 -0.21059960137E+01  0.31494127467E+01  0.00000000000E+00 0.  1.
</event>
<event>
 8    1  0.8002864E-011  0.9118800E+02  0.7816164E-02  0.1184000E+00
        -11   -1    0    0    0    0  0.00000000000E+00  0.00000000000E+00  0.45593999997E+02  0.45594000000E+02  0.51100000000E-03 0.  1.
         11   -1    0    0    0    0 -0.00000000000E+00 -0.00000000000E+00 -0.45593999997E+02  0.45594000000E+02  0.51100000000E-03 0. -1.
         23    2    1    2    0    0  0.00000000000E+00  0.00000000000E+00  0.00000000000E+00  0.91188000000E+02  0.91188000000E+02 0.  0.
    9900012    2    3    3    0    0 -0.38459397489E+02 -0.14363106020E+02 -0.14078321081E+02  0.47787271962E+02  0.20000004185E+02 0.  0.
         12    1    3    3    0    0  0.38459397489E+02  0.14363106020E+02  0.14078321081E+02  0.43400728038E+02  0.00000000000E+00 0. -1.
         11    1    4    4    0    0 -0.55311513944E+01  0.36092965643E+01 -0.26830503274E+00  0.66100412472E+01  0.51100000000E-03 0. -1.
        -11    1    4    4    0    0 -0.28844198552E+02 -0.11323830641E+02 -0.11209292723E+02  0.32952468406E+02  0.51100000000E-03 0.  1.
         12    1    4    4    0    0 -0.40840475425E+01 -0.66485719437E+01 -0.26007233255E+01  0.82247623088E+01  0.00000000000E+00 0. -1.
</event>
<event>
 8    1  0.6019723E-011  0.9118800E+02  0.7816164E-02  0.1184000E+00
        -11   -1    0    0    0    0  0.00000000000E+00  0.00000000000E+00  0.45593999997E+02  0.45594000000E+02  0.51100000000E-03 0.  1.
         11   -1    0    0    0    0 -0.00000000000E+00 -0.00000000000E+00 -0.45593999997E+02  0.45594000000E+02  0.51100000000E-03 0. -1.
         23    2    1    2    0    0 -0.71054273576E-14  0.00000000000E+00  0.00000000000E+00  0.91188000000E+02  0.91188000000E+02 0.  0.
    9900012    2    3    3    0    0  0.39801758434E+02  0.54365793767E+01 -0.16428329491E+02  0.47787235265E+02  0.19999836864E+02 0.  0.
        -12    1    3    3    0    0 -0.39801758434E+02 -0.54365793767E+01  0.16428329491E+02  0.43400764735E+02  0.00000000000E+00 0.  1.
         11    1    4    4    0    0  0.11075646761E+02  0.23127616428E+01 -0.35982013017E+01  0.11872904887E+02  0.51100000000E-03 0. -1.
        -11    1    4    4    0    0  0.82722801564E+01  0.89717574163E+01 -0.57809958013E+01  0.13503442629E+02  0.51100000000E-03 0.  1.
        -12    1    4    4    0    0  0.20453831516E+02 -0.58479396825E+01 -0.70491323882E+01  0.22410887748E+02  0.00000000000E+00 0.  1.
</event>
<event>
 8    1  0.6019723E-011  0.9118800E+02  0.7816164E-02  0.1184000E+00
        -11   -1    0    0    0    0  0.00000000000E+00  0.00000000000E+00  0.45593999997E+02  0.45594000000E+02  0.51100000000E-03 0. -1.
         11   -1    0    0    0    0 -0.00000000000E+00 -0.00000000000E+00 -0.45593999997E+02  0.45594000000E+02  0.51100000000E-03 0.  1.
         23    2    1    2    0    0  0.22204460493E-15 -0.35527136788E-14  0.00000000000E+00  0.91188000000E+02  0.91188000000E+02 0.  0.
    9900012    2    3    3    0    0 -0.19456331564E+01  0.23483819828E+02  0.36446502899E+02  0.47787275862E+02  0.20000021967E+02 0.  0.
        -12    1    3    3    0    0  0.19456331564E+01 -0.23483819828E+02 -0.36446502899E+02  0.43400724138E+02  0.00000000000E+00 0.  1.
         11    1    4    4    0    0  0.37857010825E+01  0.20514778209E+02  0.24449213936E+02  0.32139566270E+02  0.51100000000E-03 0. -1.
        -11    1    4    4    0    0 -0.22152527066E+01  0.31026722970E+01  0.11473533271E+02  0.12090321994E+02  0.51100000000E-03 0.  1.
         12    1    4    4    0    0 -0.35160815323E+01 -0.13363067859E+00  0.52375569233E+00  0.35573875984E+01  0.00000000000E+00 0. -1.
</event>
<event>
 8    1  0.6019723E-011  0.9118800E+02  0.7816164E-02  0.1184000E+00
        -11   -1    0    0    0    0  0.00000000000E+00  0.00000000000E+00  0.45593999997E+02  0.45594000000E+02  0.51100000000E-03 0. -1.
         11   -1    0    0    0    0 -0.00000000000E+00 -0.00000000000E+00 -0.45593999997E+02  0.45594000000E+02  0.51100000000E-03 0.  1.
         23    2    1    2    0    0 -0.17763568394E-14  0.00000000000E+00  0.00000000000E+00  0.91188000000E+02  0.91188000000E+02 0.  0.
    9900012    2    3    3    0    0  0.12079695018E+02 -0.31634512551E+02 -0.27147032974E+02  0.47787276327E+02  0.20000024085E+02 0.  0.
         12    1    3    3    0    0 -0.12079695018E+02  0.31634512551E+02  0.27147032974E+02  0.43400723673E+02  0.00000000000E+00 0. -1.
         11    1    4    4    0    0  0.24106896975E+01 -0.23823262454E+02 -0.98057822960E+01  0.25874942038E+02  0.51100000000E-03 0. -1.
        -11    1    4    4    0    0  0.89200437329E+01 -0.45527377328E+01 -0.13682648543E+02  0.16956104283E+02  0.51100000000E-03 0.  1.
        -12    1    4    4    0    0  0.74896158734E+00 -0.32585123640E+01 -0.36586021351E+01  0.49562300056E+01  0.00000000000E+00 0.  1.
</event>
<event>
 8    1  0.6019723E-011  0.9118800E+02  0.7816164E-02  0.1184000E+00
        -11   -1    0    0    0    0  0.00000000000E+00  0.00000000000E+00  0.45593999997E+02  0.45594000000E+02  0.51100000000E-03 0. -1.
         11   -1    0    0    0    0 -0.00000000000E+00 -0.00000000000E+00 -0.45593999997E+02  0.45594000000E+02  0.51100000000E-03 0.  1.
         23    2    1    2    0    0  0.22204460493E-15 -0.35527136788E-14  0.71054273576E-14  0.91188000000E+02  0.91188000000E+02 0.  0.
    9900012    2    3    3    0    0  0.12133255250E+01 -0.13328547717E+02  0.41285600780E+02  0.47787272186E+02  0.20000005204E+02 0.  0.
        -12    1    3    3    0    0 -0.12133255250E+01  0.13328547717E+02 -0.41285600780E+02  0.43400727814E+02  0.00000000000E+00 0.  1.
         11    1    4    4    0    0  0.34714002304E+00 -0.17571417744E+02  0.29873492278E+02  0.34659786048E+02  0.51100000000E-03 0. -1.
        -11    1    4    4    0    0  0.67296895009E+00  0.37416095102E+01  0.11843383215E+02  0.12438579307E+02  0.51100000000E-03 0.  1.
        -12    1    4    4    0    0  0.19321655186E+00  0.50126051734E+00 -0.43127471409E+00  0.68890683054E+00  0.00000000000E+00 0.  1.
</event>
<event>
 8    1  0.6455790E-011  0.9118800E+02  0.7816164E-02  0.1184000E+00
        -11   -1    0    0    0    0  0.00000000000E+00  0.00000000000E+00  0.45593999997E+02  0.45594000000E+02  0.51100000000E-03 0. -1.
         11   -1    0    0    0    0 -0.00000000000E+00 -0.00000000000E+00 -0.45593999997E+02  0.45594000000E+02  0.51100000000E-03 0.  1.
         23    2    1    2    0    0 -0.35527136788E-14  0.00000000000E+00  0.00000000000E+00  0.91188000000E+02  0.91188000000E+02 0.  0.
    9900012    2    3    3    0    0  0.21583828818E+02 -0.25957110715E+02 -0.27276187406E+02  0.47787266567E+02  0.19999979587E+02 0.  0.
         12    1    3    3    0    0 -0.21583828818E+02  0.25957110715E+02  0.27276187406E+02  0.43400733433E+02  0.00000000000E+00 0. -1.
         11    1    4    4    0    0  0.17899809043E+02 -0.13230117786E+02 -0.10856101777E+02  0.24764775922E+02  0.51100000000E-03 0. -1.
        -11    1    4    4    0    0  0.63147823268E+01 -0.94279378144E+01 -0.89864432522E+01  0.14474759060E+02  0.51100000000E-03 0.  1.
         12    1    4    4    0    0 -0.26307625525E+01 -0.32990551140E+01 -0.74336423776E+01  0.85477315851E+01  0.00000000000E+00 0. -1.
</event>
<event>
 8    1  0.6019723E-011  0.9118800E+02  0.7816164E-02  0.1184000E+00
        -11   -1    0    0    0    0  0.00000000000E+00  0.00000000000E+00  0.45593999997E+02  0.45594000000E+02  0.51100000000E-03 0. -1.
         11   -1    0    0    0    0 -0.00000000000E+00 -0.00000000000E+00 -0.45593999997E+02  0.45594000000E+02  0.51100000000E-03 0.  1.
         23    2    1    2    0    0  0.00000000000E+00  0.35527136788E-14 -0.17763568394E-14  0.91188000000E+02  0.91188000000E+02 0.  0.
    9900012    2    3    3    0    0  0.33175347171E+02  0.24807817490E+02 -0.12945705576E+02  0.47787276948E+02  0.20000026917E+02 0.  0.
         12    1    3    3    0    0 -0.33175347171E+02 -0.24807817490E+02  0.12945705576E+02  0.43400723052E+02  0.00000000000E+00 0. -1.
         11    1    4    4    0    0  0.25481890233E+02  0.12875268320E+02 -0.13542702608E+02  0.31599114835E+02  0.51100000000E-03 0. -1.
        -11    1    4    4    0    0  0.31312009416E+01  0.24573911291E+01 -0.30955832937E+01  0.50424028684E+01  0.51100000000E-03 0.  1.
         12    1    4    4    0    0  0.45622559968E+01  0.94751580407E+01  0.36925803254E+01  0.11145759245E+02  0.00000000000E+00 0. -1.
</event>
<event>
 8    1  0.6019723E-011  0.9118800E+02  0.7816164E-02  0.1184000E+00
        -11   -1    0    0    0    0  0.00000000000E+00  0.00000000000E+00  0.45593999997E+02  0.45594000000E+02  0.51100000000E-03 0. -1.
         11   -1    0    0    0    0 -0.00000000000E+00 -0.00000000000E+00 -0.45593999997E+02  0.45594000000E+02  0.51100000000E-03 0.  1.
         23    2    1    2    0    0  0.00000000000E+00  0.00000000000E+00  0.00000000000E+00  0.91188000000E+02  0.91188000000E+02 0.  0.
    9900012    2    3    3    0    0 -0.32980439048E+02  0.21485420216E+02 -0.18283638951E+02  0.47787261585E+02  0.19999956871E+02 0.  0.
         12    1    3    3    0    0  0.32980439048E+02 -0.21485420216E+02  0.18283638951E+02  0.43400738415E+02  0.00000000000E+00 0. -1.
         11    1    4    4    0    0 -0.97531775994E+01  0.13889772105E+01  0.16499214228E+01  0.99887923164E+01  0.51100000000E-03 0. -1.
        -11    1    4    4    0    0 -0.12325205618E+02  0.71486184802E+01 -0.13684318686E+02  0.19755354157E+02  0.51100000000E-03 0.  1.
         12    1    4    4    0    0 -0.10902055831E+02  0.12947824525E+02 -0.62492416885E+01  0.18043115112E+02  0.00000000000E+00 0. -1.
</event>
<event>
 8    1  0.6019723E-011  0.9118800E+02  0.7816164E-02  0.1184000E+00
        -11   -1    0    0    0    0  0.00000000000E+00  0.00000000000E+00  0.45593999997E+02  0.45594000000E+02  0.51100000000E-03 0. -1.
         11   -1    0    0    0    0 -0.00000000000E+00 -0.00000000000E+00 -0.45593999997E+02  0.45594000000E+02  0.51100000000E-03 0.  1.
         23    2    1    2    0    0  0.00000000000E+00  0.00000000000E+00  0.00000000000E+00  0.91188000000E+02  0.91188000000E+02 0.  0.
    9900012    2    3    3    0    0 -0.35650079767E+02 -0.26351471235E+01 -0.24612005453E+02  0.47787274197E+02  0.20000014374E+02 0.  0.
         12    1    3    3    0    0  0.35650079767E+02  0.26351471235E+01  0.24612005453E+02  0.43400725803E+02  0.00000000000E+00 0. -1.
         11    1    4    4    0    0 -0.15212029424E+01  0.70915056327E-01 -0.48603554918E+01  0.50933430186E+01  0.51100000000E-03 0. -1.
        -11    1    4    4    0    0 -0.21818079352E+02  0.45724349205E+01 -0.17223682861E+02  0.28170747226E+02  0.51100000000E-03 0.  1.
        -12    1    4    4    0    0 -0.12310797473E+02 -0.72784971003E+01 -0.25279671006E+01  0.14523183953E+02  0.00000000000E+00 0.  1.
</event>
<event>
 8    1  0.6019723E-011  0.9118800E+02  0.7816164E-02  0.1184000E+00
        -11   -1    0    0    0    0  0.00000000000E+00  0.00000000000E+00  0.45593999997E+02  0.45594000000E+02  0.51100000000E-03 0.  1.
         11   -1    0    0    0    0 -0.00000000000E+00 -0.00000000000E+00 -0.45593999997E+02  0.45594000000E+02  0.51100000000E-03 0. -1.
         23    2    1    2    0    0  0.00000000000E+00  0.00000000000E+00 -0.35527136788E-14  0.91188000000E+02  0.91188000000E+02 0.  0.
    9900012    2    3    3    0    0  0.21662861123E+02 -0.32779347237E+02 -0.18435258763E+02  0.47787263567E+02  0.19999965906E+02 0.  0.
         12    1    3    3    0    0 -0.21662861123E+02  0.32779347237E+02  0.18435258763E+02  0.43400736433E+02  0.00000000000E+00 0. -1.
         11    1    4    4    0    0 -0.21931822629E+01  0.14185427912E+00 -0.42448544424E+00  0.22383831728E+01  0.51100000000E-03 0. -1.
        -11    1    4    4    0    0  0.24836042455E+02 -0.31661442719E+02 -0.17282827445E+02  0.43794658175E+02  0.51100000000E-03 0.  1.
        -12    1    4    4    0    0 -0.97999906879E+00 -0.12597587964E+01 -0.72794587356E+00  0.17542222193E+01  0.00000000000E+00 0.  1.
</event>
<event>
 8    1  0.6019723E-011  0.9118800E+02  0.7816164E-02  0.1184000E+00
        -11   -1    0    0    0    0  0.00000000000E+00  0.00000000000E+00  0.45593999997E+02  0.45594000000E+02  0.51100000000E-03 0. -1.
         11   -1    0    0    0    0 -0.00000000000E+00 -0.00000000000E+00 -0.45593999997E+02  0.45594000000E+02  0.51100000000E-03 0.  1.
         23    2    1    2    0    0  0.00000000000E+00  0.00000000000E+00  0.00000000000E+00  0.91188000000E+02  0.91188000000E+02 0.  0.
    9900012    2    3    3    0    0 -0.85520134754E+01 -0.41503174518E+02  0.93793949984E+01  0.47787268669E+02  0.19999989169E+02 0.  0.
        -12    1    3    3    0    0  0.85520134754E+01  0.41503174518E+02 -0.93793949984E+01  0.43400731331E+02  0.00000000000E+00 0.  1.
         11    1    4    4    0    0 -0.53841248976E+01 -0.31576902182E+02  0.27452367670E+01  0.32150052527E+02  0.51100000000E-03 0. -1.
        -11    1    4    4    0    0  0.25613793450E+01 -0.22804968622E+01  0.48148590626E+01  0.59113617840E+01  0.51100000000E-03 0.  1.
         12    1    4    4    0    0 -0.57292679228E+01 -0.76457754739E+01  0.18192991688E+01  0.97258543580E+01  0.00000000000E+00 0. -1.
</event>
<event>
 8    1  0.6019723E-011  0.9118800E+02  0.7816164E-02  0.1184000E+00
        -11   -1    0    0    0    0  0.00000000000E+00  0.00000000000E+00  0.45593999997E+02  0.45594000000E+02  0.51100000000E-03 0. -1.
         11   -1    0    0    0    0 -0.00000000000E+00 -0.00000000000E+00 -0.45593999997E+02  0.45594000000E+02  0.51100000000E-03 0.  1.
         23    2    1    2    0    0  0.00000000000E+00 -0.17763568394E-14 -0.71054273576E-14  0.91188000000E+02  0.91188000000E+02 0.  0.
    9900012    2    3    3    0    0 -0.25562094606E+01 -0.15462474361E+02 -0.40472223338E+02  0.47787272102E+02  0.20000004821E+02 0.  0.
         12    1    3    3    0    0  0.25562094606E+01  0.15462474361E+02  0.40472223338E+02  0.43400727898E+02  0.00000000000E+00 0. -1.
         11    1    4    4    0    0 -0.27384217979E+01 -0.70075182207E+01 -0.27859421657E+01  0.80228261584E+01  0.51100000000E-03 0. -1.
        -11    1    4    4    0    0 -0.12897276816E+01 -0.18299089978E+01 -0.27082317879E+02  0.27174692388E+02  0.51100000000E-03 0.  1.
         12    1    4    4    0    0  0.14719400189E+01 -0.66250471425E+01 -0.10603963293E+02  0.12589753555E+02  0.00000000000E+00 0. -1.
</event>
<event>
 8    1  0.6019723E-011  0.9118800E+02  0.7816164E-02  0.1184000E+00
        -11   -1    0    0    0    0  0.00000000000E+00  0.00000000000E+00  0.45593999997E+02  0.45594000000E+02  0.51100000000E-03 0.  1.
         11   -1    0    0    0    0 -0.00000000000E+00 -0.00000000000E+00 -0.45593999997E+02  0.45594000000E+02  0.51100000000E-03 0. -1.
         23    2    1    2    0    0  0.00000000000E+00  0.00000000000E+00  0.00000000000E+00  0.91188000000E+02  0.91188000000E+02 0.  0.
    9900012    2    3    3    0    0  0.39524249862E+02  0.16735121324E+02  0.64336550340E+01  0.47787279615E+02  0.20000039075E+02 0.  0.
         12    1    3    3    0    0 -0.39524249862E+02 -0.16735121324E+02 -0.64336550340E+01  0.43400720385E+02  0.00000000000E+00 0. -1.
         11    1    4    4    0    0  0.11454402835E+02  0.21406424605E+01 -0.36778604462E+01  0.12219343361E+02  0.51100000000E-03 0. -1.
        -11    1    4    4    0    0  0.13431072014E+02  0.13627520812E+02  0.80292457477E+01  0.20750224251E+02  0.51100000000E-03 0.  1.
        -12    1    4    4    0    0  0.14638775013E+02  0.96695805058E+00  0.20822697324E+01  0.14817712003E+02  0.00000000000E+00 0.  1.
</event>
<event>
 8    1  0.7666054E-011  0.9118800E+02  0.7816164E-02  0.1184000E+00
        -11   -1    0    0    0    0  0.00000000000E+00  0.00000000000E+00  0.45593999997E+02  0.45594000000E+02  0.51100000000E-03 0. -1.
         11   -1    0    0    0    0 -0.00000000000E+00 -0.00000000000E+00 -0.45593999997E+02  0.45594000000E+02  0.51100000000E-03 0.  1.
         23    2    1    2    0    0  0.00000000000E+00  0.35527136788E-14  0.00000000000E+00  0.91188000000E+02  0.91188000000E+02 0.  0.
    9900012    2    3    3    0    0 -0.10529809552E+02  0.17602728277E+02 -0.38247743273E+02  0.47787276533E+02  0.20000025025E+02 0.  0.
         12    1    3    3    0    0  0.10529809552E+02 -0.17602728277E+02  0.38247743273E+02  0.43400723467E+02  0.00000000000E+00 0. -1.
         11    1    4    4    0    0 -0.11577434463E+02  0.62789734193E+01 -0.24904644388E+02  0.28172749392E+02  0.51100000000E-03 0. -1.
        -11    1    4    4    0    0 -0.17551947533E+01  0.96855637838E+01 -0.13062411947E+02  0.16355961010E+02  0.51100000000E-03 0.  1.
         12    1    4    4    0    0  0.28028196652E+01  0.16381910743E+01 -0.28068693744E+00  0.32585661307E+01  0.00000000000E+00 0. -1.
</event>
<event>
 8    1  0.6019723E-011  0.9118800E+02  0.7816164E-02  0.1184000E+00
        -11   -1    0    0    0    0  0.00000000000E+00  0.00000000000E+00  0.45593999997E+02  0.45594000000E+02  0.51100000000E-03 0. -1.
         11   -1    0    0    0    0 -0.00000000000E+00 -0.00000000000E+00 -0.45593999997E+02  0.45594000000E+02  0.51100000000E-03 0.  1.
         23    2    1    2    0    0  0.00000000000E+00  0.00000000000E+00  0.00000000000E+00  0.91188000000E+02  0.91188000000E+02 0.  0.
    9900012    2    3    3    0    0 -0.16241624631E+01 -0.22574730556E+02  0.37031969571E+02  0.47787272659E+02  0.20000007362E+02 0.  0.
        -12    1    3    3    0    0  0.16241624631E+01  0.22574730556E+02 -0.37031969571E+02  0.43400727341E+02  0.00000000000E+00 0.  1.
         11    1    4    4    0    0 -0.65412817965E+01 -0.44886960415E+01  0.68281880636E+01  0.10467134860E+02  0.51100000000E-03 0. -1.
        -11    1    4    4    0    0  0.80100254084E+00 -0.10209578308E+02  0.25012699370E+02  0.27027989646E+02  0.51100000000E-03 0.  1.
        -12    1    4    4    0    0  0.41161167926E+01 -0.78764562070E+01  0.51910821379E+01  0.10292148153E+02  0.00000000000E+00 0.  1.
</event>
<event>
 8    1  0.6019723E-011  0.9118800E+02  0.7816164E-02  0.1184000E+00
        -11   -1    0    0    0    0  0.00000000000E+00  0.00000000000E+00  0.45593999997E+02  0.45594000000E+02  0.51100000000E-03 0. -1.
         11   -1    0    0    0    0 -0.00000000000E+00 -0.00000000000E+00 -0.45593999997E+02  0.45594000000E+02  0.51100000000E-03 0.  1.
         23    2    1    2    0    0  0.00000000000E+00  0.00000000000E+00  0.00000000000E+00  0.91188000000E+02  0.91188000000E+02 0.  0.
    9900012    2    3    3    0    0 -0.16911611341E+02 -0.12637926983E+02  0.37919698111E+02  0.47787270727E+02  0.19999998554E+02 0.  0.
        -12    1    3    3    0    0  0.16911611341E+02  0.12637926983E+02 -0.37919698111E+02  0.43400729273E+02  0.00000000000E+00 0.  1.
         11    1    4    4    0    0 -0.13591401107E+02 -0.62814944423E+00  0.24471979522E+02  0.27999973888E+02  0.51100000000E-03 0. -1.
        -11    1    4    4    0    0 -0.25814525934E+00 -0.45483380235E+01  0.56831456676E+00  0.45909693376E+01  0.51100000000E-03 0.  1.
        -12    1    4    4    0    0 -0.30620649750E+01 -0.74614395155E+01  0.12879404022E+02  0.15196327501E+02  0.00000000000E+00 0.  1.
</event>
<event>
 8    1  0.6019723E-011  0.9118800E+02  0.7816164E-02  0.1184000E+00
        -11   -1    0    0    0    0  0.00000000000E+00  0.00000000000E+00  0.45593999997E+02  0.45594000000E+02  0.51100000000E-03 0. -1.
         11   -1    0    0    0    0 -0.00000000000E+00 -0.00000000000E+00 -0.45593999997E+02  0.45594000000E+02  0.51100000000E-03 0.  1.
         23    2    1    2    0    0 -0.88817841970E-15  0.00000000000E+00 -0.17763568394E-14  0.91188000000E+02  0.91188000000E+02 0.  0.
    9900012    2    3    3    0    0 -0.55753848154E+01 -0.40074550794E+02  0.15702477761E+02  0.47787281746E+02  0.20000048791E+02 0.  0.
         12    1    3    3    0    0  0.55753848154E+01  0.40074550794E+02 -0.15702477761E+02  0.43400718254E+02  0.00000000000E+00 0. -1.
         11    1    4    4    0    0  0.24273698733E+01 -0.65653886827E+01  0.39660708734E+01  0.80452577019E+01  0.51100000000E-03 0. -1.
        -11    1    4    4    0    0  0.26794564732E+01 -0.14974571659E+02  0.10156337222E+02  0.18291212901E+02  0.51100000000E-03 0.  1.
        -12    1    4    4    0    0 -0.10682211162E+02 -0.18534590452E+02  0.15800696652E+01  0.21450811142E+02  0.00000000000E+00 0.  1.
</event>
<event>
 8    1  0.6019723E-011  0.9118800E+02  0.7816164E-02  0.1184000E+00
        -11   -1    0    0    0    0  0.00000000000E+00  0.00000000000E+00  0.45593999997E+02  0.45594000000E+02  0.51100000000E-03 0. -1.
         11   -1    0    0    0    0 -0.00000000000E+00 -0.00000000000E+00 -0.45593999997E+02  0.45594000000E+02  0.51100000000E-03 0.  1.
         23    2    1    2    0    0 -0.35527136788E-14 -0.22204460493E-15  0.71054273576E-14  0.91188000000E+02  0.91188000000E+02 0.  0.
    9900012    2    3    3    0    0 -0.22339123078E+02 -0.57633619994E+00  0.37205572944E+02  0.47787271418E+02  0.20000001705E+02 0.  0.
        -12    1    3    3    0    0  0.22339123078E+02  0.57633619994E+00 -0.37205572944E+02  0.43400728582E+02  0.00000000000E+00 0.  1.
         11    1    4    4    0    0 -0.58057476376E+01 -0.68715696067E+00  0.11779694066E+02  0.13150668534E+02  0.51100000000E-03 0. -1.
        -11    1    4    4    0    0 -0.51760287249E+01  0.35877533851E+01  0.21060776840E+02  0.21982255778E+02  0.51100000000E-03 0.  1.
        -12    1    4    4    0    0 -0.11357346716E+02 -0.34769326244E+01  0.43651020373E+01  0.12654347107E+02  0.00000000000E+00 0.  1.
</event>
<event>
 8    1  0.6019723E-011  0.9118800E+02  0.7816164E-02  0.1184000E+00
        -11   -1    0    0    0    0  0.00000000000E+00  0.00000000000E+00  0.45593999997E+02  0.45594000000E+02  0.51100000000E-03 0. -1.
         11   -1    0    0    0    0 -0.00000000000E+00 -0.00000000000E+00 -0.45593999997E+02  0.45594000000E+02  0.51100000000E-03 0.  1.
         23    2    1    2    0    0  0.00000000000E+00  0.00000000000E+00  0.00000000000E+00  0.91188000000E+02  0.91188000000E+02 0.  0.
    9900012    2    3    3    0    0 -0.13277125689E+02  0.15039745265E+02  0.38485673628E+02  0.47787273292E+02  0.20000010247E+02 0.  0.
        -12    1    3    3    0    0  0.13277125689E+02 -0.15039745265E+02 -0.38485673628E+02  0.43400726708E+02  0.00000000000E+00 0.  1.
         11    1    4    4    0    0  0.17759305373E+01 -0.65141763885E+00  0.84562167546E+01  0.86652106885E+01  0.51100000000E-03 0. -1.
        -11    1    4    4    0    0 -0.12779249371E+02  0.14628896947E+02  0.30872119010E+02  0.36474670291E+02  0.51100000000E-03 0.  1.
        -12    1    4    4    0    0 -0.22738068555E+01  0.10622659571E+01 -0.84266213727E+00  0.26473923127E+01  0.00000000000E+00 0.  1.
</event>
<event>
 8    1  0.6019723E-011  0.9118800E+02  0.7816164E-02  0.1184000E+00
        -11   -1    0    0    0    0  0.00000000000E+00  0.00000000000E+00  0.45593999997E+02  0.45594000000E+02  0.51100000000E-03 0. -1.
         11   -1    0    0    0    0 -0.00000000000E+00 -0.00000000000E+00 -0.45593999997E+02  0.45594000000E+02  0.51100000000E-03 0.  1.
         23    2    1    2    0    0  0.00000000000E+00  0.00000000000E+00  0.17763568394E-14  0.91188000000E+02  0.91188000000E+02 0.  0.
    9900012    2    3    3    0    0 -0.41273550028E+02  0.50634751090E+01 -0.12428956439E+02  0.47787266478E+02  0.19999979178E+02 0.  0.
         12    1    3    3    0    0  0.41273550028E+02 -0.50634751090E+01  0.12428956439E+02  0.43400733522E+02  0.00000000000E+00 0. -1.
         11    1    4    4    0    0 -0.21579809374E+02 -0.14994355140E+01 -0.92781816078E-01  0.21632038466E+02  0.51100000000E-03 0. -1.
        -11    1    4    4    0    0 -0.43936410003E+01  0.63843996124E+01 -0.37511543673E+01  0.86102148056E+01  0.51100000000E-03 0.  1.
        -12    1    4    4    0    0 -0.15300099654E+02  0.17851101060E+00 -0.85850202560E+01  0.17545013206E+02  0.00000000000E+00 0.  1.
</event>
<event>
 8    1  0.6019723E-011  0.9118800E+02  0.7816164E-02  0.1184000E+00
        -11   -1    0    0    0    0  0.00000000000E+00  0.00000000000E+00  0.45593999997E+02  0.45594000000E+02  0.51100000000E-03 0. -1.
         11   -1    0    0    0    0 -0.00000000000E+00 -0.00000000000E+00 -0.45593999997E+02  0.45594000000E+02  0.51100000000E-03 0.  1.
         23    2    1    2    0    0  0.00000000000E+00  0.00000000000E+00  0.00000000000E+00  0.91188000000E+02  0.91188000000E+02 0.  0.
    9900012    2    3    3    0    0  0.10355873394E+02  0.25994096983E+02  0.33176588793E+02  0.47787271485E+02  0.20000002007E+02 0.  0.
        -12    1    3    3    0    0 -0.10355873394E+02 -0.25994096983E+02 -0.33176588793E+02  0.43400728515E+02  0.00000000000E+00 0.  1.
         11    1    4    4    0    0  0.87184221352E+01  0.11852309840E+02  0.11231746336E+02  0.18510544538E+02  0.51100000000E-03 0. -1.
        -11    1    4    4    0    0 -0.34475092324E+01  0.16253371695E+01  0.11747379454E+02  0.12350221257E+02  0.51100000000E-03 0.  1.
        -12    1    4    4    0    0  0.50849604908E+01  0.12516449973E+02  0.10197463003E+02  0.16926505689E+02  0.00000000000E+00 0.  1.
</event>
<event>
 8    1  0.6019723E-011  0.9118800E+02  0.7816164E-02  0.1184000E+00
        -11   -1    0    0    0    0  0.00000000000E+00  0.00000000000E+00  0.45593999997E+02  0.45594000000E+02  0.51100000000E-03 0. -1.
         11   -1    0    0    0    0 -0.00000000000E+00 -0.00000000000E+00 -0.45593999997E+02  0.45594000000E+02  0.51100000000E-03 0.  1.
         23    2    1    2    0    0  0.00000000000E+00  0.00000000000E+00  0.00000000000E+00  0.91188000000E+02  0.91188000000E+02 0.  0.
    9900012    2    3    3    0    0  0.25038976058E+02  0.14101109684E+02 -0.32524315556E+02  0.47787277440E+02  0.20000029158E+02 0.  0.
         12    1    3    3    0    0 -0.25038976058E+02 -0.14101109684E+02  0.32524315556E+02  0.43400722560E+02  0.00000000000E+00 0. -1.
         11    1    4    4    0    0  0.18392025859E+01  0.84556042351E+01 -0.69857963953E+01  0.11121207698E+02  0.51100000000E-03 0. -1.
        -11    1    4    4    0    0  0.16373578291E+02  0.61766958378E+01 -0.23907017507E+02  0.29627539956E+02  0.51100000000E-03 0.  1.
        -12    1    4    4    0    0  0.68261951816E+01 -0.53119038838E+00 -0.16315016536E+01  0.70385297848E+01  0.00000000000E+00 0.  1.
</event>
<event>
 8    1  0.6019723E-011  0.9118800E+02  0.7816164E-02  0.1184000E+00
        -11   -1    0    0    0    0  0.00000000000E+00  0.00000000000E+00  0.45593999997E+02  0.45594000000E+02  0.51100000000E-03 0. -1.
         11   -1    0    0    0    0 -0.00000000000E+00 -0.00000000000E+00 -0.45593999997E+02  0.45594000000E+02  0.51100000000E-03 0.  1.
         23    2    1    2    0    0  0.44408920985E-15  0.00000000000E+00  0.00000000000E+00  0.91188000000E+02  0.91188000000E+02 0.  0.
    9900012    2    3    3    0    0 -0.26193720877E+01  0.24534874816E+02  0.35704367424E+02  0.47787273676E+02  0.20000011997E+02 0.  0.
        -12    1    3    3    0    0  0.26193720877E+01 -0.24534874816E+02 -0.35704367424E+02  0.43400726324E+02  0.00000000000E+00 0.  1.
         11    1    4    4    0    0 -0.31186933424E+01 -0.16014387189E+00  0.10140418306E+02  0.10610371242E+02  0.51100000000E-03 0. -1.
        -11    1    4    4    0    0 -0.11817927949E+01  0.19525031305E+02  0.24953229233E+02  0.31706263279E+02  0.51100000000E-03 0.  1.
        -12    1    4    4    0    0  0.16811140497E+01  0.51699873827E+01  0.61071988459E+00  0.54706391549E+01  0.00000000000E+00 0.  1.
</event>
<event>
 8    1  0.6019723E-011  0.9118800E+02  0.7816164E-02  0.1184000E+00
        -11   -1    0    0    0    0  0.00000000000E+00  0.00000000000E+00  0.45593999997E+02  0.45594000000E+02  0.51100000000E-03 0.  1.
         11   -1    0    0    0    0 -0.00000000000E+00 -0.00000000000E+00 -0.45593999997E+02  0.45594000000E+02  0.51100000000E-03 0. -1.
         23    2    1    2    0    0  0.00000000000E+00  0.35527136788E-14  0.00000000000E+00  0.91188000000E+02  0.91188000000E+02 0.  0.
    9900012    2    3    3    0    0  0.34301322420E+02 -0.23015551307E+02  0.13316451155E+02  0.47787260454E+02  0.19999951716E+02 0.  0.
         12    1    3    3    0    0 -0.34301322420E+02  0.23015551307E+02 -0.13316451155E+02  0.43400739546E+02  0.00000000000E+00 0. -1.
         11    1    4    4    0    0  0.94960183157E-01  0.88414648971E+00 -0.33391987893E+00  0.94986062047E+00  0.51100000000E-03 0. -1.
        -11    1    4    4    0    0  0.44892496274E+01  0.23913012769E+01  0.93200964520E+00  0.51711049355E+01  0.51100000000E-03 0.  1.
        -12    1    4    4    0    0  0.29717112610E+02 -0.26290999074E+02  0.12718361388E+02  0.41666294898E+02  0.00000000000E+00 0.  1.
</event>
<event>
 8    1  0.6019723E-011  0.9118800E+02  0.7816164E-02  0.1184000E+00
        -11   -1    0    0    0    0  0.00000000000E+00  0.00000000000E+00  0.45593999997E+02  0.45594000000E+02  0.51100000000E-03 0. -1.
         11   -1    0    0    0    0 -0.00000000000E+00 -0.00000000000E+00 -0.45593999997E+02  0.45594000000E+02  0.51100000000E-03 0.  1.
         23    2    1    2    0    0  0.35527136788E-14  0.00000000000E+00  0.71054273576E-14  0.91188000000E+02  0.91188000000E+02 0.  0.
    9900012    2    3    3    0    0  0.19292449967E+02 -0.29235842158E+01  0.38766961882E+02  0.47787270698E+02  0.19999998421E+02 0.  0.
        -12    1    3    3    0    0 -0.19292449967E+02  0.29235842158E+01 -0.38766961882E+02  0.43400729302E+02  0.00000000000E+00 0.  1.
         11    1    4    4    0    0  0.11812471298E+01  0.36930449052E+01  0.96743243744E+01  0.10422402689E+02  0.51100000000E-03 0. -1.
        -11    1    4    4    0    0  0.16781614455E+02 -0.89790387662E+01  0.28955371941E+02  0.34650530809E+02  0.51100000000E-03 0.  1.
        -12    1    4    4    0    0  0.13295883818E+01  0.23624096452E+01  0.13726556662E+00  0.27143371995E+01  0.00000000000E+00 0.  1.
</event>
<event>
 8    1  0.6019723E-011  0.9118800E+02  0.7816164E-02  0.1184000E+00
        -11   -1    0    0    0    0  0.00000000000E+00  0.00000000000E+00  0.45593999997E+02  0.45594000000E+02  0.51100000000E-03 0. -1.
         11   -1    0    0    0    0 -0.00000000000E+00 -0.00000000000E+00 -0.45593999997E+02  0.45594000000E+02  0.51100000000E-03 0.  1.
         23    2    1    2    0    0  0.00000000000E+00 -0.35527136788E-14  0.71054273576E-14  0.91188000000E+02  0.91188000000E+02 0.  0.
    9900012    2    3    3    0    0 -0.14164969706E+02  0.13330849075E+02 -0.38797751033E+02  0.47787269717E+02  0.19999993950E+02 0.  0.
         12    1    3    3    0    0  0.14164969706E+02 -0.13330849075E+02  0.38797751033E+02  0.43400730283E+02  0.00000000000E+00 0. -1.
         11    1    4    4    0    0  0.26441297704E+00  0.57906157736E+01 -0.28483278355E+01  0.64586466833E+01  0.51100000000E-03 0. -1.
        -11    1    4    4    0    0 -0.41973633107E+01 -0.29909560495E+01 -0.14020023878E+02  0.14937360766E+02  0.51100000000E-03 0.  1.
        -12    1    4    4    0    0 -0.10232019373E+02  0.10531189351E+02 -0.21929399319E+02  0.26391262268E+02  0.00000000000E+00 0.  1.
</event>
<event>
 8    1  0.6019723E-011  0.9118800E+02  0.7816164E-02  0.1184000E+00
        -11   -1    0    0    0    0  0.00000000000E+00  0.00000000000E+00  0.45593999997E+02  0.45594000000E+02  0.51100000000E-03 0. -1.
         11   -1    0    0    0    0 -0.00000000000E+00 -0.00000000000E+00 -0.45593999997E+02  0.45594000000E+02  0.51100000000E-03 0.  1.
         23    2    1    2    0    0  0.00000000000E+00  0.00000000000E+00  0.17763568394E-14  0.91188000000E+02  0.91188000000E+02 0.  0.
    9900012    2    3    3    0    0 -0.36241224800E+02  0.18388139746E+02  0.15233951307E+02  0.47787270389E+02  0.19999997011E+02 0.  0.
         12    1    3    3    0    0  0.36241224800E+02 -0.18388139746E+02 -0.15233951307E+02  0.43400729611E+02  0.00000000000E+00 0. -1.
         11    1    4    4    0    0 -0.21171636796E+01 -0.20162184179E-01  0.17416047956E+01  0.27415280565E+01  0.51100000000E-03 0. -1.
        -11    1    4    4    0    0 -0.24225132835E+02  0.18189886712E+02  0.27225297378E+01  0.30416134007E+02  0.51100000000E-03 0.  1.
        -12    1    4    4    0    0 -0.98989282853E+01  0.21841521835E+00  0.10769816774E+02  0.14629608325E+02  0.00000000000E+00 0.  1.
</event>
<event>
 8    1  0.6019723E-011  0.9118800E+02  0.7816164E-02  0.1184000E+00
        -11   -1    0    0    0    0  0.00000000000E+00  0.00000000000E+00  0.45593999997E+02  0.45594000000E+02  0.51100000000E-03 0. -1.
         11   -1    0    0    0    0 -0.00000000000E+00 -0.00000000000E+00 -0.45593999997E+02  0.45594000000E+02  0.51100000000E-03 0.  1.
         23    2    1    2    0    0  0.00000000000E+00  0.44408920985E-15  0.00000000000E+00  0.91188000000E+02  0.91188000000E+02 0.  0.
    9900012    2    3    3    0    0  0.16421463510E+02 -0.31785000946E+01  0.40048169871E+02  0.47787271473E+02  0.20000001953E+02 0.  0.
        -12    1    3    3    0    0 -0.16421463510E+02  0.31785000946E+01 -0.40048169871E+02  0.43400728527E+02  0.00000000000E+00 0.  1.
         11    1    4    4    0    0 -0.20066369675E+01  0.34746265501E+01  0.16462943667E+02  0.16944855740E+02  0.51100000000E-03 0. -1.
        -11    1    4    4    0    0  0.69749600647E+01 -0.40740491146E+01  0.84802146019E+01  0.11711617482E+02  0.51100000000E-03 0.  1.
         12    1    4    4    0    0  0.11453140413E+02 -0.25790775300E+01  0.15105011602E+02  0.19130798251E+02  0.00000000000E+00 0. -1.
</event>
<event>
 8    1  0.6019723E-011  0.9118800E+02  0.7816164E-02  0.1184000E+00
        -11   -1    0    0    0    0  0.00000000000E+00  0.00000000000E+00  0.45593999997E+02  0.45594000000E+02  0.51100000000E-03 0. -1.
         11   -1    0    0    0    0 -0.00000000000E+00 -0.00000000000E+00 -0.45593999997E+02  0.45594000000E+02  0.51100000000E-03 0.  1.
         23    2    1    2    0    0  0.00000000000E+00  0.00000000000E+00  0.35527136788E-14  0.91188000000E+02  0.91188000000E+02 0.  0.
    9900012    2    3    3    0    0  0.33563287325E+02 -0.19578069553E+02 -0.19334634088E+02  0.47787272601E+02  0.20000007096E+02 0.  0.
         12    1    3    3    0    0 -0.33563287325E+02  0.19578069553E+02  0.19334634088E+02  0.43400727399E+02  0.00000000000E+00 0. -1.
         11    1    4    4    0    0  0.32946005387E+01 -0.90720310435E+01 -0.95843289856E+00  0.96992130530E+01  0.51100000000E-03 0. -1.
        -11    1    4    4    0    0  0.98330339905E+01  0.55267636599E+00 -0.32872034493E+01  0.10382664177E+02  0.51100000000E-03 0.  1.
         12    1    4    4    0    0  0.20435652795E+02 -0.11058714875E+02 -0.15088997741E+02  0.27705395371E+02  0.00000000000E+00 0. -1.
</event>
<event>
 8    1  0.6019723E-011  0.9118800E+02  0.7816164E-02  0.1184000E+00
        -11   -1    0    0    0    0  0.00000000000E+00  0.00000000000E+00  0.45593999997E+02  0.45594000000E+02  0.51100000000E-03 0. -1.
         11   -1    0    0    0    0 -0.00000000000E+00 -0.00000000000E+00 -0.45593999997E+02  0.45594000000E+02  0.51100000000E-03 0.  1.
         23    2    1    2    0    0  0.00000000000E+00  0.88817841970E-15  0.00000000000E+00  0.91188000000E+02  0.91188000000E+02 0.  0.
    9900012    2    3    3    0    0  0.19053833547E+02 -0.59857090599E+01  0.38532396195E+02  0.47787276016E+02  0.20000022668E+02 0.  0.
        -12    1    3    3    0    0 -0.19053833547E+02  0.59857090599E+01 -0.38532396195E+02  0.43400723984E+02  0.00000000000E+00 0.  1.
         11    1    4    4    0    0  0.18985802674E+02 -0.51924584229E+01  0.30285062656E+02  0.36119348665E+02  0.51100000000E-03 0. -1.
        -11    1    4    4    0    0  0.26388916601E+01  0.23676905299E+01  0.16422603808E+01  0.39072659314E+01  0.51100000000E-03 0.  1.
         12    1    4    4    0    0 -0.25708607870E+01 -0.31609411669E+01  0.66050731579E+01  0.77606614195E+01  0.00000000000E+00 0. -1.
</event>
<event>
 8    1  0.6019723E-011  0.9118800E+02  0.7816164E-02  0.1184000E+00
        -11   -1    0    0    0    0  0.00000000000E+00  0.00000000000E+00  0.45593999997E+02  0.45594000000E+02  0.51100000000E-03 0. -1.
         11   -1    0    0    0    0 -0.00000000000E+00 -0.00000000000E+00 -0.45593999997E+02  0.45594000000E+02  0.51100000000E-03 0.  1.
         23    2    1    2    0    0 -0.35527136788E-14  0.35527136788E-14 -0.35527136788E-14  0.91188000000E+02  0.91188000000E+02 0.  0.
    9900012    2    3    3    0    0 -0.21009534812E+02  0.21207274823E+02 -0.31503559359E+02  0.47787270620E+02  0.19999998064E+02 0.  0.
         12    1    3    3    0    0  0.21009534812E+02 -0.21207274823E+02  0.31503559359E+02  0.43400729380E+02  0.00000000000E+00 0. -1.
         11    1    4    4    0    0 -0.55132201745E+01  0.21213965138E+01 -0.16844303472E+02  0.17850111473E+02  0.51100000000E-03 0. -1.
        -11    1    4    4    0    0 -0.47465182569E+01  0.56969645178E+01 -0.85429766023E-01  0.74156684652E+01  0.51100000000E-03 0.  1.
        -12    1    4    4    0    0 -0.10749796380E+02  0.13388913791E+02 -0.14573826121E+02  0.22521490682E+02  0.00000000000E+00 0.  1.
</event>
<event>
 8    1  0.6019723E-011  0.9118800E+02  0.7816164E-02  0.1184000E+00
        -11   -1    0    0    0    0  0.00000000000E+00  0.00000000000E+00  0.45593999997E+02  0.45594000000E+02  0.51100000000E-03 0. -1.
         11   -1    0    0    0    0 -0.00000000000E+00 -0.00000000000E+00 -0.45593999997E+02  0.45594000000E+02  0.51100000000E-03 0.  1.
         23    2    1    2    0    0 -0.22204460493E-15  0.17763568394E-14  0.71054273576E-14  0.91188000000E+02  0.91188000000E+02 0.  0.
    9900012    2    3    3    0    0 -0.12487454158E+01 -0.14727977626E+02 -0.40806256090E+02  0.47787271594E+02  0.20000002506E+02 0.  0.
         12    1    3    3    0    0  0.12487454158E+01  0.14727977626E+02  0.40806256090E+02  0.43400728406E+02  0.00000000000E+00 0. -1.
         11    1    4    4    0    0  0.31751687794E+01 -0.15821326044E+01 -0.45558825236E+01  0.57741584828E+01  0.51100000000E-03 0. -1.
        -11    1    4    4    0    0  0.47315137877E+00 -0.76870674275E+01 -0.33181258510E+02  0.34063335046E+02  0.51100000000E-03 0.  1.
        -12    1    4    4    0    0 -0.48970655739E+01 -0.54587775941E+01 -0.30691150566E+01  0.79497780654E+01  0.00000000000E+00 0.  1.
</event>
<event>
 8    1  0.6019723E-011  0.9118800E+02  0.7816164E-02  0.1184000E+00
        -11   -1    0    0    0    0  0.00000000000E+00  0.00000000000E+00  0.45593999997E+02  0.45594000000E+02  0.51100000000E-03 0. -1.
         11   -1    0    0    0    0 -0.00000000000E+00 -0.00000000000E+00 -0.45593999997E+02  0.45594000000E+02  0.51100000000E-03 0.  1.
         23    2    1    2    0    0 -0.22204460493E-15  0.35527136788E-14  0.00000000000E+00  0.91188000000E+02  0.91188000000E+02 0.  0.
    9900012    2    3    3    0    0 -0.16351641208E+01  0.20384197358E+02 -0.38280984516E+02  0.47787273748E+02  0.20000012327E+02 0.  0.
         12    1    3    3    0    0  0.16351641208E+01 -0.20384197358E+02  0.38280984516E+02  0.43400726252E+02  0.00000000000E+00 0. -1.
         11    1    4    4    0    0 -0.36601258591E+01  0.12172114951E+02 -0.24975124232E+02  0.28023449722E+02  0.51100000000E-03 0.  1.
        -11    1    4    4    0    0  0.47701607934E+01 -0.10440794484E+01 -0.35404255382E+01  0.60315130060E+01  0.51100000000E-03 0. -1.
        -12    1    4    4    0    0 -0.27451990551E+01  0.92561618564E+01 -0.97654347462E+01  0.13732311020E+02  0.00000000000E+00 0.  1.
</event>
<event>
 8    1  0.6019723E-011  0.9118800E+02  0.7816164E-02  0.1184000E+00
        -11   -1    0    0    0    0  0.00000000000E+00  0.00000000000E+00  0.45593999997E+02  0.45594000000E+02  0.51100000000E-03 0. -1.
         11   -1    0    0    0    0 -0.00000000000E+00 -0.00000000000E+00 -0.45593999997E+02  0.45594000000E+02  0.51100000000E-03 0.  1.
         23    2    1    2    0    0  0.00000000000E+00  0.00000000000E+00  0.71054273576E-14  0.91188000000E+02  0.91188000000E+02 0.  0.
    9900012    2    3    3    0    0  0.18716346760E+02  0.94894118259E+01 -0.37990433873E+02  0.47787266841E+02  0.19999980837E+02 0.  0.
         12    1    3    3    0    0 -0.18716346760E+02 -0.94894118259E+01  0.37990433873E+02  0.43400733159E+02  0.00000000000E+00 0. -1.
         11    1    4    4    0    0  0.55716600969E+01  0.86471652013E+01 -0.12886028096E+02  0.16488377198E+02  0.51100000000E-03 0. -1.
        -11    1    4    4    0    0  0.15631431252E+02 -0.86195375220E+00 -0.21591280432E+02  0.26669608137E+02  0.51100000000E-03 0.  1.
        -12    1    4    4    0    0 -0.24867445890E+01  0.17042003768E+01 -0.35131253450E+01  0.46292815064E+01  0.00000000000E+00 0.  1.
</event>
<event>
 8    1  0.6019723E-011  0.9118800E+02  0.7816164E-02  0.1184000E+00
        -11   -1    0    0    0    0  0.00000000000E+00  0.00000000000E+00  0.45593999997E+02  0.45594000000E+02  0.51100000000E-03 0.  1.
         11   -1    0    0    0    0 -0.00000000000E+00 -0.00000000000E+00 -0.45593999997E+02  0.45594000000E+02  0.51100000000E-03 0. -1.
         23    2    1    2    0    0  0.44408920985E-15  0.00000000000E+00  0.35527136788E-14  0.91188000000E+02  0.91188000000E+02 0.  0.
    9900012    2    3    3    0    0 -0.26333758478E+01  0.39242917515E+02 -0.18348857625E+02  0.47787287799E+02  0.20000076390E+02 0.  0.
         12    1    3    3    0    0  0.26333758478E+01 -0.39242917515E+02  0.18348857625E+02  0.43400712201E+02  0.00000000000E+00 0. -1.
         11    1    4    4    0    0 -0.33153588697E+01  0.11495859485E+02 -0.10427758705E+02  0.15870870853E+02  0.51100000000E-03 0. -1.
        -11    1    4    4    0    0 -0.63231398530E+00  0.21741552204E+02  0.17416087490E+00  0.21751442377E+02  0.51100000000E-03 0.  1.
        -12    1    4    4    0    0  0.13142970071E+01  0.60055058249E+01 -0.80952597950E+01  0.10164974569E+02  0.00000000000E+00 0.  1.
</event>
<event>
 8    1  0.6019723E-011  0.9118800E+02  0.7816164E-02  0.1184000E+00
        -11   -1    0    0    0    0  0.00000000000E+00  0.00000000000E+00  0.45593999997E+02  0.45594000000E+02  0.51100000000E-03 0. -1.
         11   -1    0    0    0    0 -0.00000000000E+00 -0.00000000000E+00 -0.45593999997E+02  0.45594000000E+02  0.51100000000E-03 0.  1.
         23    2    1    2    0    0  0.00000000000E+00  0.17763568394E-14  0.00000000000E+00  0.91188000000E+02  0.91188000000E+02 0.  0.
    9900012    2    3    3    0    0 -0.13811131776E+02 -0.14832109304E+02 -0.38378170945E+02  0.47787276130E+02  0.20000023185E+02 0.  0.
         12    1    3    3    0    0  0.13811131776E+02  0.14832109304E+02  0.38378170945E+02  0.43400723870E+02  0.00000000000E+00 0. -1.
         11    1    4    4    0    0 -0.86594124417E+01 -0.15001843968E+02 -0.33259745113E+02  0.37500018554E+02  0.51100000000E-03 0.  1.
        -11    1    4    4    0    0  0.12694194437E+01 -0.75486981248E+00 -0.31964747005E+01  0.35211794799E+01  0.51100000000E-03 0. -1.
         12    1    4    4    0    0 -0.64211387785E+01  0.92460447583E+00 -0.19219511317E+01  0.67660780960E+01  0.00000000000E+00 0. -1.
</event>
<event>
 8    1  0.6019723E-011  0.9118800E+02  0.7816164E-02  0.1184000E+00
        -11   -1    0    0    0    0  0.00000000000E+00  0.00000000000E+00  0.45593999997E+02  0.45594000000E+02  0.51100000000E-03 0. -1.
         11   -1    0    0    0    0 -0.00000000000E+00 -0.00000000000E+00 -0.45593999997E+02  0.45594000000E+02  0.51100000000E-03 0.  1.
         23    2    1    2    0    0  0.00000000000E+00  0.00000000000E+00  0.00000000000E+00  0.91188000000E+02  0.91188000000E+02 0.  0.
    9900012    2    3    3    0    0  0.20677751639E+02 -0.28901625300E+01  0.38048667280E+02  0.47787268047E+02  0.19999986332E+02 0.  0.
        -12    1    3    3    0    0 -0.20677751639E+02  0.28901625300E+01 -0.38048667280E+02  0.43400731953E+02  0.00000000000E+00 0.  1.
         11    1    4    4    0    0  0.79748369564E+01 -0.47872925889E+01  0.23541743039E+02  0.25312642303E+02  0.51100000000E-03 0. -1.
        -11    1    4    4    0    0  0.12208420360E+02  0.53739305903E+01  0.95728427136E+01  0.16418403563E+02  0.51100000000E-03 0.  1.
        -12    1    4    4    0    0  0.49449432224E+00 -0.34768005314E+01  0.49340815279E+01  0.60562221800E+01  0.00000000000E+00 0.  1.
</event>
<event>
 8    1  0.6019723E-011  0.9118800E+02  0.7816164E-02  0.1184000E+00
        -11   -1    0    0    0    0  0.00000000000E+00  0.00000000000E+00  0.45593999997E+02  0.45594000000E+02  0.51100000000E-03 0. -1.
         11   -1    0    0    0    0 -0.00000000000E+00 -0.00000000000E+00 -0.45593999997E+02  0.45594000000E+02  0.51100000000E-03 0.  1.
         23    2    1    2    0    0  0.00000000000E+00  0.00000000000E+00  0.00000000000E+00  0.91188000000E+02  0.91188000000E+02 0.  0.
    9900012    2    3    3    0    0 -0.30181370561E+02  0.25855105740E+02  0.17441951869E+02  0.47787270665E+02  0.19999998272E+02 0.  0.
        -12    1    3    3    0    0  0.30181370561E+02 -0.25855105740E+02 -0.17441951869E+02  0.43400729335E+02  0.00000000000E+00 0.  1.
         11    1    4    4    0    0 -0.42716949864E+01  0.85286551948E+01 -0.15532172810E+01  0.96642548431E+01  0.51100000000E-03 0. -1.
        -11    1    4    4    0    0 -0.23098988867E+02  0.15255669275E+02  0.11734343847E+02  0.30066485619E+02  0.51100000000E-03 0.  1.
        -12    1    4    4    0    0 -0.28106867080E+01  0.20707812705E+01  0.72608253029E+01  0.80565302035E+01  0.00000000000E+00 0.  1.
</event>
<event>
 8    1  0.6019723E-011  0.9118800E+02  0.7816164E-02  0.1184000E+00
        -11   -1    0    0    0    0  0.00000000000E+00  0.00000000000E+00  0.45593999997E+02  0.45594000000E+02  0.51100000000E-03 0.  1.
         11   -1    0    0    0    0 -0.00000000000E+00 -0.00000000000E+00 -0.45593999997E+02  0.45594000000E+02  0.51100000000E-03 0. -1.
         23    2    1    2    0    0  0.00000000000E+00  0.17763568394E-14  0.00000000000E+00  0.91188000000E+02  0.91188000000E+02 0.  0.
    9900012    2    3    3    0    0 -0.41827579177E+02 -0.96135427798E+01  0.64542189640E+01  0.47787268128E+02  0.19999986705E+02 0.  0.
        -12    1    3    3    0    0  0.41827579177E+02  0.96135427798E+01 -0.64542189640E+01  0.43400731872E+02  0.00000000000E+00 0.  1.
         11    1    4    4    0    0 -0.25721180736E+02 -0.27210886514E+01  0.95667705275E+01  0.27577283414E+02  0.51100000000E-03 0. -1.
        -11    1    4    4    0    0 -0.61420238004E+01 -0.11422490829E+01  0.32723244204E+01  0.70524674197E+01  0.51100000000E-03 0.  1.
         12    1    4    4    0    0 -0.99643746396E+01 -0.57502050455E+01 -0.63848759839E+01  0.13157517294E+02  0.00000000000E+00 0. -1.
</event>
<event>
 8    1  0.6019723E-011  0.9118800E+02  0.7816164E-02  0.1184000E+00
        -11   -1    0    0    0    0  0.00000000000E+00  0.00000000000E+00  0.45593999997E+02  0.45594000000E+02  0.51100000000E-03 0. -1.
         11   -1    0    0    0    0 -0.00000000000E+00 -0.00000000000E+00 -0.45593999997E+02  0.45594000000E+02  0.51100000000E-03 0.  1.
         23    2    1    2    0    0  0.00000000000E+00  0.00000000000E+00  0.00000000000E+00  0.91188000000E+02  0.91188000000E+02 0.  0.
    9900012    2    3    3    0    0 -0.15545219784E+02  0.32148738316E+02  0.24666338837E+02  0.47787268381E+02  0.19999987856E+02 0.  0.
        -12    1    3    3    0    0  0.15545219784E+02 -0.32148738316E+02 -0.24666338837E+02  0.43400731619E+02  0.00000000000E+00 0.  1.
         11    1    4    4    0    0 -0.75863041674E+01  0.62016050005E+01  0.12298613712E+02  0.15724751668E+02  0.51100000000E-03 0. -1.
        -11    1    4    4    0    0 -0.63284468179E+01  0.26569110292E+02  0.12944483339E+02  0.30224601073E+02  0.51100000000E-03 0.  1.
        -12    1    4    4    0    0 -0.16304687987E+01 -0.62197697662E+00 -0.57675821426E+00  0.18379156403E+01  0.00000000000E+00 0.  1.
</event>
<event>
 8    1  0.6019723E-011  0.9118800E+02  0.7816164E-02  0.1184000E+00
        -11   -1    0    0    0    0  0.00000000000E+00  0.00000000000E+00  0.45593999997E+02  0.45594000000E+02  0.51100000000E-03 0. -1.
         11   -1    0    0    0    0 -0.00000000000E+00 -0.00000000000E+00 -0.45593999997E+02  0.45594000000E+02  0.51100000000E-03 0.  1.
         23    2    1    2    0    0 -0.17763568394E-14  0.71054273576E-14  0.17763568394E-14  0.91188000000E+02  0.91188000000E+02 0.  0.
    9900012    2    3    3    0    0  0.84186096653E+01  0.39837156953E+02  0.15025010115E+02  0.47787274295E+02  0.20000014821E+02 0.  0.
        -12    1    3    3    0    0 -0.84186096653E+01 -0.39837156953E+02 -0.15025010115E+02  0.43400725705E+02  0.00000000000E+00 0.  1.
         11    1    4    4    0    0 -0.32247692111E+00  0.19592014989E+02  0.89445950120E+01  0.21539656982E+02  0.51100000000E-03 0. -1.
        -11    1    4    4    0    0  0.12081259186E+02  0.15210082298E+02  0.38196656072E+01  0.19796294417E+02  0.51100000000E-03 0.  1.
        -12    1    4    4    0    0 -0.33401725998E+01  0.50350596658E+01  0.22607494954E+01  0.64513228966E+01  0.00000000000E+00 0.  1.
</event>
<event>
 8    1  0.6019723E-011  0.9118800E+02  0.7816164E-02  0.1184000E+00
        -11   -1    0    0    0    0  0.00000000000E+00  0.00000000000E+00  0.45593999997E+02  0.45594000000E+02  0.51100000000E-03 0. -1.
         11   -1    0    0    0    0 -0.00000000000E+00 -0.00000000000E+00 -0.45593999997E+02  0.45594000000E+02  0.51100000000E-03 0.  1.
         23    2    1    2    0    0  0.00000000000E+00  0.00000000000E+00  0.35527136788E-14  0.91188000000E+02  0.91188000000E+02 0.  0.
    9900012    2    3    3    0    0 -0.25484035888E+02  0.23092018320E+02 -0.26475380881E+02  0.47787272033E+02  0.20000004507E+02 0.  0.
         12    1    3    3    0    0  0.25484035888E+02 -0.23092018320E+02  0.26475380881E+02  0.43400727967E+02  0.00000000000E+00 0. -1.
         11    1    4    4    0    0 -0.14358550995E+02  0.36936267724E+01 -0.15803461363E+02  0.21669339093E+02  0.51100000000E-03 0. -1.
        -11    1    4    4    0    0 -0.97292993933E+01  0.13393870783E+02 -0.11110956832E+02  0.19937612776E+02  0.51100000000E-03 0.  1.
         12    1    4    4    0    0 -0.13961854996E+01  0.60045207647E+01  0.43903731341E+00  0.61803201637E+01  0.00000000000E+00 0. -1.
</event>
<event>
 8    1  0.6019723E-011  0.9118800E+02  0.7816164E-02  0.1184000E+00
        -11   -1    0    0    0    0  0.00000000000E+00  0.00000000000E+00  0.45593999997E+02  0.45594000000E+02  0.51100000000E-03 0. -1.
         11   -1    0    0    0    0 -0.00000000000E+00 -0.00000000000E+00 -0.45593999997E+02  0.45594000000E+02  0.51100000000E-03 0.  1.
         23    2    1    2    0    0  0.00000000000E+00 -0.17763568394E-14  0.00000000000E+00  0.91188000000E+02  0.91188000000E+02 0.  0.
    9900012    2    3    3    0    0  0.19176978917E+02  0.12263184326E+02  0.36952417531E+02  0.47787269919E+02  0.19999994867E+02 0.  0.
        -12    1    3    3    0    0 -0.19176978917E+02 -0.12263184326E+02 -0.36952417531E+02  0.43400730081E+02  0.00000000000E+00 0.  1.
         11    1    4    4    0    0  0.14201386289E+02  0.18640427204E+01  0.28357493054E+02  0.31769504880E+02  0.51100000000E-03 0. -1.
        -11    1    4    4    0    0  0.65885630000E+01  0.97500832402E+01  0.72731928251E+01  0.13833749301E+02  0.51100000000E-03 0.  1.
         12    1    4    4    0    0 -0.16129703712E+01  0.64905836531E+00  0.13217316520E+01  0.21840157371E+01  0.00000000000E+00 0. -1.
</event>
<event>
 8    1  0.6019723E-011  0.9118800E+02  0.7816164E-02  0.1184000E+00
        -11   -1    0    0    0    0  0.00000000000E+00  0.00000000000E+00  0.45593999997E+02  0.45594000000E+02  0.51100000000E-03 0. -1.
         11   -1    0    0    0    0 -0.00000000000E+00 -0.00000000000E+00 -0.45593999997E+02  0.45594000000E+02  0.51100000000E-03 0.  1.
         23    2    1    2    0    0  0.00000000000E+00  0.00000000000E+00  0.00000000000E+00  0.91188000000E+02  0.91188000000E+02 0.  0.
    9900012    2    3    3    0    0  0.10126738244E+02 -0.27546408125E+02 -0.31972925329E+02  0.47787269797E+02  0.19999994313E+02 0.  0.
         12    1    3    3    0    0 -0.10126738244E+02  0.27546408125E+02  0.31972925329E+02  0.43400730203E+02  0.00000000000E+00 0. -1.
         11    1    4    4    0    0 -0.64844337271E+00  0.75501312888E+00 -0.26076480241E+01  0.27911202251E+01  0.51100000000E-03 0. -1.
        -11    1    4    4    0    0  0.18685115579E+00  0.12306407785E+01  0.79520500576E+00  0.14770718813E+01  0.51100000000E-03 0.  1.
        -12    1    4    4    0    0  0.10588330461E+02 -0.29532062033E+02 -0.30160482310E+02  0.43519077691E+02  0.00000000000E+00 0.  1.
</event>
<event>
 8    1  0.6019723E-011  0.9118800E+02  0.7816164E-02  0.1184000E+00
        -11   -1    0    0    0    0  0.00000000000E+00  0.00000000000E+00  0.45593999997E+02  0.45594000000E+02  0.51100000000E-03 0. -1.
         11   -1    0    0    0    0 -0.00000000000E+00 -0.00000000000E+00 -0.45593999997E+02  0.45594000000E+02  0.51100000000E-03 0.  1.
         23    2    1    2    0    0  0.00000000000E+00  0.00000000000E+00  0.35527136788E-14  0.91188000000E+02  0.91188000000E+02 0.  0.
    9900012    2    3    3    0    0 -0.18702837950E+02  0.25008419733E+02 -0.30139774474E+02  0.47787271777E+02  0.20000003341E+02 0.  0.
         12    1    3    3    0    0  0.18702837950E+02 -0.25008419733E+02  0.30139774474E+02  0.43400728223E+02  0.00000000000E+00 0. -1.
         11    1    4    4    0    0 -0.21241725655E+00  0.33326271406E+01 -0.13220164097E+02  0.13635404789E+02  0.51100000000E-03 0. -1.
        -11    1    4    4    0    0 -0.10271870516E+02  0.17731501082E+02 -0.12684595329E+02  0.24100133059E+02  0.51100000000E-03 0.  1.
        -12    1    4    4    0    0 -0.82185501768E+01  0.39442915111E+01 -0.42350150477E+01  0.10051733929E+02  0.00000000000E+00 0.  1.
</event>
<event>
 8    1  0.6019723E-011  0.9118800E+02  0.7816164E-02  0.1184000E+00
        -11   -1    0    0    0    0  0.00000000000E+00  0.00000000000E+00  0.45593999997E+02  0.45594000000E+02  0.51100000000E-03 0. -1.
         11   -1    0    0    0    0 -0.00000000000E+00 -0.00000000000E+00 -0.45593999997E+02  0.45594000000E+02  0.51100000000E-03 0.  1.
         23    2    1    2    0    0  0.88817841970E-15  0.00000000000E+00  0.00000000000E+00  0.91188000000E+02  0.91188000000E+02 0.  0.
    9900012    2    3    3    0    0 -0.11134735843E+01  0.61419930445E+01  0.42949503536E+02  0.47787265490E+02  0.19999974676E+02 0.  0.
        -12    1    3    3    0    0  0.11134735843E+01 -0.61419930445E+01 -0.42949503536E+02  0.43400734510E+02  0.00000000000E+00 0.  1.
         11    1    4    4    0    0 -0.62235596979E+01 -0.21935836508E+01  0.32670706488E+02  0.33330460051E+02  0.51100000000E-03 0. -1.
        -11    1    4    4    0    0  0.33013389072E+01  0.27569845196E+01  0.44011850313E+01  0.61538794400E+01  0.51100000000E-03 0.  1.
         12    1    4    4    0    0  0.18087472064E+01  0.55785921758E+01  0.58776120175E+01  0.83029259992E+01  0.00000000000E+00 0. -1.
</event>
<event>
 8    1  0.6019723E-011  0.9118800E+02  0.7816164E-02  0.1184000E+00
        -11   -1    0    0    0    0  0.00000000000E+00  0.00000000000E+00  0.45593999997E+02  0.45594000000E+02  0.51100000000E-03 0. -1.
         11   -1    0    0    0    0 -0.00000000000E+00 -0.00000000000E+00 -0.45593999997E+02  0.45594000000E+02  0.51100000000E-03 0.  1.
         23    2    1    2    0    0  0.00000000000E+00  0.00000000000E+00  0.00000000000E+00  0.91188000000E+02  0.91188000000E+02 0.  0.
    9900012    2    3    3    0    0  0.15831280843E+02 -0.24572376693E+02  0.32081026662E+02  0.47787269348E+02  0.19999992267E+02 0.  0.
        -12    1    3    3    0    0 -0.15831280843E+02  0.24572376693E+02 -0.32081026662E+02  0.43400730652E+02  0.00000000000E+00 0.  1.
         11    1    4    4    0    0  0.10962442194E+02 -0.10005037844E+02  0.98008381234E+01  0.17785734433E+02  0.51100000000E-03 0. -1.
        -11    1    4    4    0    0 -0.11105651874E+01 -0.97247832882E+00  0.11636249830E+02  0.11729508920E+02  0.51100000000E-03 0.  1.
        -12    1    4    4    0    0  0.59794038356E+01 -0.13594860519E+02  0.10643938708E+02  0.18272025996E+02  0.00000000000E+00 0.  1.
</event>
<event>
 8    1  0.6019723E-011  0.9118800E+02  0.7816164E-02  0.1184000E+00
        -11   -1    0    0    0    0  0.00000000000E+00  0.00000000000E+00  0.45593999997E+02  0.45594000000E+02  0.51100000000E-03 0. -1.
         11   -1    0    0    0    0 -0.00000000000E+00 -0.00000000000E+00 -0.45593999997E+02  0.45594000000E+02  0.51100000000E-03 0.  1.
         23    2    1    2    0    0 -0.35527136788E-14  0.00000000000E+00 -0.35527136788E-14  0.91188000000E+02  0.91188000000E+02 0.  0.
    9900012    2    3    3    0    0 -0.26762842083E+02  0.22109127198E+02 -0.26049187834E+02  0.47787269492E+02  0.19999992920E+02 0.  0.
         12    1    3    3    0    0  0.26762842083E+02 -0.22109127198E+02  0.26049187834E+02  0.43400730508E+02  0.00000000000E+00 0. -1.
         11    1    4    4    0    0 -0.56767648161E+01  0.65914963454E+00 -0.90265187315E+01  0.10683547056E+02  0.51100000000E-03 0. -1.
        -11    1    4    4    0    0 -0.34901057130E+01  0.11199472736E+02 -0.22468761729E+01  0.11943930687E+02  0.51100000000E-03 0.  1.
        -12    1    4    4    0    0 -0.17595971554E+02  0.10250504827E+02 -0.14775792930E+02  0.25159791749E+02  0.00000000000E+00 0.  1.
</event>
<event>
 8    1  0.6019723E-011  0.9118800E+02  0.7816164E-02  0.1184000E+00
        -11   -1    0    0    0    0  0.00000000000E+00  0.00000000000E+00  0.45593999997E+02  0.45594000000E+02  0.51100000000E-03 0. -1.
         11   -1    0    0    0    0 -0.00000000000E+00 -0.00000000000E+00 -0.45593999997E+02  0.45594000000E+02  0.51100000000E-03 0.  1.
         23    2    1    2    0    0  0.00000000000E+00 -0.17763568394E-14  0.71054273576E-14  0.91188000000E+02  0.91188000000E+02 0.  0.
    9900012    2    3    3    0    0 -0.26013916863E+02 -0.14504675260E+02  0.31567608780E+02  0.47787269603E+02  0.19999993429E+02 0.  0.
        -12    1    3    3    0    0  0.26013916863E+02  0.14504675260E+02 -0.31567608780E+02  0.43400730397E+02  0.00000000000E+00 0.  1.
         11    1    4    4    0    0 -0.10753930619E+02 -0.51536473896E+01  0.25642566057E+02  0.28279821418E+02  0.51100000000E-03 0. -1.
        -11    1    4    4    0    0 -0.68966263491E+01 -0.30132185487E+01  0.14540379112E+00  0.75275549513E+01  0.51100000000E-03 0.  1.
         12    1    4    4    0    0 -0.83633598943E+01 -0.63378093213E+01  0.57796389311E+01  0.11979893234E+02  0.00000000000E+00 0. -1.
</event>
<event>
 8    1  0.6019723E-011  0.9118800E+02  0.7816164E-02  0.1184000E+00
        -11   -1    0    0    0    0  0.00000000000E+00  0.00000000000E+00  0.45593999997E+02  0.45594000000E+02  0.51100000000E-03 0. -1.
         11   -1    0    0    0    0 -0.00000000000E+00 -0.00000000000E+00 -0.45593999997E+02  0.45594000000E+02  0.51100000000E-03 0.  1.
         23    2    1    2    0    0  0.00000000000E+00  0.00000000000E+00  0.35527136788E-14  0.91188000000E+02  0.91188000000E+02 0.  0.
    9900012    2    3    3    0    0 -0.13285274549E+02 -0.35369803859E+02  0.21356527851E+02  0.47787276196E+02  0.20000023490E+02 0.  0.
        -12    1    3    3    0    0  0.13285274549E+02  0.35369803859E+02 -0.21356527851E+02  0.43400723804E+02  0.00000000000E+00 0.  1.
         11    1    4    4    0    0 -0.52067847425E+01 -0.33398794476E+02  0.18462357847E+02  0.38515564871E+02  0.51100000000E-03 0. -1.
        -11    1    4    4    0    0 -0.47519795523E+01 -0.15691707454E+01  0.26275008054E+00  0.50112517757E+01  0.51100000000E-03 0.  1.
         12    1    4    4    0    0 -0.33265102540E+01 -0.40183863686E+00  0.26314199230E+01  0.42604595492E+01  0.00000000000E+00 0. -1.
</event>
<event>
 8    1  0.6019723E-011  0.9118800E+02  0.7816164E-02  0.1184000E+00
        -11   -1    0    0    0    0  0.00000000000E+00  0.00000000000E+00  0.45593999997E+02  0.45594000000E+02  0.51100000000E-03 0. -1.
         11   -1    0    0    0    0 -0.00000000000E+00 -0.00000000000E+00 -0.45593999997E+02  0.45594000000E+02  0.51100000000E-03 0.  1.
         23    2    1    2    0    0  0.00000000000E+00  0.00000000000E+00  0.00000000000E+00  0.91188000000E+02  0.91188000000E+02 0.  0.
    9900012    2    3    3    0    0 -0.40885859455E+01  0.38071050726E+02  0.20432859338E+02  0.47787272136E+02  0.20000004976E+02 0.  0.
        -12    1    3    3    0    0  0.40885859455E+01 -0.38071050726E+02 -0.20432859338E+02  0.43400727864E+02  0.00000000000E+00 0.  1.
         11    1    4    4    0    0 -0.75489131829E+01  0.22966229282E+02  0.50233047493E+01  0.24691443225E+02  0.51100000000E-03 0. -1.
        -11    1    4    4    0    0  0.12852342052E+01  0.13093553312E+02  0.15233115814E+02  0.20128109275E+02  0.51100000000E-03 0.  1.
         12    1    4    4    0    0  0.21750930321E+01  0.20112681313E+01  0.17643877469E+00  0.29677196356E+01  0.00000000000E+00 0. -1.
</event>
<event>
 8    1  0.6019723E-011  0.9118800E+02  0.7816164E-02  0.1184000E+00
        -11   -1    0    0    0    0  0.00000000000E+00  0.00000000000E+00  0.45593999997E+02  0.45594000000E+02  0.51100000000E-03 0. -1.
         11   -1    0    0    0    0 -0.00000000000E+00 -0.00000000000E+00 -0.45593999997E+02  0.45594000000E+02  0.51100000000E-03 0.  1.
         23    2    1    2    0    0  0.00000000000E+00 -0.17763568394E-14  0.00000000000E+00  0.91188000000E+02  0.91188000000E+02 0.  0.
    9900012    2    3    3    0    0 -0.39785758504E+02  0.12142239275E+02 -0.12380771483E+02  0.47787262023E+02  0.19999958869E+02 0.  0.
         12    1    3    3    0    0  0.39785758504E+02 -0.12142239275E+02  0.12380771483E+02  0.43400737977E+02  0.00000000000E+00 0. -1.
         11    1    4    4    0    0 -0.43608785379E+01 -0.27223230387E+01 -0.14283710270E+00  0.51428306455E+01  0.51100000000E-03 0. -1.
        -11    1    4    4    0    0 -0.11993075048E+02  0.12215250574E+02 -0.69631850323E+01  0.18480588241E+02  0.51100000000E-03 0.  1.
        -12    1    4    4    0    0 -0.23431804919E+02  0.26493117404E+01 -0.52747493482E+01  0.24163843137E+02  0.00000000000E+00 0.  1.
</event>
<event>
 8    1  0.6019723E-011  0.9118800E+02  0.7816164E-02  0.1184000E+00
        -11   -1    0    0    0    0  0.00000000000E+00  0.00000000000E+00  0.45593999997E+02  0.45594000000E+02  0.51100000000E-03 0. -1.
         11   -1    0    0    0    0 -0.00000000000E+00 -0.00000000000E+00 -0.45593999997E+02  0.45594000000E+02  0.51100000000E-03 0.  1.
         23    2    1    2    0    0  0.00000000000E+00  0.35527136788E-14 -0.35527136788E-14  0.91188000000E+02  0.91188000000E+02 0.  0.
    9900012    2    3    3    0    0 -0.26501052351E+02  0.27215158935E+02 -0.20991730090E+02  0.47787269779E+02  0.19999994229E+02 0.  0.
         12    1    3    3    0    0  0.26501052351E+02 -0.27215158935E+02  0.20991730090E+02  0.43400730221E+02  0.00000000000E+00 0. -1.
         11    1    4    4    0    0 -0.16020979518E+02  0.10919941579E+02 -0.37097715396E+00  0.19392125544E+02  0.51100000000E-03 0. -1.
        -11    1    4    4    0    0 -0.53869426000E+01  0.88195578997E+01 -0.12683724018E+02  0.16360947630E+02  0.51100000000E-03 0.  1.
         12    1    4    4    0    0 -0.50931302327E+01  0.74756594564E+01 -0.79370289173E+01  0.12034196604E+02  0.00000000000E+00 0. -1.
</event>
<event>
 8    1  0.6019723E-011  0.9118800E+02  0.7816164E-02  0.1184000E+00
        -11   -1    0    0    0    0  0.00000000000E+00  0.00000000000E+00  0.45593999997E+02  0.45594000000E+02  0.51100000000E-03 0. -1.
         11   -1    0    0    0    0 -0.00000000000E+00 -0.00000000000E+00 -0.45593999997E+02  0.45594000000E+02  0.51100000000E-03 0.  1.
         23    2    1    2    0    0 -0.88817841970E-15  0.00000000000E+00  0.00000000000E+00  0.91188000000E+02  0.91188000000E+02 0.  0.
    9900012    2    3    3    0    0 -0.79163037614E+01 -0.20003860332E+02 -0.37693525625E+02  0.47787260750E+02  0.19999953062E+02 0.  0.
         12    1    3    3    0    0  0.79163037614E+01  0.20003860332E+02  0.37693525625E+02  0.43400739250E+02  0.00000000000E+00 0. -1.
         11    1    4    4    0    0 -0.36108935387E+00  0.15196856138E+01 -0.44800540188E+00  0.16249735344E+01  0.51100000000E-03 0. -1.
        -11    1    4    4    0    0  0.17839290822E+01 -0.15115534516E+02 -0.15979711330E+02  0.22068370151E+02  0.51100000000E-03 0.  1.
        -12    1    4    4    0    0 -0.93391434897E+01 -0.64080114296E+01 -0.21265808894E+02  0.24093917064E+02  0.00000000000E+00 0.  1.
</event>
<event>
 8    1  0.6019723E-011  0.9118800E+02  0.7816164E-02  0.1184000E+00
        -11   -1    0    0    0    0  0.00000000000E+00  0.00000000000E+00  0.45593999997E+02  0.45594000000E+02  0.51100000000E-03 0. -1.
         11   -1    0    0    0    0 -0.00000000000E+00 -0.00000000000E+00 -0.45593999997E+02  0.45594000000E+02  0.51100000000E-03 0.  1.
         23    2    1    2    0    0  0.44408920985E-15  0.88817841970E-15 -0.71054273576E-14  0.91188000000E+02  0.91188000000E+02 0.  0.
    9900012    2    3    3    0    0  0.29815004242E+01  0.64583002721E+01 -0.42813834666E+02  0.47787269292E+02  0.19999992009E+02 0.  0.
         12    1    3    3    0    0 -0.29815004242E+01 -0.64583002721E+01  0.42813834666E+02  0.43400730708E+02  0.00000000000E+00 0. -1.
         11    1    4    4    0    0  0.37769317216E+01  0.10843274050E+02 -0.27438546729E+02  0.29744170054E+02  0.51100000000E-03 0. -1.
        -11    1    4    4    0    0  0.33288080804E+01 -0.33572804007E+01 -0.52676716843E+01  0.70781819813E+01  0.51100000000E-03 0.  1.
        -12    1    4    4    0    0 -0.41242393778E+01 -0.10276933769E+01 -0.10107616253E+02  0.10964917257E+02  0.00000000000E+00 0.  1.
</event>
<event>
 8    1  0.6019723E-011  0.9118800E+02  0.7816164E-02  0.1184000E+00
        -11   -1    0    0    0    0  0.00000000000E+00  0.00000000000E+00  0.45593999997E+02  0.45594000000E+02  0.51100000000E-03 0. -1.
         11   -1    0    0    0    0 -0.00000000000E+00 -0.00000000000E+00 -0.45593999997E+02  0.45594000000E+02  0.51100000000E-03 0.  1.
         23    2    1    2    0    0 -0.13322676296E-14  0.00000000000E+00 -0.35527136788E-14  0.91188000000E+02  0.91188000000E+02 0.  0.
    9900012    2    3    3    0    0  0.31137444446E+01 -0.29903346295E+02  0.31300453130E+02  0.47787263943E+02  0.19999967621E+02 0.  0.
        -12    1    3    3    0    0 -0.31137444446E+01  0.29903346295E+02 -0.31300453130E+02  0.43400736057E+02  0.00000000000E+00 0.  1.
         11    1    4    4    0    0  0.14627461534E+01 -0.10766954516E+01  0.27857596271E+01  0.33255610603E+01  0.51100000000E-03 0. -1.
        -11    1    4    4    0    0 -0.33383050218E+01 -0.79513585890E+01  0.19232284746E+02  0.21077218996E+02  0.51100000000E-03 0.  1.
        -12    1    4    4    0    0  0.49893033131E+01 -0.20875292255E+02  0.92824087579E+01  0.23384483886E+02  0.00000000000E+00 0.  1.
</event>
<event>
 8    1  0.6019723E-011  0.9118800E+02  0.7816164E-02  0.1184000E+00
        -11   -1    0    0    0    0  0.00000000000E+00  0.00000000000E+00  0.45593999997E+02  0.45594000000E+02  0.51100000000E-03 0.  1.
         11   -1    0    0    0    0 -0.00000000000E+00 -0.00000000000E+00 -0.45593999997E+02  0.45594000000E+02  0.51100000000E-03 0. -1.
         23    2    1    2    0    0  0.71054273576E-14  0.00000000000E+00  0.00000000000E+00  0.91188000000E+02  0.91188000000E+02 0.  0.
    9900012    2    3    3    0    0  0.35139337096E+02  0.59143231440E+01  0.24776419295E+02  0.47787272093E+02  0.20000004779E+02 0.  0.
        -12    1    3    3    0    0 -0.35139337096E+02 -0.59143231440E+01 -0.24776419295E+02  0.43400727907E+02  0.00000000000E+00 0.  1.
         11    1    4    4    0    0  0.34315401961E+02  0.17843627341E+01  0.22660465207E+02  0.41160994227E+02  0.51100000000E-03 0. -1.
        -11    1    4    4    0    0  0.61283237671E+00  0.98569966769E+00 -0.14565751792E+01  0.18624658039E+01  0.51100000000E-03 0.  1.
         12    1    4    4    0    0  0.21110275812E+00  0.31442607423E+01  0.35725292679E+01  0.47638120618E+01  0.00000000000E+00 0. -1.
</event>
<event>
 8    1  0.6019723E-011  0.9118800E+02  0.7816164E-02  0.1184000E+00
        -11   -1    0    0    0    0  0.00000000000E+00  0.00000000000E+00  0.45593999997E+02  0.45594000000E+02  0.51100000000E-03 0. -1.
         11   -1    0    0    0    0 -0.00000000000E+00 -0.00000000000E+00 -0.45593999997E+02  0.45594000000E+02  0.51100000000E-03 0.  1.
         23    2    1    2    0    0 -0.72164496601E-15 -0.35527136788E-14 -0.35527136788E-14  0.91188000000E+02  0.91188000000E+02 0.  0.
    9900012    2    3    3    0    0  0.32176633179E+00 -0.31739084719E+02 -0.29599836654E+02  0.47787270025E+02  0.19999995354E+02 0.  0.
         12    1    3    3    0    0 -0.32176633179E+00  0.31739084719E+02  0.29599836654E+02  0.43400729975E+02  0.00000000000E+00 0. -1.
         11    1    4    4    0    0  0.33911025962E+00 -0.13518615963E+02 -0.85397775040E+01  0.15993616645E+02  0.51100000000E-03 0.  1.
        -11    1    4    4    0    0 -0.75384182910E+01 -0.86623836323E+01 -0.12141818467E+02  0.16711923782E+02  0.51100000000E-03 0. -1.
        -12    1    4    4    0    0  0.75210743632E+01 -0.95580851238E+01 -0.89182406830E+01  0.15081729599E+02  0.00000000000E+00 0.  1.
</event>
<event>
 8    1  0.6050419E-011  0.9118800E+02  0.7816164E-02  0.1184000E+00
        -11   -1    0    0    0    0  0.00000000000E+00  0.00000000000E+00  0.45593999997E+02  0.45594000000E+02  0.51100000000E-03 0. -1.
         11   -1    0    0    0    0 -0.00000000000E+00 -0.00000000000E+00 -0.45593999997E+02  0.45594000000E+02  0.51100000000E-03 0.  1.
         23    2    1    2    0    0  0.00000000000E+00  0.35527136788E-14 -0.35527136788E-14  0.91188000000E+02  0.91188000000E+02 0.  0.
    9900012    2    3    3    0    0  0.24496265531E+02 -0.29132033523E+02 -0.20853793516E+02  0.47787272976E+02  0.20000008808E+02 0.  0.
         12    1    3    3    0    0 -0.24496265531E+02  0.29132033523E+02  0.20853793516E+02  0.43400727024E+02  0.00000000000E+00 0. -1.
         11    1    4    4    0    0  0.36427498880E+01 -0.15740288657E+02 -0.13582371105E+02  0.21107039557E+02  0.51100000000E-03 0. -1.
        -11    1    4    4    0    0  0.14603229647E+02 -0.11163164985E+02 -0.79159078595E+01  0.20013299731E+02  0.51100000000E-03 0.  1.
         12    1    4    4    0    0  0.62502859957E+01 -0.22285798814E+01  0.64448544826E+00  0.66669336887E+01  0.00000000000E+00 0. -1.
</event>
<event>
 8    1  0.6019723E-011  0.9118800E+02  0.7816164E-02  0.1184000E+00
        -11   -1    0    0    0    0  0.00000000000E+00  0.00000000000E+00  0.45593999997E+02  0.45594000000E+02  0.51100000000E-03 0. -1.
         11   -1    0    0    0    0 -0.00000000000E+00 -0.00000000000E+00 -0.45593999997E+02  0.45594000000E+02  0.51100000000E-03 0.  1.
         23    2    1    2    0    0  0.00000000000E+00  0.00000000000E+00 -0.71054273576E-14  0.91188000000E+02  0.91188000000E+02 0.  0.
    9900012    2    3    3    0    0  0.89732055169E+00 -0.20151232578E+01  0.43344630656E+02  0.47787275207E+02  0.20000018977E+02 0.  0.
        -12    1    3    3    0    0 -0.89732055169E+00  0.20151232578E+01 -0.43344630656E+02  0.43400724793E+02  0.00000000000E+00 0.  1.
         11    1    4    4    0    0 -0.17292106401E+01 -0.15178631788E+01  0.82613022154E+01  0.85757327747E+01  0.51100000000E-03 0. -1.
        -11    1    4    4    0    0  0.43478742155E+01 -0.74325363204E+01  0.27389873262E+02  0.28711526673E+02  0.51100000000E-03 0.  1.
        -12    1    4    4    0    0 -0.17213430237E+01  0.69352762413E+01  0.76934551787E+01  0.10500015759E+02  0.00000000000E+00 0.  1.
</event>
<event>
 8    1  0.6019723E-011  0.9118800E+02  0.7816164E-02  0.1184000E+00
        -11   -1    0    0    0    0  0.00000000000E+00  0.00000000000E+00  0.45593999997E+02  0.45594000000E+02  0.51100000000E-03 0. -1.
         11   -1    0    0    0    0 -0.00000000000E+00 -0.00000000000E+00 -0.45593999997E+02  0.45594000000E+02  0.51100000000E-03 0.  1.
         23    2    1    2    0    0 -0.29837243787E-15  0.00000000000E+00 -0.17763568394E-14  0.91188000000E+02  0.91188000000E+02 0.  0.
    9900012    2    3    3    0    0  0.16651995895E-01  0.40807102785E+02  0.14778491437E+02  0.47787265857E+02  0.19999976348E+02 0.  0.
        -12    1    3    3    0    0 -0.16651995895E-01 -0.40807102785E+02 -0.14778491437E+02  0.43400734143E+02  0.00000000000E+00 0.  1.
         11    1    4    4    0    0 -0.69003041158E+01  0.10571483984E+02  0.33556766037E+00  0.12628660912E+02  0.51100000000E-03 0. -1.
        -11    1    4    4    0    0  0.61371333405E+01  0.28606475767E+02  0.10974258625E+02  0.31247867352E+02  0.51100000000E-03 0.  1.
        -12    1    4    4    0    0  0.77982277120E+00  0.16291430342E+01  0.34686651521E+01  0.39107375926E+01  0.00000000000E+00 0.  1.
</event>
<event>
 8    1  0.6019723E-011  0.9118800E+02  0.7816164E-02  0.1184000E+00
        -11   -1    0    0    0    0  0.00000000000E+00  0.00000000000E+00  0.45593999997E+02  0.45594000000E+02  0.51100000000E-03 0. -1.
         11   -1    0    0    0    0 -0.00000000000E+00 -0.00000000000E+00 -0.45593999997E+02  0.45594000000E+02  0.51100000000E-03 0.  1.
         23    2    1    2    0    0  0.00000000000E+00 -0.22204460493E-15  0.00000000000E+00  0.91188000000E+02  0.91188000000E+02 0.  0.
    9900012    2    3    3    0    0  0.33381471356E+02  0.15491737207E+01  0.27692982153E+02  0.47787264642E+02  0.19999970808E+02 0.  0.
        -12    1    3    3    0    0 -0.33381471356E+02 -0.15491737207E+01 -0.27692982153E+02  0.43400735358E+02  0.00000000000E+00 0.  1.
         11    1    4    4    0    0  0.84984214534E+01 -0.10335768042E+01  0.17919193111E+02  0.19859227835E+02  0.51100000000E-03 0. -1.
        -11    1    4    4    0    0  0.19866811320E+02  0.38926497834E+01  0.49374067602E+01  0.20837967755E+02  0.51100000000E-03 0.  1.
        -12    1    4    4    0    0  0.50162385819E+01 -0.13098992584E+01  0.48363822821E+01  0.70900690516E+01  0.00000000000E+00 0.  1.
</event>
<event>
 8    1  0.6019723E-011  0.9118800E+02  0.7816164E-02  0.1184000E+00
        -11   -1    0    0    0    0  0.00000000000E+00  0.00000000000E+00  0.45593999997E+02  0.45594000000E+02  0.51100000000E-03 0.  1.
         11   -1    0    0    0    0 -0.00000000000E+00 -0.00000000000E+00 -0.45593999997E+02  0.45594000000E+02  0.51100000000E-03 0. -1.
         23    2    1    2    0    0 -0.71054273576E-14  0.44408920985E-15  0.00000000000E+00  0.91188000000E+02  0.91188000000E+02 0.  0.
    9900012    2    3    3    0    0 -0.35658641722E+02  0.23363941058E+01 -0.24629775115E+02  0.47787270869E+02  0.19999999201E+02 0.  0.
         12    1    3    3    0    0  0.35658641722E+02 -0.23363941058E+01  0.24629775115E+02  0.43400729131E+02  0.00000000000E+00 0. -1.
         11    1    4    4    0    0 -0.24192992647E+02  0.29653240792E+01 -0.91411768328E+01  0.26031810430E+02  0.51100000000E-03 0. -1.
        -11    1    4    4    0    0 -0.45257976926E+01  0.22566779594E+01 -0.61981348122E+00  0.50950573284E+01  0.51100000000E-03 0.  1.
         12    1    4    4    0    0 -0.69398513821E+01 -0.28856079328E+01 -0.14868784801E+02  0.16660403110E+02  0.00000000000E+00 0. -1.
</event>
<event>
 8    1  0.6019723E-011  0.9118800E+02  0.7816164E-02  0.1184000E+00
        -11   -1    0    0    0    0  0.00000000000E+00  0.00000000000E+00  0.45593999997E+02  0.45594000000E+02  0.51100000000E-03 0. -1.
         11   -1    0    0    0    0 -0.00000000000E+00 -0.00000000000E+00 -0.45593999997E+02  0.45594000000E+02  0.51100000000E-03 0.  1.
         23    2    1    2    0    0  0.00000000000E+00  0.00000000000E+00  0.00000000000E+00  0.91188000000E+02  0.91188000000E+02 0.  0.
    9900012    2    3    3    0    0 -0.26020028820E+02  0.17647589639E+02  0.29918964422E+02  0.47787265537E+02  0.19999974888E+02 0.  0.
        -12    1    3    3    0    0  0.26020028820E+02 -0.17647589639E+02 -0.29918964422E+02  0.43400734463E+02  0.00000000000E+00 0.  1.
         11    1    4    4    0    0 -0.47426967485E+01  0.77033404256E+00  0.29078763460E+01  0.56162560563E+01  0.51100000000E-03 0. -1.
        -11    1    4    4    0    0 -0.12130225549E+01  0.72188984433E+01  0.15414727662E+02  0.17064517210E+02  0.51100000000E-03 0.  1.
        -12    1    4    4    0    0 -0.20064309516E+02  0.96583571535E+01  0.11596360414E+02  0.25106492270E+02  0.00000000000E+00 0.  1.
</event>
<event>
 8    1  0.6019723E-011  0.9118800E+02  0.7816164E-02  0.1184000E+00
        -11   -1    0    0    0    0  0.00000000000E+00  0.00000000000E+00  0.45593999997E+02  0.45594000000E+02  0.51100000000E-03 0. -1.
         11   -1    0    0    0    0 -0.00000000000E+00 -0.00000000000E+00 -0.45593999997E+02  0.45594000000E+02  0.51100000000E-03 0.  1.
         23    2    1    2    0    0  0.71054273576E-14  0.17763568394E-14  0.00000000000E+00  0.91188000000E+02  0.91188000000E+02 0.  0.
    9900012    2    3    3    0    0  0.37784445190E+02  0.13259321487E+02 -0.16737681634E+02  0.47787263933E+02  0.19999967578E+02 0.  0.
         12    1    3    3    0    0 -0.37784445190E+02 -0.13259321487E+02  0.16737681634E+02  0.43400736067E+02  0.00000000000E+00 0. -1.
         11    1    4    4    0    0  0.25669814048E+02  0.11016289249E+02 -0.31847169353E+01  0.28114771994E+02  0.51100000000E-03 0. -1.
        -11    1    4    4    0    0  0.10024668981E+02 -0.12894619178E+01 -0.88923048367E+01  0.13462161260E+02  0.51100000000E-03 0.  1.
         12    1    4    4    0    0  0.20899621615E+01  0.35324941562E+01 -0.46606598619E+01  0.62103306794E+01  0.00000000000E+00 0. -1.
</event>
<event>
 8    1  0.6019723E-011  0.9118800E+02  0.7816164E-02  0.1184000E+00
        -11   -1    0    0    0    0  0.00000000000E+00  0.00000000000E+00  0.45593999997E+02  0.45594000000E+02  0.51100000000E-03 0. -1.
         11   -1    0    0    0    0 -0.00000000000E+00 -0.00000000000E+00 -0.45593999997E+02  0.45594000000E+02  0.51100000000E-03 0.  1.
         23    2    1    2    0    0  0.00000000000E+00 -0.35527136788E-14 -0.88817841970E-15  0.91188000000E+02  0.91188000000E+02 0.  0.
    9900012    2    3    3    0    0  0.37865418252E+02 -0.20624399477E+02  0.49464463121E+01  0.47787273228E+02  0.20000009957E+02 0.  0.
        -12    1    3    3    0    0 -0.37865418252E+02  0.20624399477E+02 -0.49464463121E+01  0.43400726772E+02  0.00000000000E+00 0.  1.
         11    1    4    4    0    0  0.97810205014E+00 -0.19311645805E+01 -0.31484398445E+00  0.21875116578E+01  0.51100000000E-03 0. -1.
        -11    1    4    4    0    0  0.12234202630E+02 -0.24486923647E+01  0.96212731012E+01  0.15755656274E+02  0.51100000000E-03 0.  1.
        -12    1    4    4    0    0  0.24653113572E+02 -0.16244542532E+02 -0.43599828046E+01  0.29844105296E+02  0.00000000000E+00 0.  1.
</event>
<event>
 8    1  0.6019723E-011  0.9118800E+02  0.7816164E-02  0.1184000E+00
        -11   -1    0    0    0    0  0.00000000000E+00  0.00000000000E+00  0.45593999997E+02  0.45594000000E+02  0.51100000000E-03 0. -1.
         11   -1    0    0    0    0 -0.00000000000E+00 -0.00000000000E+00 -0.45593999997E+02  0.45594000000E+02  0.51100000000E-03 0.  1.
         23    2    1    2    0    0  0.17763568394E-14  0.00000000000E+00  0.00000000000E+00  0.91188000000E+02  0.91188000000E+02 0.  0.
    9900012    2    3    3    0    0 -0.15569686257E+02 -0.18093521217E+02  0.36246825375E+02  0.47787274316E+02  0.20000014914E+02 0.  0.
        -12    1    3    3    0    0  0.15569686257E+02  0.18093521217E+02 -0.36246825375E+02  0.43400725684E+02  0.00000000000E+00 0.  1.
         11    1    4    4    0    0 -0.15901931155E+02 -0.12250767522E+02  0.25547713435E+02  0.32490589120E+02  0.51100000000E-03 0. -1.
        -11    1    4    4    0    0 -0.24879020446E+01 -0.45785471360E+00 -0.47715693436E+00  0.25742895182E+01  0.51100000000E-03 0.  1.
         12    1    4    4    0    0  0.28201469429E+01 -0.53848989816E+01  0.11176268874E+02  0.12722395678E+02  0.00000000000E+00 0. -1.
</event>
<event>
 8    1  0.6019723E-011  0.9118800E+02  0.7816164E-02  0.1184000E+00
        -11   -1    0    0    0    0  0.00000000000E+00  0.00000000000E+00  0.45593999997E+02  0.45594000000E+02  0.51100000000E-03 0. -1.
         11   -1    0    0    0    0 -0.00000000000E+00 -0.00000000000E+00 -0.45593999997E+02  0.45594000000E+02  0.51100000000E-03 0.  1.
         23    2    1    2    0    0  0.00000000000E+00 -0.17763568394E-14  0.00000000000E+00  0.91188000000E+02  0.91188000000E+02 0.  0.
    9900012    2    3    3    0    0  0.34694836407E+02  0.14602865381E+02  0.21602034088E+02  0.47787271580E+02  0.20000002441E+02 0.  0.
        -12    1    3    3    0    0 -0.34694836407E+02 -0.14602865381E+02 -0.21602034088E+02  0.43400728420E+02  0.00000000000E+00 0.  1.
         11    1    4    4    0    0  0.11575994609E+02  0.28424587727E+01  0.16429232009E+02  0.20297854265E+02  0.51100000000E-03 0. -1.
        -11    1    4    4    0    0  0.19904182470E+02  0.12592502693E+02  0.53891983421E+01  0.24161768621E+02  0.51100000000E-03 0.  1.
        -12    1    4    4    0    0  0.32146593279E+01 -0.83209608425E+00 -0.21639626370E+00  0.33276486940E+01  0.00000000000E+00 0.  1.
</event>
<event>
 8    1  0.6019723E-011  0.9118800E+02  0.7816164E-02  0.1184000E+00
        -11   -1    0    0    0    0  0.00000000000E+00  0.00000000000E+00  0.45593999997E+02  0.45594000000E+02  0.51100000000E-03 0. -1.
         11   -1    0    0    0    0 -0.00000000000E+00 -0.00000000000E+00 -0.45593999997E+02  0.45594000000E+02  0.51100000000E-03 0.  1.
         23    2    1    2    0    0  0.00000000000E+00  0.00000000000E+00  0.00000000000E+00  0.91188000000E+02  0.91188000000E+02 0.  0.
    9900012    2    3    3    0    0 -0.23466400959E+02  0.56405571944E+01  0.36071267170E+02  0.47787260667E+02  0.19999952683E+02 0.  0.
        -12    1    3    3    0    0  0.23466400959E+02 -0.56405571944E+01 -0.36071267170E+02  0.43400739333E+02  0.00000000000E+00 0.  1.
         11    1    4    4    0    0 -0.10571592022E+02  0.53897441230E+01  0.23242480511E+02  0.26096375230E+02  0.51100000000E-03 0. -1.
        -11    1    4    4    0    0 -0.51940431321E+01 -0.47633021695E+01  0.16834641853E+01  0.72457700447E+01  0.51100000000E-03 0.  1.
         12    1    4    4    0    0 -0.77007658051E+01  0.50141152409E+01  0.11145322473E+02  0.14445115391E+02  0.00000000000E+00 0. -1.
</event>
<event>
 8    1  0.6019723E-011  0.9118800E+02  0.7816164E-02  0.1184000E+00
        -11   -1    0    0    0    0  0.00000000000E+00  0.00000000000E+00  0.45593999997E+02  0.45594000000E+02  0.51100000000E-03 0. -1.
         11   -1    0    0    0    0 -0.00000000000E+00 -0.00000000000E+00 -0.45593999997E+02  0.45594000000E+02  0.51100000000E-03 0.  1.
         23    2    1    2    0    0  0.00000000000E+00  0.00000000000E+00 -0.71054273576E-14  0.91188000000E+02  0.91188000000E+02 0.  0.
    9900012    2    3    3    0    0  0.84810277459E+01  0.13510956223E+02 -0.40362723250E+02  0.47787271920E+02  0.20000003992E+02 0.  0.
         12    1    3    3    0    0 -0.84810277459E+01 -0.13510956223E+02  0.40362723250E+02  0.43400728080E+02  0.00000000000E+00 0. -1.
         11    1    4    4    0    0  0.74232073604E-01 -0.30658703875E+01 -0.45762255716E+01  0.55088031710E+01  0.51100000000E-03 0. -1.
        -11    1    4    4    0    0  0.40466792150E+01  0.14386487639E+02 -0.33898344417E+02  0.37046516621E+02  0.51100000000E-03 0.  1.
        -12    1    4    4    0    0  0.43601164573E+01  0.21903389717E+01 -0.18881532614E+01  0.52319521280E+01  0.00000000000E+00 0.  1.
</event>
<event>
 8    1  0.6019723E-011  0.9118800E+02  0.7816164E-02  0.1184000E+00
        -11   -1    0    0    0    0  0.00000000000E+00  0.00000000000E+00  0.45593999997E+02  0.45594000000E+02  0.51100000000E-03 0. -1.
         11   -1    0    0    0    0 -0.00000000000E+00 -0.00000000000E+00 -0.45593999997E+02  0.45594000000E+02  0.51100000000E-03 0.  1.
         23    2    1    2    0    0 -0.35527136788E-14  0.44408920985E-15  0.00000000000E+00  0.91188000000E+02  0.91188000000E+02 0.  0.
    9900012    2    3    3    0    0  0.19249842387E+02  0.13199887193E+01 -0.38875755557E+02  0.47787272215E+02  0.20000005336E+02 0.  0.
         12    1    3    3    0    0 -0.19249842387E+02 -0.13199887193E+01  0.38875755557E+02  0.43400727785E+02  0.00000000000E+00 0. -1.
         11    1    4    4    0    0 -0.22198140990E+01  0.33818352956E+01 -0.39157298406E+01  0.56300377482E+01  0.51100000000E-03 0. -1.
        -11    1    4    4    0    0  0.56061104834E+01  0.29921786267E+01 -0.59299165971E+01  0.86916925162E+01  0.51100000000E-03 0.  1.
         12    1    4    4    0    0  0.15863546003E+02 -0.50540252030E+01 -0.29030109120E+02  0.33465541950E+02  0.00000000000E+00 0. -1.
</event>
<event>
 8    1  0.6019723E-011  0.9118800E+02  0.7816164E-02  0.1184000E+00
        -11   -1    0    0    0    0  0.00000000000E+00  0.00000000000E+00  0.45593999997E+02  0.45594000000E+02  0.51100000000E-03 0. -1.
         11   -1    0    0    0    0 -0.00000000000E+00 -0.00000000000E+00 -0.45593999997E+02  0.45594000000E+02  0.51100000000E-03 0.  1.
         23    2    1    2    0    0  0.00000000000E+00  0.00000000000E+00 -0.71054273576E-14  0.91188000000E+02  0.91188000000E+02 0.  0.
    9900012    2    3    3    0    0 -0.21244164208E+01  0.11355601957E+02 -0.41834923480E+02  0.47787266555E+02  0.19999979533E+02 0.  0.
         12    1    3    3    0    0  0.21244164208E+01 -0.11355601957E+02  0.41834923480E+02  0.43400733445E+02  0.00000000000E+00 0. -1.
         11    1    4    4    0    0 -0.66449388911E+01  0.41716390143E+01 -0.15055296098E+02  0.16977035247E+02  0.51100000000E-03 0.  1.
        -11    1    4    4    0    0 -0.13057374178E+00 -0.24356095633E+01 -0.13726547203E+02  0.13941568844E+02  0.51100000000E-03 0. -1.
        -12    1    4    4    0    0  0.46510962121E+01  0.96195725060E+01 -0.13053080179E+02  0.16868662464E+02  0.00000000000E+00 0.  1.
</event>
<event>
 8    1  0.6019723E-011  0.9118800E+02  0.7816164E-02  0.1184000E+00
        -11   -1    0    0    0    0  0.00000000000E+00  0.00000000000E+00  0.45593999997E+02  0.45594000000E+02  0.51100000000E-03 0.  1.
         11   -1    0    0    0    0 -0.00000000000E+00 -0.00000000000E+00 -0.45593999997E+02  0.45594000000E+02  0.51100000000E-03 0. -1.
         23    2    1    2    0    0 -0.22204460493E-15  0.00000000000E+00 -0.35527136788E-14  0.91188000000E+02  0.91188000000E+02 0.  0.
    9900012    2    3    3    0    0 -0.15839536913E+01 -0.38078270737E+02 -0.20764382193E+02  0.47787272132E+02  0.20000004957E+02 0.  0.
         12    1    3    3    0    0  0.15839536913E+01  0.38078270737E+02  0.20764382193E+02  0.43400727868E+02  0.00000000000E+00 0. -1.
         11    1    4    4    0    0  0.98490684513E-02  0.93174100851E+00  0.25418578897E+00  0.96584107778E+00  0.51100000000E-03 0. -1.
        -11    1    4    4    0    0 -0.13001791465E+01 -0.39696782698E+02 -0.22141526283E+02  0.45472763373E+02  0.51100000000E-03 0.  1.
        -12    1    4    4    0    0 -0.29362361321E+00  0.68677095223E+00  0.11229583010E+01  0.13486676807E+01  0.00000000000E+00 0.  1.
</event>
<event>
 8    1  0.6019723E-011  0.9118800E+02  0.7816164E-02  0.1184000E+00
        -11   -1    0    0    0    0  0.00000000000E+00  0.00000000000E+00  0.45593999997E+02  0.45594000000E+02  0.51100000000E-03 0. -1.
         11   -1    0    0    0    0 -0.00000000000E+00 -0.00000000000E+00 -0.45593999997E+02  0.45594000000E+02  0.51100000000E-03 0.  1.
         23    2    1    2    0    0  0.00000000000E+00  0.17763568394E-14 -0.35527136788E-14  0.91188000000E+02  0.91188000000E+02 0.  0.
    9900012    2    3    3    0    0 -0.36043212881E+02  0.80015989322E+01 -0.22814126695E+02  0.47787272390E+02  0.20000006135E+02 0.  0.
         12    1    3    3    0    0  0.36043212881E+02 -0.80015989322E+01  0.22814126695E+02  0.43400727610E+02  0.00000000000E+00 0. -1.
         11    1    4    4    0    0 -0.94742983404E+01 -0.11287808002E+01 -0.38071509169E+00  0.95488962389E+01  0.51100000000E-03 0. -1.
        -11    1    4    4    0    0 -0.18286977146E+02  0.38935372229E+01 -0.21350692729E+02  0.28380014896E+02  0.51100000000E-03 0.  1.
        -12    1    4    4    0    0 -0.82819373948E+01  0.52368425095E+01 -0.10827188744E+01  0.98583612554E+01  0.00000000000E+00 0.  1.
</event>
<event>
 8    1  0.6019723E-011  0.9118800E+02  0.7816164E-02  0.1184000E+00
        -11   -1    0    0    0    0  0.00000000000E+00  0.00000000000E+00  0.45593999997E+02  0.45594000000E+02  0.51100000000E-03 0. -1.
         11   -1    0    0    0    0 -0.00000000000E+00 -0.00000000000E+00 -0.45593999997E+02  0.45594000000E+02  0.51100000000E-03 0.  1.
         23    2    1    2    0    0 -0.30531133177E-15  0.00000000000E+00  0.00000000000E+00  0.91188000000E+02  0.91188000000E+02 0.  0.
    9900012    2    3    3    0    0 -0.20002267640E+00  0.28664618490E+02 -0.32587166027E+02  0.47787265537E+02  0.19999974888E+02 0.  0.
         12    1    3    3    0    0  0.20002267640E+00 -0.28664618490E+02  0.32587166027E+02  0.43400734463E+02  0.00000000000E+00 0. -1.
         11    1    4    4    0    0 -0.27920302577E+01  0.11364823631E+02 -0.23524849374E+02  0.26274953615E+02  0.51100000000E-03 0. -1.
        -11    1    4    4    0    0  0.23662073445E+01  0.18315154025E+02 -0.84956995101E+01  0.20327831035E+02  0.51100000000E-03 0.  1.
         12    1    4    4    0    0  0.22580023680E+00 -0.10153591663E+01 -0.56661714317E+00  0.11844808865E+01  0.00000000000E+00 0. -1.
</event>
<event>
 8    1  0.6019723E-011  0.9118800E+02  0.7816164E-02  0.1184000E+00
        -11   -1    0    0    0    0  0.00000000000E+00  0.00000000000E+00  0.45593999997E+02  0.45594000000E+02  0.51100000000E-03 0. -1.
         11   -1    0    0    0    0 -0.00000000000E+00 -0.00000000000E+00 -0.45593999997E+02  0.45594000000E+02  0.51100000000E-03 0.  1.
         23    2    1    2    0    0  0.00000000000E+00  0.00000000000E+00  0.00000000000E+00  0.91188000000E+02  0.91188000000E+02 0.  0.
    9900012    2    3    3    0    0  0.22055688886E+02 -0.22018776691E+02 -0.30205020599E+02  0.47787271797E+02  0.20000003432E+02 0.  0.
         12    1    3    3    0    0 -0.22055688886E+02  0.22018776691E+02  0.30205020599E+02  0.43400728203E+02  0.00000000000E+00 0. -1.
         11    1    4    4    0    0  0.13096473339E+02 -0.13918061322E+02 -0.22503008591E+02  0.29523133993E+02  0.51100000000E-03 0. -1.
        -11    1    4    4    0    0  0.11639906976E+01 -0.45945971398E+01  0.21641282026E+01  0.52104364846E+01  0.51100000000E-03 0.  1.
        -12    1    4    4    0    0  0.77952248488E+01 -0.35061182285E+01 -0.98661402105E+01  0.13053701319E+02  0.00000000000E+00 0.  1.
</event>
<event>
 8    1  0.6019723E-011  0.9118800E+02  0.7816164E-02  0.1184000E+00
        -11   -1    0    0    0    0  0.00000000000E+00  0.00000000000E+00  0.45593999997E+02  0.45594000000E+02  0.51100000000E-03 0. -1.
         11   -1    0    0    0    0 -0.00000000000E+00 -0.00000000000E+00 -0.45593999997E+02  0.45594000000E+02  0.51100000000E-03 0.  1.
         23    2    1    2    0    0  0.00000000000E+00  0.00000000000E+00  0.00000000000E+00  0.91188000000E+02  0.91188000000E+02 0.  0.
    9900012    2    3    3    0    0 -0.22186177569E+02 -0.12829267481E+02  0.35025807466E+02  0.47787265353E+02  0.19999974051E+02 0.  0.
        -12    1    3    3    0    0  0.22186177569E+02  0.12829267481E+02 -0.35025807466E+02  0.43400734647E+02  0.00000000000E+00 0.  1.
         11    1    4    4    0    0 -0.16756480944E+02 -0.53744199169E+01  0.26944337378E+02  0.32181692934E+02  0.51100000000E-03 0. -1.
        -11    1    4    4    0    0 -0.44819575061E+01  0.63096326624E+00  0.63121494090E+00  0.45699551740E+01  0.51100000000E-03 0.  1.
         12    1    4    4    0    0 -0.94773911832E+00 -0.80858108308E+01  0.74502551473E+01  0.11035617245E+02  0.00000000000E+00 0. -1.
</event>
<event>
 8    1  0.6019723E-011  0.9118800E+02  0.7816164E-02  0.1184000E+00
        -11   -1    0    0    0    0  0.00000000000E+00  0.00000000000E+00  0.45593999997E+02  0.45594000000E+02  0.51100000000E-03 0.  1.
         11   -1    0    0    0    0 -0.00000000000E+00 -0.00000000000E+00 -0.45593999997E+02  0.45594000000E+02  0.51100000000E-03 0. -1.
         23    2    1    2    0    0  0.00000000000E+00  0.00000000000E+00  0.88817841970E-15  0.91188000000E+02  0.91188000000E+02 0.  0.
    9900012    2    3    3    0    0 -0.18175016267E+02  0.39169979324E+02  0.43594415092E+01  0.47787271587E+02  0.20000002472E+02 0.  0.
        -12    1    3    3    0    0  0.18175016267E+02 -0.39169979324E+02 -0.43594415092E+01  0.43400728413E+02  0.00000000000E+00 0.  1.
         11    1    4    4    0    0 -0.87815293896E+01  0.11526388934E+02 -0.64825057469E+01  0.15874374989E+02  0.51100000000E-03 0.  1.
        -11    1    4    4    0    0 -0.58001521981E+01  0.24324651532E+02  0.79970731132E+01  0.26254211402E+02  0.51100000000E-03 0. -1.
        -12    1    4    4    0    0 -0.35933346790E+01  0.33189388578E+01  0.28448741430E+01  0.56586851959E+01  0.00000000000E+00 0.  1.
</event>
<event>
 8    1  0.6019723E-011  0.9118800E+02  0.7816164E-02  0.1184000E+00
        -11   -1    0    0    0    0  0.00000000000E+00  0.00000000000E+00  0.45593999997E+02  0.45594000000E+02  0.51100000000E-03 0. -1.
         11   -1    0    0    0    0 -0.00000000000E+00 -0.00000000000E+00 -0.45593999997E+02  0.45594000000E+02  0.51100000000E-03 0.  1.
         23    2    1    2    0    0  0.00000000000E+00  0.22204460493E-15  0.00000000000E+00  0.91188000000E+02  0.91188000000E+02 0.  0.
    9900012    2    3    3    0    0  0.10424955554E+02 -0.23167375737E+00  0.42129439667E+02  0.47787273535E+02  0.20000011354E+02 0.  0.
        -12    1    3    3    0    0 -0.10424955554E+02  0.23167375737E+00 -0.42129439667E+02  0.43400726465E+02  0.00000000000E+00 0.  1.
         11    1    4    4    0    0  0.26250903246E+01 -0.70999163011E+01  0.20380483823E+02  0.21740837882E+02  0.51100000000E-03 0. -1.
        -11    1    4    4    0    0 -0.31120454196E-01  0.10435938655E+00  0.11438114439E+02  0.11438632853E+02  0.51100000000E-03 0.  1.
         12    1    4    4    0    0  0.78309856838E+01  0.67638831572E+01  0.10310841405E+02  0.14607802799E+02  0.00000000000E+00 0. -1.
</event>
<event>
 8    1  0.6019723E-011  0.9118800E+02  0.7816164E-02  0.1184000E+00
        -11   -1    0    0    0    0  0.00000000000E+00  0.00000000000E+00  0.45593999997E+02  0.45594000000E+02  0.51100000000E-03 0. -1.
         11   -1    0    0    0    0 -0.00000000000E+00 -0.00000000000E+00 -0.45593999997E+02  0.45594000000E+02  0.51100000000E-03 0.  1.
         23    2    1    2    0    0 -0.35527136788E-14  0.00000000000E+00  0.35527136788E-14  0.91188000000E+02  0.91188000000E+02 0.  0.
    9900012    2    3    3    0    0 -0.31390606428E+02 -0.11628131147E+02  0.27623177177E+02  0.47787268172E+02  0.19999986902E+02 0.  0.
        -12    1    3    3    0    0  0.31390606428E+02  0.11628131147E+02 -0.27623177177E+02  0.43400731828E+02  0.00000000000E+00 0.  1.
         11    1    4    4    0    0 -0.24541301017E+02 -0.15452698653E+02  0.24070433052E+02  0.37688819282E+02  0.51100000000E-03 0. -1.
        -11    1    4    4    0    0 -0.16292179949E+01  0.19482801430E+01 -0.11858903177E+01  0.28029418291E+01  0.51100000000E-03 0.  1.
         12    1    4    4    0    0 -0.52200874160E+01  0.18762873624E+01  0.47386344418E+01  0.72955070606E+01  0.00000000000E+00 0. -1.
</event>
<event>
 8    1  0.6019723E-011  0.9118800E+02  0.7816164E-02  0.1184000E+00
        -11   -1    0    0    0    0  0.00000000000E+00  0.00000000000E+00  0.45593999997E+02  0.45594000000E+02  0.51100000000E-03 0. -1.
         11   -1    0    0    0    0 -0.00000000000E+00 -0.00000000000E+00 -0.45593999997E+02  0.45594000000E+02  0.51100000000E-03 0.  1.
         23    2    1    2    0    0  0.00000000000E+00  0.00000000000E+00  0.00000000000E+00  0.91188000000E+02  0.91188000000E+02 0.  0.
    9900012    2    3    3    0    0  0.18049761076E+02 -0.28043494177E+02  0.27773941847E+02  0.47787270902E+02  0.19999999351E+02 0.  0.
        -12    1    3    3    0    0 -0.18049761076E+02  0.28043494177E+02 -0.27773941847E+02  0.43400729098E+02  0.00000000000E+00 0.  1.
         11    1    4    4    0    0  0.95142832166E+01 -0.17550990881E+02  0.21804187853E+02  0.29563177675E+02  0.51100000000E-03 0. -1.
        -11    1    4    4    0    0  0.10987348429E+02 -0.91723187159E+01  0.41675921812E+01  0.14907115113E+02  0.51100000000E-03 0.  1.
        -12    1    4    4    0    0 -0.24518705699E+01 -0.13201845801E+01  0.18021618122E+01  0.33169781149E+01  0.00000000000E+00 0.  1.
</event>
<event>
 8    1  0.6019723E-011  0.9118800E+02  0.7816164E-02  0.1184000E+00
        -11   -1    0    0    0    0  0.00000000000E+00  0.00000000000E+00  0.45593999997E+02  0.45594000000E+02  0.51100000000E-03 0. -1.
         11   -1    0    0    0    0 -0.00000000000E+00 -0.00000000000E+00 -0.45593999997E+02  0.45594000000E+02  0.51100000000E-03 0.  1.
         23    2    1    2    0    0  0.00000000000E+00  0.00000000000E+00  0.00000000000E+00  0.91188000000E+02  0.91188000000E+02 0.  0.
    9900012    2    3    3    0    0 -0.10114374835E+02  0.33802156797E+02 -0.25273235498E+02  0.47787276331E+02  0.20000024102E+02 0.  0.
         12    1    3    3    0    0  0.10114374835E+02 -0.33802156797E+02  0.25273235498E+02  0.43400723669E+02  0.00000000000E+00 0. -1.
         11    1    4    4    0    0 -0.18925097611E+01  0.10200741269E+02 -0.13523006393E+02  0.17044307490E+02  0.51100000000E-03 0. -1.
        -11    1    4    4    0    0 -0.42458676598E+01  0.16193908744E+02 -0.56538603525E+00  0.16750812942E+02  0.51100000000E-03 0.  1.
        -12    1    4    4    0    0 -0.39759974146E+01  0.74075067847E+01 -0.11184843070E+02  0.13992155899E+02  0.00000000000E+00 0.  1.
</event>
<event>
 8    1  0.6019723E-011  0.9118800E+02  0.7816164E-02  0.1184000E+00
        -11   -1    0    0    0    0  0.00000000000E+00  0.00000000000E+00  0.45593999997E+02  0.45594000000E+02  0.51100000000E-03 0. -1.
         11   -1    0    0    0    0 -0.00000000000E+00 -0.00000000000E+00 -0.45593999997E+02  0.45594000000E+02  0.51100000000E-03 0.  1.
         23    2    1    2    0    0  0.00000000000E+00  0.00000000000E+00 -0.35527136788E-14  0.91188000000E+02  0.91188000000E+02 0.  0.
    9900012    2    3    3    0    0 -0.19874420402E+02 -0.32480250804E+02 -0.20824607105E+02  0.47787267982E+02  0.19999986037E+02 0.  0.
         12    1    3    3    0    0  0.19874420402E+02  0.32480250804E+02  0.20824607105E+02  0.43400732018E+02  0.00000000000E+00 0. -1.
         11    1    4    4    0    0 -0.40113892232E+01  0.21741263018E+01 -0.41728537394E+01  0.61831041774E+01  0.51100000000E-03 0. -1.
        -11    1    4    4    0    0 -0.34252811336E+01 -0.71735443790E+01 -0.30409977156E+01  0.85111666163E+01  0.51100000000E-03 0.  1.
         12    1    4    4    0    0 -0.12437750045E+02 -0.27480832727E+02 -0.13610755650E+02  0.33092997188E+02  0.00000000000E+00 0. -1.
</event>
<event>
 8    1  0.6019723E-011  0.9118800E+02  0.7816164E-02  0.1184000E+00
        -11   -1    0    0    0    0  0.00000000000E+00  0.00000000000E+00  0.45593999997E+02  0.45594000000E+02  0.51100000000E-03 0. -1.
         11   -1    0    0    0    0 -0.00000000000E+00 -0.00000000000E+00 -0.45593999997E+02  0.45594000000E+02  0.51100000000E-03 0.  1.
         23    2    1    2    0    0  0.35527136788E-14  0.71054273576E-14  0.00000000000E+00  0.91188000000E+02  0.91188000000E+02 0.  0.
    9900012    2    3    3    0    0  0.21032415740E+02  0.32845814028E+02  0.19037158245E+02  0.47787269532E+02  0.19999993106E+02 0.  0.
        -12    1    3    3    0    0 -0.21032415740E+02 -0.32845814028E+02 -0.19037158245E+02  0.43400730468E+02  0.00000000000E+00 0.  1.
         11    1    4    4    0    0  0.78194103827E+01  0.52631433511E+01  0.11724485197E+02  0.15043517210E+02  0.51100000000E-03 0. -1.
        -11    1    4    4    0    0  0.28156654624E+01  0.14168492397E+02  0.49595476745E+00  0.14454069330E+02  0.51100000000E-03 0.  1.
        -12    1    4    4    0    0  0.10397339895E+02  0.13414178281E+02  0.68167182810E+01  0.18289682992E+02  0.00000000000E+00 0.  1.
</event>
<event>
 8    1  0.6019723E-011  0.9118800E+02  0.7816164E-02  0.1184000E+00
        -11   -1    0    0    0    0  0.00000000000E+00  0.00000000000E+00  0.45593999997E+02  0.45594000000E+02  0.51100000000E-03 0. -1.
         11   -1    0    0    0    0 -0.00000000000E+00 -0.00000000000E+00 -0.45593999997E+02  0.45594000000E+02  0.51100000000E-03 0.  1.
         23    2    1    2    0    0  0.88817841970E-15  0.00000000000E+00  0.71054273576E-14  0.91188000000E+02  0.91188000000E+02 0.  0.
    9900012    2    3    3    0    0  0.35387618606E+01 -0.16374289681E+02  0.40037269613E+02  0.47787272401E+02  0.20000006183E+02 0.  0.
        -12    1    3    3    0    0 -0.35387618606E+01  0.16374289681E+02 -0.40037269613E+02  0.43400727599E+02  0.00000000000E+00 0.  1.
         11    1    4    4    0    0  0.75635623363E+01 -0.80984521598E+01  0.11343103675E+02  0.15857440016E+02  0.51100000000E-03 0.  1.
        -11    1    4    4    0    0 -0.67976804193E+01 -0.77977488228E+01  0.16984553522E+02  0.19886890264E+02  0.51100000000E-03 0. -1.
         12    1    4    4    0    0  0.27728799437E+01 -0.47808869826E+00  0.11709612416E+02  0.12042942121E+02  0.00000000000E+00 0. -1.
</event>
<event>
 8    1  0.6019723E-011  0.9118800E+02  0.7816164E-02  0.1184000E+00
        -11   -1    0    0    0    0  0.00000000000E+00  0.00000000000E+00  0.45593999997E+02  0.45594000000E+02  0.51100000000E-03 0. -1.
         11   -1    0    0    0    0 -0.00000000000E+00 -0.00000000000E+00 -0.45593999997E+02  0.45594000000E+02  0.51100000000E-03 0.  1.
         23    2    1    2    0    0 -0.88817841970E-15 -0.35527136788E-14 -0.71054273576E-14  0.91188000000E+02  0.91188000000E+02 0.  0.
    9900012    2    3    3    0    0  0.43956620429E+01  0.24570424761E+02  0.35504868227E+02  0.47787270909E+02  0.19999999385E+02 0.  0.
        -12    1    3    3    0    0 -0.43956620429E+01 -0.24570424761E+02 -0.35504868227E+02  0.43400729091E+02  0.00000000000E+00 0.  1.
         11    1    4    4    0    0 -0.33555536754E+01  0.15002403415E+02  0.13462793216E+02  0.20434741254E+02  0.51100000000E-03 0. -1.
        -11    1    4    4    0    0  0.81216484851E+01  0.27607568748E+01  0.16381322961E+02  0.18491368118E+02  0.51100000000E-03 0.  1.
        -12    1    4    4    0    0 -0.37043276680E+00  0.68072644715E+01  0.56607520500E+01  0.88611615374E+01  0.00000000000E+00 0.  1.
</event>
<event>
 8    1  0.6019723E-011  0.9118800E+02  0.7816164E-02  0.1184000E+00
        -11   -1    0    0    0    0  0.00000000000E+00  0.00000000000E+00  0.45593999997E+02  0.45594000000E+02  0.51100000000E-03 0.  1.
         11   -1    0    0    0    0 -0.00000000000E+00 -0.00000000000E+00 -0.45593999997E+02  0.45594000000E+02  0.51100000000E-03 0. -1.
         23    2    1    2    0    0  0.00000000000E+00 -0.35527136788E-14  0.00000000000E+00  0.91188000000E+02  0.91188000000E+02 0.  0.
    9900012    2    3    3    0    0 -0.32493143240E+02 -0.28747737312E+02 -0.11775078898E+01  0.47787270940E+02  0.19999999522E+02 0.  0.
        -12    1    3    3    0    0  0.32493143240E+02  0.28747737312E+02  0.11775078898E+01  0.43400729060E+02  0.00000000000E+00 0.  1.
         11    1    4    4    0    0 -0.30207551539E+01 -0.10208952133E+02 -0.36656443588E+01  0.11259867414E+02  0.51100000000E-03 0. -1.
        -11    1    4    4    0    0 -0.16399370381E+02 -0.78510195951E+01  0.62528581478E+01  0.19226962652E+02  0.51100000000E-03 0.  1.
         12    1    4    4    0    0 -0.13073017705E+02 -0.10687765584E+02 -0.37647216789E+01  0.17300440874E+02  0.00000000000E+00 0. -1.
</event>
<event>
 8    1  0.6019723E-011  0.9118800E+02  0.7816164E-02  0.1184000E+00
        -11   -1    0    0    0    0  0.00000000000E+00  0.00000000000E+00  0.45593999997E+02  0.45594000000E+02  0.51100000000E-03 0. -1.
         11   -1    0    0    0    0 -0.00000000000E+00 -0.00000000000E+00 -0.45593999997E+02  0.45594000000E+02  0.51100000000E-03 0.  1.
         23    2    1    2    0    0  0.00000000000E+00  0.00000000000E+00  0.35527136788E-14  0.91188000000E+02  0.91188000000E+02 0.  0.
    9900012    2    3    3    0    0 -0.10385808022E+02 -0.29168072459E+02  0.30413513839E+02  0.47787270936E+02  0.19999999506E+02 0.  0.
        -12    1    3    3    0    0  0.10385808022E+02  0.29168072459E+02 -0.30413513839E+02  0.43400729064E+02  0.00000000000E+00 0.  1.
         11    1    4    4    0    0 -0.66665801385E+01 -0.10977504378E+02  0.52896171885E+01  0.13889886370E+02  0.51100000000E-03 0. -1.
        -11    1    4    4    0    0 -0.28745806383E+01 -0.46020153748E+01  0.17438599265E+02  0.18263255568E+02  0.51100000000E-03 0.  1.
         12    1    4    4    0    0 -0.84464724507E+00 -0.13588552707E+02  0.76852973852E+01  0.15634128998E+02  0.00000000000E+00 0. -1.
</event>
<event>
 8    1  0.6019723E-011  0.9118800E+02  0.7816164E-02  0.1184000E+00
        -11   -1    0    0    0    0  0.00000000000E+00  0.00000000000E+00  0.45593999997E+02  0.45594000000E+02  0.51100000000E-03 0. -1.
         11   -1    0    0    0    0 -0.00000000000E+00 -0.00000000000E+00 -0.45593999997E+02  0.45594000000E+02  0.51100000000E-03 0.  1.
         23    2    1    2    0    0  0.00000000000E+00 -0.35527136788E-14  0.00000000000E+00  0.91188000000E+02  0.91188000000E+02 0.  0.
    9900012    2    3    3    0    0 -0.27176252599E+02  0.23880848196E+02  0.23974565160E+02  0.47787269701E+02  0.19999993872E+02 0.  0.
        -12    1    3    3    0    0  0.27176252599E+02 -0.23880848196E+02 -0.23974565160E+02  0.43400730299E+02  0.00000000000E+00 0.  1.
         11    1    4    4    0    0 -0.10522197847E+02 -0.15409865670E+01  0.55134175540E+01  0.11978691937E+02  0.51100000000E-03 0. -1.
        -11    1    4    4    0    0 -0.97183697604E+01  0.18320765107E+02  0.13054439695E+02  0.24505418603E+02  0.51100000000E-03 0.  1.
         12    1    4    4    0    0 -0.69356849920E+01  0.71010696561E+01  0.54067079110E+01  0.11303159160E+02  0.00000000000E+00 0. -1.
</event>
<event>
 8    1  0.6019723E-011  0.9118800E+02  0.7816164E-02  0.1184000E+00
        -11   -1    0    0    0    0  0.00000000000E+00  0.00000000000E+00  0.45593999997E+02  0.45594000000E+02  0.51100000000E-03 0.  1.
         11   -1    0    0    0    0 -0.00000000000E+00 -0.00000000000E+00 -0.45593999997E+02  0.45594000000E+02  0.51100000000E-03 0. -1.
         23    2    1    2    0    0  0.00000000000E+00 -0.35527136788E-14  0.00000000000E+00  0.91188000000E+02  0.91188000000E+02 0.  0.
    9900012    2    3    3    0    0  0.31781320857E+02 -0.28061562813E+02  0.92800852734E+01  0.47787266761E+02  0.19999980472E+02 0.  0.
        -12    1    3    3    0    0 -0.31781320857E+02  0.28061562813E+02 -0.92800852734E+01  0.43400733239E+02  0.00000000000E+00 0.  1.
         11    1    4    4    0    0  0.16066342611E+02 -0.10016934707E+02  0.11322964783E+02  0.22060731573E+02  0.51100000000E-03 0. -1.
        -11    1    4    4    0    0  0.88330350378E+01 -0.15529256061E+02  0.75934292982E+00  0.17881747782E+02  0.51100000000E-03 0.  1.
         12    1    4    4    0    0  0.68819432084E+01 -0.25153720449E+01 -0.28022224391E+01  0.78447874060E+01  0.00000000000E+00 0. -1.
</event>
<event>
 8    1  0.6019723E-011  0.9118800E+02  0.7816164E-02  0.1184000E+00
        -11   -1    0    0    0    0  0.00000000000E+00  0.00000000000E+00  0.45593999997E+02  0.45594000000E+02  0.51100000000E-03 0. -1.
         11   -1    0    0    0    0 -0.00000000000E+00 -0.00000000000E+00 -0.45593999997E+02  0.45594000000E+02  0.51100000000E-03 0.  1.
         23    2    1    2    0    0  0.00000000000E+00 -0.17763568394E-14  0.14210854715E-13  0.91188000000E+02  0.91188000000E+02 0.  0.
    9900012    2    3    3    0    0 -0.44368580144E+01  0.62733349910E+01 -0.42715127754E+02  0.47787279038E+02  0.20000036447E+02 0.  0.
         12    1    3    3    0    0  0.44368580144E+01 -0.62733349910E+01  0.42715127754E+02  0.43400720962E+02  0.00000000000E+00 0. -1.
         11    1    4    4    0    0  0.10276780503E+01 -0.29025726134E+01 -0.27858963809E+00  0.30917086536E+01  0.51100000000E-03 0. -1.
        -11    1    4    4    0    0 -0.34351987413E+01  0.68601526824E+01 -0.40107795639E+02  0.40835004059E+02  0.51100000000E-03 0.  1.
         12    1    4    4    0    0 -0.20293373234E+01  0.23157549220E+01 -0.23287424769E+01  0.38605663257E+01  0.00000000000E+00 0. -1.
</event>
<event>
 8    1  0.6019723E-011  0.9118800E+02  0.7816164E-02  0.1184000E+00
        -11   -1    0    0    0    0  0.00000000000E+00  0.00000000000E+00  0.45593999997E+02  0.45594000000E+02  0.51100000000E-03 0. -1.
         11   -1    0    0    0    0 -0.00000000000E+00 -0.00000000000E+00 -0.45593999997E+02  0.45594000000E+02  0.51100000000E-03 0.  1.
         23    2    1    2    0    0 -0.17763568394E-14  0.35527136788E-14  0.71054273576E-14  0.91188000000E+02  0.91188000000E+02 0.  0.
    9900012    2    3    3    0    0 -0.11642767494E+02 -0.20845243660E+02  0.36242864865E+02  0.47787268764E+02  0.19999989605E+02 0.  0.
        -12    1    3    3    0    0  0.11642767494E+02  0.20845243660E+02 -0.36242864865E+02  0.43400731236E+02  0.00000000000E+00 0.  1.
         11    1    4    4    0    0  0.33106307740E+01 -0.10022230490E+02  0.90404620281E+01  0.13897313915E+02  0.51100000000E-03 0. -1.
        -11    1    4    4    0    0 -0.11143235236E+02 -0.37028961144E+01  0.19298592020E+02  0.22590236506E+02  0.51100000000E-03 0.  1.
        -12    1    4    4    0    0 -0.38101630321E+01 -0.71201170556E+01  0.79038108165E+01  0.11299718343E+02  0.00000000000E+00 0.  1.
</event>
<event>
 8    1  0.6019723E-011  0.9118800E+02  0.7816164E-02  0.1184000E+00
        -11   -1    0    0    0    0  0.00000000000E+00  0.00000000000E+00  0.45593999997E+02  0.45594000000E+02  0.51100000000E-03 0. -1.
         11   -1    0    0    0    0 -0.00000000000E+00 -0.00000000000E+00 -0.45593999997E+02  0.45594000000E+02  0.51100000000E-03 0.  1.
         23    2    1    2    0    0  0.66613381478E-15  0.35527136788E-14 -0.71054273576E-14  0.91188000000E+02  0.91188000000E+02 0.  0.
    9900012    2    3    3    0    0 -0.13141353996E+01 -0.18788465033E+02  0.39101029655E+02  0.47787263944E+02  0.19999967624E+02 0.  0.
        -12    1    3    3    0    0  0.13141353996E+01  0.18788465033E+02 -0.39101029655E+02  0.43400736056E+02  0.00000000000E+00 0.  1.
         11    1    4    4    0    0  0.50544618874E+01  0.38316333633E+00  0.45462929003E+01  0.68090512195E+01  0.51100000000E-03 0. -1.
        -11    1    4    4    0    0  0.93478869428E+00  0.48587478802E+00  0.18014509181E+01  0.20868947946E+01  0.51100000000E-03 0.  1.
         12    1    4    4    0    0 -0.73033859813E+01 -0.19657503158E+02  0.32753285837E+02  0.38891317929E+02  0.00000000000E+00 0. -1.
</event>
<event>
 8    1  0.6019723E-011  0.9118800E+02  0.7816164E-02  0.1184000E+00
        -11   -1    0    0    0    0  0.00000000000E+00  0.00000000000E+00  0.45593999997E+02  0.45594000000E+02  0.51100000000E-03 0. -1.
         11   -1    0    0    0    0 -0.00000000000E+00 -0.00000000000E+00 -0.45593999997E+02  0.45594000000E+02  0.51100000000E-03 0.  1.
         23    2    1    2    0    0  0.44408920985E-15  0.00000000000E+00  0.00000000000E+00  0.91188000000E+02  0.91188000000E+02 0.  0.
    9900012    2    3    3    0    0  0.24868092569E+01 -0.14006726953E+02  0.41003041160E+02  0.47787285668E+02  0.20000066674E+02 0.  0.
        -12    1    3    3    0    0 -0.24868092569E+01  0.14006726953E+02 -0.41003041160E+02  0.43400714332E+02  0.00000000000E+00 0.  1.
         11    1    4    4    0    0 -0.65893742664E+01 -0.38050716949E+01  0.20640292780E+02  0.21998184246E+02  0.51100000000E-03 0. -1.
        -11    1    4    4    0    0  0.64302400818E+01 -0.58501495365E+01  0.60337835961E+01  0.10582002734E+02  0.51100000000E-03 0.  1.
         12    1    4    4    0    0  0.26459434415E+01 -0.43515057213E+01  0.14328964784E+02  0.15207098688E+02  0.00000000000E+00 0. -1.
</event>
<event>
 8    1  0.6019723E-011  0.9118800E+02  0.7816164E-02  0.1184000E+00
        -11   -1    0    0    0    0  0.00000000000E+00  0.00000000000E+00  0.45593999997E+02  0.45594000000E+02  0.51100000000E-03 0. -1.
         11   -1    0    0    0    0 -0.00000000000E+00 -0.00000000000E+00 -0.45593999997E+02  0.45594000000E+02  0.51100000000E-03 0.  1.
         23    2    1    2    0    0  0.44408920985E-15  0.35527136788E-14  0.00000000000E+00  0.91188000000E+02  0.91188000000E+02 0.  0.
    9900012    2    3    3    0    0 -0.19198851420E+00 -0.29345062614E+02  0.31975828163E+02  0.47787272516E+02  0.20000006710E+02 0.  0.
        -12    1    3    3    0    0  0.19198851420E+00  0.29345062614E+02 -0.31975828163E+02  0.43400727484E+02  0.00000000000E+00 0.  1.
         11    1    4    4    0    0 -0.27468351111E+01 -0.19776827969E+02  0.11019595908E+02  0.22805690559E+02  0.51100000000E-03 0. -1.
        -11    1    4    4    0    0 -0.14599892518E+01  0.11923845381E+00  0.88270504181E+01  0.89477709945E+01  0.51100000000E-03 0.  1.
        -12    1    4    4    0    0  0.40148358487E+01 -0.96874730984E+01  0.12129181838E+02  0.16033810962E+02  0.00000000000E+00 0.  1.
</event>
<event>
 8    1  0.6019723E-011  0.9118800E+02  0.7816164E-02  0.1184000E+00
        -11   -1    0    0    0    0  0.00000000000E+00  0.00000000000E+00  0.45593999997E+02  0.45594000000E+02  0.51100000000E-03 0. -1.
         11   -1    0    0    0    0 -0.00000000000E+00 -0.00000000000E+00 -0.45593999997E+02  0.45594000000E+02  0.51100000000E-03 0.  1.
         23    2    1    2    0    0 -0.35527136788E-14  0.17763568394E-14  0.71054273576E-14  0.91188000000E+02  0.91188000000E+02 0.  0.
    9900012    2    3    3    0    0 -0.16496160095E+02  0.15660042883E+02  0.36962990675E+02  0.47787275114E+02  0.20000018556E+02 0.  0.
        -12    1    3    3    0    0  0.16496160095E+02 -0.15660042883E+02 -0.36962990675E+02  0.43400724886E+02  0.00000000000E+00 0.  1.
         11    1    4    4    0    0  0.18526787700E+01  0.11721180603E+01 -0.61968236527E+00  0.22782198899E+01  0.51100000000E-03 0. -1.
        -11    1    4    4    0    0 -0.23180778047E+01  0.61037394513E+01  0.49357744607E+01  0.81848023670E+01  0.51100000000E-03 0.  1.
         12    1    4    4    0    0 -0.16030761061E+02  0.83841853718E+01  0.32646898579E+02  0.37324252857E+02  0.00000000000E+00 0. -1.
</event>
<event>
 8    1  0.6019723E-011  0.9118800E+02  0.7816164E-02  0.1184000E+00
        -11   -1    0    0    0    0  0.00000000000E+00  0.00000000000E+00  0.45593999997E+02  0.45594000000E+02  0.51100000000E-03 0. -1.
         11   -1    0    0    0    0 -0.00000000000E+00 -0.00000000000E+00 -0.45593999997E+02  0.45594000000E+02  0.51100000000E-03 0.  1.
         23    2    1    2    0    0  0.00000000000E+00  0.00000000000E+00  0.00000000000E+00  0.91188000000E+02  0.91188000000E+02 0.  0.
    9900012    2    3    3    0    0  0.22957018453E+02 -0.88385903781E+01 -0.35755812083E+02  0.47787268741E+02  0.19999989498E+02 0.  0.
         12    1    3    3    0    0 -0.22957018453E+02  0.88385903781E+01  0.35755812083E+02  0.43400731259E+02  0.00000000000E+00 0. -1.
         11    1    4    4    0    0  0.10850924994E+02 -0.12249213651E+02 -0.27879178660E+02  0.32326991993E+02  0.51100000000E-03 0. -1.
        -11    1    4    4    0    0  0.92467552928E+01  0.85161835483E+00 -0.43726390030E+01  0.10263903223E+02  0.51100000000E-03 0.  1.
         12    1    4    4    0    0  0.28593381652E+01  0.25590049181E+01 -0.35039944202E+01  0.51963735249E+01  0.00000000000E+00 0. -1.
</event>
<event>
 8    1  0.6019723E-011  0.9118800E+02  0.7816164E-02  0.1184000E+00
        -11   -1    0    0    0    0  0.00000000000E+00  0.00000000000E+00  0.45593999997E+02  0.45594000000E+02  0.51100000000E-03 0. -1.
         11   -1    0    0    0    0 -0.00000000000E+00 -0.00000000000E+00 -0.45593999997E+02  0.45594000000E+02  0.51100000000E-03 0.  1.
         23    2    1    2    0    0  0.17763568394E-14  0.00000000000E+00  0.00000000000E+00  0.91188000000E+02  0.91188000000E+02 0.  0.
    9900012    2    3    3    0    0  0.14562136332E+02 -0.27176857553E+02 -0.30544812021E+02  0.47787274863E+02  0.20000017412E+02 0.  0.
         12    1    3    3    0    0 -0.14562136332E+02  0.27176857553E+02  0.30544812021E+02  0.43400725137E+02  0.00000000000E+00 0. -1.
         11    1    4    4    0    0  0.13327389504E+02 -0.68987808046E+01 -0.71516550438E+01  0.16624038550E+02  0.51100000000E-03 0. -1.
        -11    1    4    4    0    0  0.69937185530E+00 -0.10138963341E+02 -0.91743817655E+01  0.13691492967E+02  0.51100000000E-03 0.  1.
         12    1    4    4    0    0  0.53537497293E+00 -0.10139113407E+02 -0.14218775212E+02  0.17471743346E+02  0.00000000000E+00 0. -1.
</event>
<event>
 8    1  0.6019723E-011  0.9118800E+02  0.7816164E-02  0.1184000E+00
        -11   -1    0    0    0    0  0.00000000000E+00  0.00000000000E+00  0.45593999997E+02  0.45594000000E+02  0.51100000000E-03 0. -1.
         11   -1    0    0    0    0 -0.00000000000E+00 -0.00000000000E+00 -0.45593999997E+02  0.45594000000E+02  0.51100000000E-03 0.  1.
         23    2    1    2    0    0  0.00000000000E+00 -0.88817841970E-15  0.71054273576E-14  0.91188000000E+02  0.91188000000E+02 0.  0.
    9900012    2    3    3    0    0 -0.14793016801E+02 -0.59230139963E+01 -0.40369625739E+02  0.47787284301E+02  0.20000060442E+02 0.  0.
         12    1    3    3    0    0  0.14793016801E+02  0.59230139963E+01  0.40369625739E+02  0.43400715699E+02  0.00000000000E+00 0. -1.
         11    1    4    4    0    0  0.15245713869E+01 -0.72121009557E+00 -0.14746254099E+01  0.22403085225E+01  0.51100000000E-03 0. -1.
        -11    1    4    4    0    0 -0.12823069056E+02 -0.58108311053E+01 -0.12234513981E+02  0.18651546605E+02  0.51100000000E-03 0.  1.
        -12    1    4    4    0    0 -0.34945191325E+01  0.60902720458E+00 -0.26660486349E+02  0.26895429174E+02  0.00000000000E+00 0.  1.
</event>
<event>
 8    1  0.6019723E-011  0.9118800E+02  0.7816164E-02  0.1184000E+00
        -11   -1    0    0    0    0  0.00000000000E+00  0.00000000000E+00  0.45593999997E+02  0.45594000000E+02  0.51100000000E-03 0. -1.
         11   -1    0    0    0    0 -0.00000000000E+00 -0.00000000000E+00 -0.45593999997E+02  0.45594000000E+02  0.51100000000E-03 0.  1.
         23    2    1    2    0    0 -0.17763568394E-14  0.00000000000E+00 -0.35527136788E-14  0.91188000000E+02  0.91188000000E+02 0.  0.
    9900012    2    3    3    0    0  0.13166278702E+02  0.29162972956E+02  0.29322234713E+02  0.47787270340E+02  0.19999996788E+02 0.  0.
        -12    1    3    3    0    0 -0.13166278702E+02 -0.29162972956E+02 -0.29322234713E+02  0.43400729660E+02  0.00000000000E+00 0.  1.
         11    1    4    4    0    0 -0.75489985816E+00  0.13041432733E+02  0.47696452752E+01  0.13906773811E+02  0.51100000000E-03 0. -1.
        -11    1    4    4    0    0 -0.96708210953E+00  0.17725137876E+01  0.35250527854E+00  0.20497105080E+01  0.51100000000E-03 0.  1.
         12    1    4    4    0    0  0.14888260669E+02  0.14349026435E+02  0.24200084159E+02  0.31830786021E+02  0.00000000000E+00 0. -1.
</event>
<event>
 8    1  0.6019723E-011  0.9118800E+02  0.7816164E-02  0.1184000E+00
        -11   -1    0    0    0    0  0.00000000000E+00  0.00000000000E+00  0.45593999997E+02  0.45594000000E+02  0.51100000000E-03 0. -1.
         11   -1    0    0    0    0 -0.00000000000E+00 -0.00000000000E+00 -0.45593999997E+02  0.45594000000E+02  0.51100000000E-03 0.  1.
         23    2    1    2    0    0  0.00000000000E+00  0.66613381478E-15 -0.71054273576E-14  0.91188000000E+02  0.91188000000E+02 0.  0.
    9900012    2    3    3    0    0  0.20351009015E+02  0.17499260352E+01  0.38293568921E+02  0.47787271553E+02  0.20000002317E+02 0.  0.
        -12    1    3    3    0    0 -0.20351009015E+02 -0.17499260352E+01 -0.38293568921E+02  0.43400728447E+02  0.00000000000E+00 0.  1.
         11    1    4    4    0    0  0.23282430799E+01  0.15970096830E-01  0.68573366478E+01  0.72418255327E+01  0.51100000000E-03 0. -1.
        -11    1    4    4    0    0  0.14963385976E+02 -0.61991833550E+01  0.15172242051E+02  0.22193010685E+02  0.51100000000E-03 0.  1.
        -12    1    4    4    0    0  0.30593799587E+01  0.79331392934E+01  0.16263990223E+02  0.18352435335E+02  0.00000000000E+00 0.  1.
</event>
<event>
 8    1  0.6019723E-011  0.9118800E+02  0.7816164E-02  0.1184000E+00
        -11   -1    0    0    0    0  0.00000000000E+00  0.00000000000E+00  0.45593999997E+02  0.45594000000E+02  0.51100000000E-03 0.  1.
         11   -1    0    0    0    0 -0.00000000000E+00 -0.00000000000E+00 -0.45593999997E+02  0.45594000000E+02  0.51100000000E-03 0. -1.
         23    2    1    2    0    0  0.00000000000E+00  0.00000000000E+00  0.35527136788E-14  0.91188000000E+02  0.91188000000E+02 0.  0.
    9900012    2    3    3    0    0 -0.15982823115E+02  0.29718152611E+02  0.27294757585E+02  0.47787273959E+02  0.20000013287E+02 0.  0.
        -12    1    3    3    0    0  0.15982823115E+02 -0.29718152611E+02 -0.27294757585E+02  0.43400726041E+02  0.00000000000E+00 0.  1.
         11    1    4    4    0    0 -0.85508947205E+01  0.14935255779E+02  0.23410999900E+02  0.29056059304E+02  0.51100000000E-03 0. -1.
        -11    1    4    4    0    0 -0.41794087919E+01  0.13746065972E+02  0.12540581399E+01  0.14422012676E+02  0.51100000000E-03 0.  1.
        -12    1    4    4    0    0 -0.32525196021E+01  0.10368308601E+01  0.26296995451E+01  0.43092019785E+01  0.00000000000E+00 0.  1.
</event>
<event>
 8    1  0.6019723E-011  0.9118800E+02  0.7816164E-02  0.1184000E+00
        -11   -1    0    0    0    0  0.00000000000E+00  0.00000000000E+00  0.45593999997E+02  0.45594000000E+02  0.51100000000E-03 0.  1.
         11   -1    0    0    0    0 -0.00000000000E+00 -0.00000000000E+00 -0.45593999997E+02  0.45594000000E+02  0.51100000000E-03 0. -1.
         23    2    1    2    0    0  0.00000000000E+00  0.00000000000E+00  0.00000000000E+00  0.91188000000E+02  0.91188000000E+02 0.  0.
    9900012    2    3    3    0    0  0.30078534125E+02  0.23439150578E+02 -0.20724654984E+02  0.47787270523E+02  0.19999997622E+02 0.  0.
         12    1    3    3    0    0 -0.30078534125E+02 -0.23439150578E+02  0.20724654984E+02  0.43400729477E+02  0.00000000000E+00 0. -1.
         11    1    4    4    0    0  0.39872403939E+01 -0.30794313701E+01 -0.20202395014E+01  0.54279233070E+01  0.51100000000E-03 0. -1.
        -11    1    4    4    0    0  0.25675315409E+02  0.25285151603E+02 -0.16143020529E+02  0.39486172580E+02  0.51100000000E-03 0.  1.
        -12    1    4    4    0    0  0.41597832251E+00  0.12334303448E+01 -0.25613949536E+01  0.28731746360E+01  0.00000000000E+00 0.  1.
</event>
<event>
 8    1  0.6019723E-011  0.9118800E+02  0.7816164E-02  0.1184000E+00
        -11   -1    0    0    0    0  0.00000000000E+00  0.00000000000E+00  0.45593999997E+02  0.45594000000E+02  0.51100000000E-03 0.  1.
         11   -1    0    0    0    0 -0.00000000000E+00 -0.00000000000E+00 -0.45593999997E+02  0.45594000000E+02  0.51100000000E-03 0. -1.
         23    2    1    2    0    0  0.00000000000E+00  0.71054273576E-14 -0.88817841970E-15  0.91188000000E+02  0.91188000000E+02 0.  0.
    9900012    2    3    3    0    0  0.17856856650E+02 -0.39234982759E+02  0.50370880650E+01  0.47787268927E+02  0.19999990345E+02 0.  0.
        -12    1    3    3    0    0 -0.17856856650E+02  0.39234982759E+02 -0.50370880650E+01  0.43400731073E+02  0.00000000000E+00 0.  1.
         11    1    4    4    0    0  0.91644998807E+01 -0.40753192408E+01 -0.60159706602E+00  0.10047795991E+02  0.51100000000E-03 0. -1.
        -11    1    4    4    0    0  0.20199925456E+01 -0.21523996931E+02  0.21683846609E+00  0.21619663109E+02  0.51100000000E-03 0.  1.
        -12    1    4    4    0    0  0.66723642233E+01 -0.13635666587E+02  0.54218466649E+01  0.16119809827E+02  0.00000000000E+00 0.  1.
</event>
<event>
 8    1  0.6019723E-011  0.9118800E+02  0.7816164E-02  0.1184000E+00
        -11   -1    0    0    0    0  0.00000000000E+00  0.00000000000E+00  0.45593999997E+02  0.45594000000E+02  0.51100000000E-03 0.  1.
         11   -1    0    0    0    0 -0.00000000000E+00 -0.00000000000E+00 -0.45593999997E+02  0.45594000000E+02  0.51100000000E-03 0. -1.
         23    2    1    2    0    0  0.00000000000E+00 -0.71054273576E-14  0.00000000000E+00  0.91188000000E+02  0.91188000000E+02 0.  0.
    9900012    2    3    3    0    0 -0.26868075796E+02 -0.31314838898E+02 -0.13457720466E+02  0.47787275671E+02  0.20000021093E+02 0.  0.
         12    1    3    3    0    0  0.26868075796E+02  0.31314838898E+02  0.13457720466E+02  0.43400724329E+02  0.00000000000E+00 0. -1.
         11    1    4    4    0    0 -0.18701463152E+01  0.34139809100E+00  0.10082673561E+01  0.21518836444E+01  0.51100000000E-03 0. -1.
        -11    1    4    4    0    0 -0.20502667802E+02 -0.14433107540E+02 -0.11519834641E+02  0.27593125424E+02  0.51100000000E-03 0.  1.
        -12    1    4    4    0    0 -0.44952616792E+01 -0.17223129449E+02 -0.29461531807E+01  0.18042266602E+02  0.00000000000E+00 0.  1.
</event>
<event>
 8    1  0.6019723E-011  0.9118800E+02  0.7816164E-02  0.1184000E+00
        -11   -1    0    0    0    0  0.00000000000E+00  0.00000000000E+00  0.45593999997E+02  0.45594000000E+02  0.51100000000E-03 0. -1.
         11   -1    0    0    0    0 -0.00000000000E+00 -0.00000000000E+00 -0.45593999997E+02  0.45594000000E+02  0.51100000000E-03 0.  1.
         23    2    1    2    0    0  0.00000000000E+00 -0.17763568394E-14  0.00000000000E+00  0.91188000000E+02  0.91188000000E+02 0.  0.
    9900012    2    3    3    0    0  0.76806741280E+01 -0.13313668896E+02 -0.40587891483E+02  0.47787268790E+02  0.19999989722E+02 0.  0.
         12    1    3    3    0    0 -0.76806741280E+01  0.13313668896E+02  0.40587891483E+02  0.43400731210E+02  0.00000000000E+00 0. -1.
         11    1    4    4    0    0  0.38256172013E+01 -0.11729991985E+02 -0.23692782189E+02  0.26712843110E+02  0.51100000000E-03 0. -1.
        -11    1    4    4    0    0  0.12808202121E+01 -0.64954045140E+01 -0.64204767382E+01  0.92224347123E+01  0.51100000000E-03 0.  1.
         12    1    4    4    0    0  0.25742367147E+01  0.49117276030E+01 -0.10474632556E+02  0.11851990967E+02  0.00000000000E+00 0. -1.
</event>
<event>
 8    1  0.6019723E-011  0.9118800E+02  0.7816164E-02  0.1184000E+00
        -11   -1    0    0    0    0  0.00000000000E+00  0.00000000000E+00  0.45593999997E+02  0.45594000000E+02  0.51100000000E-03 0. -1.
         11   -1    0    0    0    0 -0.00000000000E+00 -0.00000000000E+00 -0.45593999997E+02  0.45594000000E+02  0.51100000000E-03 0.  1.
         23    2    1    2    0    0 -0.35527136788E-14 -0.17763568394E-14  0.00000000000E+00  0.91188000000E+02  0.91188000000E+02 0.  0.
    9900012    2    3    3    0    0  0.20888540908E+02  0.14071148334E+02  0.35345366262E+02  0.47787271055E+02  0.20000000049E+02 0.  0.
        -12    1    3    3    0    0 -0.20888540908E+02 -0.14071148334E+02 -0.35345366262E+02  0.43400728945E+02  0.00000000000E+00 0.  1.
         11    1    4    4    0    0  0.27821197914E+01  0.86251389767E+01  0.30708098399E+01  0.95688602370E+01  0.51100000000E-03 0. -1.
        -11    1    4    4    0    0  0.69354911297E+01 -0.17698031972E+01  0.11947701639E+02  0.13927699569E+02  0.51100000000E-03 0.  1.
         12    1    4    4    0    0  0.11170929987E+02  0.72158125549E+01  0.20326854783E+02  0.24290711249E+02  0.00000000000E+00 0. -1.
</event>
<event>
 8    1  0.6019723E-011  0.9118800E+02  0.7816164E-02  0.1184000E+00
        -11   -1    0    0    0    0  0.00000000000E+00  0.00000000000E+00  0.45593999997E+02  0.45594000000E+02  0.51100000000E-03 0. -1.
         11   -1    0    0    0    0 -0.00000000000E+00 -0.00000000000E+00 -0.45593999997E+02  0.45594000000E+02  0.51100000000E-03 0.  1.
         23    2    1    2    0    0 -0.71054273576E-14 -0.35527136788E-14  0.35527136788E-14  0.91188000000E+02  0.91188000000E+02 0.  0.
    9900012    2    3    3    0    0  0.32112844471E+02  0.24766479008E+02 -0.15459951438E+02  0.47787270041E+02  0.19999995426E+02 0.  0.
         12    1    3    3    0    0 -0.32112844471E+02 -0.24766479008E+02  0.15459951438E+02  0.43400729959E+02  0.00000000000E+00 0. -1.
         11    1    4    4    0    0  0.76126885640E+01  0.31272942296E+01 -0.18162728185E+01  0.84280391304E+01  0.51100000000E-03 0. -1.
        -11    1    4    4    0    0  0.24128837872E+02  0.15398986078E+02 -0.15863167766E+02  0.32725673119E+02  0.51100000000E-03 0.  1.
        -12    1    4    4    0    0  0.37131803561E+00  0.62401987004E+01  0.22194891463E+01  0.66335577916E+01  0.00000000000E+00 0.  1.
</event>
<event>
 8    1  0.6019723E-011  0.9118800E+02  0.7816164E-02  0.1184000E+00
        -11   -1    0    0    0    0  0.00000000000E+00  0.00000000000E+00  0.45593999997E+02  0.45594000000E+02  0.51100000000E-03 0. -1.
         11   -1    0    0    0    0 -0.00000000000E+00 -0.00000000000E+00 -0.45593999997E+02  0.45594000000E+02  0.51100000000E-03 0.  1.
         23    2    1    2    0    0 -0.17763568394E-14  0.00000000000E+00 -0.71054273576E-14  0.91188000000E+02  0.91188000000E+02 0.  0.
    9900012    2    3    3    0    0  0.13077897955E+02 -0.76454818699E+01  0.40671091856E+02  0.47787279721E+02  0.20000039560E+02 0.  0.
        -12    1    3    3    0    0 -0.13077897955E+02  0.76454818699E+01 -0.40671091856E+02  0.43400720279E+02  0.00000000000E+00 0.  1.
         11    1    4    4    0    0 -0.98790616693E+00 -0.25234917961E+01  0.27999101829E+02  0.28129942640E+02  0.51100000000E-03 0. -1.
        -11    1    4    4    0    0  0.13451438988E+02 -0.50548095157E+01  0.11830340990E+02  0.18613147995E+02  0.51100000000E-03 0.  1.
         12    1    4    4    0    0  0.61436513395E+00 -0.67180558033E-01  0.84164903805E+00  0.10441890865E+01  0.00000000000E+00 0. -1.
</event>
<event>
 8    1  0.6019723E-011  0.9118800E+02  0.7816164E-02  0.1184000E+00
        -11   -1    0    0    0    0  0.00000000000E+00  0.00000000000E+00  0.45593999997E+02  0.45594000000E+02  0.51100000000E-03 0. -1.
         11   -1    0    0    0    0 -0.00000000000E+00 -0.00000000000E+00 -0.45593999997E+02  0.45594000000E+02  0.51100000000E-03 0.  1.
         23    2    1    2    0    0  0.00000000000E+00  0.00000000000E+00  0.00000000000E+00  0.91188000000E+02  0.91188000000E+02 0.  0.
    9900012    2    3    3    0    0 -0.18873419692E+02  0.32235737464E+02  0.22096947143E+02  0.47787264824E+02  0.19999971639E+02 0.  0.
        -12    1    3    3    0    0  0.18873419692E+02 -0.32235737464E+02 -0.22096947143E+02  0.43400735176E+02  0.00000000000E+00 0.  1.
         11    1    4    4    0    0 -0.15686157195E+02  0.22382046148E+02  0.72101480326E+01  0.28266548290E+02  0.51100000000E-03 0. -1.
        -11    1    4    4    0    0  0.71077702481E+00 -0.75191858242E+00  0.27505781933E+01  0.29387524891E+01  0.51100000000E-03 0.  1.
         12    1    4    4    0    0 -0.38980395220E+01  0.10605609899E+02  0.12136220917E+02  0.16581964045E+02  0.00000000000E+00 0. -1.
</event>
<event>
 8    1  0.6019723E-011  0.9118800E+02  0.7816164E-02  0.1184000E+00
        -11   -1    0    0    0    0  0.00000000000E+00  0.00000000000E+00  0.45593999997E+02  0.45594000000E+02  0.51100000000E-03 0. -1.
         11   -1    0    0    0    0 -0.00000000000E+00 -0.00000000000E+00 -0.45593999997E+02  0.45594000000E+02  0.51100000000E-03 0.  1.
         23    2    1    2    0    0 -0.88817841970E-15  0.00000000000E+00  0.00000000000E+00  0.91188000000E+02  0.91188000000E+02 0.  0.
    9900012    2    3    3    0    0  0.53672875744E+01 -0.40466811796E+02 -0.14739493027E+02  0.47787270888E+02  0.19999999285E+02 0.  0.
         12    1    3    3    0    0 -0.53672875744E+01  0.40466811796E+02  0.14739493027E+02  0.43400729112E+02  0.00000000000E+00 0. -1.
         11    1    4    4    0    0 -0.23290949691E+01 -0.30177829696E+02 -0.90076238222E+01  0.31579477129E+02  0.51100000000E-03 0. -1.
        -11    1    4    4    0    0  0.70615489073E+01 -0.78956736069E+01 -0.76577744390E+01  0.13070908320E+02  0.51100000000E-03 0.  1.
         12    1    4    4    0    0  0.63483363624E+00 -0.23933084923E+01  0.19259052346E+01  0.31368854390E+01  0.00000000000E+00 0. -1.
</event>
<event>
 8    1  0.6019723E-011  0.9118800E+02  0.7816164E-02  0.1184000E+00
        -11   -1    0    0    0    0  0.00000000000E+00  0.00000000000E+00  0.45593999997E+02  0.45594000000E+02  0.51100000000E-03 0. -1.
         11   -1    0    0    0    0 -0.00000000000E+00 -0.00000000000E+00 -0.45593999997E+02  0.45594000000E+02  0.51100000000E-03 0.  1.
         23    2    1    2    0    0  0.00000000000E+00  0.00000000000E+00  0.00000000000E+00  0.91188000000E+02  0.91188000000E+02 0.  0.
    9900012    2    3    3    0    0 -0.64131170873E+01  0.29166137054E+02 -0.31493357641E+02  0.47787271931E+02  0.20000004042E+02 0.  0.
         12    1    3    3    0    0  0.64131170873E+01 -0.29166137054E+02  0.31493357641E+02  0.43400728069E+02  0.00000000000E+00 0. -1.
         11    1    4    4    0    0 -0.38697568414E+01  0.28728443932E+01 -0.12783679183E+02  0.13662016932E+02  0.51100000000E-03 0. -1.
        -11    1    4    4    0    0  0.44867820371E+00  0.20049938396E+02 -0.18365194226E+02  0.27193412824E+02  0.51100000000E-03 0.  1.
        -12    1    4    4    0    0 -0.29920384496E+01  0.62433542642E+01 -0.34448423210E+00  0.69318421749E+01  0.00000000000E+00 0.  1.
</event>
<event>
 8    1  0.6019723E-011  0.9118800E+02  0.7816164E-02  0.1184000E+00
        -11   -1    0    0    0    0  0.00000000000E+00  0.00000000000E+00  0.45593999997E+02  0.45594000000E+02  0.51100000000E-03 0. -1.
         11   -1    0    0    0    0 -0.00000000000E+00 -0.00000000000E+00 -0.45593999997E+02  0.45594000000E+02  0.51100000000E-03 0.  1.
         23    2    1    2    0    0  0.00000000000E+00  0.00000000000E+00  0.00000000000E+00  0.91188000000E+02  0.91188000000E+02 0.  0.
    9900012    2    3    3    0    0  0.17820710313E+02 -0.39334273349E+02 -0.43428469728E+01  0.47787273096E+02  0.20000009354E+02 0.  0.
        -12    1    3    3    0    0 -0.17820710313E+02  0.39334273349E+02  0.43428469728E+01  0.43400726904E+02  0.00000000000E+00 0.  1.
         11    1    4    4    0    0  0.24601560120E+01 -0.21639741802E+02 -0.51136097281E+00  0.21785139044E+02  0.51100000000E-03 0. -1.
        -11    1    4    4    0    0  0.44516364302E+01 -0.14851777186E+01 -0.44315356935E+01  0.64545587477E+01  0.51100000000E-03 0.  1.
         12    1    4    4    0    0  0.10908917871E+02 -0.16209353828E+02  0.60004969349E+00  0.19547575304E+02  0.00000000000E+00 0. -1.
</event>
<event>
 8    1  0.6019723E-011  0.9118800E+02  0.7816164E-02  0.1184000E+00
        -11   -1    0    0    0    0  0.00000000000E+00  0.00000000000E+00  0.45593999997E+02  0.45594000000E+02  0.51100000000E-03 0. -1.
         11   -1    0    0    0    0 -0.00000000000E+00 -0.00000000000E+00 -0.45593999997E+02  0.45594000000E+02  0.51100000000E-03 0.  1.
         23    2    1    2    0    0  0.00000000000E+00  0.00000000000E+00  0.00000000000E+00  0.91188000000E+02  0.91188000000E+02 0.  0.
    9900012    2    3    3    0    0 -0.24773899296E+02  0.23576050138E+01  0.35557245502E+02  0.47787284621E+02  0.20000061900E+02 0.  0.
        -12    1    3    3    0    0  0.24773899296E+02 -0.23576050138E+01 -0.35557245502E+02  0.43400715379E+02  0.00000000000E+00 0.  1.
         11    1    4    4    0    0 -0.96637692239E+01  0.59027801485E+01  0.18735154999E+02  0.21891488807E+02  0.51100000000E-03 0. -1.
        -11    1    4    4    0    0 -0.13952409161E+02 -0.69544716345E+01  0.15698293198E+02  0.22123987134E+02  0.51100000000E-03 0.  1.
        -12    1    4    4    0    0 -0.11577209114E+01  0.34092964998E+01  0.11237973049E+01  0.37718086795E+01  0.00000000000E+00 0.  1.
</event>
<event>
 8    1  0.6019723E-011  0.9118800E+02  0.7816164E-02  0.1184000E+00
        -11   -1    0    0    0    0  0.00000000000E+00  0.00000000000E+00  0.45593999997E+02  0.45594000000E+02  0.51100000000E-03 0. -1.
         11   -1    0    0    0    0 -0.00000000000E+00 -0.00000000000E+00 -0.45593999997E+02  0.45594000000E+02  0.51100000000E-03 0.  1.
         23    2    1    2    0    0 -0.17763568394E-14  0.00000000000E+00  0.71054273576E-14  0.91188000000E+02  0.91188000000E+02 0.  0.
    9900012    2    3    3    0    0  0.11585445488E+02 -0.21725999046E+01  0.41769372018E+02  0.47787272168E+02  0.20000005124E+02 0.  0.
        -12    1    3    3    0    0 -0.11585445488E+02  0.21725999046E+01 -0.41769372018E+02  0.43400727832E+02  0.00000000000E+00 0.  1.
         11    1    4    4    0    0 -0.12882674902E+01 -0.56874512917E+01  0.18972142952E+02  0.19848147112E+02  0.51100000000E-03 0. -1.
        -11    1    4    4    0    0  0.41479810086E+01  0.50497035961E+01  0.56518354951E+01  0.86399362024E+01  0.51100000000E-03 0.  1.
        -12    1    4    4    0    0  0.87257319696E+01 -0.15348522090E+01  0.17145393572E+02  0.19299188854E+02  0.00000000000E+00 0.  1.
</event>
<event>
 8    1  0.6019723E-011  0.9118800E+02  0.7816164E-02  0.1184000E+00
        -11   -1    0    0    0    0  0.00000000000E+00  0.00000000000E+00  0.45593999997E+02  0.45594000000E+02  0.51100000000E-03 0. -1.
         11   -1    0    0    0    0 -0.00000000000E+00 -0.00000000000E+00 -0.45593999997E+02  0.45594000000E+02  0.51100000000E-03 0.  1.
         23    2    1    2    0    0  0.00000000000E+00 -0.35527136788E-14  0.00000000000E+00  0.91188000000E+02  0.91188000000E+02 0.  0.
    9900012    2    3    3    0    0  0.31896680135E+02  0.23704322149E+02 -0.17445008105E+02  0.47787292633E+02  0.20000098432E+02 0.  0.
         12    1    3    3    0    0 -0.31896680135E+02 -0.23704322149E+02  0.17445008105E+02  0.43400707367E+02  0.00000000000E+00 0. -1.
         11    1    4    4    0    0  0.19795908245E+02  0.24285473966E+02 -0.11788844421E+02  0.33475947814E+02  0.51100000000E-03 0. -1.
        -11    1    4    4    0    0  0.90338325672E+01  0.22933259278E+00 -0.16249805055E+01  0.91816821005E+01  0.51100000000E-03 0.  1.
         12    1    4    4    0    0  0.30669393222E+01 -0.81048441019E+00 -0.40311831788E+01  0.51296627185E+01  0.00000000000E+00 0. -1.
</event>
<event>
 8    1  0.6019723E-011  0.9118800E+02  0.7816164E-02  0.1184000E+00
        -11   -1    0    0    0    0  0.00000000000E+00  0.00000000000E+00  0.45593999997E+02  0.45594000000E+02  0.51100000000E-03 0. -1.
         11   -1    0    0    0    0 -0.00000000000E+00 -0.00000000000E+00 -0.45593999997E+02  0.45594000000E+02  0.51100000000E-03 0.  1.
         23    2    1    2    0    0  0.35527136788E-14  0.00000000000E+00  0.35527136788E-14  0.91188000000E+02  0.91188000000E+02 0.  0.
    9900012    2    3    3    0    0  0.21393335819E+02 -0.24602461811E+02  0.28647287708E+02  0.47787273766E+02  0.20000012411E+02 0.  0.
        -12    1    3    3    0    0 -0.21393335819E+02  0.24602461811E+02 -0.28647287708E+02  0.43400726234E+02  0.00000000000E+00 0.  1.
         11    1    4    4    0    0  0.16852536289E+02 -0.16743602754E+02  0.19130473458E+02  0.30501331570E+02  0.51100000000E-03 0. -1.
        -11    1    4    4    0    0 -0.13872774886E+00 -0.92622609941E+01  0.45548508480E+01  0.10322567056E+02  0.51100000000E-03 0.  1.
        -12    1    4    4    0    0  0.46795272785E+01  0.14034019376E+01  0.49619634015E+01  0.69633751404E+01  0.00000000000E+00 0.  1.
</event>
<event>
 8    1  0.6019723E-011  0.9118800E+02  0.7816164E-02  0.1184000E+00
        -11   -1    0    0    0    0  0.00000000000E+00  0.00000000000E+00  0.45593999997E+02  0.45594000000E+02  0.51100000000E-03 0. -1.
         11   -1    0    0    0    0 -0.00000000000E+00 -0.00000000000E+00 -0.45593999997E+02  0.45594000000E+02  0.51100000000E-03 0.  1.
         23    2    1    2    0    0  0.00000000000E+00  0.00000000000E+00  0.00000000000E+00  0.91188000000E+02  0.91188000000E+02 0.  0.
    9900012    2    3    3    0    0  0.29048966584E+02 -0.29887686890E+02 -0.12104005147E+02  0.47787271575E+02  0.20000002420E+02 0.  0.
         12    1    3    3    0    0 -0.29048966584E+02  0.29887686890E+02  0.12104005147E+02  0.43400728425E+02  0.00000000000E+00 0. -1.
         11    1    4    4    0    0 -0.15549053732E+01 -0.14166848386E+01 -0.47614301068E+01  0.52053764105E+01  0.51100000000E-03 0. -1.
        -11    1    4    4    0    0  0.21172151411E+02 -0.17667960440E+02 -0.40981481140E+01  0.27878515737E+02  0.51100000000E-03 0.  1.
        -12    1    4    4    0    0  0.94317205457E+01 -0.10803041612E+02 -0.32444269259E+01  0.14703379428E+02  0.00000000000E+00 0.  1.
</event>
<event>
 8    1  0.6019723E-011  0.9118800E+02  0.7816164E-02  0.1184000E+00
        -11   -1    0    0    0    0  0.00000000000E+00  0.00000000000E+00  0.45593999997E+02  0.45594000000E+02  0.51100000000E-03 0. -1.
         11   -1    0    0    0    0 -0.00000000000E+00 -0.00000000000E+00 -0.45593999997E+02  0.45594000000E+02  0.51100000000E-03 0.  1.
         23    2    1    2    0    0  0.00000000000E+00  0.22204460493E-15  0.00000000000E+00  0.91188000000E+02  0.91188000000E+02 0.  0.
    9900012    2    3    3    0    0  0.21336025877E+01 -0.16090310404E+01  0.43318381447E+02  0.47787269452E+02  0.19999992739E+02 0.  0.
        -12    1    3    3    0    0 -0.21336025877E+01  0.16090310404E+01 -0.43318381447E+02  0.43400730548E+02  0.00000000000E+00 0.  1.
         11    1    4    4    0    0  0.28044947869E+01  0.23042108437E+01  0.14229792325E+02  0.14685420270E+02  0.51100000000E-03 0. -1.
        -11    1    4    4    0    0  0.72786740071E+01 -0.17052396485E+01  0.15411172855E+02  0.17128665639E+02  0.51100000000E-03 0.  1.
        -12    1    4    4    0    0 -0.79495662064E+01 -0.22080022357E+01  0.13677416268E+02  0.15973183543E+02  0.00000000000E+00 0.  1.
</event>
<event>
 8    1  0.6019723E-011  0.9118800E+02  0.7816164E-02  0.1184000E+00
        -11   -1    0    0    0    0  0.00000000000E+00  0.00000000000E+00  0.45593999997E+02  0.45594000000E+02  0.51100000000E-03 0. -1.
         11   -1    0    0    0    0 -0.00000000000E+00 -0.00000000000E+00 -0.45593999997E+02  0.45594000000E+02  0.51100000000E-03 0.  1.
         23    2    1    2    0    0  0.00000000000E+00 -0.88817841970E-15  0.00000000000E+00  0.91188000000E+02  0.91188000000E+02 0.  0.
    9900012    2    3    3    0    0 -0.30540497289E+02 -0.70251788318E+01  0.30025815721E+02  0.47787254362E+02  0.19999923936E+02 0.  0.
        -12    1    3    3    0    0  0.30540497289E+02  0.70251788318E+01 -0.30025815721E+02  0.43400745638E+02  0.00000000000E+00 0.  1.
         11    1    4    4    0    0 -0.97686963554E+01  0.27266659489E+01  0.10594230804E+02  0.14666283179E+02  0.51100000000E-03 0. -1.
        -11    1    4    4    0    0 -0.10403309213E+02 -0.11609931762E+02  0.78102446058E+01  0.17436148633E+02  0.51100000000E-03 0.  1.
        -12    1    4    4    0    0 -0.10368491720E+02  0.18580869817E+01  0.11621340311E+02  0.15684822549E+02  0.00000000000E+00 0.  1.
</event>
<event>
 8    1  0.6019723E-011  0.9118800E+02  0.7816164E-02  0.1184000E+00
        -11   -1    0    0    0    0  0.00000000000E+00  0.00000000000E+00  0.45593999997E+02  0.45594000000E+02  0.51100000000E-03 0. -1.
         11   -1    0    0    0    0 -0.00000000000E+00 -0.00000000000E+00 -0.45593999997E+02  0.45594000000E+02  0.51100000000E-03 0.  1.
         23    2    1    2    0    0 -0.35527136788E-14  0.44408920985E-15  0.00000000000E+00  0.91188000000E+02  0.91188000000E+02 0.  0.
    9900012    2    3    3    0    0  0.20892085928E+02  0.13983207192E+01  0.38015638213E+02  0.47787270697E+02  0.19999998418E+02 0.  0.
        -12    1    3    3    0    0 -0.20892085928E+02 -0.13983207192E+01 -0.38015638213E+02  0.43400729303E+02  0.00000000000E+00 0.  1.
         11    1    4    4    0    0  0.25951689978E+01  0.73390284108E+01  0.19561137094E+02  0.21053130997E+02  0.51100000000E-03 0. -1.
        -11    1    4    4    0    0  0.80141402465E+01 -0.34802169669E+01  0.75806394109E+01  0.11567387266E+02  0.51100000000E-03 0.  1.
         12    1    4    4    0    0  0.10282776684E+02 -0.24604907246E+01  0.10873861709E+02  0.15166752434E+02  0.00000000000E+00 0. -1.
</event>
<event>
 8    1  0.6019723E-011  0.9118800E+02  0.7816164E-02  0.1184000E+00
        -11   -1    0    0    0    0  0.00000000000E+00  0.00000000000E+00  0.45593999997E+02  0.45594000000E+02  0.51100000000E-03 0. -1.
         11   -1    0    0    0    0 -0.00000000000E+00 -0.00000000000E+00 -0.45593999997E+02  0.45594000000E+02  0.51100000000E-03 0.  1.
         23    2    1    2    0    0  0.00000000000E+00  0.00000000000E+00  0.00000000000E+00  0.91188000000E+02  0.91188000000E+02 0.  0.
    9900012    2    3    3    0    0 -0.63366441454E+01  0.23379644101E+02 -0.36011980352E+02  0.47787267907E+02  0.19999985697E+02 0.  0.
         12    1    3    3    0    0  0.63366441454E+01 -0.23379644101E+02  0.36011980352E+02  0.43400732093E+02  0.00000000000E+00 0. -1.
         11    1    4    4    0    0  0.45680527091E+01  0.30583241882E+01 -0.22462031267E+01  0.59385083262E+01  0.51100000000E-03 0. -1.
        -11    1    4    4    0    0 -0.42437807742E+01  0.55649689768E+01 -0.17730630022E+02  0.19061841364E+02  0.51100000000E-03 0.  1.
         12    1    4    4    0    0 -0.66609160803E+01  0.14756350936E+02 -0.16035147203E+02  0.22786918217E+02  0.00000000000E+00 0. -1.
</event>
<event>
 8    1  0.6019723E-011  0.9118800E+02  0.7816164E-02  0.1184000E+00
        -11   -1    0    0    0    0  0.00000000000E+00  0.00000000000E+00  0.45593999997E+02  0.45594000000E+02  0.51100000000E-03 0.  1.
         11   -1    0    0    0    0 -0.00000000000E+00 -0.00000000000E+00 -0.45593999997E+02  0.45594000000E+02  0.51100000000E-03 0. -1.
         23    2    1    2    0    0  0.71054273576E-14  0.00000000000E+00  0.00000000000E+00  0.91188000000E+02  0.91188000000E+02 0.  0.
    9900012    2    3    3    0    0 -0.37828482492E+02  0.73615843679E+01 -0.19960850450E+02  0.47787279237E+02  0.20000037353E+02 0.  0.
         12    1    3    3    0    0  0.37828482492E+02 -0.73615843679E+01  0.19960850450E+02  0.43400720763E+02  0.00000000000E+00 0. -1.
         11    1    4    4    0    0 -0.15245398411E+02 -0.23229626242E+01 -0.14944341382E+02  0.21474442197E+02  0.51100000000E-03 0.  1.
        -11    1    4    4    0    0 -0.11182239102E+02  0.89237910341E+01 -0.39217903286E+01  0.14834316884E+02  0.51100000000E-03 0. -1.
        -12    1    4    4    0    0 -0.11400844979E+02  0.76075595801E+00 -0.10947187394E+01  0.11478520156E+02  0.00000000000E+00 0.  1.
</event>
<event>
 8    1  0.6019723E-011  0.9118800E+02  0.7816164E-02  0.1184000E+00
        -11   -1    0    0    0    0  0.00000000000E+00  0.00000000000E+00  0.45593999997E+02  0.45594000000E+02  0.51100000000E-03 0. -1.
         11   -1    0    0    0    0 -0.00000000000E+00 -0.00000000000E+00 -0.45593999997E+02  0.45594000000E+02  0.51100000000E-03 0.  1.
         23    2    1    2    0    0  0.00000000000E+00  0.00000000000E+00 -0.35527136788E-14  0.91188000000E+02  0.91188000000E+02 0.  0.
    9900012    2    3    3    0    0 -0.34835119666E+02 -0.15603508820E+02  0.20655951414E+02  0.47787269840E+02  0.19999994508E+02 0.  0.
        -12    1    3    3    0    0  0.34835119666E+02  0.15603508820E+02 -0.20655951414E+02  0.43400730160E+02  0.00000000000E+00 0.  1.
         11    1    4    4    0    0 -0.16003597450E+02 -0.16005190743E+02  0.10190293050E+02  0.24821831817E+02  0.51100000000E-03 0. -1.
        -11    1    4    4    0    0 -0.73236299734E+01  0.14052458595E+01  0.83966375084E+01  0.11230039787E+02  0.51100000000E-03 0.  1.
         12    1    4    4    0    0 -0.11507892243E+02 -0.10035639360E+01  0.20690208548E+01  0.11735398235E+02  0.00000000000E+00 0. -1.
</event>
<event>
 8    1  0.6019723E-011  0.9118800E+02  0.7816164E-02  0.1184000E+00
        -11   -1    0    0    0    0  0.00000000000E+00  0.00000000000E+00  0.45593999997E+02  0.45594000000E+02  0.51100000000E-03 0.  1.
         11   -1    0    0    0    0 -0.00000000000E+00 -0.00000000000E+00 -0.45593999997E+02  0.45594000000E+02  0.51100000000E-03 0. -1.
         23    2    1    2    0    0  0.00000000000E+00  0.00000000000E+00  0.44408920985E-15  0.91188000000E+02  0.91188000000E+02 0.  0.
    9900012    2    3    3    0    0 -0.16740571964E+02 -0.39935878167E+02  0.29159738027E+01  0.47787262474E+02  0.19999960922E+02 0.  0.
        -12    1    3    3    0    0  0.16740571964E+02  0.39935878167E+02 -0.29159738027E+01  0.43400737526E+02  0.00000000000E+00 0.  1.
         11    1    4    4    0    0 -0.55331090593E+01 -0.11925195018E+02 -0.88387494737E-01  0.13146611148E+02  0.51100000000E-03 0. -1.
        -11    1    4    4    0    0 -0.27787534743E+01 -0.24377528443E+02  0.54681116803E+01  0.25137334972E+02  0.51100000000E-03 0.  1.
        -12    1    4    4    0    0 -0.84287094299E+01 -0.36331547057E+01 -0.24637503828E+01  0.95033163537E+01  0.00000000000E+00 0.  1.
</event>
<event>
 8    1  0.6019723E-011  0.9118800E+02  0.7816164E-02  0.1184000E+00
        -11   -1    0    0    0    0  0.00000000000E+00  0.00000000000E+00  0.45593999997E+02  0.45594000000E+02  0.51100000000E-03 0. -1.
         11   -1    0    0    0    0 -0.00000000000E+00 -0.00000000000E+00 -0.45593999997E+02  0.45594000000E+02  0.51100000000E-03 0.  1.
         23    2    1    2    0    0  0.00000000000E+00  0.44408920985E-15  0.00000000000E+00  0.91188000000E+02  0.91188000000E+02 0.  0.
    9900012    2    3    3    0    0  0.28994887333E+01  0.36580576597E+01 -0.43148977672E+02  0.47787277714E+02  0.20000030411E+02 0.  0.
         12    1    3    3    0    0 -0.28994887333E+01 -0.36580576597E+01  0.43148977672E+02  0.43400722286E+02  0.00000000000E+00 0. -1.
         11    1    4    4    0    0  0.10170975451E+02  0.70002071763E+01 -0.24892483697E+02  0.27786460498E+02  0.51100000000E-03 0. -1.
        -11    1    4    4    0    0 -0.25525199071E+01 -0.15501772968E+01 -0.86142460881E+01  0.91172168700E+01  0.51100000000E-03 0.  1.
         12    1    4    4    0    0 -0.47189668102E+01 -0.17919722198E+01 -0.96422478867E+01  0.10883600346E+02  0.00000000000E+00 0. -1.
</event>
<event>
 8    1  0.6019723E-011  0.9118800E+02  0.7816164E-02  0.1184000E+00
        -11   -1    0    0    0    0  0.00000000000E+00  0.00000000000E+00  0.45593999997E+02  0.45594000000E+02  0.51100000000E-03 0. -1.
         11   -1    0    0    0    0 -0.00000000000E+00 -0.00000000000E+00 -0.45593999997E+02  0.45594000000E+02  0.51100000000E-03 0.  1.
         23    2    1    2    0    0  0.00000000000E+00  0.00000000000E+00  0.00000000000E+00  0.91188000000E+02  0.91188000000E+02 0.  0.
    9900012    2    3    3    0    0 -0.19015191572E+02 -0.13455336777E+02 -0.36619656900E+02  0.47787275700E+02  0.20000021227E+02 0.  0.
         12    1    3    3    0    0  0.19015191572E+02  0.13455336777E+02  0.36619656900E+02  0.43400724300E+02  0.00000000000E+00 0. -1.
         11    1    4    4    0    0  0.10062067925E+00 -0.84366071194E+01 -0.12332974701E+02  0.14942848773E+02  0.51100000000E-03 0. -1.
        -11    1    4    4    0    0 -0.57824403769E+01  0.30360084627E+01 -0.69324257262E+01  0.95243105162E+01  0.51100000000E-03 0.  1.
        -12    1    4    4    0    0 -0.13333371874E+02 -0.80547381205E+01 -0.17354256472E+02  0.23320116411E+02  0.00000000000E+00 0.  1.
</event>
<event>
 8    1  0.6019723E-011  0.9118800E+02  0.7816164E-02  0.1184000E+00
        -11   -1    0    0    0    0  0.00000000000E+00  0.00000000000E+00  0.45593999997E+02  0.45594000000E+02  0.51100000000E-03 0. -1.
         11   -1    0    0    0    0 -0.00000000000E+00 -0.00000000000E+00 -0.45593999997E+02  0.45594000000E+02  0.51100000000E-03 0.  1.
         23    2    1    2    0    0  0.88817841970E-15  0.88817841970E-15  0.00000000000E+00  0.91188000000E+02  0.91188000000E+02 0.  0.
    9900012    2    3    3    0    0  0.73790904276E+01  0.38447770538E+01  0.42595657768E+02  0.47787270204E+02  0.19999996169E+02 0.  0.
        -12    1    3    3    0    0 -0.73790904276E+01 -0.38447770538E+01 -0.42595657768E+02  0.43400729796E+02  0.00000000000E+00 0.  1.
         11    1    4    4    0    0  0.33147977284E+01  0.82570290670E+01  0.67024385551E+01  0.11139528529E+02  0.51100000000E-03 0. -1.
        -11    1    4    4    0    0  0.62565652634E+00 -0.28466732191E+01  0.23806380546E+02  0.23984135371E+02  0.51100000000E-03 0.  1.
         12    1    4    4    0    0  0.34386361729E+01 -0.15655787941E+01  0.12086838667E+02  0.12663606305E+02  0.00000000000E+00 0. -1.
</event>
<event>
 8    1  0.6019723E-011  0.9118800E+02  0.7816164E-02  0.1184000E+00
        -11   -1    0    0    0    0  0.00000000000E+00  0.00000000000E+00  0.45593999997E+02  0.45594000000E+02  0.51100000000E-03 0. -1.
         11   -1    0    0    0    0 -0.00000000000E+00 -0.00000000000E+00 -0.45593999997E+02  0.45594000000E+02  0.51100000000E-03 0.  1.
         23    2    1    2    0    0 -0.17763568394E-14  0.71054273576E-14  0.17763568394E-14  0.91188000000E+02  0.91188000000E+02 0.  0.
    9900012    2    3    3    0    0  0.14881314188E+02  0.37531046067E+02  0.15924522675E+02  0.47787270130E+02  0.19999995830E+02 0.  0.
        -12    1    3    3    0    0 -0.14881314188E+02 -0.37531046067E+02 -0.15924522675E+02  0.43400729870E+02  0.00000000000E+00 0.  1.
         11    1    4    4    0    0 -0.31517795758E+01  0.27500206333E+01  0.45374372827E+01  0.61712774474E+01  0.51100000000E-03 0. -1.
        -11    1    4    4    0    0  0.21642027805E+01  0.30020144288E+01 -0.12622284736E+01  0.39101259937E+01  0.51100000000E-03 0.  1.
         12    1    4    4    0    0  0.15868890983E+02  0.31779011005E+02  0.12649313866E+02  0.37705866689E+02  0.00000000000E+00 0. -1.
</event>
<event>
 8    1  0.6019723E-011  0.9118800E+02  0.7816164E-02  0.1184000E+00
        -11   -1    0    0    0    0  0.00000000000E+00  0.00000000000E+00  0.45593999997E+02  0.45594000000E+02  0.51100000000E-03 0. -1.
         11   -1    0    0    0    0 -0.00000000000E+00 -0.00000000000E+00 -0.45593999997E+02  0.45594000000E+02  0.51100000000E-03 0.  1.
         23    2    1    2    0    0  0.71054273576E-14  0.00000000000E+00  0.35527136788E-14  0.91188000000E+02  0.91188000000E+02 0.  0.
    9900012    2    3    3    0    0 -0.38718961110E+02 -0.87176324921E+01  0.17563259107E+02  0.47787272631E+02  0.20000007235E+02 0.  0.
        -12    1    3    3    0    0  0.38718961110E+02  0.87176324921E+01 -0.17563259107E+02  0.43400727369E+02  0.00000000000E+00 0.  1.
         11    1    4    4    0    0 -0.17020328361E+02 -0.94068750304E+00  0.90437489798E+01  0.19296783835E+02  0.51100000000E-03 0.  1.
        -11    1    4    4    0    0 -0.11295898130E+02 -0.33531437931E+01  0.11844570371E+02  0.16707325800E+02  0.51100000000E-03 0. -1.
        -12    1    4    4    0    0 -0.10402734619E+02 -0.44238011959E+01 -0.33250602441E+01  0.11783162996E+02  0.00000000000E+00 0.  1.
</event>
<event>
 8    1  0.6019723E-011  0.9118800E+02  0.7816164E-02  0.1184000E+00
        -11   -1    0    0    0    0  0.00000000000E+00  0.00000000000E+00  0.45593999997E+02  0.45594000000E+02  0.51100000000E-03 0. -1.
         11   -1    0    0    0    0 -0.00000000000E+00 -0.00000000000E+00 -0.45593999997E+02  0.45594000000E+02  0.51100000000E-03 0.  1.
         23    2    1    2    0    0  0.00000000000E+00  0.00000000000E+00  0.00000000000E+00  0.91188000000E+02  0.91188000000E+02 0.  0.
    9900012    2    3    3    0    0  0.36477138090E+02  0.11869839853E+02  0.20301444326E+02  0.47787270247E+02  0.19999996363E+02 0.  0.
        -12    1    3    3    0    0 -0.36477138090E+02 -0.11869839853E+02 -0.20301444326E+02  0.43400729753E+02  0.00000000000E+00 0.  1.
         11    1    4    4    0    0  0.10217172218E+02  0.13142665379E+02  0.10629636300E+02  0.19751188054E+02  0.51100000000E-03 0. -1.
        -11    1    4    4    0    0  0.18760647956E+02 -0.57212064420E+00  0.64920769028E+01  0.19860420352E+02  0.51100000000E-03 0.  1.
         12    1    4    4    0    0  0.74993179154E+01 -0.70070488164E+00  0.31797311233E+01  0.81756618414E+01  0.00000000000E+00 0. -1.
</event>
<event>
 8    1  0.6019723E-011  0.9118800E+02  0.7816164E-02  0.1184000E+00
        -11   -1    0    0    0    0  0.00000000000E+00  0.00000000000E+00  0.45593999997E+02  0.45594000000E+02  0.51100000000E-03 0. -1.
         11   -1    0    0    0    0 -0.00000000000E+00 -0.00000000000E+00 -0.45593999997E+02  0.45594000000E+02  0.51100000000E-03 0.  1.
         23    2    1    2    0    0  0.71054273576E-14  0.00000000000E+00  0.00000000000E+00  0.91188000000E+02  0.91188000000E+02 0.  0.
    9900012    2    3    3    0    0 -0.32943720873E+02 -0.83256618535E+01 -0.27000336451E+02  0.47787267763E+02  0.19999985039E+02 0.  0.
         12    1    3    3    0    0  0.32943720873E+02  0.83256618535E+01  0.27000336451E+02  0.43400732237E+02  0.00000000000E+00 0. -1.
         11    1    4    4    0    0 -0.93597359519E+01 -0.90373683331E+01 -0.14267778967E+02  0.19309277573E+02  0.51100000000E-03 0. -1.
        -11    1    4    4    0    0 -0.50067118794E+01 -0.32164278037E+01 -0.56684234662E+01  0.82184911336E+01  0.51100000000E-03 0.  1.
         12    1    4    4    0    0 -0.18577273041E+02  0.39281342833E+01 -0.70641340173E+01  0.20259499056E+02  0.00000000000E+00 0. -1.
</event>
<event>
 8    1  0.6019723E-011  0.9118800E+02  0.7816164E-02  0.1184000E+00
        -11   -1    0    0    0    0  0.00000000000E+00  0.00000000000E+00  0.45593999997E+02  0.45594000000E+02  0.51100000000E-03 0. -1.
         11   -1    0    0    0    0 -0.00000000000E+00 -0.00000000000E+00 -0.45593999997E+02  0.45594000000E+02  0.51100000000E-03 0.  1.
         23    2    1    2    0    0  0.00000000000E+00 -0.10963452368E-14  0.00000000000E+00  0.91188000000E+02  0.91188000000E+02 0.  0.
    9900012    2    3    3    0    0  0.15367035145E+02  0.75832606947E-01  0.40589078189E+02  0.47787253601E+02  0.19999920469E+02 0.  0.
        -12    1    3    3    0    0 -0.15367035145E+02 -0.75832606947E-01 -0.40589078189E+02  0.43400746399E+02  0.00000000000E+00 0.  1.
         11    1    4    4    0    0  0.14366428902E+02  0.47595686303E+01  0.27627887962E+02  0.31501554984E+02  0.51100000000E-03 0. -1.
        -11    1    4    4    0    0 -0.31303684080E+01 -0.85408622031E+00  0.16291644164E+01  0.36308189983E+01  0.51100000000E-03 0.  1.
         12    1    4    4    0    0  0.41309746518E+01 -0.38296498030E+01  0.11332025810E+02  0.12654879618E+02  0.00000000000E+00 0. -1.
</event>
<event>
 8    1  0.6019723E-011  0.9118800E+02  0.7816164E-02  0.1184000E+00
        -11   -1    0    0    0    0  0.00000000000E+00  0.00000000000E+00  0.45593999997E+02  0.45594000000E+02  0.51100000000E-03 0. -1.
         11   -1    0    0    0    0 -0.00000000000E+00 -0.00000000000E+00 -0.45593999997E+02  0.45594000000E+02  0.51100000000E-03 0.  1.
         23    2    1    2    0    0 -0.35527136788E-14  0.35527136788E-14  0.35527136788E-14  0.91188000000E+02  0.91188000000E+02 0.  0.
    9900012    2    3    3    0    0  0.19503215578E+02 -0.30685331486E+02 -0.23699330405E+02  0.47787271343E+02  0.20000001361E+02 0.  0.
         12    1    3    3    0    0 -0.19503215578E+02  0.30685331486E+02  0.23699330405E+02  0.43400728657E+02  0.00000000000E+00 0. -1.
         11    1    4    4    0    0  0.10450685758E+02 -0.77684847903E+01 -0.17233514134E+02  0.21600004593E+02  0.51100000000E-03 0. -1.
        -11    1    4    4    0    0  0.21037026918E+01 -0.12094324317E+02 -0.49523378298E+01  0.13237216322E+02  0.51100000000E-03 0.  1.
         12    1    4    4    0    0  0.69488271283E+01 -0.10822522378E+02 -0.15134784410E+01  0.12950050428E+02  0.00000000000E+00 0. -1.
</event>
<event>
 8    1  0.6019723E-011  0.9118800E+02  0.7816164E-02  0.1184000E+00
        -11   -1    0    0    0    0  0.00000000000E+00  0.00000000000E+00  0.45593999997E+02  0.45594000000E+02  0.51100000000E-03 0. -1.
         11   -1    0    0    0    0 -0.00000000000E+00 -0.00000000000E+00 -0.45593999997E+02  0.45594000000E+02  0.51100000000E-03 0.  1.
         23    2    1    2    0    0 -0.17763568394E-14  0.00000000000E+00  0.00000000000E+00  0.91188000000E+02  0.91188000000E+02 0.  0.
    9900012    2    3    3    0    0 -0.13195296739E+02 -0.18178939641E+02  0.37135342941E+02  0.47787269616E+02  0.19999993489E+02 0.  0.
        -12    1    3    3    0    0  0.13195296739E+02  0.18178939641E+02 -0.37135342941E+02  0.43400730384E+02  0.00000000000E+00 0.  1.
         11    1    4    4    0    0 -0.42248326007E+01 -0.30769629336E+00  0.14913192172E+02  0.15503134797E+02  0.51100000000E-03 0. -1.
        -11    1    4    4    0    0 -0.80714533993E+01 -0.11976241150E+02  0.72327441012E+01  0.16152129877E+02  0.51100000000E-03 0.  1.
         12    1    4    4    0    0 -0.89901073906E+00 -0.58950021969E+01  0.14989406668E+02  0.16132004943E+02  0.00000000000E+00 0. -1.
</event>
<event>
 8    1  0.6019723E-011  0.9118800E+02  0.7816164E-02  0.1184000E+00
        -11   -1    0    0    0    0  0.00000000000E+00  0.00000000000E+00  0.45593999997E+02  0.45594000000E+02  0.51100000000E-03 0.  1.
         11   -1    0    0    0    0 -0.00000000000E+00 -0.00000000000E+00 -0.45593999997E+02  0.45594000000E+02  0.51100000000E-03 0. -1.
         23    2    1    2    0    0  0.00000000000E+00  0.00000000000E+00  0.00000000000E+00  0.91188000000E+02  0.91188000000E+02 0.  0.
    9900012    2    3    3    0    0  0.23606961757E+02 -0.16876299120E+02 -0.32272670287E+02  0.47787270020E+02  0.19999995329E+02 0.  0.
         12    1    3    3    0    0 -0.23606961757E+02  0.16876299120E+02  0.32272670287E+02  0.43400729980E+02  0.00000000000E+00 0. -1.
         11    1    4    4    0    0  0.85312894267E+01 -0.11426013409E+02 -0.17982019940E+02  0.22949721634E+02  0.51100000000E-03 0. -1.
        -11    1    4    4    0    0  0.17304027782E+02 -0.44220038321E+01 -0.12606489708E+02  0.21861085938E+02  0.51100000000E-03 0.  1.
        -12    1    4    4    0    0 -0.22283554522E+01 -0.10282818788E+01 -0.16841606385E+01  0.29764624473E+01  0.00000000000E+00 0.  1.
</event>
<event>
 8    1  0.6019723E-011  0.9118800E+02  0.7816164E-02  0.1184000E+00
        -11   -1    0    0    0    0  0.00000000000E+00  0.00000000000E+00  0.45593999997E+02  0.45594000000E+02  0.51100000000E-03 0. -1.
         11   -1    0    0    0    0 -0.00000000000E+00 -0.00000000000E+00 -0.45593999997E+02  0.45594000000E+02  0.51100000000E-03 0.  1.
         23    2    1    2    0    0 -0.88817841970E-15  0.00000000000E+00  0.00000000000E+00  0.91188000000E+02  0.91188000000E+02 0.  0.
    9900012    2    3    3    0    0  0.59649110250E+01  0.22479629067E+02  0.36642996942E+02  0.47787272916E+02  0.20000008534E+02 0.  0.
        -12    1    3    3    0    0 -0.59649110250E+01 -0.22479629067E+02 -0.36642996942E+02  0.43400727084E+02  0.00000000000E+00 0.  1.
         11    1    4    4    0    0  0.12491058439E+02  0.13961734612E+02  0.22366851428E+02  0.29175891030E+02  0.51100000000E-03 0. -1.
        -11    1    4    4    0    0 -0.34828325833E+01  0.80461175125E+00  0.33854207292E+01  0.49232709298E+01  0.51100000000E-03 0.  1.
         12    1    4    4    0    0 -0.30433148312E+01  0.77132827034E+01  0.10890724784E+02  0.13688110956E+02  0.00000000000E+00 0. -1.
</event>
<event>
 8    1  0.6019723E-011  0.9118800E+02  0.7816164E-02  0.1184000E+00
        -11   -1    0    0    0    0  0.00000000000E+00  0.00000000000E+00  0.45593999997E+02  0.45594000000E+02  0.51100000000E-03 0. -1.
         11   -1    0    0    0    0 -0.00000000000E+00 -0.00000000000E+00 -0.45593999997E+02  0.45594000000E+02  0.51100000000E-03 0.  1.
         23    2    1    2    0    0  0.22204460493E-15  0.00000000000E+00  0.00000000000E+00  0.91188000000E+02  0.91188000000E+02 0.  0.
    9900012    2    3    3    0    0 -0.13438797200E+01 -0.24611924087E+02 -0.35722137947E+02  0.47787263146E+02  0.19999963986E+02 0.  0.
         12    1    3    3    0    0  0.13438797200E+01  0.24611924087E+02  0.35722137947E+02  0.43400736854E+02  0.00000000000E+00 0. -1.
         11    1    4    4    0    0  0.16650141415E-01 -0.68585798074E+01 -0.32397551832E+01  0.75852757438E+01  0.51100000000E-03 0. -1.
        -11    1    4    4    0    0  0.45931055191E+01 -0.15435038430E+02 -0.16818312080E+02  0.23285030623E+02  0.51100000000E-03 0.  1.
        -12    1    4    4    0    0 -0.59536353805E+01 -0.23183058504E+01 -0.15664070684E+02  0.16916956779E+02  0.00000000000E+00 0.  1.
</event>
<event>
 8    1  0.6019723E-011  0.9118800E+02  0.7816164E-02  0.1184000E+00
        -11   -1    0    0    0    0  0.00000000000E+00  0.00000000000E+00  0.45593999997E+02  0.45594000000E+02  0.51100000000E-03 0. -1.
         11   -1    0    0    0    0 -0.00000000000E+00 -0.00000000000E+00 -0.45593999997E+02  0.45594000000E+02  0.51100000000E-03 0.  1.
         23    2    1    2    0    0 -0.88817841970E-15  0.00000000000E+00  0.00000000000E+00  0.91188000000E+02  0.91188000000E+02 0.  0.
    9900012    2    3    3    0    0 -0.38820273226E+01  0.23057077296E+02 -0.36563970140E+02  0.47787275790E+02  0.20000021635E+02 0.  0.
         12    1    3    3    0    0  0.38820273226E+01 -0.23057077296E+02  0.36563970140E+02  0.43400724210E+02  0.00000000000E+00 0. -1.
         11    1    4    4    0    0  0.50190945816E+01 -0.30080617465E-01 -0.10130196877E+02  0.11305445781E+02  0.51100000000E-03 0. -1.
        -11    1    4    4    0    0 -0.26824438869E+01  0.11001977729E+02 -0.95970956080E+01  0.14843963875E+02  0.51100000000E-03 0.  1.
         12    1    4    4    0    0 -0.62186780173E+01  0.12085180184E+02 -0.16836677655E+02  0.21637866134E+02  0.00000000000E+00 0. -1.
</event>
<event>
 8    1  0.6999567E-011  0.9118800E+02  0.7816164E-02  0.1184000E+00
        -11   -1    0    0    0    0  0.00000000000E+00  0.00000000000E+00  0.45593999997E+02  0.45594000000E+02  0.51100000000E-03 0. -1.
         11   -1    0    0    0    0 -0.00000000000E+00 -0.00000000000E+00 -0.45593999997E+02  0.45594000000E+02  0.51100000000E-03 0.  1.
         23    2    1    2    0    0  0.00000000000E+00  0.17763568394E-14  0.00000000000E+00  0.91188000000E+02  0.91188000000E+02 0.  0.
    9900012    2    3    3    0    0 -0.21150234620E+02 -0.95038487504E+01 -0.36687448237E+02  0.47787257798E+02  0.19999939605E+02 0.  0.
         12    1    3    3    0    0  0.21150234620E+02  0.95038487504E+01  0.36687448237E+02  0.43400742202E+02  0.00000000000E+00 0. -1.
         11    1    4    4    0    0  0.12322810779E+01  0.37972154568E+01 -0.54403466501E+01  0.67479429321E+01  0.51100000000E-03 0. -1.
        -11    1    4    4    0    0 -0.10627076380E+02 -0.86186863628E+01 -0.13313498325E+02  0.19090985959E+02  0.51100000000E-03 0.  1.
         12    1    4    4    0    0 -0.11755439318E+02 -0.46823778444E+01 -0.17933603262E+02  0.21948328907E+02  0.00000000000E+00 0. -1.
</event>
<event>
 8    1  0.6019723E-011  0.9118800E+02  0.7816164E-02  0.1184000E+00
        -11   -1    0    0    0    0  0.00000000000E+00  0.00000000000E+00  0.45593999997E+02  0.45594000000E+02  0.51100000000E-03 0. -1.
         11   -1    0    0    0    0 -0.00000000000E+00 -0.00000000000E+00 -0.45593999997E+02  0.45594000000E+02  0.51100000000E-03 0.  1.
         23    2    1    2    0    0  0.00000000000E+00 -0.35527136788E-14  0.00000000000E+00  0.91188000000E+02  0.91188000000E+02 0.  0.
    9900012    2    3    3    0    0 -0.24180691756E+02 -0.16180799542E+02  0.32204012267E+02  0.47787279572E+02  0.20000038880E+02 0.  0.
        -12    1    3    3    0    0  0.24180691756E+02  0.16180799542E+02 -0.32204012267E+02  0.43400720428E+02  0.00000000000E+00 0.  1.
         11    1    4    4    0    0 -0.68534705758E+01  0.22896182190E+01  0.35753210152E+01  0.80619681930E+01  0.51100000000E-03 0. -1.
        -11    1    4    4    0    0 -0.44941142665E+01 -0.11673940121E+01  0.11041804911E+01  0.47727441413E+01  0.51100000000E-03 0.  1.
         12    1    4    4    0    0 -0.12833106914E+02 -0.17303023749E+02  0.27524510760E+02  0.34952567238E+02  0.00000000000E+00 0. -1.
</event>
<event>
 8    1  0.6019723E-011  0.9118800E+02  0.7816164E-02  0.1184000E+00
        -11   -1    0    0    0    0  0.00000000000E+00  0.00000000000E+00  0.45593999997E+02  0.45594000000E+02  0.51100000000E-03 0. -1.
         11   -1    0    0    0    0 -0.00000000000E+00 -0.00000000000E+00 -0.45593999997E+02  0.45594000000E+02  0.51100000000E-03 0.  1.
         23    2    1    2    0    0 -0.35527136788E-14  0.00000000000E+00  0.00000000000E+00  0.91188000000E+02  0.91188000000E+02 0.  0.
    9900012    2    3    3    0    0 -0.17883366419E+02 -0.31917478580E+02  0.23347015541E+02  0.47787269960E+02  0.19999995055E+02 0.  0.
        -12    1    3    3    0    0  0.17883366419E+02  0.31917478580E+02 -0.23347015541E+02  0.43400730040E+02  0.00000000000E+00 0.  1.
         11    1    4    4    0    0 -0.76350459938E+01 -0.26731359894E+02  0.92244511516E+01  0.29290784019E+02  0.51100000000E-03 0. -1.
        -11    1    4    4    0    0 -0.62205168048E+01 -0.46857429282E+01  0.81248983739E+01  0.11254554187E+02  0.51100000000E-03 0.  1.
         12    1    4    4    0    0 -0.40278036202E+01 -0.50037575743E+00  0.59976660151E+01  0.72419317541E+01  0.00000000000E+00 0. -1.
</event>
<event>
 8    1  0.6019723E-011  0.9118800E+02  0.7816164E-02  0.1184000E+00
        -11   -1    0    0    0    0  0.00000000000E+00  0.00000000000E+00  0.45593999997E+02  0.45594000000E+02  0.51100000000E-03 0. -1.
         11   -1    0    0    0    0 -0.00000000000E+00 -0.00000000000E+00 -0.45593999997E+02  0.45594000000E+02  0.51100000000E-03 0.  1.
         23    2    1    2    0    0  0.35527136788E-14  0.00000000000E+00  0.00000000000E+00  0.91188000000E+02  0.91188000000E+02 0.  0.
    9900012    2    3    3    0    0  0.20462966065E+02 -0.16224017259E+02  0.34665137227E+02  0.47787268956E+02  0.19999990478E+02 0.  0.
        -12    1    3    3    0    0 -0.20462966065E+02  0.16224017259E+02 -0.34665137227E+02  0.43400731044E+02  0.00000000000E+00 0.  1.
         11    1    4    4    0    0  0.13347572830E+02 -0.24935075426E+01  0.10148173511E+02  0.16951716910E+02  0.51100000000E-03 0. -1.
        -11    1    4    4    0    0  0.26039363216E+01 -0.12071705851E+02  0.22409800430E+02  0.25587217943E+02  0.51100000000E-03 0.  1.
        -12    1    4    4    0    0  0.45114569127E+01 -0.16588038652E+01  0.21071632872E+01  0.52483341031E+01  0.00000000000E+00 0.  1.
</event>
<event>
 8    1  0.6019723E-011  0.9118800E+02  0.7816164E-02  0.1184000E+00
        -11   -1    0    0    0    0  0.00000000000E+00  0.00000000000E+00  0.45593999997E+02  0.45594000000E+02  0.51100000000E-03 0. -1.
         11   -1    0    0    0    0 -0.00000000000E+00 -0.00000000000E+00 -0.45593999997E+02  0.45594000000E+02  0.51100000000E-03 0.  1.
         23    2    1    2    0    0  0.00000000000E+00  0.00000000000E+00  0.71054273576E-14  0.91188000000E+02  0.91188000000E+02 0.  0.
    9900012    2    3    3    0    0 -0.26064022643E+01 -0.19006083164E+02  0.38930688969E+02  0.47787273352E+02  0.20000010520E+02 0.  0.
        -12    1    3    3    0    0  0.26064022643E+01  0.19006083164E+02 -0.38930688969E+02  0.43400726648E+02  0.00000000000E+00 0.  1.
         11    1    4    4    0    0  0.59813010284E+01 -0.78789196108E+01  0.20894689365E+02  0.23117988238E+02  0.51100000000E-03 0. -1.
        -11    1    4    4    0    0 -0.92168281743E+01 -0.10110244397E+02  0.11062255855E+02  0.17593762196E+02  0.51100000000E-03 0.  1.
        -12    1    4    4    0    0  0.62912488158E+00 -0.10169191567E+01  0.69737437485E+01  0.70755229176E+01  0.00000000000E+00 0.  1.
</event>
<event>
 8    1  0.6019723E-011  0.9118800E+02  0.7816164E-02  0.1184000E+00
        -11   -1    0    0    0    0  0.00000000000E+00  0.00000000000E+00  0.45593999997E+02  0.45594000000E+02  0.51100000000E-03 0. -1.
         11   -1    0    0    0    0 -0.00000000000E+00 -0.00000000000E+00 -0.45593999997E+02  0.45594000000E+02  0.51100000000E-03 0.  1.
         23    2    1    2    0    0 -0.35527136788E-14 -0.35527136788E-14  0.00000000000E+00  0.91188000000E+02  0.91188000000E+02 0.  0.
    9900012    2    3    3    0    0 -0.17821268040E+02 -0.28299705438E+02 -0.27661390905E+02  0.47787268794E+02  0.19999989740E+02 0.  0.
         12    1    3    3    0    0  0.17821268040E+02  0.28299705438E+02  0.27661390905E+02  0.43400731206E+02  0.00000000000E+00 0. -1.
         11    1    4    4    0    0 -0.31869162117E+01 -0.50824241675E+01 -0.37867628113E+01  0.70941555670E+01  0.51100000000E-03 0. -1.
        -11    1    4    4    0    0 -0.56392829765E+01 -0.23115549689E+02 -0.19084428117E+02  0.30501566300E+02  0.51100000000E-03 0.  1.
        -12    1    4    4    0    0 -0.89950688513E+01 -0.10173158099E+00 -0.47901999770E+01  0.10191546927E+02  0.00000000000E+00 0.  1.
</event>
<event>
 8    1  0.6019723E-011  0.9118800E+02  0.7816164E-02  0.1184000E+00
        -11   -1    0    0    0    0  0.00000000000E+00  0.00000000000E+00  0.45593999997E+02  0.45594000000E+02  0.51100000000E-03 0. -1.
         11   -1    0    0    0    0 -0.00000000000E+00 -0.00000000000E+00 -0.45593999997E+02  0.45594000000E+02  0.51100000000E-03 0.  1.
         23    2    1    2    0    0  0.00000000000E+00 -0.35527136788E-14  0.00000000000E+00  0.91188000000E+02  0.91188000000E+02 0.  0.
    9900012    2    3    3    0    0 -0.22263224767E+02  0.18891596280E+02  0.32110424699E+02  0.47787274645E+02  0.20000016414E+02 0.  0.
        -12    1    3    3    0    0  0.22263224767E+02 -0.18891596280E+02 -0.32110424699E+02  0.43400725355E+02  0.00000000000E+00 0.  1.
         11    1    4    4    0    0 -0.25895761671E+01  0.12243599662E+02  0.19085084649E+02  0.22822184246E+02  0.51100000000E-03 0. -1.
        -11    1    4    4    0    0 -0.12271707814E+02  0.51175260944E+01  0.57908078278E+01  0.14502321937E+02  0.51100000000E-03 0.  1.
        -12    1    4    4    0    0 -0.74019407861E+01  0.15304705232E+01  0.72345322223E+01  0.10462768462E+02  0.00000000000E+00 0.  1.
</event>
<event>
 8    1  0.6019723E-011  0.9118800E+02  0.7816164E-02  0.1184000E+00
        -11   -1    0    0    0    0  0.00000000000E+00  0.00000000000E+00  0.45593999997E+02  0.45594000000E+02  0.51100000000E-03 0. -1.
         11   -1    0    0    0    0 -0.00000000000E+00 -0.00000000000E+00 -0.45593999997E+02  0.45594000000E+02  0.51100000000E-03 0.  1.
         23    2    1    2    0    0  0.00000000000E+00  0.35527136788E-14 -0.71054273576E-14  0.91188000000E+02  0.91188000000E+02 0.  0.
    9900012    2    3    3    0    0 -0.14495639951E+02  0.20043982006E+02 -0.35661446419E+02  0.47787267829E+02  0.19999985341E+02 0.  0.
         12    1    3    3    0    0  0.14495639951E+02 -0.20043982006E+02  0.35661446419E+02  0.43400732171E+02  0.00000000000E+00 0. -1.
         11    1    4    4    0    0 -0.42621250018E+01 -0.28422178076E+01 -0.23902298818E+01  0.56530620681E+01  0.51100000000E-03 0. -1.
        -11    1    4    4    0    0 -0.10132328110E+02  0.17778201484E+02 -0.28896480996E+02  0.35408122446E+02  0.51100000000E-03 0.  1.
        -12    1    4    4    0    0 -0.10118683948E+00  0.51079983294E+01 -0.43747355413E+01  0.67260833154E+01  0.00000000000E+00 0.  1.
</event>
<event>
 8    1  0.6019723E-011  0.9118800E+02  0.7816164E-02  0.1184000E+00
        -11   -1    0    0    0    0  0.00000000000E+00  0.00000000000E+00  0.45593999997E+02  0.45594000000E+02  0.51100000000E-03 0. -1.
         11   -1    0    0    0    0 -0.00000000000E+00 -0.00000000000E+00 -0.45593999997E+02  0.45594000000E+02  0.51100000000E-03 0.  1.
         23    2    1    2    0    0  0.00000000000E+00  0.00000000000E+00  0.00000000000E+00  0.91188000000E+02  0.91188000000E+02 0.  0.
    9900012    2    3    3    0    0 -0.18843263685E+02  0.91993963890E+01 -0.37999035231E+02  0.47787260851E+02  0.19999953523E+02 0.  0.
         12    1    3    3    0    0  0.18843263685E+02 -0.91993963890E+01  0.37999035231E+02  0.43400739149E+02  0.00000000000E+00 0. -1.
         11    1    4    4    0    0 -0.14000873566E+01 -0.24088298052E+01 -0.50158919438E+01  0.57377589606E+01  0.51100000000E-03 0. -1.
        -11    1    4    4    0    0 -0.20747319804E+01  0.37763008221E+01  0.54647425612E+00  0.43432240402E+01  0.51100000000E-03 0.  1.
        -12    1    4    4    0    0 -0.15368444348E+02  0.78319253721E+01 -0.33529617543E+02  0.37706277850E+02  0.00000000000E+00 0.  1.
</event>
<event>
 8    1  0.6019723E-011  0.9118800E+02  0.7816164E-02  0.1184000E+00
        -11   -1    0    0    0    0  0.00000000000E+00  0.00000000000E+00  0.45593999997E+02  0.45594000000E+02  0.51100000000E-03 0. -1.
         11   -1    0    0    0    0 -0.00000000000E+00 -0.00000000000E+00 -0.45593999997E+02  0.45594000000E+02  0.51100000000E-03 0.  1.
         23    2    1    2    0    0  0.17763568394E-14  0.88817841970E-15 -0.71054273576E-14  0.91188000000E+02  0.91188000000E+02 0.  0.
    9900012    2    3    3    0    0 -0.11086990726E+02 -0.76926230229E+01  0.41249563907E+02  0.47787258822E+02  0.19999944272E+02 0.  0.
        -12    1    3    3    0    0  0.11086990726E+02  0.76926230229E+01 -0.41249563907E+02  0.43400741178E+02  0.00000000000E+00 0.  1.
         11    1    4    4    0    0 -0.41922150671E+01 -0.25106473114E+01  0.10369256813E+02  0.11462962279E+02  0.51100000000E-03 0. -1.
        -11    1    4    4    0    0  0.68419283652E+00 -0.10068821314E+02  0.17083823294E+02  0.19842033693E+02  0.51100000000E-03 0.  1.
        -12    1    4    4    0    0 -0.75789684951E+01  0.48868456028E+01  0.13796483800E+02  0.16482262850E+02  0.00000000000E+00 0.  1.
</event>
<event>
 8    1  0.6019723E-011  0.9118800E+02  0.7816164E-02  0.1184000E+00
        -11   -1    0    0    0    0  0.00000000000E+00  0.00000000000E+00  0.45593999997E+02  0.45594000000E+02  0.51100000000E-03 0. -1.
         11   -1    0    0    0    0 -0.00000000000E+00 -0.00000000000E+00 -0.45593999997E+02  0.45594000000E+02  0.51100000000E-03 0.  1.
         23    2    1    2    0    0  0.00000000000E+00  0.00000000000E+00 -0.35527136788E-14  0.91188000000E+02  0.91188000000E+02 0.  0.
    9900012    2    3    3    0    0  0.37219051958E+02  0.67490189242E+01  0.21279485681E+02  0.47787267334E+02  0.19999983084E+02 0.  0.
        -12    1    3    3    0    0 -0.37219051958E+02 -0.67490189242E+01 -0.21279485681E+02  0.43400732666E+02  0.00000000000E+00 0.  1.
         11    1    4    4    0    0  0.17963206850E+02  0.37120453272E+01  0.16613703633E+02  0.24748156083E+02  0.51100000000E-03 0. -1.
        -11    1    4    4    0    0  0.46523271675E+01 -0.19648306780E+00 -0.36582797446E+01  0.59216352995E+01  0.51100000000E-03 0.  1.
        -12    1    4    4    0    0  0.14603517940E+02  0.32334566648E+01  0.83240617927E+01  0.17117475952E+02  0.00000000000E+00 0.  1.
</event>
<event>
 8    1  0.6019723E-011  0.9118800E+02  0.7816164E-02  0.1184000E+00
        -11   -1    0    0    0    0  0.00000000000E+00  0.00000000000E+00  0.45593999997E+02  0.45594000000E+02  0.51100000000E-03 0.  1.
         11   -1    0    0    0    0 -0.00000000000E+00 -0.00000000000E+00 -0.45593999997E+02  0.45594000000E+02  0.51100000000E-03 0. -1.
         23    2    1    2    0    0 -0.88817841970E-15  0.00000000000E+00  0.00000000000E+00  0.91188000000E+02  0.91188000000E+02 0.  0.
    9900012    2    3    3    0    0  0.59914725626E+01  0.23366862681E+02 -0.36079290491E+02  0.47787271696E+02  0.20000002968E+02 0.  0.
         12    1    3    3    0    0 -0.59914725626E+01 -0.23366862681E+02  0.36079290491E+02  0.43400728304E+02  0.00000000000E+00 0. -1.
         11    1    4    4    0    0  0.27482463082E+01  0.55328839937E+00 -0.12598070969E+01  0.30734508303E+01  0.51100000000E-03 0. -1.
        -11    1    4    4    0    0 -0.32527970161E+01  0.17686892095E+01 -0.23280476662E+00  0.37098717321E+01  0.51100000000E-03 0.  1.
        -12    1    4    4    0    0  0.64960232704E+01  0.21044885072E+02 -0.34586678627E+02  0.41003949133E+02  0.00000000000E+00 0.  1.
</event>
<event>
 8    1  0.6019723E-011  0.9118800E+02  0.7816164E-02  0.1184000E+00
        -11   -1    0    0    0    0  0.00000000000E+00  0.00000000000E+00  0.45593999997E+02  0.45594000000E+02  0.51100000000E-03 0. -1.
         11   -1    0    0    0    0 -0.00000000000E+00 -0.00000000000E+00 -0.45593999997E+02  0.45594000000E+02  0.51100000000E-03 0.  1.
         23    2    1    2    0    0  0.00000000000E+00  0.00000000000E+00  0.00000000000E+00  0.91188000000E+02  0.91188000000E+02 0.  0.
    9900012    2    3    3    0    0 -0.29080882619E+02 -0.15216653566E+02  0.28396812579E+02  0.47787271385E+02  0.20000001553E+02 0.  0.
        -12    1    3    3    0    0  0.29080882619E+02  0.15216653566E+02 -0.28396812579E+02  0.43400728615E+02  0.00000000000E+00 0.  1.
         11    1    4    4    0    0 -0.26732680954E+02 -0.80178073433E+01  0.19832231041E+02  0.34237973859E+02  0.51100000000E-03 0. -1.
        -11    1    4    4    0    0  0.67073769451E+00  0.12847142781E+01  0.77817031026E+00  0.16449708581E+01  0.51100000000E-03 0.  1.
         12    1    4    4    0    0 -0.30189393593E+01 -0.84835605009E+01  0.77864112273E+01  0.11904326668E+02  0.00000000000E+00 0. -1.
</event>
<event>
 8    1  0.6019723E-011  0.9118800E+02  0.7816164E-02  0.1184000E+00
        -11   -1    0    0    0    0  0.00000000000E+00  0.00000000000E+00  0.45593999997E+02  0.45594000000E+02  0.51100000000E-03 0. -1.
         11   -1    0    0    0    0 -0.00000000000E+00 -0.00000000000E+00 -0.45593999997E+02  0.45594000000E+02  0.51100000000E-03 0.  1.
         23    2    1    2    0    0  0.35527136788E-14  0.00000000000E+00  0.00000000000E+00  0.91188000000E+02  0.91188000000E+02 0.  0.
    9900012    2    3    3    0    0 -0.18396905921E+02 -0.39140320214E+01 -0.39113394625E+02  0.47787269208E+02  0.19999991629E+02 0.  0.
         12    1    3    3    0    0  0.18396905921E+02  0.39140320214E+01  0.39113394625E+02  0.43400730792E+02  0.00000000000E+00 0. -1.
         11    1    4    4    0    0 -0.73550202617E+01 -0.40021623086E+01 -0.47985515245E+01  0.96508923519E+01  0.51100000000E-03 0. -1.
        -11    1    4    4    0    0  0.15010128988E+01  0.26756771812E+01 -0.12209502874E+02  0.12589052736E+02  0.51100000000E-03 0.  1.
        -12    1    4    4    0    0 -0.12542898558E+02 -0.25875468941E+01 -0.22105340227E+02  0.25547324120E+02  0.00000000000E+00 0.  1.
</event>
<event>
 8    1  0.6019723E-011  0.9118800E+02  0.7816164E-02  0.1184000E+00
        -11   -1    0    0    0    0  0.00000000000E+00  0.00000000000E+00  0.45593999997E+02  0.45594000000E+02  0.51100000000E-03 0. -1.
         11   -1    0    0    0    0 -0.00000000000E+00 -0.00000000000E+00 -0.45593999997E+02  0.45594000000E+02  0.51100000000E-03 0.  1.
         23    2    1    2    0    0 -0.71054273576E-14  0.35527136788E-14  0.00000000000E+00  0.91188000000E+02  0.91188000000E+02 0.  0.
    9900012    2    3    3    0    0 -0.34588548222E+02 -0.19610159810E+02 -0.17398206180E+02  0.47787267124E+02  0.19999982125E+02 0.  0.
         12    1    3    3    0    0  0.34588548222E+02  0.19610159810E+02  0.17398206180E+02  0.43400732876E+02  0.00000000000E+00 0. -1.
         11    1    4    4    0    0 -0.29182784711E+02 -0.14132651736E+02 -0.15457124762E+02  0.35920599588E+02  0.51100000000E-03 0. -1.
        -11    1    4    4    0    0 -0.60022653516E+01  0.17850872910E+00 -0.70139671812E+00  0.60457433236E+01  0.51100000000E-03 0.  1.
         12    1    4    4    0    0  0.59650184100E+00 -0.56560168037E+01 -0.12396847003E+01  0.58209242124E+01  0.00000000000E+00 0. -1.
</event>
<event>
 8    1  0.6019723E-011  0.9118800E+02  0.7816164E-02  0.1184000E+00
        -11   -1    0    0    0    0  0.00000000000E+00  0.00000000000E+00  0.45593999997E+02  0.45594000000E+02  0.51100000000E-03 0. -1.
         11   -1    0    0    0    0 -0.00000000000E+00 -0.00000000000E+00 -0.45593999997E+02  0.45594000000E+02  0.51100000000E-03 0.  1.
         23    2    1    2    0    0 -0.17763568394E-14  0.35527136788E-14 -0.71054273576E-14  0.91188000000E+02  0.91188000000E+02 0.  0.
    9900012    2    3    3    0    0  0.14176911602E+02 -0.21715670518E+02  0.34800399372E+02  0.47787274602E+02  0.20000016219E+02 0.  0.
        -12    1    3    3    0    0 -0.14176911602E+02  0.21715670518E+02 -0.34800399372E+02  0.43400725398E+02  0.00000000000E+00 0.  1.
         11    1    4    4    0    0  0.54616927753E+01  0.66722823104E-01  0.31839077827E+01  0.63223262282E+01  0.51100000000E-03 0. -1.
        -11    1    4    4    0    0 -0.13440737869E+01 -0.12240563715E+02  0.10391804022E+02  0.16112961413E+02  0.51100000000E-03 0.  1.
        -12    1    4    4    0    0  0.10059292614E+02 -0.95418296265E+01  0.21224687567E+02  0.25351986960E+02  0.00000000000E+00 0.  1.
</event>
<event>
 8    1  0.6019723E-011  0.9118800E+02  0.7816164E-02  0.1184000E+00
        -11   -1    0    0    0    0  0.00000000000E+00  0.00000000000E+00  0.45593999997E+02  0.45594000000E+02  0.51100000000E-03 0. -1.
         11   -1    0    0    0    0 -0.00000000000E+00 -0.00000000000E+00 -0.45593999997E+02  0.45594000000E+02  0.51100000000E-03 0.  1.
         23    2    1    2    0    0  0.00000000000E+00 -0.17763568394E-14 -0.35527136788E-14  0.91188000000E+02  0.91188000000E+02 0.  0.
    9900012    2    3    3    0    0 -0.33323032175E+02  0.13572832484E+02  0.24268947526E+02  0.47787215802E+02  0.19999748124E+02 0.  0.
        -12    1    3    3    0    0  0.33323032175E+02 -0.13572832484E+02 -0.24268947526E+02  0.43400784198E+02  0.00000000000E+00 0.  1.
         11    1    4    4    0    0 -0.26473526130E+02  0.92263601131E+01  0.10351381867E+02  0.29885187192E+02  0.51100000000E-03 0. -1.
        -11    1    4    4    0    0 -0.58519876865E+01  0.14757770468E+01  0.13559476696E+02  0.14841936743E+02  0.51100000000E-03 0.  1.
        -12    1    4    4    0    0 -0.99751835829E+00  0.28706953246E+01  0.35808896389E+00  0.30600918659E+01  0.00000000000E+00 0.  1.
</event>
<event>
 8    1  0.6019723E-011  0.9118800E+02  0.7816164E-02  0.1184000E+00
        -11   -1    0    0    0    0  0.00000000000E+00  0.00000000000E+00  0.45593999997E+02  0.45594000000E+02  0.51100000000E-03 0. -1.
         11   -1    0    0    0    0 -0.00000000000E+00 -0.00000000000E+00 -0.45593999997E+02  0.45594000000E+02  0.51100000000E-03 0.  1.
         23    2    1    2    0    0  0.00000000000E+00 -0.71054273576E-14 -0.17763568394E-14  0.91188000000E+02  0.91188000000E+02 0.  0.
    9900012    2    3    3    0    0  0.90530065035E+01  0.41205632318E+02 -0.10186368327E+02  0.47787272343E+02  0.20000005920E+02 0.  0.
         12    1    3    3    0    0 -0.90530065035E+01 -0.41205632318E+02  0.10186368327E+02  0.43400727657E+02  0.00000000000E+00 0. -1.
         11    1    4    4    0    0 -0.27538067591E+01  0.13326772057E+01 -0.24446147479E+01  0.39160722322E+01  0.51100000000E-03 0. -1.
        -11    1    4    4    0    0  0.10668097447E+02  0.17348178606E+02 -0.12602650957E+01  0.20404800230E+02  0.51100000000E-03 0.  1.
        -12    1    4    4    0    0  0.11387158160E+01  0.22524776506E+02 -0.64814884832E+01  0.23466399880E+02  0.00000000000E+00 0.  1.
</event>
<event>
 8    1  0.6019723E-011  0.9118800E+02  0.7816164E-02  0.1184000E+00
        -11   -1    0    0    0    0  0.00000000000E+00  0.00000000000E+00  0.45593999997E+02  0.45594000000E+02  0.51100000000E-03 0. -1.
         11   -1    0    0    0    0 -0.00000000000E+00 -0.00000000000E+00 -0.45593999997E+02  0.45594000000E+02  0.51100000000E-03 0.  1.
         23    2    1    2    0    0  0.00000000000E+00  0.00000000000E+00  0.00000000000E+00  0.91188000000E+02  0.91188000000E+02 0.  0.
    9900012    2    3    3    0    0 -0.39643353476E+02  0.16799603815E+02  0.54589674671E+01  0.47787280087E+02  0.20000041230E+02 0.  0.
        -12    1    3    3    0    0  0.39643353476E+02 -0.16799603815E+02 -0.54589674671E+01  0.43400719913E+02  0.00000000000E+00 0.  1.
         11    1    4    4    0    0 -0.10387489929E+02  0.13329573540E+02  0.54279426089E+01  0.17749367285E+02  0.51100000000E-03 0. -1.
        -11    1    4    4    0    0 -0.23343687955E+02  0.29664791469E+01  0.23902644943E+01  0.23652507911E+02  0.51100000000E-03 0.  1.
         12    1    4    4    0    0 -0.59121755923E+01  0.50355112804E+00 -0.23592396361E+01  0.63854048919E+01  0.00000000000E+00 0. -1.
</event>
<event>
 8    1  0.6019723E-011  0.9118800E+02  0.7816164E-02  0.1184000E+00
        -11   -1    0    0    0    0  0.00000000000E+00  0.00000000000E+00  0.45593999997E+02  0.45594000000E+02  0.51100000000E-03 0. -1.
         11   -1    0    0    0    0 -0.00000000000E+00 -0.00000000000E+00 -0.45593999997E+02  0.45594000000E+02  0.51100000000E-03 0.  1.
         23    2    1    2    0    0 -0.88817841970E-15 -0.17763568394E-14  0.00000000000E+00  0.91188000000E+02  0.91188000000E+02 0.  0.
    9900012    2    3    3    0    0  0.59065565472E+01  0.81666134642E+01 -0.42214240280E+02  0.47787273414E+02  0.20000010806E+02 0.  0.
         12    1    3    3    0    0 -0.59065565472E+01 -0.81666134642E+01  0.42214240280E+02  0.43400726586E+02  0.00000000000E+00 0. -1.
         11    1    4    4    0    0  0.71384858377E+01  0.38549895823E+01 -0.54710853442E+01  0.97852797527E+01  0.51100000000E-03 0. -1.
        -11    1    4    4    0    0  0.27227966608E+01  0.86438958838E+00 -0.44676923614E+01  0.53029299744E+01  0.51100000000E-03 0.  1.
         12    1    4    4    0    0 -0.39547259512E+01  0.34472342936E+01 -0.32275462575E+02  0.32699063687E+02  0.00000000000E+00 0. -1.
</event>
<event>
 8    1  0.6019723E-011  0.9118800E+02  0.7816164E-02  0.1184000E+00
        -11   -1    0    0    0    0  0.00000000000E+00  0.00000000000E+00  0.45593999997E+02  0.45594000000E+02  0.51100000000E-03 0. -1.
         11   -1    0    0    0    0 -0.00000000000E+00 -0.00000000000E+00 -0.45593999997E+02  0.45594000000E+02  0.51100000000E-03 0.  1.
         23    2    1    2    0    0 -0.17763568394E-14  0.00000000000E+00  0.71054273576E-14  0.91188000000E+02  0.91188000000E+02 0.  0.
    9900012    2    3    3    0    0 -0.14134566118E+02  0.63401582627E+01  0.40541834348E+02  0.47787263849E+02  0.19999967191E+02 0.  0.
        -12    1    3    3    0    0  0.14134566118E+02 -0.63401582627E+01 -0.40541834348E+02  0.43400736151E+02  0.00000000000E+00 0.  1.
         11    1    4    4    0    0 -0.94073989797E+01  0.68953331406E+01  0.20624478385E+02  0.23694174044E+02  0.51100000000E-03 0. -1.
        -11    1    4    4    0    0 -0.64479944311E+01 -0.50346791463E+01  0.89703041439E+01  0.12140468812E+02  0.51100000000E-03 0.  1.
        -12    1    4    4    0    0  0.17208272926E+01  0.44795042683E+01  0.10947051819E+02  0.11952620993E+02  0.00000000000E+00 0.  1.
</event>
<event>
 8    1  0.6019723E-011  0.9118800E+02  0.7816164E-02  0.1184000E+00
        -11   -1    0    0    0    0  0.00000000000E+00  0.00000000000E+00  0.45593999997E+02  0.45594000000E+02  0.51100000000E-03 0. -1.
         11   -1    0    0    0    0 -0.00000000000E+00 -0.00000000000E+00 -0.45593999997E+02  0.45594000000E+02  0.51100000000E-03 0.  1.
         23    2    1    2    0    0  0.00000000000E+00 -0.35527136788E-14  0.00000000000E+00  0.91188000000E+02  0.91188000000E+02 0.  0.
    9900012    2    3    3    0    0 -0.15648365688E+02 -0.25721068839E+02 -0.31259851965E+02  0.47787273326E+02  0.20000010404E+02 0.  0.
         12    1    3    3    0    0  0.15648365688E+02  0.25721068839E+02  0.31259851965E+02  0.43400726674E+02  0.00000000000E+00 0. -1.
         11    1    4    4    0    0  0.17429537271E+01 -0.10376457926E+02 -0.79345267771E+01  0.13178219995E+02  0.51100000000E-03 0. -1.
        -11    1    4    4    0    0 -0.15999559808E+02 -0.95559625526E+01 -0.13109930490E+02  0.22785359599E+02  0.51100000000E-03 0.  1.
        -12    1    4    4    0    0 -0.13917596074E+01 -0.57886483600E+01 -0.10215394698E+02  0.11823693732E+02  0.00000000000E+00 0.  1.
</event>
<event>
 8    1  0.6019723E-011  0.9118800E+02  0.7816164E-02  0.1184000E+00
        -11   -1    0    0    0    0  0.00000000000E+00  0.00000000000E+00  0.45593999997E+02  0.45594000000E+02  0.51100000000E-03 0.  1.
         11   -1    0    0    0    0 -0.00000000000E+00 -0.00000000000E+00 -0.45593999997E+02  0.45594000000E+02  0.51100000000E-03 0. -1.
         23    2    1    2    0    0  0.00000000000E+00 -0.35527136788E-14  0.00000000000E+00  0.91188000000E+02  0.91188000000E+02 0.  0.
    9900012    2    3    3    0    0 -0.19396268974E+02 -0.31371107598E+02 -0.22874910959E+02  0.47787271971E+02  0.20000004226E+02 0.  0.
         12    1    3    3    0    0  0.19396268974E+02  0.31371107598E+02  0.22874910959E+02  0.43400728029E+02  0.00000000000E+00 0. -1.
         11    1    4    4    0    0 -0.24619528365E+01 -0.80026275218E+01 -0.15786105124E+02  0.17869089911E+02  0.51100000000E-03 0. -1.
        -11    1    4    4    0    0 -0.13494237849E+02 -0.15987276419E+02 -0.52510625724E+01  0.21569912398E+02  0.51100000000E-03 0.  1.
         12    1    4    4    0    0 -0.34400782889E+01 -0.73812036567E+01 -0.18377432629E+01  0.83482696624E+01  0.00000000000E+00 0. -1.
</event>
<event>
 8    1  0.6019723E-011  0.9118800E+02  0.7816164E-02  0.1184000E+00
        -11   -1    0    0    0    0  0.00000000000E+00  0.00000000000E+00  0.45593999997E+02  0.45594000000E+02  0.51100000000E-03 0. -1.
         11   -1    0    0    0    0 -0.00000000000E+00 -0.00000000000E+00 -0.45593999997E+02  0.45594000000E+02  0.51100000000E-03 0.  1.
         23    2    1    2    0    0  0.00000000000E+00  0.00000000000E+00  0.00000000000E+00  0.91188000000E+02  0.91188000000E+02 0.  0.
    9900012    2    3    3    0    0 -0.25395107336E+02 -0.74485982061E+01  0.34398112501E+02  0.47787271487E+02  0.20000002016E+02 0.  0.
        -12    1    3    3    0    0  0.25395107336E+02  0.74485982061E+01 -0.34398112501E+02  0.43400728513E+02  0.00000000000E+00 0.  1.
         11    1    4    4    0    0 -0.17027020757E+02 -0.10501995050E+02  0.21465640639E+02  0.29342546996E+02  0.51100000000E-03 0. -1.
        -11    1    4    4    0    0 -0.12739018111E+01  0.28765018385E+01 -0.56419854314E+00  0.31961553323E+01  0.51100000000E-03 0.  1.
        -12    1    4    4    0    0 -0.70941847681E+01  0.17689500489E+00  0.13496670405E+02  0.15248569159E+02  0.00000000000E+00 0.  1.
</event>
<event>
 8    1  0.6019723E-011  0.9118800E+02  0.7816164E-02  0.1184000E+00
        -11   -1    0    0    0    0  0.00000000000E+00  0.00000000000E+00  0.45593999997E+02  0.45594000000E+02  0.51100000000E-03 0. -1.
         11   -1    0    0    0    0 -0.00000000000E+00 -0.00000000000E+00 -0.45593999997E+02  0.45594000000E+02  0.51100000000E-03 0.  1.
         23    2    1    2    0    0 -0.71054273576E-14 -0.44408920985E-15  0.00000000000E+00  0.91188000000E+02  0.91188000000E+02 0.  0.
    9900012    2    3    3    0    0 -0.40982973100E+02  0.10315175865E+01 -0.14246257737E+02  0.47787262999E+02  0.19999963320E+02 0.  0.
         12    1    3    3    0    0  0.40982973100E+02 -0.10315175865E+01  0.14246257737E+02  0.43400737001E+02  0.00000000000E+00 0. -1.
         11    1    4    4    0    0 -0.69134995735E+01 -0.38165231750E+01 -0.86931748575E+01  0.11744514246E+02  0.51100000000E-03 0. -1.
        -11    1    4    4    0    0 -0.23492113054E+02  0.47736414830E+01  0.25880191165E+00  0.23973610647E+02  0.51100000000E-03 0.  1.
         12    1    4    4    0    0 -0.10577360472E+02  0.74399278485E-01 -0.58118847910E+01  0.12069138107E+02  0.00000000000E+00 0. -1.
</event>
<event>
 8    1  0.6019723E-011  0.9118800E+02  0.7816164E-02  0.1184000E+00
        -11   -1    0    0    0    0  0.00000000000E+00  0.00000000000E+00  0.45593999997E+02  0.45594000000E+02  0.51100000000E-03 0. -1.
         11   -1    0    0    0    0 -0.00000000000E+00 -0.00000000000E+00 -0.45593999997E+02  0.45594000000E+02  0.51100000000E-03 0.  1.
         23    2    1    2    0    0  0.00000000000E+00 -0.17763568394E-14  0.00000000000E+00  0.91188000000E+02  0.91188000000E+02 0.  0.
    9900012    2    3    3    0    0  0.17473390049E+02  0.90156589952E+01  0.38691432304E+02  0.47787211981E+02  0.19999730705E+02 0.  0.
        -12    1    3    3    0    0 -0.17473390049E+02 -0.90156589952E+01 -0.38691432304E+02  0.43400788019E+02  0.00000000000E+00 0.  1.
         11    1    4    4    0    0  0.58550336892E+01 -0.39725564408E+01  0.73645582179E+01  0.10212704940E+02  0.51100000000E-03 0. -1.
        -11    1    4    4    0    0  0.93497510080E+01  0.10888563776E+02  0.31354676704E+02  0.34483248346E+02  0.51100000000E-03 0.  1.
        -12    1    4    4    0    0  0.22686053518E+01  0.20996516605E+01 -0.27802617831E-01  0.30912586956E+01  0.00000000000E+00 0.  1.
</event>
<event>
 8    1  0.6019723E-011  0.9118800E+02  0.7816164E-02  0.1184000E+00
        -11   -1    0    0    0    0  0.00000000000E+00  0.00000000000E+00  0.45593999997E+02  0.45594000000E+02  0.51100000000E-03 0.  1.
         11   -1    0    0    0    0 -0.00000000000E+00 -0.00000000000E+00 -0.45593999997E+02  0.45594000000E+02  0.51100000000E-03 0. -1.
         23    2    1    2    0    0  0.00000000000E+00  0.00000000000E+00  0.00000000000E+00  0.91188000000E+02  0.91188000000E+02 0.  0.
    9900012    2    3    3    0    0 -0.15340422272E+02 -0.33006950359E+02 -0.23639711403E+02  0.47787270943E+02  0.19999999536E+02 0.  0.
         12    1    3    3    0    0  0.15340422272E+02  0.33006950359E+02  0.23639711403E+02  0.43400729057E+02  0.00000000000E+00 0. -1.
         11    1    4    4    0    0 -0.10144150548E+02 -0.41586365278E+01 -0.56985796083E+01  0.12356045399E+02  0.51100000000E-03 0. -1.
        -11    1    4    4    0    0 -0.31683197156E+01 -0.14056951358E+02 -0.38810133204E+01  0.14923082656E+02  0.51100000000E-03 0.  1.
         12    1    4    4    0    0 -0.20279520085E+01 -0.14791362473E+02 -0.14060118474E+02  0.20508142887E+02  0.00000000000E+00 0. -1.
</event>
<event>
 8    1  0.6019723E-011  0.9118800E+02  0.7816164E-02  0.1184000E+00
        -11   -1    0    0    0    0  0.00000000000E+00  0.00000000000E+00  0.45593999997E+02  0.45594000000E+02  0.51100000000E-03 0. -1.
         11   -1    0    0    0    0 -0.00000000000E+00 -0.00000000000E+00 -0.45593999997E+02  0.45594000000E+02  0.51100000000E-03 0.  1.
         23    2    1    2    0    0  0.00000000000E+00 -0.35527136788E-14  0.00000000000E+00  0.91188000000E+02  0.91188000000E+02 0.  0.
    9900012    2    3    3    0    0 -0.63048756508E+01 -0.25602936837E+02 -0.34472539209E+02  0.47787334208E+02  0.20000287987E+02 0.  0.
         12    1    3    3    0    0  0.63048756508E+01  0.25602936837E+02  0.34472539209E+02  0.43400665792E+02  0.00000000000E+00 0. -1.
         11    1    4    4    0    0 -0.56369837867E+01 -0.29658475383E+00 -0.68934317725E+01  0.89097110274E+01  0.51100000000E-03 0. -1.
        -11    1    4    4    0    0 -0.42824658566E+01 -0.18189979341E+02 -0.23143566964E+02  0.29746252778E+02  0.51100000000E-03 0.  1.
         12    1    4    4    0    0  0.36145739924E+01 -0.71163727422E+01 -0.44355404722E+01  0.91313704028E+01  0.00000000000E+00 0. -1.
</event>
<event>
 8    1  0.6019723E-011  0.9118800E+02  0.7816164E-02  0.1184000E+00
        -11   -1    0    0    0    0  0.00000000000E+00  0.00000000000E+00  0.45593999997E+02  0.45594000000E+02  0.51100000000E-03 0. -1.
         11   -1    0    0    0    0 -0.00000000000E+00 -0.00000000000E+00 -0.45593999997E+02  0.45594000000E+02  0.51100000000E-03 0.  1.
         23    2    1    2    0    0  0.00000000000E+00  0.00000000000E+00 -0.35527136788E-14  0.91188000000E+02  0.91188000000E+02 0.  0.
    9900012    2    3    3    0    0  0.30631985870E+01 -0.35719034867E+02 -0.24462019616E+02  0.47787273726E+02  0.20000012228E+02 0.  0.
         12    1    3    3    0    0 -0.30631985870E+01  0.35719034867E+02  0.24462019616E+02  0.43400726274E+02  0.00000000000E+00 0. -1.
         11    1    4    4    0    0 -0.63593666512E+00  0.16462399454E+01 -0.30517108350E+01  0.35252603707E+01  0.51100000000E-03 0. -1.
        -11    1    4    4    0    0  0.52368949030E+01 -0.31840255243E+02 -0.14769398821E+02  0.35487491655E+02  0.51100000000E-03 0.  1.
        -12    1    4    4    0    0 -0.15377596509E+01 -0.55250195696E+01 -0.66409099595E+01  0.87745217009E+01  0.00000000000E+00 0.  1.
</event>
<event>
 8    1  0.6019723E-011  0.9118800E+02  0.7816164E-02  0.1184000E+00
        -11   -1    0    0    0    0  0.00000000000E+00  0.00000000000E+00  0.45593999997E+02  0.45594000000E+02  0.51100000000E-03 0. -1.
         11   -1    0    0    0    0 -0.00000000000E+00 -0.00000000000E+00 -0.45593999997E+02  0.45594000000E+02  0.51100000000E-03 0.  1.
         23    2    1    2    0    0  0.17763568394E-14  0.00000000000E+00 -0.88817841970E-15  0.91188000000E+02  0.91188000000E+02 0.  0.
    9900012    2    3    3    0    0  0.12723136798E+02  0.41014144708E+02 -0.62916586597E+01  0.47787271379E+02  0.20000001527E+02 0.  0.
        -12    1    3    3    0    0 -0.12723136798E+02 -0.41014144708E+02  0.62916586597E+01  0.43400728621E+02  0.00000000000E+00 0.  1.
         11    1    4    4    0    0  0.21282036074E+01  0.79233082370E+00  0.29429863203E+00  0.22899018920E+01  0.51100000000E-03 0. -1.
        -11    1    4    4    0    0  0.21767011145E+01  0.74487592985E+01  0.55600162065E+01  0.95465084353E+01  0.51100000000E-03 0.  1.
        -12    1    4    4    0    0  0.84182320758E+01  0.32773054586E+02 -0.12145973498E+02  0.35950861052E+02  0.00000000000E+00 0.  1.
</event>
<event>
 8    1  0.6019723E-011  0.9118800E+02  0.7816164E-02  0.1184000E+00
        -11   -1    0    0    0    0  0.00000000000E+00  0.00000000000E+00  0.45593999997E+02  0.45594000000E+02  0.51100000000E-03 0. -1.
         11   -1    0    0    0    0 -0.00000000000E+00 -0.00000000000E+00 -0.45593999997E+02  0.45594000000E+02  0.51100000000E-03 0.  1.
         23    2    1    2    0    0  0.00000000000E+00 -0.33306690739E-15  0.00000000000E+00  0.91188000000E+02  0.91188000000E+02 0.  0.
    9900012    2    3    3    0    0 -0.28328045157E+02  0.57625513905E+00 -0.32875716460E+02  0.47787274831E+02  0.20000017266E+02 0.  0.
         12    1    3    3    0    0  0.28328045157E+02 -0.57625513905E+00  0.32875716460E+02  0.43400725169E+02  0.00000000000E+00 0. -1.
         11    1    4    4    0    0 -0.26569030798E+02 -0.35927373466E+01 -0.21137109188E+02  0.34140863262E+02  0.51100000000E-03 0.  1.
        -11    1    4    4    0    0 -0.83506268974E+00  0.37619963037E+01 -0.30909917165E+01  0.49400582929E+01  0.51100000000E-03 0. -1.
         12    1    4    4    0    0 -0.92395166960E+00  0.40699618195E+00 -0.86476155553E+01  0.87063532763E+01  0.00000000000E+00 0. -1.
</event>
<event>
 8    1  0.6019723E-011  0.9118800E+02  0.7816164E-02  0.1184000E+00
        -11   -1    0    0    0    0  0.00000000000E+00  0.00000000000E+00  0.45593999997E+02  0.45594000000E+02  0.51100000000E-03 0. -1.
         11   -1    0    0    0    0 -0.00000000000E+00 -0.00000000000E+00 -0.45593999997E+02  0.45594000000E+02  0.51100000000E-03 0.  1.
         23    2    1    2    0    0  0.00000000000E+00  0.00000000000E+00  0.22204460493E-15  0.91188000000E+02  0.91188000000E+02 0.  0.
    9900012    2    3    3    0    0 -0.34258454866E+02 -0.26597990763E+02  0.15900684285E+01  0.47787272356E+02  0.20000005981E+02 0.  0.
         12    1    3    3    0    0  0.34258454866E+02  0.26597990763E+02 -0.15900684285E+01  0.43400727644E+02  0.00000000000E+00 0. -1.
         11    1    4    4    0    0 -0.30473546755E+02 -0.15444447197E+02  0.63664690629E+01  0.34751977349E+02  0.51100000000E-03 0. -1.
        -11    1    4    4    0    0 -0.30602874230E+01 -0.53978049100E+01 -0.15432836344E+01  0.63940113853E+01  0.51100000000E-03 0.  1.
         12    1    4    4    0    0 -0.72462068736E+00 -0.57557386555E+01 -0.32331170001E+01  0.66412836220E+01  0.00000000000E+00 0. -1.
</event>
<event>
 8    1  0.6019723E-011  0.9118800E+02  0.7816164E-02  0.1184000E+00
        -11   -1    0    0    0    0  0.00000000000E+00  0.00000000000E+00  0.45593999997E+02  0.45594000000E+02  0.51100000000E-03 0. -1.
         11   -1    0    0    0    0 -0.00000000000E+00 -0.00000000000E+00 -0.45593999997E+02  0.45594000000E+02  0.51100000000E-03 0.  1.
         23    2    1    2    0    0  0.00000000000E+00  0.00000000000E+00  0.00000000000E+00  0.91188000000E+02  0.91188000000E+02 0.  0.
    9900012    2    3    3    0    0 -0.71033535559E+01 -0.20628779246E+02  0.37518242601E+02  0.47787277739E+02  0.20000030523E+02 0.  0.
        -12    1    3    3    0    0  0.71033535559E+01  0.20628779246E+02 -0.37518242601E+02  0.43400722261E+02  0.00000000000E+00 0.  1.
         11    1    4    4    0    0 -0.13363908411E+01 -0.19792178815E+02  0.17374483253E+02  0.26370228503E+02  0.51100000000E-03 0. -1.
        -11    1    4    4    0    0 -0.36611314581E+01  0.10445587514E+01  0.69497510308E+01  0.79242681801E+01  0.51100000000E-03 0.  1.
         12    1    4    4    0    0 -0.21058312566E+01 -0.18811591822E+01  0.13194008317E+02  0.13492781056E+02  0.00000000000E+00 0. -1.
</event>
<event>
 8    1  0.6019723E-011  0.9118800E+02  0.7816164E-02  0.1184000E+00
        -11   -1    0    0    0    0  0.00000000000E+00  0.00000000000E+00  0.45593999997E+02  0.45594000000E+02  0.51100000000E-03 0. -1.
         11   -1    0    0    0    0 -0.00000000000E+00 -0.00000000000E+00 -0.45593999997E+02  0.45594000000E+02  0.51100000000E-03 0.  1.
         23    2    1    2    0    0  0.66613381478E-15  0.00000000000E+00  0.00000000000E+00  0.91188000000E+02  0.91188000000E+02 0.  0.
    9900012    2    3    3    0    0  0.15606333765E+01  0.20693742013E+02  0.38117670184E+02  0.47787270567E+02  0.19999997825E+02 0.  0.
        -12    1    3    3    0    0 -0.15606333765E+01 -0.20693742013E+02 -0.38117670184E+02  0.43400729433E+02  0.00000000000E+00 0.  1.
         11    1    4    4    0    0 -0.28027610577E+01  0.12991677693E+02  0.32610716530E+02  0.35215025085E+02  0.51100000000E-03 0. -1.
        -11    1    4    4    0    0 -0.18287721133E+01  0.16275429949E+01  0.32915835947E+00  0.24701516410E+01  0.51100000000E-03 0.  1.
         12    1    4    4    0    0  0.61921665475E+01  0.60745213252E+01  0.51777952939E+01  0.10102093842E+02  0.00000000000E+00 0. -1.
</event>
<event>
 8    1  0.6019723E-011  0.9118800E+02  0.7816164E-02  0.1184000E+00
        -11   -1    0    0    0    0  0.00000000000E+00  0.00000000000E+00  0.45593999997E+02  0.45594000000E+02  0.51100000000E-03 0. -1.
         11   -1    0    0    0    0 -0.00000000000E+00 -0.00000000000E+00 -0.45593999997E+02  0.45594000000E+02  0.51100000000E-03 0.  1.
         23    2    1    2    0    0  0.00000000000E+00  0.00000000000E+00  0.35527136788E-14  0.91188000000E+02  0.91188000000E+02 0.  0.
    9900012    2    3    3    0    0  0.88910585362E+01 -0.37653269778E+02 -0.19667325375E+02  0.47787270348E+02  0.19999996825E+02 0.  0.
         12    1    3    3    0    0 -0.88910585362E+01  0.37653269778E+02  0.19667325375E+02  0.43400729652E+02  0.00000000000E+00 0. -1.
         11    1    4    4    0    0  0.40619887355E+01 -0.25394768387E+01  0.28971833900E+01  0.55984253999E+01  0.51100000000E-03 0. -1.
        -11    1    4    4    0    0  0.35566246117E+01 -0.19056185242E+02 -0.14267095961E+02  0.24069437095E+02  0.51100000000E-03 0.  1.
         12    1    4    4    0    0  0.12724451889E+01 -0.16057607697E+02 -0.82974128040E+01  0.18119407853E+02  0.00000000000E+00 0. -1.
</event>
<event>
 8    1  0.6019723E-011  0.9118800E+02  0.7816164E-02  0.1184000E+00
        -11   -1    0    0    0    0  0.00000000000E+00  0.00000000000E+00  0.45593999997E+02  0.45594000000E+02  0.51100000000E-03 0.  1.
         11   -1    0    0    0    0 -0.00000000000E+00 -0.00000000000E+00 -0.45593999997E+02  0.45594000000E+02  0.51100000000E-03 0. -1.
         23    2    1    2    0    0  0.00000000000E+00  0.00000000000E+00  0.00000000000E+00  0.91188000000E+02  0.91188000000E+02 0.  0.
    9900012    2    3    3    0    0 -0.34454781158E+02  0.25227969182E+02  0.77486020580E+01  0.47787271809E+02  0.20000003485E+02 0.  0.
         12    1    3    3    0    0  0.34454781158E+02 -0.25227969182E+02 -0.77486020580E+01  0.43400728191E+02  0.00000000000E+00 0. -1.
         11    1    4    4    0    0 -0.25195121472E+02  0.87146678492E+01  0.96802421202E+01  0.28362769073E+02  0.51100000000E-03 0. -1.
        -11    1    4    4    0    0 -0.48699327007E+01  0.10078366196E+02 -0.29319750238E+01  0.11570919907E+02  0.51100000000E-03 0.  1.
         12    1    4    4    0    0 -0.43897269848E+01  0.64349351368E+01  0.10003349615E+01  0.78535828289E+01  0.00000000000E+00 0. -1.
</event>
<event>
 8    1  0.6019723E-011  0.9118800E+02  0.7816164E-02  0.1184000E+00
        -11   -1    0    0    0    0  0.00000000000E+00  0.00000000000E+00  0.45593999997E+02  0.45594000000E+02  0.51100000000E-03 0. -1.
         11   -1    0    0    0    0 -0.00000000000E+00 -0.00000000000E+00 -0.45593999997E+02  0.45594000000E+02  0.51100000000E-03 0.  1.
         23    2    1    2    0    0  0.00000000000E+00  0.17763568394E-14  0.00000000000E+00  0.91188000000E+02  0.91188000000E+02 0.  0.
    9900012    2    3    3    0    0  0.15999934480E+02 -0.11162756417E+02 -0.38768739209E+02  0.47787306756E+02  0.20000162823E+02 0.  0.
         12    1    3    3    0    0 -0.15999934480E+02  0.11162756417E+02  0.38768739209E+02  0.43400693244E+02  0.00000000000E+00 0. -1.
         11    1    4    4    0    0  0.18365749545E+01 -0.16358698325E+01 -0.15610926728E+00  0.24644366571E+01  0.51100000000E-03 0. -1.
        -11    1    4    4    0    0  0.21875629737E+01  0.46652277397E+01 -0.78532999018E+01  0.93927685607E+01  0.51100000000E-03 0.  1.
        -12    1    4    4    0    0  0.11975796552E+02 -0.14192114324E+02 -0.30759330040E+02  0.35930101538E+02  0.00000000000E+00 0.  1.
</event>
<event>
 8    1  0.6019723E-011  0.9118800E+02  0.7816164E-02  0.1184000E+00
        -11   -1    0    0    0    0  0.00000000000E+00  0.00000000000E+00  0.45593999997E+02  0.45594000000E+02  0.51100000000E-03 0. -1.
         11   -1    0    0    0    0 -0.00000000000E+00 -0.00000000000E+00 -0.45593999997E+02  0.45594000000E+02  0.51100000000E-03 0.  1.
         23    2    1    2    0    0  0.00000000000E+00  0.69388939039E-15  0.00000000000E+00  0.91188000000E+02  0.91188000000E+02 0.  0.
    9900012    2    3    3    0    0  0.27999535387E+02  0.21736247768E+00  0.33160256233E+02  0.47787264732E+02  0.19999971220E+02 0.  0.
        -12    1    3    3    0    0 -0.27999535387E+02 -0.21736247768E+00 -0.33160256233E+02  0.43400735268E+02  0.00000000000E+00 0.  1.
         11    1    4    4    0    0  0.24610302211E+02  0.51036739246E+01  0.25990812867E+02  0.36155730060E+02  0.51100000000E-03 0. -1.
        -11    1    4    4    0    0  0.74973127841E+00  0.11522032120E+01 -0.55091733013E+00  0.14809386879E+01  0.51100000000E-03 0.  1.
         12    1    4    4    0    0  0.26395018978E+01 -0.60385146589E+01  0.77203606965E+01  0.10150595984E+02  0.00000000000E+00 0. -1.
</event>
<event>
 8    1  0.6019723E-011  0.9118800E+02  0.7816164E-02  0.1184000E+00
        -11   -1    0    0    0    0  0.00000000000E+00  0.00000000000E+00  0.45593999997E+02  0.45594000000E+02  0.51100000000E-03 0. -1.
         11   -1    0    0    0    0 -0.00000000000E+00 -0.00000000000E+00 -0.45593999997E+02  0.45594000000E+02  0.51100000000E-03 0.  1.
         23    2    1    2    0    0 -0.17763568394E-14  0.17763568394E-14  0.71054273576E-14  0.91188000000E+02  0.91188000000E+02 0.  0.
    9900012    2    3    3    0    0  0.99737267719E+01 -0.87997341867E+01 -0.41312386968E+02  0.47787264241E+02  0.19999968980E+02 0.  0.
         12    1    3    3    0    0 -0.99737267719E+01  0.87997341867E+01  0.41312386968E+02  0.43400735759E+02  0.00000000000E+00 0. -1.
         11    1    4    4    0    0  0.18517327606E+01 -0.18320364267E+01 -0.18025878839E+01  0.31677428913E+01  0.51100000000E-03 0. -1.
        -11    1    4    4    0    0  0.12347569780E+02  0.27230565308E+00 -0.23517536130E+02  0.26563341953E+02  0.51100000000E-03 0.  1.
        -12    1    4    4    0    0 -0.42255757691E+01 -0.72400034130E+01 -0.15992262954E+02  0.18056179396E+02  0.00000000000E+00 0.  1.
</event>
<event>
 8    1  0.6019723E-011  0.9118800E+02  0.7816164E-02  0.1184000E+00
        -11   -1    0    0    0    0  0.00000000000E+00  0.00000000000E+00  0.45593999997E+02  0.45594000000E+02  0.51100000000E-03 0. -1.
         11   -1    0    0    0    0 -0.00000000000E+00 -0.00000000000E+00 -0.45593999997E+02  0.45594000000E+02  0.51100000000E-03 0.  1.
         23    2    1    2    0    0 -0.17763568394E-14  0.00000000000E+00  0.00000000000E+00  0.91188000000E+02  0.91188000000E+02 0.  0.
    9900012    2    3    3    0    0  0.12880530791E+02  0.11160491491E+02 -0.39914388379E+02  0.47787273699E+02  0.20000012103E+02 0.  0.
         12    1    3    3    0    0 -0.12880530791E+02 -0.11160491491E+02  0.39914388379E+02  0.43400726301E+02  0.00000000000E+00 0. -1.
         11    1    4    4    0    0 -0.27513233001E+01  0.37187464098E+01 -0.12838654739E+02  0.13646608023E+02  0.51100000000E-03 0. -1.
        -11    1    4    4    0    0  0.88648580665E+01  0.41577651526E+01 -0.53672904180E+01  0.11166043449E+02  0.51100000000E-03 0.  1.
        -12    1    4    4    0    0  0.67669960247E+01  0.32839799288E+01 -0.21708443222E+02  0.22974622227E+02  0.00000000000E+00 0.  1.
</event>
<event>
 8    1  0.6019723E-011  0.9118800E+02  0.7816164E-02  0.1184000E+00
        -11   -1    0    0    0    0  0.00000000000E+00  0.00000000000E+00  0.45593999997E+02  0.45594000000E+02  0.51100000000E-03 0. -1.
         11   -1    0    0    0    0 -0.00000000000E+00 -0.00000000000E+00 -0.45593999997E+02  0.45594000000E+02  0.51100000000E-03 0.  1.
         23    2    1    2    0    0  0.17763568394E-14  0.35527136788E-14 -0.35527136788E-14  0.91188000000E+02  0.91188000000E+02 0.  0.
    9900012    2    3    3    0    0  0.85738292451E+01 -0.28550660762E+02 -0.31543214987E+02  0.47787248975E+02  0.19999899374E+02 0.  0.
         12    1    3    3    0    0 -0.85738292451E+01  0.28550660762E+02  0.31543214987E+02  0.43400751025E+02  0.00000000000E+00 0. -1.
         11    1    4    4    0    0  0.36659507578E+00 -0.22934794431E+01  0.26486712083E+00  0.23376472698E+01  0.51100000000E-03 0. -1.
        -11    1    4    4    0    0 -0.52233448925E+00 -0.51803144318E+01 -0.18101708316E+02  0.18835613479E+02  0.51100000000E-03 0.  1.
        -12    1    4    4    0    0  0.87295686586E+01 -0.21076866887E+02 -0.13706373792E+02  0.26613988225E+02  0.00000000000E+00 0.  1.
</event>
<event>
 8    1  0.6019723E-011  0.9118800E+02  0.7816164E-02  0.1184000E+00
        -11   -1    0    0    0    0  0.00000000000E+00  0.00000000000E+00  0.45593999997E+02  0.45594000000E+02  0.51100000000E-03 0. -1.
         11   -1    0    0    0    0 -0.00000000000E+00 -0.00000000000E+00 -0.45593999997E+02  0.45594000000E+02  0.51100000000E-03 0.  1.
         23    2    1    2    0    0  0.00000000000E+00 -0.35527136788E-14  0.71054273576E-14  0.91188000000E+02  0.91188000000E+02 0.  0.
    9900012    2    3    3    0    0  0.12844013615E+02 -0.16148222387E+02  0.38182321317E+02  0.47787269210E+02  0.19999991635E+02 0.  0.
        -12    1    3    3    0    0 -0.12844013615E+02  0.16148222387E+02 -0.38182321317E+02  0.43400730790E+02  0.00000000000E+00 0.  1.
         11    1    4    4    0    0  0.11318426134E+02 -0.73731138293E+01  0.27064356001E+02  0.30248122978E+02  0.51100000000E-03 0. -1.
        -11    1    4    4    0    0 -0.32913580142E+01 -0.24326478471E+01  0.29738018453E+00  0.41035653231E+01  0.51100000000E-03 0.  1.
        -12    1    4    4    0    0  0.48169454947E+01 -0.63424607107E+01  0.10820585131E+02  0.13435580908E+02  0.00000000000E+00 0.  1.
</event>
<event>
 8    1  0.6019723E-011  0.9118800E+02  0.7816164E-02  0.1184000E+00
        -11   -1    0    0    0    0  0.00000000000E+00  0.00000000000E+00  0.45593999997E+02  0.45594000000E+02  0.51100000000E-03 0. -1.
         11   -1    0    0    0    0 -0.00000000000E+00 -0.00000000000E+00 -0.45593999997E+02  0.45594000000E+02  0.51100000000E-03 0.  1.
         23    2    1    2    0    0  0.00000000000E+00  0.00000000000E+00  0.35527136788E-14  0.91188000000E+02  0.91188000000E+02 0.  0.
    9900012    2    3    3    0    0 -0.54950423311E+01  0.31196529115E+02 -0.29668234289E+02  0.47787273683E+02  0.20000012029E+02 0.  0.
         12    1    3    3    0    0  0.54950423311E+01 -0.31196529115E+02  0.29668234289E+02  0.43400726317E+02  0.00000000000E+00 0. -1.
         11    1    4    4    0    0 -0.11882790518E+02  0.16670857377E+02 -0.14801395767E+02  0.25262610972E+02  0.51100000000E-03 0. -1.
        -11    1    4    4    0    0  0.62752151093E+01  0.14904170937E+02 -0.15048466806E+02  0.22090020132E+02  0.51100000000E-03 0.  1.
         12    1    4    4    0    0  0.11253307795E+00 -0.37849919944E+00  0.18162828352E+00  0.43464257843E+00  0.00000000000E+00 0. -1.
</event>
<event>
 8    1  0.6019723E-011  0.9118800E+02  0.7816164E-02  0.1184000E+00
        -11   -1    0    0    0    0  0.00000000000E+00  0.00000000000E+00  0.45593999997E+02  0.45594000000E+02  0.51100000000E-03 0. -1.
         11   -1    0    0    0    0 -0.00000000000E+00 -0.00000000000E+00 -0.45593999997E+02  0.45594000000E+02  0.51100000000E-03 0.  1.
         23    2    1    2    0    0  0.00000000000E+00 -0.88817841970E-15  0.00000000000E+00  0.91188000000E+02  0.91188000000E+02 0.  0.
    9900012    2    3    3    0    0  0.26936674086E+02 -0.45714111781E+01 -0.33721522892E+02  0.47787270546E+02  0.19999997728E+02 0.  0.
         12    1    3    3    0    0 -0.26936674086E+02  0.45714111781E+01  0.33721522892E+02  0.43400729454E+02  0.00000000000E+00 0. -1.
         11    1    4    4    0    0  0.20447744000E+02 -0.36941414305E+01 -0.11462666762E+02  0.23730774221E+02  0.51100000000E-03 0. -1.
        -11    1    4    4    0    0  0.24958388506E+01  0.89805153070E+00 -0.17060044502E+02  0.17265017428E+02  0.51100000000E-03 0.  1.
        -12    1    4    4    0    0  0.39930912362E+01 -0.17753212783E+01 -0.51988116279E+01  0.67914788966E+01  0.00000000000E+00 0.  1.
</event>
<event>
 8    1  0.6019723E-011  0.9118800E+02  0.7816164E-02  0.1184000E+00
        -11   -1    0    0    0    0  0.00000000000E+00  0.00000000000E+00  0.45593999997E+02  0.45594000000E+02  0.51100000000E-03 0. -1.
         11   -1    0    0    0    0 -0.00000000000E+00 -0.00000000000E+00 -0.45593999997E+02  0.45594000000E+02  0.51100000000E-03 0.  1.
         23    2    1    2    0    0  0.00000000000E+00  0.00000000000E+00  0.00000000000E+00  0.91188000000E+02  0.91188000000E+02 0.  0.
    9900012    2    3    3    0    0 -0.85063766998E+01  0.27675585603E+02  0.32331512668E+02  0.47787271960E+02  0.20000004173E+02 0.  0.
        -12    1    3    3    0    0  0.85063766998E+01 -0.27675585603E+02 -0.32331512668E+02  0.43400728040E+02  0.00000000000E+00 0.  1.
         11    1    4    4    0    0 -0.28064158073E+01  0.24098399707E+02  0.15045007306E+02  0.28547523241E+02  0.51100000000E-03 0. -1.
        -11    1    4    4    0    0 -0.15355899140E+01  0.68269464123E+00  0.57578885938E+00  0.17764125165E+01  0.51100000000E-03 0.  1.
         12    1    4    4    0    0 -0.41643709785E+01  0.28944912549E+01  0.16710716503E+02  0.17463336202E+02  0.00000000000E+00 0. -1.
</event>
<event>
 8    1  0.6019723E-011  0.9118800E+02  0.7816164E-02  0.1184000E+00
        -11   -1    0    0    0    0  0.00000000000E+00  0.00000000000E+00  0.45593999997E+02  0.45594000000E+02  0.51100000000E-03 0.  1.
         11   -1    0    0    0    0 -0.00000000000E+00 -0.00000000000E+00 -0.45593999997E+02  0.45594000000E+02  0.51100000000E-03 0. -1.
         23    2    1    2    0    0 -0.35527136788E-14  0.00000000000E+00 -0.44408920985E-15  0.91188000000E+02  0.91188000000E+02 0.  0.
    9900012    2    3    3    0    0 -0.24988195166E+02 -0.35406799589E+02 -0.23604881955E+01  0.47787271212E+02  0.20000000764E+02 0.  0.
        -12    1    3    3    0    0  0.24988195166E+02  0.35406799589E+02  0.23604881955E+01  0.43400728788E+02  0.00000000000E+00 0.  1.
         11    1    4    4    0    0  0.13552794444E+00 -0.10960631812E+02  0.21669160373E+01  0.11173600266E+02  0.51100000000E-03 0. -1.
        -11    1    4    4    0    0 -0.13590267080E+02 -0.16812472546E+02 -0.66562095427E+01  0.22619896511E+02  0.51100000000E-03 0.  1.
        -12    1    4    4    0    0 -0.11533456031E+02 -0.76336952313E+01  0.21288053099E+01  0.13993774435E+02  0.00000000000E+00 0.  1.
</event>
<event>
 8    1  0.6019723E-011  0.9118800E+02  0.7816164E-02  0.1184000E+00
        -11   -1    0    0    0    0  0.00000000000E+00  0.00000000000E+00  0.45593999997E+02  0.45594000000E+02  0.51100000000E-03 0. -1.
         11   -1    0    0    0    0 -0.00000000000E+00 -0.00000000000E+00 -0.45593999997E+02  0.45594000000E+02  0.51100000000E-03 0.  1.
         23    2    1    2    0    0  0.00000000000E+00  0.00000000000E+00  0.00000000000E+00  0.91188000000E+02  0.91188000000E+02 0.  0.
    9900012    2    3    3    0    0  0.62155001673E+01  0.16899663354E+02  0.39489141504E+02  0.47787270046E+02  0.19999995447E+02 0.  0.
        -12    1    3    3    0    0 -0.62155001673E+01 -0.16899663354E+02 -0.39489141504E+02  0.43400729954E+02  0.00000000000E+00 0.  1.
         11    1    4    4    0    0 -0.27560921880E+01  0.46275911198E+01  0.55501848594E+01  0.77340284428E+01  0.51100000000E-03 0. -1.
        -11    1    4    4    0    0  0.36859429970E+01  0.14814673594E+02  0.26465412894E+02  0.30552885451E+02  0.51100000000E-03 0.  1.
        -12    1    4    4    0    0  0.52856493582E+01 -0.25426013600E+01  0.74735437515E+01  0.95003561523E+01  0.00000000000E+00 0.  1.
</event>
<event>
 8    1  0.6019723E-011  0.9118800E+02  0.7816164E-02  0.1184000E+00
        -11   -1    0    0    0    0  0.00000000000E+00  0.00000000000E+00  0.45593999997E+02  0.45594000000E+02  0.51100000000E-03 0. -1.
         11   -1    0    0    0    0 -0.00000000000E+00 -0.00000000000E+00 -0.45593999997E+02  0.45594000000E+02  0.51100000000E-03 0.  1.
         23    2    1    2    0    0  0.88817841970E-15 -0.71054273576E-14 -0.35527136788E-14  0.91188000000E+02  0.91188000000E+02 0.  0.
    9900012    2    3    3    0    0 -0.73285191646E+01  0.39432149534E+02  0.16583771740E+02  0.47787273104E+02  0.20000009391E+02 0.  0.
        -12    1    3    3    0    0  0.73285191646E+01 -0.39432149534E+02 -0.16583771740E+02  0.43400726896E+02  0.00000000000E+00 0.  1.
         11    1    4    4    0    0  0.49342445268E+00  0.26614427005E+02  0.11257723977E+02  0.28901687527E+02  0.51100000000E-03 0. -1.
        -11    1    4    4    0    0 -0.23411666854E+01 -0.12002503163E+01  0.23820108669E+01  0.35490334321E+01  0.51100000000E-03 0.  1.
        -12    1    4    4    0    0 -0.54807769319E+01  0.14017972844E+02  0.29440368956E+01  0.15336552145E+02  0.00000000000E+00 0.  1.
</event>
<event>
 8    1  0.6019723E-011  0.9118800E+02  0.7816164E-02  0.1184000E+00
        -11   -1    0    0    0    0  0.00000000000E+00  0.00000000000E+00  0.45593999997E+02  0.45594000000E+02  0.51100000000E-03 0. -1.
         11   -1    0    0    0    0 -0.00000000000E+00 -0.00000000000E+00 -0.45593999997E+02  0.45594000000E+02  0.51100000000E-03 0.  1.
         23    2    1    2    0    0  0.00000000000E+00  0.00000000000E+00  0.00000000000E+00  0.91188000000E+02  0.91188000000E+02 0.  0.
    9900012    2    3    3    0    0 -0.12968921288E+02 -0.54013376271E+01 -0.41064047962E+02  0.47787269562E+02  0.19999993240E+02 0.  0.
         12    1    3    3    0    0  0.12968921288E+02  0.54013376271E+01  0.41064047962E+02  0.43400730438E+02  0.00000000000E+00 0. -1.
         11    1    4    4    0    0 -0.12451379046E+02  0.69393643422E+00 -0.12238585262E+02  0.17472874904E+02  0.51100000000E-03 0. -1.
        -11    1    4    4    0    0  0.46682729363E+00 -0.61217446774E+01 -0.28666915886E+02  0.29316987436E+02  0.51100000000E-03 0.  1.
        -12    1    4    4    0    0 -0.98436953520E+00  0.26470616121E-01 -0.15854681435E+00  0.99740722259E+00  0.00000000000E+00 0.  1.
</event>
<event>
 8    1  0.6019723E-011  0.9118800E+02  0.7816164E-02  0.1184000E+00
        -11   -1    0    0    0    0  0.00000000000E+00  0.00000000000E+00  0.45593999997E+02  0.45594000000E+02  0.51100000000E-03 0.  1.
         11   -1    0    0    0    0 -0.00000000000E+00 -0.00000000000E+00 -0.45593999997E+02  0.45594000000E+02  0.51100000000E-03 0. -1.
         23    2    1    2    0    0 -0.35527136788E-14 -0.71054273576E-14 -0.44408920985E-15  0.91188000000E+02  0.91188000000E+02 0.  0.
    9900012    2    3    3    0    0  0.20790700382E+02  0.37962522867E+02 -0.31964758537E+01  0.47787264722E+02  0.19999971172E+02 0.  0.
         12    1    3    3    0    0 -0.20790700382E+02 -0.37962522867E+02  0.31964758537E+01  0.43400735278E+02  0.00000000000E+00 0. -1.
         11    1    4    4    0    0  0.49401888346E+00  0.25951175749E+01  0.48635126635E+01  0.55346585779E+01  0.51100000000E-03 0. -1.
        -11    1    4    4    0    0  0.18182914970E+02  0.25255464483E+02 -0.66981837367E+01  0.31832727635E+02  0.51100000000E-03 0.  1.
         12    1    4    4    0    0  0.21137665281E+01  0.10111940810E+02 -0.13618047805E+01  0.10419878509E+02  0.00000000000E+00 0. -1.
</event>
<event>
 8    1  0.6019723E-011  0.9118800E+02  0.7816164E-02  0.1184000E+00
        -11   -1    0    0    0    0  0.00000000000E+00  0.00000000000E+00  0.45593999997E+02  0.45594000000E+02  0.51100000000E-03 0. -1.
         11   -1    0    0    0    0 -0.00000000000E+00 -0.00000000000E+00 -0.45593999997E+02  0.45594000000E+02  0.51100000000E-03 0.  1.
         23    2    1    2    0    0  0.17763568394E-14  0.00000000000E+00  0.35527136788E-14  0.91188000000E+02  0.91188000000E+02 0.  0.
    9900012    2    3    3    0    0  0.10755996092E+02 -0.28587920068E+02  0.30832824956E+02  0.47787265898E+02  0.19999976537E+02 0.  0.
        -12    1    3    3    0    0 -0.10755996092E+02  0.28587920068E+02 -0.30832824956E+02  0.43400734102E+02  0.00000000000E+00 0.  1.
         11    1    4    4    0    0  0.58079106951E+00 -0.25366644343E+02  0.19806124752E+02  0.32188298207E+02  0.51100000000E-03 0. -1.
        -11    1    4    4    0    0  0.76789194940E+01 -0.11325909442E+01  0.81539455824E+01  0.11257681629E+02  0.51100000000E-03 0.  1.
         12    1    4    4    0    0  0.24962855288E+01 -0.20886847809E+01  0.28727546218E+01  0.43412860620E+01  0.00000000000E+00 0. -1.
</event>
<event>
 8    1  0.6019723E-011  0.9118800E+02  0.7816164E-02  0.1184000E+00
        -11   -1    0    0    0    0  0.00000000000E+00  0.00000000000E+00  0.45593999997E+02  0.45594000000E+02  0.51100000000E-03 0. -1.
         11   -1    0    0    0    0 -0.00000000000E+00 -0.00000000000E+00 -0.45593999997E+02  0.45594000000E+02  0.51100000000E-03 0.  1.
         23    2    1    2    0    0  0.00000000000E+00 -0.35527136788E-14  0.00000000000E+00  0.91188000000E+02  0.91188000000E+02 0.  0.
    9900012    2    3    3    0    0 -0.31771384084E+01  0.20216890090E+02  0.38272787711E+02  0.47787272673E+02  0.20000007424E+02 0.  0.
        -12    1    3    3    0    0  0.31771384084E+01 -0.20216890090E+02 -0.38272787711E+02  0.43400727327E+02  0.00000000000E+00 0.  1.
         11    1    4    4    0    0  0.20510583015E+01 -0.55531825037E+00 -0.19957425573E+00  0.21342559968E+01  0.51100000000E-03 0. -1.
        -11    1    4    4    0    0  0.91396888173E-01  0.70820820385E+01  0.38891522576E+01  0.80802069859E+01  0.51100000000E-03 0.  1.
         12    1    4    4    0    0 -0.53195935981E+01  0.13690126301E+02  0.34583209709E+02  0.37572809690E+02  0.00000000000E+00 0. -1.
</event>
<event>
 8    1  0.6019723E-011  0.9118800E+02  0.7816164E-02  0.1184000E+00
        -11   -1    0    0    0    0  0.00000000000E+00  0.00000000000E+00  0.45593999997E+02  0.45594000000E+02  0.51100000000E-03 0. -1.
         11   -1    0    0    0    0 -0.00000000000E+00 -0.00000000000E+00 -0.45593999997E+02  0.45594000000E+02  0.51100000000E-03 0.  1.
         23    2    1    2    0    0  0.44408920985E-15  0.00000000000E+00  0.00000000000E+00  0.91188000000E+02  0.91188000000E+02 0.  0.
    9900012    2    3    3    0    0  0.19840052810E+01  0.39620443482E+02 -0.17604187688E+02  0.47787271402E+02  0.20000001632E+02 0.  0.
         12    1    3    3    0    0 -0.19840052810E+01 -0.39620443482E+02  0.17604187688E+02  0.43400728598E+02  0.00000000000E+00 0. -1.
         11    1    4    4    0    0 -0.80900138628E+00  0.60850452475E+01 -0.58678716570E+01  0.84920066505E+01  0.51100000000E-03 0. -1.
        -11    1    4    4    0    0 -0.83989405450E-01  0.26071381114E+02 -0.15631004830E+02  0.30398228233E+02  0.51100000000E-03 0.  1.
        -12    1    4    4    0    0  0.28769960728E+01  0.74640171205E+01  0.38946888000E+01  0.88970365194E+01  0.00000000000E+00 0.  1.
</event>
<event>
 8    1  0.6019723E-011  0.9118800E+02  0.7816164E-02  0.1184000E+00
        -11   -1    0    0    0    0  0.00000000000E+00  0.00000000000E+00  0.45593999997E+02  0.45594000000E+02  0.51100000000E-03 0. -1.
         11   -1    0    0    0    0 -0.00000000000E+00 -0.00000000000E+00 -0.45593999997E+02  0.45594000000E+02  0.51100000000E-03 0.  1.
         23    2    1    2    0    0  0.00000000000E+00 -0.17763568394E-14  0.71054273576E-14  0.91188000000E+02  0.91188000000E+02 0.  0.
    9900012    2    3    3    0    0 -0.12007329027E+02  0.64097377452E+01  0.41211200390E+02  0.47787265837E+02  0.19999976257E+02 0.  0.
        -12    1    3    3    0    0  0.12007329027E+02 -0.64097377452E+01 -0.41211200390E+02  0.43400734163E+02  0.00000000000E+00 0.  1.
         11    1    4    4    0    0  0.27603238098E+01 -0.30287452708E+01  0.12115131223E+02  0.12789413211E+02  0.51100000000E-03 0. -1.
        -11    1    4    4    0    0 -0.11048528306E+02  0.10387466179E+02  0.19796688672E+02  0.24937488125E+02  0.51100000000E-03 0.  1.
         12    1    4    4    0    0 -0.37191245305E+01 -0.94898316267E+00  0.92993804947E+01  0.10060364501E+02  0.00000000000E+00 0. -1.
</event>
<event>
 8    1  0.6019723E-011  0.9118800E+02  0.7816164E-02  0.1184000E+00
        -11   -1    0    0    0    0  0.00000000000E+00  0.00000000000E+00  0.45593999997E+02  0.45594000000E+02  0.51100000000E-03 0.  1.
         11   -1    0    0    0    0 -0.00000000000E+00 -0.00000000000E+00 -0.45593999997E+02  0.45594000000E+02  0.51100000000E-03 0. -1.
         23    2    1    2    0    0  0.35527136788E-14  0.00000000000E+00  0.00000000000E+00  0.91188000000E+02  0.91188000000E+02 0.  0.
    9900012    2    3    3    0    0  0.16405694204E+02  0.39353659349E+02 -0.81096229365E+01  0.47787270851E+02  0.19999999119E+02 0.  0.
        -12    1    3    3    0    0 -0.16405694204E+02 -0.39353659349E+02  0.81096229365E+01  0.43400729149E+02  0.00000000000E+00 0.  1.
         11    1    4    4    0    0 -0.26532905262E+01  0.12115084700E+02 -0.55726402113E+01  0.13596674119E+02  0.51100000000E-03 0. -1.
        -11    1    4    4    0    0 -0.39582449001E+00  0.35425956798E+00  0.66520748024E+00  0.85128028362E+00  0.51100000000E-03 0.  1.
         12    1    4    4    0    0  0.19454809220E+02  0.26884315081E+02 -0.32021902054E+01  0.33339316449E+02  0.00000000000E+00 0. -1.
</event>
<event>
 8    1  0.6019723E-011  0.9118800E+02  0.7816164E-02  0.1184000E+00
        -11   -1    0    0    0    0  0.00000000000E+00  0.00000000000E+00  0.45593999997E+02  0.45594000000E+02  0.51100000000E-03 0. -1.
         11   -1    0    0    0    0 -0.00000000000E+00 -0.00000000000E+00 -0.45593999997E+02  0.45594000000E+02  0.51100000000E-03 0.  1.
         23    2    1    2    0    0 -0.35527136788E-14  0.00000000000E+00  0.00000000000E+00  0.91188000000E+02  0.91188000000E+02 0.  0.
    9900012    2    3    3    0    0 -0.21272650362E+02  0.31770066676E+02 -0.20536815730E+02  0.47787267399E+02  0.19999983378E+02 0.  0.
         12    1    3    3    0    0  0.21272650362E+02 -0.31770066676E+02  0.20536815730E+02  0.43400732601E+02  0.00000000000E+00 0. -1.
         11    1    4    4    0    0 -0.92697853291E+01  0.14213014522E+02 -0.42747503444E+01  0.17498919756E+02  0.51100000000E-03 0. -1.
        -11    1    4    4    0    0  0.66547024065E+00  0.73302393892E+01 -0.10889531731E+02  0.13143711870E+02  0.51100000000E-03 0.  1.
        -12    1    4    4    0    0 -0.12668335273E+02  0.10226812764E+02 -0.53725336550E+01  0.17144635773E+02  0.00000000000E+00 0.  1.
</event>
<event>
 8    1  0.6019723E-011  0.9118800E+02  0.7816164E-02  0.1184000E+00
        -11   -1    0    0    0    0  0.00000000000E+00  0.00000000000E+00  0.45593999997E+02  0.45594000000E+02  0.51100000000E-03 0.  1.
         11   -1    0    0    0    0 -0.00000000000E+00 -0.00000000000E+00 -0.45593999997E+02  0.45594000000E+02  0.51100000000E-03 0. -1.
         23    2    1    2    0    0  0.00000000000E+00  0.00000000000E+00  0.00000000000E+00  0.91188000000E+02  0.91188000000E+02 0.  0.
    9900012    2    3    3    0    0 -0.37625591125E+02 -0.50323379969E+01 -0.21038388800E+02  0.47787270322E+02  0.19999996708E+02 0.  0.
         12    1    3    3    0    0  0.37625591125E+02  0.50323379969E+01  0.21038388800E+02  0.43400729678E+02  0.00000000000E+00 0. -1.
         11    1    4    4    0    0 -0.24310281446E+02 -0.21796938376E+01 -0.17564452461E+02  0.30070763870E+02  0.51100000000E-03 0. -1.
        -11    1    4    4    0    0 -0.12695861331E+02  0.24368598331E-02 -0.58231828094E+01  0.13967618236E+02  0.51100000000E-03 0.  1.
         12    1    4    4    0    0 -0.61944834781E+00 -0.28550810191E+01  0.23492464705E+01  0.37488882166E+01  0.00000000000E+00 0. -1.
</event>
<event>
 8    1  0.6019723E-011  0.9118800E+02  0.7816164E-02  0.1184000E+00
        -11   -1    0    0    0    0  0.00000000000E+00  0.00000000000E+00  0.45593999997E+02  0.45594000000E+02  0.51100000000E-03 0. -1.
         11   -1    0    0    0    0 -0.00000000000E+00 -0.00000000000E+00 -0.45593999997E+02  0.45594000000E+02  0.51100000000E-03 0.  1.
         23    2    1    2    0    0  0.35527136788E-14  0.00000000000E+00  0.00000000000E+00  0.91188000000E+02  0.91188000000E+02 0.  0.
    9900012    2    3    3    0    0 -0.22513469585E+02  0.14869191346E+02  0.33995211127E+02  0.47787267937E+02  0.19999985833E+02 0.  0.
        -12    1    3    3    0    0  0.22513469585E+02 -0.14869191346E+02 -0.33995211127E+02  0.43400732063E+02  0.00000000000E+00 0.  1.
         11    1    4    4    0    0 -0.10286305892E+01  0.85399779432E+01  0.34027237694E+01  0.92502882913E+01  0.51100000000E-03 0. -1.
        -11    1    4    4    0    0 -0.74224066427E+01 -0.11346781110E+01  0.94046563834E+01  0.12034416344E+02  0.51100000000E-03 0.  1.
         12    1    4    4    0    0 -0.14062432353E+02  0.74638915133E+01  0.21187830974E+02  0.26502563302E+02  0.00000000000E+00 0. -1.
</event>
<event>
 8    1  0.6019723E-011  0.9118800E+02  0.7816164E-02  0.1184000E+00
        -11   -1    0    0    0    0  0.00000000000E+00  0.00000000000E+00  0.45593999997E+02  0.45594000000E+02  0.51100000000E-03 0. -1.
         11   -1    0    0    0    0 -0.00000000000E+00 -0.00000000000E+00 -0.45593999997E+02  0.45594000000E+02  0.51100000000E-03 0.  1.
         23    2    1    2    0    0  0.35527136788E-14  0.00000000000E+00  0.35527136788E-14  0.91188000000E+02  0.91188000000E+02 0.  0.
    9900012    2    3    3    0    0 -0.29966559003E+02 -0.21140137793E+02 -0.23210409667E+02  0.47787271881E+02  0.20000003812E+02 0.  0.
         12    1    3    3    0    0  0.29966559003E+02  0.21140137793E+02  0.23210409667E+02  0.43400728119E+02  0.00000000000E+00 0. -1.
         11    1    4    4    0    0 -0.23962669617E+01 -0.19743420015E+01  0.26752513159E+01  0.40984254971E+01  0.51100000000E-03 0. -1.
        -11    1    4    4    0    0 -0.18570261238E+02 -0.18422744287E+02 -0.18901217204E+02  0.32272404955E+02  0.51100000000E-03 0.  1.
        -12    1    4    4    0    0 -0.90000308024E+01 -0.74305150446E+00 -0.69844437794E+01  0.11416441428E+02  0.00000000000E+00 0.  1.
</event>
<event>
 8    1  0.6019723E-011  0.9118800E+02  0.7816164E-02  0.1184000E+00
        -11   -1    0    0    0    0  0.00000000000E+00  0.00000000000E+00  0.45593999997E+02  0.45594000000E+02  0.51100000000E-03 0. -1.
         11   -1    0    0    0    0 -0.00000000000E+00 -0.00000000000E+00 -0.45593999997E+02  0.45594000000E+02  0.51100000000E-03 0.  1.
         23    2    1    2    0    0  0.00000000000E+00  0.00000000000E+00  0.00000000000E+00  0.91188000000E+02  0.91188000000E+02 0.  0.
    9900012    2    3    3    0    0 -0.99526930712E+01 -0.90942960662E+01 -0.41253616840E+02  0.47787271634E+02  0.20000002687E+02 0.  0.
         12    1    3    3    0    0  0.99526930712E+01  0.90942960662E+01  0.41253616840E+02  0.43400728366E+02  0.00000000000E+00 0. -1.
         11    1    4    4    0    0 -0.45201215633E+00 -0.45264386299E+01  0.36796299115E+00  0.45638096678E+01  0.51100000000E-03 0. -1.
        -11    1    4    4    0    0 -0.61317467737E+00  0.99812034542E+00 -0.41185796546E+01  0.42819301771E+01  0.51100000000E-03 0.  1.
         12    1    4    4    0    0 -0.88875062375E+01 -0.55659777817E+01 -0.37503000177E+02  0.38941531789E+02  0.00000000000E+00 0. -1.
</event>
<event>
 8    1  0.6019723E-011  0.9118800E+02  0.7816164E-02  0.1184000E+00
        -11   -1    0    0    0    0  0.00000000000E+00  0.00000000000E+00  0.45593999997E+02  0.45594000000E+02  0.51100000000E-03 0. -1.
         11   -1    0    0    0    0 -0.00000000000E+00 -0.00000000000E+00 -0.45593999997E+02  0.45594000000E+02  0.51100000000E-03 0.  1.
         23    2    1    2    0    0  0.00000000000E+00  0.66613381478E-15  0.00000000000E+00  0.91188000000E+02  0.91188000000E+02 0.  0.
    9900012    2    3    3    0    0  0.20569179349E+02 -0.10324051258E+01  0.38202962596E+02  0.47787270161E+02  0.19999995971E+02 0.  0.
        -12    1    3    3    0    0 -0.20569179349E+02  0.10324051258E+01 -0.38202962596E+02  0.43400729839E+02  0.00000000000E+00 0.  1.
         11    1    4    4    0    0  0.12429197633E+02  0.74124510698E+01  0.13677310739E+02  0.19912262904E+02  0.51100000000E-03 0. -1.
        -11    1    4    4    0    0  0.79575629925E+00 -0.51188976479E+01  0.99826713846E+01  0.11246780404E+02  0.51100000000E-03 0.  1.
         12    1    4    4    0    0  0.73442254175E+01 -0.33259585477E+01  0.14542980473E+02  0.16628226853E+02  0.00000000000E+00 0. -1.
</event>
<event>
 8    1  0.6019723E-011  0.9118800E+02  0.7816164E-02  0.1184000E+00
        -11   -1    0    0    0    0  0.00000000000E+00  0.00000000000E+00  0.45593999997E+02  0.45594000000E+02  0.51100000000E-03 0. -1.
         11   -1    0    0    0    0 -0.00000000000E+00 -0.00000000000E+00 -0.45593999997E+02  0.45594000000E+02  0.51100000000E-03 0.  1.
         23    2    1    2    0    0  0.88817841970E-15  0.00000000000E+00  0.00000000000E+00  0.91188000000E+02  0.91188000000E+02 0.  0.
    9900012    2    3    3    0    0 -0.71276121632E+01 -0.41032682340E+02 -0.12212278122E+02  0.47787267148E+02  0.19999982233E+02 0.  0.
         12    1    3    3    0    0  0.71276121632E+01  0.41032682340E+02  0.12212278122E+02  0.43400732852E+02  0.00000000000E+00 0. -1.
         11    1    4    4    0    0 -0.16295688923E+01 -0.22371099737E+02 -0.12817786629E+01  0.22466965861E+02  0.51100000000E-03 0. -1.
        -11    1    4    4    0    0 -0.90242513317E+01 -0.15544786574E+02 -0.98315095601E+01  0.20487461585E+02  0.51100000000E-03 0.  1.
        -12    1    4    4    0    0  0.35262080608E+01 -0.31167960299E+01 -0.10989898987E+01  0.48328397012E+01  0.00000000000E+00 0.  1.
</event>
<event>
 8    1  0.6019723E-011  0.9118800E+02  0.7816164E-02  0.1184000E+00
        -11   -1    0    0    0    0  0.00000000000E+00  0.00000000000E+00  0.45593999997E+02  0.45594000000E+02  0.51100000000E-03 0. -1.
         11   -1    0    0    0    0 -0.00000000000E+00 -0.00000000000E+00 -0.45593999997E+02  0.45594000000E+02  0.51100000000E-03 0.  1.
         23    2    1    2    0    0  0.66613381478E-15  0.17763568394E-14  0.00000000000E+00  0.91188000000E+02  0.91188000000E+02 0.  0.
    9900012    2    3    3    0    0 -0.10496791183E+01  0.13235569695E+02  0.41319984271E+02  0.47787271532E+02  0.20000002223E+02 0.  0.
        -12    1    3    3    0    0  0.10496791183E+01 -0.13235569695E+02 -0.41319984271E+02  0.43400728468E+02  0.00000000000E+00 0.  1.
         11    1    4    4    0    0 -0.79755787892E+01  0.52805389432E+00  0.95321196657E+01  0.12439855446E+02  0.51100000000E-03 0. -1.
        -11    1    4    4    0    0  0.10377682855E+01 -0.38060430116E+00  0.24122511789E+01  0.26534465624E+01  0.51100000000E-03 0.  1.
         12    1    4    4    0    0  0.58881313854E+01  0.13088120102E+02  0.29375613426E+02  0.32693969523E+02  0.00000000000E+00 0. -1.
</event>
<event>
 8    1  0.6019723E-011  0.9118800E+02  0.7816164E-02  0.1184000E+00
        -11   -1    0    0    0    0  0.00000000000E+00  0.00000000000E+00  0.45593999997E+02  0.45594000000E+02  0.51100000000E-03 0. -1.
         11   -1    0    0    0    0 -0.00000000000E+00 -0.00000000000E+00 -0.45593999997E+02  0.45594000000E+02  0.51100000000E-03 0.  1.
         23    2    1    2    0    0  0.00000000000E+00 -0.11102230246E-15  0.00000000000E+00  0.91188000000E+02  0.91188000000E+02 0.  0.
    9900012    2    3    3    0    0  0.39623778929E+02 -0.51267556809E+00 -0.17700787854E+02  0.47787255957E+02  0.19999931210E+02 0.  0.
         12    1    3    3    0    0 -0.39623778929E+02  0.51267556809E+00  0.17700787854E+02  0.43400744043E+02  0.00000000000E+00 0. -1.
         11    1    4    4    0    0  0.15755914756E+01 -0.52834551346E+01 -0.78748588059E+00  0.55693375666E+01  0.51100000000E-03 0. -1.
        -11    1    4    4    0    0  0.26758181982E+02  0.54989663144E+01 -0.12938339046E+02  0.30226471032E+02  0.51100000000E-03 0.  1.
         12    1    4    4    0    0  0.11290005471E+02 -0.72818674787E+00 -0.39749629270E+01  0.11991447358E+02  0.00000000000E+00 0. -1.
</event>
<event>
 8    1  0.6019723E-011  0.9118800E+02  0.7816164E-02  0.1184000E+00
        -11   -1    0    0    0    0  0.00000000000E+00  0.00000000000E+00  0.45593999997E+02  0.45594000000E+02  0.51100000000E-03 0. -1.
         11   -1    0    0    0    0 -0.00000000000E+00 -0.00000000000E+00 -0.45593999997E+02  0.45594000000E+02  0.51100000000E-03 0.  1.
         23    2    1    2    0    0  0.00000000000E+00  0.00000000000E+00  0.00000000000E+00  0.91188000000E+02  0.91188000000E+02 0.  0.
    9900012    2    3    3    0    0  0.19474519349E+02  0.76039173539E+01 -0.38033495244E+02  0.47787271625E+02  0.20000002647E+02 0.  0.
         12    1    3    3    0    0 -0.19474519349E+02 -0.76039173539E+01  0.38033495244E+02  0.43400728375E+02  0.00000000000E+00 0. -1.
         11    1    4    4    0    0  0.16813054510E+02  0.32483808947E+01 -0.26418414367E+02  0.31482747630E+02  0.51100000000E-03 0.  1.
        -11    1    4    4    0    0  0.20571919226E+01 -0.18890322820E+01  0.32976658521E+00  0.28123349429E+01  0.51100000000E-03 0. -1.
         12    1    4    4    0    0  0.60427291574E+00  0.62445687412E+01 -0.11944847462E+02  0.13492189052E+02  0.00000000000E+00 0. -1.
</event>
<event>
 8    1  0.6019723E-011  0.9118800E+02  0.7816164E-02  0.1184000E+00
        -11   -1    0    0    0    0  0.00000000000E+00  0.00000000000E+00  0.45593999997E+02  0.45594000000E+02  0.51100000000E-03 0.  1.
         11   -1    0    0    0    0 -0.00000000000E+00 -0.00000000000E+00 -0.45593999997E+02  0.45594000000E+02  0.51100000000E-03 0. -1.
         23    2    1    2    0    0  0.00000000000E+00  0.00000000000E+00  0.00000000000E+00  0.91188000000E+02  0.91188000000E+02 0.  0.
    9900012    2    3    3    0    0 -0.13399215805E+02 -0.38343824848E+02  0.15291675620E+02  0.47787271534E+02  0.20000002230E+02 0.  0.
         12    1    3    3    0    0  0.13399215805E+02  0.38343824848E+02 -0.15291675620E+02  0.43400728466E+02  0.00000000000E+00 0. -1.
         11    1    4    4    0    0 -0.67288123637E+01 -0.97368243657E+01  0.10492003912E+02  0.15816599221E+02  0.51100000000E-03 0. -1.
        -11    1    4    4    0    0 -0.83529944009E+01 -0.17001546637E+02 -0.83358618893E+00  0.18961011832E+02  0.51100000000E-03 0.  1.
        -12    1    4    4    0    0  0.16825909596E+01 -0.11605453845E+02  0.56332578973E+01  0.13009660481E+02  0.00000000000E+00 0.  1.
</event>
<event>
 8    1  0.6019723E-011  0.9118800E+02  0.7816164E-02  0.1184000E+00
        -11   -1    0    0    0    0  0.00000000000E+00  0.00000000000E+00  0.45593999997E+02  0.45594000000E+02  0.51100000000E-03 0.  1.
         11   -1    0    0    0    0 -0.00000000000E+00 -0.00000000000E+00 -0.45593999997E+02  0.45594000000E+02  0.51100000000E-03 0. -1.
         23    2    1    2    0    0  0.00000000000E+00 -0.17763568394E-14  0.35527136788E-14  0.91188000000E+02  0.91188000000E+02 0.  0.
    9900012    2    3    3    0    0  0.35519101860E+02  0.15196491370E+02  0.19775826182E+02  0.47787271342E+02  0.20000001356E+02 0.  0.
        -12    1    3    3    0    0 -0.35519101860E+02 -0.15196491370E+02 -0.19775826182E+02  0.43400728658E+02  0.00000000000E+00 0.  1.
         11    1    4    4    0    0  0.63229020063E+01  0.13307345891E+01 -0.32775927293E+01  0.72451748556E+01  0.51100000000E-03 0. -1.
        -11    1    4    4    0    0  0.45042331491E+01  0.46022954128E+01  0.18420548783E+01  0.66979404121E+01  0.51100000000E-03 0.  1.
         12    1    4    4    0    0  0.24691966704E+02  0.92634613681E+01  0.21211364033E+02  0.33844156074E+02  0.00000000000E+00 0. -1.
</event>
<event>
 8    1  0.6019723E-011  0.9118800E+02  0.7816164E-02  0.1184000E+00
        -11   -1    0    0    0    0  0.00000000000E+00  0.00000000000E+00  0.45593999997E+02  0.45594000000E+02  0.51100000000E-03 0.  1.
         11   -1    0    0    0    0 -0.00000000000E+00 -0.00000000000E+00 -0.45593999997E+02  0.45594000000E+02  0.51100000000E-03 0. -1.
         23    2    1    2    0    0  0.00000000000E+00  0.17763568394E-14  0.00000000000E+00  0.91188000000E+02  0.91188000000E+02 0.  0.
    9900012    2    3    3    0    0  0.15533890857E+02 -0.99153925521E+01  0.39293839982E+02  0.47787278403E+02  0.20000033551E+02 0.  0.
        -12    1    3    3    0    0 -0.15533890857E+02  0.99153925521E+01 -0.39293839982E+02  0.43400721597E+02  0.00000000000E+00 0.  1.
         11    1    4    4    0    0  0.33738173416E+01 -0.26349233087E+00  0.23302977678E+02  0.23547416856E+02  0.51100000000E-03 0. -1.
        -11    1    4    4    0    0  0.62071990783E+01 -0.51273425702E+00  0.10040410492E+02  0.11815331563E+02  0.51100000000E-03 0.  1.
         12    1    4    4    0    0  0.59528744366E+01 -0.91391659643E+01  0.59504518114E+01  0.12424529985E+02  0.00000000000E+00 0. -1.
</event>
<event>
 8    1  0.6019723E-011  0.9118800E+02  0.7816164E-02  0.1184000E+00
        -11   -1    0    0    0    0  0.00000000000E+00  0.00000000000E+00  0.45593999997E+02  0.45594000000E+02  0.51100000000E-03 0. -1.
         11   -1    0    0    0    0 -0.00000000000E+00 -0.00000000000E+00 -0.45593999997E+02  0.45594000000E+02  0.51100000000E-03 0.  1.
         23    2    1    2    0    0  0.88817841970E-15 -0.71054273576E-14 -0.17763568394E-14  0.91188000000E+02  0.91188000000E+02 0.  0.
    9900012    2    3    3    0    0  0.53618182165E+01  0.40103938741E+02  0.15701855033E+02  0.47787271336E+02  0.20000001328E+02 0.  0.
        -12    1    3    3    0    0 -0.53618182165E+01 -0.40103938741E+02 -0.15701855033E+02  0.43400728664E+02  0.00000000000E+00 0.  1.
         11    1    4    4    0    0 -0.29353549723E+00  0.20809599326E+02  0.53983206357E+00  0.20818669653E+02  0.51100000000E-03 0. -1.
        -11    1    4    4    0    0  0.23834791475E+01  0.11932406767E+02  0.14435281207E+02  0.18879635798E+02  0.51100000000E-03 0.  1.
         12    1    4    4    0    0  0.32718745663E+01  0.73619326486E+01  0.72674176245E+00  0.80889658850E+01  0.00000000000E+00 0. -1.
</event>
<event>
 8    1  0.6019723E-011  0.9118800E+02  0.7816164E-02  0.1184000E+00
        -11   -1    0    0    0    0  0.00000000000E+00  0.00000000000E+00  0.45593999997E+02  0.45594000000E+02  0.51100000000E-03 0.  1.
         11   -1    0    0    0    0 -0.00000000000E+00 -0.00000000000E+00 -0.45593999997E+02  0.45594000000E+02  0.51100000000E-03 0. -1.
         23    2    1    2    0    0  0.83266726847E-15  0.00000000000E+00  0.00000000000E+00  0.91188000000E+02  0.91188000000E+02 0.  0.
    9900012    2    3    3    0    0  0.32044183910E+00 -0.35354288126E+02  0.25171309328E+02  0.47787272067E+02  0.20000004660E+02 0.  0.
        -12    1    3    3    0    0 -0.32044183910E+00  0.35354288126E+02 -0.25171309328E+02  0.43400727933E+02  0.00000000000E+00 0.  1.
         11    1    4    4    0    0 -0.93206455640E+01 -0.18008937023E+02  0.14080552320E+02  0.24687207220E+02  0.51100000000E-03 0. -1.
        -11    1    4    4    0    0  0.40633752440E+01 -0.56082678495E+01  0.18938595073E+01  0.71798600780E+01  0.51100000000E-03 0.  1.
         12    1    4    4    0    0  0.55777121591E+01 -0.11737083253E+02  0.91968975010E+01  0.15920204768E+02  0.00000000000E+00 0. -1.
</event>
<event>
 8    1  0.6019723E-011  0.9118800E+02  0.7816164E-02  0.1184000E+00
        -11   -1    0    0    0    0  0.00000000000E+00  0.00000000000E+00  0.45593999997E+02  0.45594000000E+02  0.51100000000E-03 0. -1.
         11   -1    0    0    0    0 -0.00000000000E+00 -0.00000000000E+00 -0.45593999997E+02  0.45594000000E+02  0.51100000000E-03 0.  1.
         23    2    1    2    0    0  0.17763568394E-14  0.00000000000E+00  0.71054273576E-14  0.91188000000E+02  0.91188000000E+02 0.  0.
    9900012    2    3    3    0    0  0.11471022787E+02  0.87247020371E+01  0.40937982825E+02  0.47787271582E+02  0.20000002453E+02 0.  0.
        -12    1    3    3    0    0 -0.11471022787E+02 -0.87247020371E+01 -0.40937982825E+02  0.43400728418E+02  0.00000000000E+00 0.  1.
         11    1    4    4    0    0  0.10607545738E+02 -0.14058547569E+01  0.15458851180E+02  0.18800865253E+02  0.51100000000E-03 0.  1.
        -11    1    4    4    0    0 -0.66935760843E+00  0.92647408487E+01  0.10985575340E+02  0.14386324354E+02  0.51100000000E-03 0. -1.
        -12    1    4    4    0    0  0.15328346577E+01  0.86581594525E+00  0.14493556305E+02  0.14600081976E+02  0.00000000000E+00 0.  1.
</event>
<event>
 8    1  0.6019723E-011  0.9118800E+02  0.7816164E-02  0.1184000E+00
        -11   -1    0    0    0    0  0.00000000000E+00  0.00000000000E+00  0.45593999997E+02  0.45594000000E+02  0.51100000000E-03 0. -1.
         11   -1    0    0    0    0 -0.00000000000E+00 -0.00000000000E+00 -0.45593999997E+02  0.45594000000E+02  0.51100000000E-03 0.  1.
         23    2    1    2    0    0  0.00000000000E+00  0.17763568394E-14  0.00000000000E+00  0.91188000000E+02  0.91188000000E+02 0.  0.
    9900012    2    3    3    0    0  0.36714700876E+02 -0.15792986109E+02  0.16918497093E+02  0.47787271728E+02  0.20000003116E+02 0.  0.
        -12    1    3    3    0    0 -0.36714700876E+02  0.15792986109E+02 -0.16918497093E+02  0.43400728272E+02  0.00000000000E+00 0.  1.
         11    1    4    4    0    0  0.23852478333E+02 -0.12230025875E+02  0.40728445341E+01  0.27112770393E+02  0.51100000000E-03 0. -1.
        -11    1    4    4    0    0 -0.61064092260E+00  0.50015277172E+00 -0.76344399066E+00  0.10981266409E+01  0.51100000000E-03 0.  1.
         12    1    4    4    0    0  0.13472863466E+02 -0.40631130063E+01  0.13609096549E+02  0.19576374694E+02  0.00000000000E+00 0. -1.
</event>
<event>
 8    1  0.6019723E-011  0.9118800E+02  0.7816164E-02  0.1184000E+00
        -11   -1    0    0    0    0  0.00000000000E+00  0.00000000000E+00  0.45593999997E+02  0.45594000000E+02  0.51100000000E-03 0. -1.
         11   -1    0    0    0    0 -0.00000000000E+00 -0.00000000000E+00 -0.45593999997E+02  0.45594000000E+02  0.51100000000E-03 0.  1.
         23    2    1    2    0    0  0.00000000000E+00  0.17763568394E-14 -0.71054273576E-14  0.91188000000E+02  0.91188000000E+02 0.  0.
    9900012    2    3    3    0    0  0.94126655978E+01 -0.67294245638E+01  0.41829897002E+02  0.47787265999E+02  0.19999976995E+02 0.  0.
        -12    1    3    3    0    0 -0.94126655978E+01  0.67294245638E+01 -0.41829897002E+02  0.43400734001E+02  0.00000000000E+00 0.  1.
         11    1    4    4    0    0  0.23880569978E+01 -0.54844400812E-01  0.97166231705E+01  0.10005927755E+02  0.51100000000E-03 0. -1.
        -11    1    4    4    0    0 -0.60227982316E+00  0.48418630277E+01  0.34882541980E+01  0.59978576321E+01  0.51100000000E-03 0.  1.
        -12    1    4    4    0    0  0.76268884231E+01 -0.11516443191E+02  0.28625019634E+02  0.31783480612E+02  0.00000000000E+00 0.  1.
</event>
<event>
 8    1  0.6019723E-011  0.9118800E+02  0.7816164E-02  0.1184000E+00
        -11   -1    0    0    0    0  0.00000000000E+00  0.00000000000E+00  0.45593999997E+02  0.45594000000E+02  0.51100000000E-03 0. -1.
         11   -1    0    0    0    0 -0.00000000000E+00 -0.00000000000E+00 -0.45593999997E+02  0.45594000000E+02  0.51100000000E-03 0.  1.
         23    2    1    2    0    0  0.00000000000E+00  0.00000000000E+00  0.00000000000E+00  0.91188000000E+02  0.91188000000E+02 0.  0.
    9900012    2    3    3    0    0 -0.34795298688E+01  0.12431829842E+02  0.41436295923E+02  0.47787261053E+02  0.19999954445E+02 0.  0.
        -12    1    3    3    0    0  0.34795298688E+01 -0.12431829842E+02 -0.41436295923E+02  0.43400738947E+02  0.00000000000E+00 0.  1.
         11    1    4    4    0    0  0.20060607227E+01  0.73522205440E+00  0.13518251290E+02  0.13686049441E+02  0.51100000000E-03 0. -1.
        -11    1    4    4    0    0 -0.59748920204E+01  0.12760662439E+02  0.29165128681E+02  0.32390408639E+02  0.51100000000E-03 0.  1.
        -12    1    4    4    0    0  0.48930142886E+00 -0.10640546516E+01 -0.12470840482E+01  0.17108029732E+01  0.00000000000E+00 0.  1.
</event>
<event>
 8    1  0.6019723E-011  0.9118800E+02  0.7816164E-02  0.1184000E+00
        -11   -1    0    0    0    0  0.00000000000E+00  0.00000000000E+00  0.45593999997E+02  0.45594000000E+02  0.51100000000E-03 0. -1.
         11   -1    0    0    0    0 -0.00000000000E+00 -0.00000000000E+00 -0.45593999997E+02  0.45594000000E+02  0.51100000000E-03 0.  1.
         23    2    1    2    0    0  0.35527136788E-14  0.55511151231E-15 -0.71054273576E-14  0.91188000000E+02  0.91188000000E+02 0.  0.
    9900012    2    3    3    0    0  0.23893103990E+02  0.69923286425E+00 -0.36225045815E+02  0.47787270868E+02  0.19999999196E+02 0.  0.
         12    1    3    3    0    0 -0.23893103990E+02 -0.69923286425E+00  0.36225045815E+02  0.43400729132E+02  0.00000000000E+00 0. -1.
         11    1    4    4    0    0  0.19844840391E+01 -0.12155515860E+01 -0.42010255616E+01  0.48025366829E+01  0.51100000000E-03 0. -1.
        -11    1    4    4    0    0  0.51648077334E+01 -0.72872041392E+01 -0.62495448463E+01  0.10901164806E+02  0.51100000000E-03 0.  1.
        -12    1    4    4    0    0  0.16743812217E+02  0.92019885895E+01 -0.25774475407E+02  0.32083569379E+02  0.00000000000E+00 0.  1.
</event>
<event>
 8    1  0.6019723E-011  0.9118800E+02  0.7816164E-02  0.1184000E+00
        -11   -1    0    0    0    0  0.00000000000E+00  0.00000000000E+00  0.45593999997E+02  0.45594000000E+02  0.51100000000E-03 0. -1.
         11   -1    0    0    0    0 -0.00000000000E+00 -0.00000000000E+00 -0.45593999997E+02  0.45594000000E+02  0.51100000000E-03 0.  1.
         23    2    1    2    0    0  0.00000000000E+00  0.00000000000E+00  0.71054273576E-14  0.91188000000E+02  0.91188000000E+02 0.  0.
    9900012    2    3    3    0    0  0.18405002378E+02  0.12744978159E+02  0.37181265240E+02  0.47787250403E+02  0.19999905885E+02 0.  0.
        -12    1    3    3    0    0 -0.18405002378E+02 -0.12744978159E+02 -0.37181265240E+02  0.43400749597E+02  0.00000000000E+00 0.  1.
         11    1    4    4    0    0  0.21553225403E+01 -0.21237482812E+01  0.53892786140E+01  0.61806185981E+01  0.51100000000E-03 0. -1.
        -11    1    4    4    0    0  0.61068585221E+01  0.15505044859E+02  0.19120897182E+02  0.25363533791E+02  0.51100000000E-03 0.  1.
        -12    1    4    4    0    0  0.10142821316E+02 -0.63631841895E+00  0.12671089444E+02  0.16243098013E+02  0.00000000000E+00 0.  1.
</event>
<event>
 8    1  0.6019723E-011  0.9118800E+02  0.7816164E-02  0.1184000E+00
        -11   -1    0    0    0    0  0.00000000000E+00  0.00000000000E+00  0.45593999997E+02  0.45594000000E+02  0.51100000000E-03 0. -1.
         11   -1    0    0    0    0 -0.00000000000E+00 -0.00000000000E+00 -0.45593999997E+02  0.45594000000E+02  0.51100000000E-03 0.  1.
         23    2    1    2    0    0  0.00000000000E+00  0.00000000000E+00 -0.71054273576E-14  0.91188000000E+02  0.91188000000E+02 0.  0.
    9900012    2    3    3    0    0 -0.28257891239E+01  0.13391895917E+01  0.43287928812E+02  0.47787270815E+02  0.19999998954E+02 0.  0.
        -12    1    3    3    0    0  0.28257891239E+01 -0.13391895917E+01 -0.43287928812E+02  0.43400729185E+02  0.00000000000E+00 0.  1.
         11    1    4    4    0    0 -0.46420487736E+01  0.12120348108E+00  0.28174035294E+02  0.28554151574E+02  0.51100000000E-03 0. -1.
        -11    1    4    4    0    0  0.93358194552E-01 -0.10606581496E+01 -0.17936848162E+01  0.20859091408E+01  0.51100000000E-03 0.  1.
        -12    1    4    4    0    0  0.17229014552E+01  0.22786442602E+01  0.16907578334E+02  0.17147210100E+02  0.00000000000E+00 0.  1.
</event>
<event>
 8    1  0.6019723E-011  0.9118800E+02  0.7816164E-02  0.1184000E+00
        -11   -1    0    0    0    0  0.00000000000E+00  0.00000000000E+00  0.45593999997E+02  0.45594000000E+02  0.51100000000E-03 0. -1.
         11   -1    0    0    0    0 -0.00000000000E+00 -0.00000000000E+00 -0.45593999997E+02  0.45594000000E+02  0.51100000000E-03 0.  1.
         23    2    1    2    0    0  0.00000000000E+00  0.00000000000E+00 -0.35527136788E-14  0.91188000000E+02  0.91188000000E+02 0.  0.
    9900012    2    3    3    0    0  0.16945355181E+02 -0.33676457963E+02  0.21502893421E+02  0.47787270644E+02  0.19999998174E+02 0.  0.
        -12    1    3    3    0    0 -0.16945355181E+02  0.33676457963E+02 -0.21502893421E+02  0.43400729356E+02  0.00000000000E+00 0.  1.
         11    1    4    4    0    0  0.63940850904E+01 -0.30991884261E+02  0.14462031253E+02  0.34792694096E+02  0.51100000000E-03 0. -1.
        -11    1    4    4    0    0  0.88760594601E+01 -0.25081330758E+01  0.61827343498E+01  0.11104114884E+02  0.51100000000E-03 0.  1.
         12    1    4    4    0    0  0.16752106302E+01 -0.17644062635E+00  0.85812781797E+00  0.18904616637E+01  0.00000000000E+00 0. -1.
</event>
<event>
 8    1  0.6019723E-011  0.9118800E+02  0.7816164E-02  0.1184000E+00
        -11   -1    0    0    0    0  0.00000000000E+00  0.00000000000E+00  0.45593999997E+02  0.45594000000E+02  0.51100000000E-03 0.  1.
         11   -1    0    0    0    0 -0.00000000000E+00 -0.00000000000E+00 -0.45593999997E+02  0.45594000000E+02  0.51100000000E-03 0. -1.
         23    2    1    2    0    0  0.00000000000E+00  0.00000000000E+00  0.00000000000E+00  0.91188000000E+02  0.91188000000E+02 0.  0.
    9900012    2    3    3    0    0 -0.18376084806E+02  0.25995167394E+02 -0.29499045657E+02  0.47787275175E+02  0.20000018834E+02 0.  0.
         12    1    3    3    0    0  0.18376084806E+02 -0.25995167394E+02  0.29499045657E+02  0.43400724825E+02  0.00000000000E+00 0. -1.
         11    1    4    4    0    0 -0.37277741018E+01  0.19310482465E+02 -0.11394566495E+02  0.22729434191E+02  0.51100000000E-03 0. -1.
        -11    1    4    4    0    0 -0.54967740182E+01  0.51625620517E+01 -0.51811912321E+01  0.91493887440E+01  0.51100000000E-03 0.  1.
         12    1    4    4    0    0 -0.91515366863E+01  0.15221228777E+01 -0.12923287929E+02  0.15908452240E+02  0.00000000000E+00 0. -1.
</event>
<event>
 8    1  0.6019723E-011  0.9118800E+02  0.7816164E-02  0.1184000E+00
        -11   -1    0    0    0    0  0.00000000000E+00  0.00000000000E+00  0.45593999997E+02  0.45594000000E+02  0.51100000000E-03 0. -1.
         11   -1    0    0    0    0 -0.00000000000E+00 -0.00000000000E+00 -0.45593999997E+02  0.45594000000E+02  0.51100000000E-03 0.  1.
         23    2    1    2    0    0  0.00000000000E+00  0.00000000000E+00  0.00000000000E+00  0.91188000000E+02  0.91188000000E+02 0.  0.
    9900012    2    3    3    0    0 -0.64658554570E+01  0.37914495410E+02  0.20107396767E+02  0.47787266669E+02  0.19999980048E+02 0.  0.
        -12    1    3    3    0    0  0.64658554570E+01 -0.37914495410E+02 -0.20107396767E+02  0.43400733331E+02  0.00000000000E+00 0.  1.
         11    1    4    4    0    0 -0.83085350803E+01  0.85736042327E+01  0.10604215934E+02  0.15968338691E+02  0.51100000000E-03 0. -1.
        -11    1    4    4    0    0  0.41777076662E+01  0.95023767539E+01  0.28444471378E+01  0.10762866026E+02  0.51100000000E-03 0.  1.
         12    1    4    4    0    0 -0.23350280429E+01  0.19838514423E+02  0.66587336959E+01  0.21056061951E+02  0.00000000000E+00 0. -1.
</event>
<event>
 8    1  0.6019723E-011  0.9118800E+02  0.7816164E-02  0.1184000E+00
        -11   -1    0    0    0    0  0.00000000000E+00  0.00000000000E+00  0.45593999997E+02  0.45594000000E+02  0.51100000000E-03 0. -1.
         11   -1    0    0    0    0 -0.00000000000E+00 -0.00000000000E+00 -0.45593999997E+02  0.45594000000E+02  0.51100000000E-03 0.  1.
         23    2    1    2    0    0 -0.35527136788E-14  0.00000000000E+00  0.00000000000E+00  0.91188000000E+02  0.91188000000E+02 0.  0.
    9900012    2    3    3    0    0  0.22616031959E+02 -0.13054545279E+02 -0.34665725627E+02  0.47787325037E+02  0.20000246171E+02 0.  0.
         12    1    3    3    0    0 -0.22616031959E+02  0.13054545279E+02  0.34665725627E+02  0.43400674963E+02  0.00000000000E+00 0. -1.
         11    1    4    4    0    0  0.14671094758E+02 -0.71657070375E+01 -0.69188933487E+01  0.17733004939E+02  0.51100000000E-03 0. -1.
        -11    1    4    4    0    0  0.73702453384E+01 -0.59731319981E+01 -0.18512313158E+02  0.20801551887E+02  0.51100000000E-03 0.  1.
         12    1    4    4    0    0  0.57469186354E+00  0.84293756498E-01 -0.92345191201E+01  0.92527682104E+01  0.00000000000E+00 0. -1.
</event>
<event>
 8    1  0.6019723E-011  0.9118800E+02  0.7816164E-02  0.1184000E+00
        -11   -1    0    0    0    0  0.00000000000E+00  0.00000000000E+00  0.45593999997E+02  0.45594000000E+02  0.51100000000E-03 0. -1.
         11   -1    0    0    0    0 -0.00000000000E+00 -0.00000000000E+00 -0.45593999997E+02  0.45594000000E+02  0.51100000000E-03 0.  1.
         23    2    1    2    0    0  0.00000000000E+00  0.00000000000E+00  0.35527136788E-14  0.91188000000E+02  0.91188000000E+02 0.  0.
    9900012    2    3    3    0    0 -0.28915865994E+02 -0.12811141449E+02 -0.29721550448E+02  0.47787271752E+02  0.20000003227E+02 0.  0.
         12    1    3    3    0    0  0.28915865994E+02  0.12811141449E+02  0.29721550448E+02  0.43400728248E+02  0.00000000000E+00 0. -1.
         11    1    4    4    0    0 -0.13331877752E+01 -0.16944181014E+01 -0.79240190620E+01  0.82120959993E+01  0.51100000000E-03 0. -1.
        -11    1    4    4    0    0 -0.20028326422E+02 -0.20028756358E+01 -0.87206824985E+01  0.21936172719E+02  0.51100000000E-03 0.  1.
        -12    1    4    4    0    0 -0.75543517972E+01 -0.91138477116E+01 -0.13076848887E+02  0.17639003033E+02  0.00000000000E+00 0.  1.
</event>
<event>
 8    1  0.6019723E-011  0.9118800E+02  0.7816164E-02  0.1184000E+00
        -11   -1    0    0    0    0  0.00000000000E+00  0.00000000000E+00  0.45593999997E+02  0.45594000000E+02  0.51100000000E-03 0.  1.
         11   -1    0    0    0    0 -0.00000000000E+00 -0.00000000000E+00 -0.45593999997E+02  0.45594000000E+02  0.51100000000E-03 0. -1.
         23    2    1    2    0    0  0.00000000000E+00  0.71054273576E-14 -0.44408920985E-15  0.91188000000E+02  0.91188000000E+02 0.  0.
    9900012    2    3    3    0    0 -0.17215220854E+02  0.39805600811E+02 -0.16654224589E+01  0.47787270548E+02  0.19999997737E+02 0.  0.
        -12    1    3    3    0    0  0.17215220854E+02 -0.39805600811E+02  0.16654224589E+01  0.43400729452E+02  0.00000000000E+00 0.  1.
         11    1    4    4    0    0 -0.13673937205E+00  0.13249732167E+01 -0.51109915532E+01  0.52817124683E+01  0.51100000000E-03 0. -1.
        -11    1    4    4    0    0 -0.13457835128E+02  0.25369720094E+02  0.14138492849E+01  0.28752999740E+02  0.51100000000E-03 0.  1.
         12    1    4    4    0    0 -0.36206463539E+01  0.13110907501E+02  0.20317198093E+01  0.13752558340E+02  0.00000000000E+00 0. -1.
</event>
<event>
 8    1  0.6019723E-011  0.9118800E+02  0.7816164E-02  0.1184000E+00
        -11   -1    0    0    0    0  0.00000000000E+00  0.00000000000E+00  0.45593999997E+02  0.45594000000E+02  0.51100000000E-03 0. -1.
         11   -1    0    0    0    0 -0.00000000000E+00 -0.00000000000E+00 -0.45593999997E+02  0.45594000000E+02  0.51100000000E-03 0.  1.
         23    2    1    2    0    0  0.00000000000E+00  0.00000000000E+00  0.35527136788E-14  0.91188000000E+02  0.91188000000E+02 0.  0.
    9900012    2    3    3    0    0  0.37108761199E+02 -0.12086134856E+02 -0.18986528200E+02  0.47787273433E+02  0.20000010891E+02 0.  0.
         12    1    3    3    0    0 -0.37108761199E+02  0.12086134856E+02  0.18986528200E+02  0.43400726567E+02  0.00000000000E+00 0. -1.
         11    1    4    4    0    0  0.78395680873E+01 -0.44300077171E+01 -0.47443163287E+00  0.90171437720E+01  0.51100000000E-03 0. -1.
        -11    1    4    4    0    0  0.84986799923E+01  0.31440092950E+01 -0.22623920312E+00  0.90644106536E+01  0.51100000000E-03 0.  1.
        -12    1    4    4    0    0  0.20770513119E+02 -0.10800136434E+02 -0.18285857364E+02  0.29705719007E+02  0.00000000000E+00 0.  1.
</event>
<event>
 8    1  0.6019723E-011  0.9118800E+02  0.7816164E-02  0.1184000E+00
        -11   -1    0    0    0    0  0.00000000000E+00  0.00000000000E+00  0.45593999997E+02  0.45594000000E+02  0.51100000000E-03 0. -1.
         11   -1    0    0    0    0 -0.00000000000E+00 -0.00000000000E+00 -0.45593999997E+02  0.45594000000E+02  0.51100000000E-03 0.  1.
         23    2    1    2    0    0  0.55511151231E-15  0.00000000000E+00  0.71054273576E-14  0.91188000000E+02  0.91188000000E+02 0.  0.
    9900012    2    3    3    0    0  0.36573733888E+00  0.21017589268E+02 -0.37970386901E+02  0.47787273003E+02  0.20000008930E+02 0.  0.
         12    1    3    3    0    0 -0.36573733888E+00 -0.21017589268E+02  0.37970386901E+02  0.43400726997E+02  0.00000000000E+00 0. -1.
         11    1    4    4    0    0 -0.77569023343E+01  0.32975486894E+01 -0.13687654084E+02  0.16074676848E+02  0.51100000000E-03 0. -1.
        -11    1    4    4    0    0  0.59407166094E+01  0.16737649792E+02 -0.22785939431E+02  0.28890137943E+02  0.51100000000E-03 0.  1.
        -12    1    4    4    0    0  0.21819230638E+01  0.98239078690E+00 -0.14967933866E+01  0.28224582117E+01  0.00000000000E+00 0.  1.
</event>
<event>
 8    1  0.6019723E-011  0.9118800E+02  0.7816164E-02  0.1184000E+00
        -11   -1    0    0    0    0  0.00000000000E+00  0.00000000000E+00  0.45593999997E+02  0.45594000000E+02  0.51100000000E-03 0. -1.
         11   -1    0    0    0    0 -0.00000000000E+00 -0.00000000000E+00 -0.45593999997E+02  0.45594000000E+02  0.51100000000E-03 0.  1.
         23    2    1    2    0    0  0.00000000000E+00 -0.35527136788E-14  0.00000000000E+00  0.91188000000E+02  0.91188000000E+02 0.  0.
    9900012    2    3    3    0    0 -0.27220854168E+02 -0.21756522920E+02  0.25870871892E+02  0.47787271853E+02  0.20000003687E+02 0.  0.
        -12    1    3    3    0    0  0.27220854168E+02  0.21756522920E+02 -0.25870871892E+02  0.43400728147E+02  0.00000000000E+00 0.  1.
         11    1    4    4    0    0 -0.30818115039E+01 -0.11888822149E+01  0.99220668870E+01  0.10457457370E+02  0.51100000000E-03 0. -1.
        -11    1    4    4    0    0 -0.22086102040E+02 -0.13562529462E+02  0.15061263656E+02  0.29976320186E+02  0.51100000000E-03 0.  1.
        -12    1    4    4    0    0 -0.20529406244E+01 -0.70051112432E+01  0.88754134981E+00  0.73534942976E+01  0.00000000000E+00 0.  1.
</event>
<event>
 8    1  0.6019723E-011  0.9118800E+02  0.7816164E-02  0.1184000E+00
        -11   -1    0    0    0    0  0.00000000000E+00  0.00000000000E+00  0.45593999997E+02  0.45594000000E+02  0.51100000000E-03 0.  1.
         11   -1    0    0    0    0 -0.00000000000E+00 -0.00000000000E+00 -0.45593999997E+02  0.45594000000E+02  0.51100000000E-03 0. -1.
         23    2    1    2    0    0  0.35527136788E-14 -0.17763568394E-14  0.35527136788E-14  0.91188000000E+02  0.91188000000E+02 0.  0.
    9900012    2    3    3    0    0  0.30279469779E+02  0.15502017074E+02  0.26953035196E+02  0.47787251968E+02  0.19999913022E+02 0.  0.
        -12    1    3    3    0    0 -0.30279469779E+02 -0.15502017074E+02 -0.26953035196E+02  0.43400748032E+02  0.00000000000E+00 0.  1.
         11    1    4    4    0    0  0.52592624823E+01  0.56682281085E+00 -0.80139103198E-01  0.52903263126E+01  0.51100000000E-03 0. -1.
        -11    1    4    4    0    0  0.20176269705E+02  0.37649714096E+01  0.18473154609E+02  0.27613661662E+02  0.51100000000E-03 0.  1.
        -12    1    4    4    0    0  0.48439375921E+01  0.11170222854E+02  0.85600196902E+01  0.14883263993E+02  0.00000000000E+00 0.  1.
</event>
<event>
 8    1  0.6019723E-011  0.9118800E+02  0.7816164E-02  0.1184000E+00
        -11   -1    0    0    0    0  0.00000000000E+00  0.00000000000E+00  0.45593999997E+02  0.45594000000E+02  0.51100000000E-03 0. -1.
         11   -1    0    0    0    0 -0.00000000000E+00 -0.00000000000E+00 -0.45593999997E+02  0.45594000000E+02  0.51100000000E-03 0.  1.
         23    2    1    2    0    0  0.00000000000E+00  0.35527136788E-14 -0.10658141036E-13  0.91188000000E+02  0.91188000000E+02 0.  0.
    9900012    2    3    3    0    0 -0.17095861468E+02 -0.27194197546E+02  0.29186136937E+02  0.47787269029E+02  0.19999990810E+02 0.  0.
        -12    1    3    3    0    0  0.17095861468E+02  0.27194197546E+02 -0.29186136937E+02  0.43400730971E+02  0.00000000000E+00 0.  1.
         11    1    4    4    0    0  0.80705416966E+00 -0.10766592449E+01 -0.13927744556E+01  0.19365826881E+01  0.51100000000E-03 0. -1.
        -11    1    4    4    0    0 -0.12523220201E+02 -0.12814487770E+02  0.24289739787E+02  0.30183333153E+02  0.51100000000E-03 0.  1.
         12    1    4    4    0    0 -0.53796954360E+01 -0.13303050532E+02  0.62891716058E+01  0.15667353188E+02  0.00000000000E+00 0. -1.
</event>
<event>
 8    1  0.6019723E-011  0.9118800E+02  0.7816164E-02  0.1184000E+00
        -11   -1    0    0    0    0  0.00000000000E+00  0.00000000000E+00  0.45593999997E+02  0.45594000000E+02  0.51100000000E-03 0. -1.
         11   -1    0    0    0    0 -0.00000000000E+00 -0.00000000000E+00 -0.45593999997E+02  0.45594000000E+02  0.51100000000E-03 0.  1.
         23    2    1    2    0    0  0.00000000000E+00  0.17763568394E-14  0.00000000000E+00  0.91188000000E+02  0.91188000000E+02 0.  0.
    9900012    2    3    3    0    0 -0.14329532723E+02 -0.12628718998E+02 -0.38971825680E+02  0.47787271338E+02  0.20000001337E+02 0.  0.
         12    1    3    3    0    0  0.14329532723E+02  0.12628718998E+02  0.38971825680E+02  0.43400728662E+02  0.00000000000E+00 0. -1.
         11    1    4    4    0    0 -0.24200032525E+01  0.29667270336E+00 -0.13366294568E+02  0.13586841472E+02  0.51100000000E-03 0. -1.
        -11    1    4    4    0    0 -0.86214164562E+01 -0.60750774566E+00 -0.50437562187E+01  0.10006865864E+02  0.51100000000E-03 0.  1.
        -12    1    4    4    0    0 -0.32881130140E+01 -0.12317883956E+02 -0.20561774894E+02  0.24193564002E+02  0.00000000000E+00 0.  1.
</event>
<event>
 8    1  0.6019723E-011  0.9118800E+02  0.7816164E-02  0.1184000E+00
        -11   -1    0    0    0    0  0.00000000000E+00  0.00000000000E+00  0.45593999997E+02  0.45594000000E+02  0.51100000000E-03 0. -1.
         11   -1    0    0    0    0 -0.00000000000E+00 -0.00000000000E+00 -0.45593999997E+02  0.45594000000E+02  0.51100000000E-03 0.  1.
         23    2    1    2    0    0 -0.22204460493E-14  0.00000000000E+00  0.00000000000E+00  0.91188000000E+02  0.91188000000E+02 0.  0.
    9900012    2    3    3    0    0  0.39213850003E+01  0.12103390971E+02 -0.41494020129E+02  0.47787273741E+02  0.20000012295E+02 0.  0.
         12    1    3    3    0    0 -0.39213850003E+01 -0.12103390971E+02  0.41494020129E+02  0.43400726259E+02  0.00000000000E+00 0. -1.
         11    1    4    4    0    0  0.56463363140E+01  0.24085337824E+01 -0.94469322074E+01  0.11266174024E+02  0.51100000000E-03 0.  1.
        -11    1    4    4    0    0 -0.47580807163E+01  0.63419731313E+01 -0.56401730749E+01  0.97299284620E+01  0.51100000000E-03 0. -1.
        -12    1    4    4    0    0  0.30331294026E+01  0.33528840571E+01 -0.26406914847E+02  0.26791171255E+02  0.00000000000E+00 0.  1.
</event>
<event>
 8    1  0.6019723E-011  0.9118800E+02  0.7816164E-02  0.1184000E+00
        -11   -1    0    0    0    0  0.00000000000E+00  0.00000000000E+00  0.45593999997E+02  0.45594000000E+02  0.51100000000E-03 0. -1.
         11   -1    0    0    0    0 -0.00000000000E+00 -0.00000000000E+00 -0.45593999997E+02  0.45594000000E+02  0.51100000000E-03 0.  1.
         23    2    1    2    0    0 -0.35527136788E-14 -0.44408920985E-15  0.00000000000E+00  0.91188000000E+02  0.91188000000E+02 0.  0.
    9900012    2    3    3    0    0  0.17817876615E+02  0.31028868055E+01  0.39452739629E+02  0.47787270769E+02  0.19999998742E+02 0.  0.
        -12    1    3    3    0    0 -0.17817876615E+02 -0.31028868055E+01 -0.39452739629E+02  0.43400729231E+02  0.00000000000E+00 0.  1.
         11    1    4    4    0    0  0.12755131738E+02 -0.37261668859E+01  0.29323824931E+02  0.32194167393E+02  0.51100000000E-03 0. -1.
        -11    1    4    4    0    0  0.46216505063E+01  0.31145634107E+01  0.91360002479E+00  0.56475502572E+01  0.51100000000E-03 0.  1.
         12    1    4    4    0    0  0.44109436997E+00  0.37144902807E+01  0.92153146735E+01  0.99455531179E+01  0.00000000000E+00 0. -1.
</event>
<event>
 8    1  0.6019723E-011  0.9118800E+02  0.7816164E-02  0.1184000E+00
        -11   -1    0    0    0    0  0.00000000000E+00  0.00000000000E+00  0.45593999997E+02  0.45594000000E+02  0.51100000000E-03 0.  1.
         11   -1    0    0    0    0 -0.00000000000E+00 -0.00000000000E+00 -0.45593999997E+02  0.45594000000E+02  0.51100000000E-03 0. -1.
         23    2    1    2    0    0  0.00000000000E+00  0.17763568394E-14  0.35527136788E-14  0.91188000000E+02  0.91188000000E+02 0.  0.
    9900012    2    3    3    0    0  0.38586582056E+02 -0.10897821094E+02 -0.16611335077E+02  0.47787271061E+02  0.20000000077E+02 0.  0.
        -12    1    3    3    0    0 -0.38586582056E+02  0.10897821094E+02  0.16611335077E+02  0.43400728939E+02  0.00000000000E+00 0.  1.
         11    1    4    4    0    0  0.26837655274E+02 -0.11112101054E+02 -0.17273909799E+02  0.33795361966E+02  0.51100000000E-03 0. -1.
        -11    1    4    4    0    0  0.12476154909E+02 -0.12808464244E+00  0.17928559213E+01  0.12604966465E+02  0.51100000000E-03 0.  1.
        -12    1    4    4    0    0 -0.72722812605E+00  0.34236460229E+00 -0.11302811998E+01  0.13869426300E+01  0.00000000000E+00 0.  1.
</event>
<event>
 8    1  0.6019723E-011  0.9118800E+02  0.7816164E-02  0.1184000E+00
        -11   -1    0    0    0    0  0.00000000000E+00  0.00000000000E+00  0.45593999997E+02  0.45594000000E+02  0.51100000000E-03 0.  1.
         11   -1    0    0    0    0 -0.00000000000E+00 -0.00000000000E+00 -0.45593999997E+02  0.45594000000E+02  0.51100000000E-03 0. -1.
         23    2    1    2    0    0 -0.71054273576E-14  0.17763568394E-14  0.00000000000E+00  0.91188000000E+02  0.91188000000E+02 0.  0.
    9900012    2    3    3    0    0  0.39691064596E+02 -0.60449613156E+01  0.16483360969E+02  0.47787270111E+02  0.19999995744E+02 0.  0.
        -12    1    3    3    0    0 -0.39691064596E+02  0.60449613156E+01 -0.16483360969E+02  0.43400729889E+02  0.00000000000E+00 0.  1.
         11    1    4    4    0    0  0.17790871019E+02 -0.80101206042E+01  0.15279304079E+00  0.19511547086E+02  0.51100000000E-03 0. -1.
        -11    1    4    4    0    0  0.16486950053E+02  0.33969808941E+01  0.91159207154E+01  0.19143119181E+02  0.51100000000E-03 0.  1.
        -12    1    4    4    0    0  0.54132435242E+01 -0.14318216055E+01  0.72146472132E+01  0.91326038441E+01  0.00000000000E+00 0.  1.
</event>
<event>
 8    1  0.6019723E-011  0.9118800E+02  0.7816164E-02  0.1184000E+00
        -11   -1    0    0    0    0  0.00000000000E+00  0.00000000000E+00  0.45593999997E+02  0.45594000000E+02  0.51100000000E-03 0. -1.
         11   -1    0    0    0    0 -0.00000000000E+00 -0.00000000000E+00 -0.45593999997E+02  0.45594000000E+02  0.51100000000E-03 0.  1.
         23    2    1    2    0    0 -0.35527136788E-14 -0.35527136788E-14  0.35527136788E-14  0.91188000000E+02  0.91188000000E+02 0.  0.
    9900012    2    3    3    0    0  0.18566986034E+02  0.25104755561E+02 -0.30143680259E+02  0.47787272107E+02  0.20000004843E+02 0.  0.
         12    1    3    3    0    0 -0.18566986034E+02 -0.25104755561E+02  0.30143680259E+02  0.43400727893E+02  0.00000000000E+00 0. -1.
         11    1    4    4    0    0 -0.57710093972E+00  0.12756531960E+02 -0.15028774435E+02  0.19721212296E+02  0.51100000000E-03 0. -1.
        -11    1    4    4    0    0  0.36670221492E+01  0.55760618490E+01 -0.53470619146E+01  0.85516424484E+01  0.51100000000E-03 0.  1.
         12    1    4    4    0    0  0.15477064824E+02  0.67721617517E+01 -0.97678439090E+01  0.19514417362E+02  0.00000000000E+00 0. -1.
</event>
<event>
 8    1  0.6019723E-011  0.9118800E+02  0.7816164E-02  0.1184000E+00
        -11   -1    0    0    0    0  0.00000000000E+00  0.00000000000E+00  0.45593999997E+02  0.45594000000E+02  0.51100000000E-03 0. -1.
         11   -1    0    0    0    0 -0.00000000000E+00 -0.00000000000E+00 -0.45593999997E+02  0.45594000000E+02  0.51100000000E-03 0.  1.
         23    2    1    2    0    0  0.00000000000E+00 -0.35527136788E-14  0.00000000000E+00  0.91188000000E+02  0.91188000000E+02 0.  0.
    9900012    2    3    3    0    0 -0.47164689033E+01  0.19401553278E+02 -0.38535131238E+02  0.47787289314E+02  0.20000083299E+02 0.  0.
         12    1    3    3    0    0  0.47164689033E+01 -0.19401553278E+02  0.38535131238E+02  0.43400710686E+02  0.00000000000E+00 0. -1.
         11    1    4    4    0    0  0.54363896845E+01  0.87526228081E+01 -0.10418353776E+02  0.14652809781E+02  0.51100000000E-03 0. -1.
        -11    1    4    4    0    0 -0.64626581277E+01  0.53473835885E+01 -0.24123857525E+02  0.25540574846E+02  0.51100000000E-03 0.  1.
        -12    1    4    4    0    0 -0.36902004601E+01  0.53015468809E+01 -0.39929199367E+01  0.75939046865E+01  0.00000000000E+00 0.  1.
</event>
<event>
 8    1  0.6019723E-011  0.9118800E+02  0.7816164E-02  0.1184000E+00
        -11   -1    0    0    0    0  0.00000000000E+00  0.00000000000E+00  0.45593999997E+02  0.45594000000E+02  0.51100000000E-03 0. -1.
         11   -1    0    0    0    0 -0.00000000000E+00 -0.00000000000E+00 -0.45593999997E+02  0.45594000000E+02  0.51100000000E-03 0.  1.
         23    2    1    2    0    0  0.55511151231E-15 -0.17763568394E-14  0.00000000000E+00  0.91188000000E+02  0.91188000000E+02 0.  0.
    9900012    2    3    3    0    0 -0.62880380274E+00 -0.12510772048E+02  0.41553682354E+02  0.47787270414E+02  0.19999997126E+02 0.  0.
        -12    1    3    3    0    0  0.62880380274E+00  0.12510772048E+02 -0.41553682354E+02  0.43400729586E+02  0.00000000000E+00 0.  1.
         11    1    4    4    0    0  0.22842528939E+01 -0.90165977411E+00  0.25349177491E+02  0.25467854274E+02  0.51100000000E-03 0. -1.
        -11    1    4    4    0    0 -0.61491297821E+01 -0.55116551392E+01  0.70760250981E+01  0.10874753832E+02  0.51100000000E-03 0.  1.
         12    1    4    4    0    0  0.32360730854E+01 -0.60974571348E+01  0.91284797649E+01  0.11444662308E+02  0.00000000000E+00 0. -1.
</event>
<event>
 8    1  0.6019723E-011  0.9118800E+02  0.7816164E-02  0.1184000E+00
        -11   -1    0    0    0    0  0.00000000000E+00  0.00000000000E+00  0.45593999997E+02  0.45594000000E+02  0.51100000000E-03 0. -1.
         11   -1    0    0    0    0 -0.00000000000E+00 -0.00000000000E+00 -0.45593999997E+02  0.45594000000E+02  0.51100000000E-03 0.  1.
         23    2    1    2    0    0  0.00000000000E+00 -0.44408920985E-15  0.00000000000E+00  0.91188000000E+02  0.91188000000E+02 0.  0.
    9900012    2    3    3    0    0  0.28976312621E+02  0.27695463384E+01 -0.32192018662E+02  0.47787272523E+02  0.20000006739E+02 0.  0.
         12    1    3    3    0    0 -0.28976312621E+02 -0.27695463384E+01  0.32192018662E+02  0.43400727477E+02  0.00000000000E+00 0. -1.
         11    1    4    4    0    0  0.20265900070E+02  0.56177225038E+01 -0.18056043482E+02  0.27717976446E+02  0.51100000000E-03 0.  1.
        -11    1    4    4    0    0 -0.21881882298E+01 -0.21166673656E+01 -0.48806735718E+01  0.57523406750E+01  0.51100000000E-03 0. -1.
         12    1    4    4    0    0  0.10898600781E+02 -0.73150879982E+00 -0.92553016079E+01  0.14316955401E+02  0.00000000000E+00 0. -1.
</event>
<event>
 8    1  0.6019723E-011  0.9118800E+02  0.7816164E-02  0.1184000E+00
        -11   -1    0    0    0    0  0.00000000000E+00  0.00000000000E+00  0.45593999997E+02  0.45594000000E+02  0.51100000000E-03 0. -1.
         11   -1    0    0    0    0 -0.00000000000E+00 -0.00000000000E+00 -0.45593999997E+02  0.45594000000E+02  0.51100000000E-03 0.  1.
         23    2    1    2    0    0 -0.35527136788E-14  0.00000000000E+00  0.00000000000E+00  0.91188000000E+02  0.91188000000E+02 0.  0.
    9900012    2    3    3    0    0 -0.18744453644E+02  0.33805699191E+02  0.19734337147E+02  0.47787263798E+02  0.19999966960E+02 0.  0.
        -12    1    3    3    0    0  0.18744453644E+02 -0.33805699191E+02 -0.19734337147E+02  0.43400736202E+02  0.00000000000E+00 0.  1.
         11    1    4    4    0    0 -0.62786336416E+01  0.35657822586E+01  0.13638032170E+01  0.73481972617E+01  0.51100000000E-03 0. -1.
        -11    1    4    4    0    0 -0.47659141226E+01  0.27177247491E+02  0.15627737828E+02  0.31710296569E+02  0.51100000000E-03 0.  1.
        -12    1    4    4    0    0 -0.76999058803E+01  0.30626694414E+01  0.27427961023E+01  0.87287699667E+01  0.00000000000E+00 0.  1.
</event>
<event>
 8    1  0.6019723E-011  0.9118800E+02  0.7816164E-02  0.1184000E+00
        -11   -1    0    0    0    0  0.00000000000E+00  0.00000000000E+00  0.45593999997E+02  0.45594000000E+02  0.51100000000E-03 0. -1.
         11   -1    0    0    0    0 -0.00000000000E+00 -0.00000000000E+00 -0.45593999997E+02  0.45594000000E+02  0.51100000000E-03 0.  1.
         23    2    1    2    0    0  0.00000000000E+00  0.00000000000E+00  0.00000000000E+00  0.91188000000E+02  0.91188000000E+02 0.  0.
    9900012    2    3    3    0    0  0.34918014075E+01 -0.62611869170E+01 -0.42804535202E+02  0.47787269908E+02  0.19999994818E+02 0.  0.
         12    1    3    3    0    0 -0.34918014075E+01  0.62611869170E+01  0.42804535202E+02  0.43400730092E+02  0.00000000000E+00 0. -1.
         11    1    4    4    0    0 -0.28395635883E+01 -0.33526204095E+01 -0.22610702536E+01  0.49412168476E+01  0.51100000000E-03 0. -1.
        -11    1    4    4    0    0  0.26293296371E+01  0.10537957920E+01 -0.34917337402E+02  0.35032046920E+02  0.51100000000E-03 0.  1.
        -12    1    4    4    0    0  0.37020353586E+01 -0.39623622994E+01 -0.56261275465E+01  0.78140061401E+01  0.00000000000E+00 0.  1.
</event>
<event>
 8    1  0.6019723E-011  0.9118800E+02  0.7816164E-02  0.1184000E+00
        -11   -1    0    0    0    0  0.00000000000E+00  0.00000000000E+00  0.45593999997E+02  0.45594000000E+02  0.51100000000E-03 0. -1.
         11   -1    0    0    0    0 -0.00000000000E+00 -0.00000000000E+00 -0.45593999997E+02  0.45594000000E+02  0.51100000000E-03 0.  1.
         23    2    1    2    0    0  0.00000000000E+00  0.00000000000E+00  0.35527136788E-14  0.91188000000E+02  0.91188000000E+02 0.  0.
    9900012    2    3    3    0    0 -0.24814369382E+02  0.21227232663E+02 -0.28588029493E+02  0.47787265390E+02  0.19999974220E+02 0.  0.
         12    1    3    3    0    0  0.24814369382E+02 -0.21227232663E+02  0.28588029493E+02  0.43400734610E+02  0.00000000000E+00 0. -1.
         11    1    4    4    0    0 -0.24198718106E+01  0.64922539896E+01 -0.61264466614E+01  0.92487020928E+01  0.51100000000E-03 0. -1.
        -11    1    4    4    0    0 -0.16765286761E+02  0.13805140866E+01 -0.11867836292E+02  0.20587039559E+02  0.51100000000E-03 0.  1.
        -12    1    4    4    0    0 -0.56292108109E+01  0.13354464587E+02 -0.10593746540E+02  0.17951523738E+02  0.00000000000E+00 0.  1.
</event>
<event>
 8    1  0.6019723E-011  0.9118800E+02  0.7816164E-02  0.1184000E+00
        -11   -1    0    0    0    0  0.00000000000E+00  0.00000000000E+00  0.45593999997E+02  0.45594000000E+02  0.51100000000E-03 0. -1.
         11   -1    0    0    0    0 -0.00000000000E+00 -0.00000000000E+00 -0.45593999997E+02  0.45594000000E+02  0.51100000000E-03 0.  1.
         23    2    1    2    0    0  0.00000000000E+00  0.00000000000E+00 -0.71054273576E-14  0.91188000000E+02  0.91188000000E+02 0.  0.
    9900012    2    3    3    0    0 -0.24433188672E+02  0.44020067220E+01  0.35598662938E+02  0.47787272185E+02  0.20000005202E+02 0.  0.
        -12    1    3    3    0    0  0.24433188672E+02 -0.44020067220E+01 -0.35598662938E+02  0.43400727815E+02  0.00000000000E+00 0.  1.
         11    1    4    4    0    0  0.66638409892E+00 -0.14105169177E+01 -0.65854637419E+00  0.16933131224E+01  0.51100000000E-03 0. -1.
        -11    1    4    4    0    0 -0.58681038901E+01 -0.37703073815E+01  0.88961785972E+01  0.11304505956E+02  0.51100000000E-03 0.  1.
         12    1    4    4    0    0 -0.19231468881E+02  0.95828310212E+01  0.27361030715E+02  0.34789453107E+02  0.00000000000E+00 0. -1.
</event>
<event>
 8    1  0.6019723E-011  0.9118800E+02  0.7816164E-02  0.1184000E+00
        -11   -1    0    0    0    0  0.00000000000E+00  0.00000000000E+00  0.45593999997E+02  0.45594000000E+02  0.51100000000E-03 0. -1.
         11   -1    0    0    0    0 -0.00000000000E+00 -0.00000000000E+00 -0.45593999997E+02  0.45594000000E+02  0.51100000000E-03 0.  1.
         23    2    1    2    0    0 -0.35527136788E-14  0.00000000000E+00  0.00000000000E+00  0.91188000000E+02  0.91188000000E+02 0.  0.
    9900012    2    3    3    0    0 -0.29476480286E+02 -0.55308867706E+01  0.31371481591E+02  0.47787268949E+02  0.19999990447E+02 0.  0.
        -12    1    3    3    0    0  0.29476480286E+02  0.55308867706E+01 -0.31371481591E+02  0.43400731051E+02  0.00000000000E+00 0.  1.
         11    1    4    4    0    0 -0.25914616981E+01  0.57476002120E+01  0.36490817587E+01  0.72846674511E+01  0.51100000000E-03 0.  1.
        -11    1    4    4    0    0 -0.23227935840E+02 -0.91958677389E+01  0.25672222706E+02  0.35821278673E+02  0.51100000000E-03 0. -1.
         12    1    4    4    0    0 -0.36570827484E+01 -0.20826192437E+01  0.20501771261E+01  0.46813228249E+01  0.00000000000E+00 0. -1.
</event>
<event>
 8    1  0.6019723E-011  0.9118800E+02  0.7816164E-02  0.1184000E+00
        -11   -1    0    0    0    0  0.00000000000E+00  0.00000000000E+00  0.45593999997E+02  0.45594000000E+02  0.51100000000E-03 0. -1.
         11   -1    0    0    0    0 -0.00000000000E+00 -0.00000000000E+00 -0.45593999997E+02  0.45594000000E+02  0.51100000000E-03 0.  1.
         23    2    1    2    0    0  0.26645352591E-14  0.35527136788E-14 -0.14210854715E-13  0.91188000000E+02  0.91188000000E+02 0.  0.
    9900012    2    3    3    0    0 -0.68930478105E+01 -0.27741627362E+02  0.32657481939E+02  0.47787272778E+02  0.20000007906E+02 0.  0.
        -12    1    3    3    0    0  0.68930478105E+01  0.27741627362E+02 -0.32657481939E+02  0.43400727222E+02  0.00000000000E+00 0.  1.
         11    1    4    4    0    0  0.12030866282E-01 -0.78322918931E+01 -0.32129165550E-01  0.78323670487E+01  0.51100000000E-03 0. -1.
        -11    1    4    4    0    0  0.21577278434E+00  0.14157255972E+00 -0.48128050515E+00  0.54610609765E+00  0.51100000000E-03 0.  1.
         12    1    4    4    0    0 -0.71208514611E+01 -0.20050908028E+02  0.33170891609E+02  0.39408799632E+02  0.00000000000E+00 0. -1.
</event>
<event>
 8    1  0.6019723E-011  0.9118800E+02  0.7816164E-02  0.1184000E+00
        -11   -1    0    0    0    0  0.00000000000E+00  0.00000000000E+00  0.45593999997E+02  0.45594000000E+02  0.51100000000E-03 0. -1.
         11   -1    0    0    0    0 -0.00000000000E+00 -0.00000000000E+00 -0.45593999997E+02  0.45594000000E+02  0.51100000000E-03 0.  1.
         23    2    1    2    0    0 -0.71054273576E-14  0.66613381478E-15 -0.35527136788E-14  0.91188000000E+02  0.91188000000E+02 0.  0.
    9900012    2    3    3    0    0  0.38949837777E+02  0.78508240576E+00  0.19129101997E+02  0.47787207836E+02  0.19999711805E+02 0.  0.
        -12    1    3    3    0    0 -0.38949837777E+02 -0.78508240576E+00 -0.19129101997E+02  0.43400792164E+02  0.00000000000E+00 0.  1.
         11    1    4    4    0    0  0.14484768529E+02  0.62164168530E+01  0.92603709364E+01  0.18281324568E+02  0.51100000000E-03 0. -1.
        -11    1    4    4    0    0  0.10973214912E+02 -0.67093107461E+01  0.20928154184E+00  0.12863517996E+02  0.51100000000E-03 0.  1.
        -12    1    4    4    0    0  0.13491854336E+02  0.12779762989E+01  0.96594495193E+01  0.16642365272E+02  0.00000000000E+00 0.  1.
</event>
<event>
 8    1  0.6019723E-011  0.9118800E+02  0.7816164E-02  0.1184000E+00
        -11   -1    0    0    0    0  0.00000000000E+00  0.00000000000E+00  0.45593999997E+02  0.45594000000E+02  0.51100000000E-03 0. -1.
         11   -1    0    0    0    0 -0.00000000000E+00 -0.00000000000E+00 -0.45593999997E+02  0.45594000000E+02  0.51100000000E-03 0.  1.
         23    2    1    2    0    0  0.88817841970E-15  0.00000000000E+00  0.71054273576E-14  0.91188000000E+02  0.91188000000E+02 0.  0.
    9900012    2    3    3    0    0  0.59581965859E+01  0.27288686002E+02 -0.33218227677E+02  0.47787272583E+02  0.20000007016E+02 0.  0.
         12    1    3    3    0    0 -0.59581965859E+01 -0.27288686002E+02  0.33218227677E+02  0.43400727417E+02  0.00000000000E+00 0. -1.
         11    1    4    4    0    0  0.22443699023E+01  0.66447104731E+01 -0.28092620981E+01  0.75552185492E+01  0.51100000000E-03 0. -1.
        -11    1    4    4    0    0  0.97921489334E+01  0.15670258430E+02 -0.20823675071E+02  0.27840054305E+02  0.51100000000E-03 0.  1.
        -12    1    4    4    0    0 -0.60783222497E+01  0.49737170989E+01 -0.95852905086E+01  0.12391999729E+02  0.00000000000E+00 0.  1.
</event>
<event>
 8    1  0.6019723E-011  0.9118800E+02  0.7816164E-02  0.1184000E+00
        -11   -1    0    0    0    0  0.00000000000E+00  0.00000000000E+00  0.45593999997E+02  0.45594000000E+02  0.51100000000E-03 0.  1.
         11   -1    0    0    0    0 -0.00000000000E+00 -0.00000000000E+00 -0.45593999997E+02  0.45594000000E+02  0.51100000000E-03 0. -1.
         23    2    1    2    0    0  0.00000000000E+00  0.17763568394E-14  0.00000000000E+00  0.91188000000E+02  0.91188000000E+02 0.  0.
    9900012    2    3    3    0    0 -0.16942976509E+02  0.81792880859E+01 -0.39110834576E+02  0.47787278949E+02  0.20000036038E+02 0.  0.
         12    1    3    3    0    0  0.16942976509E+02 -0.81792880859E+01  0.39110834576E+02  0.43400721051E+02  0.00000000000E+00 0. -1.
         11    1    4    4    0    0  0.18864185626E+01  0.52896932199E+01 -0.58040292693E+01  0.80762729878E+01  0.51100000000E-03 0. -1.
        -11    1    4    4    0    0 -0.10056986522E+02  0.42536761860E+01 -0.10140626724E+02  0.14901981399E+02  0.51100000000E-03 0.  1.
         12    1    4    4    0    0 -0.87724085499E+01 -0.13640813200E+01 -0.23166178582E+02  0.24809024562E+02  0.00000000000E+00 0. -1.
</event>
<event>
 8    1  0.6019723E-011  0.9118800E+02  0.7816164E-02  0.1184000E+00
        -11   -1    0    0    0    0  0.00000000000E+00  0.00000000000E+00  0.45593999997E+02  0.45594000000E+02  0.51100000000E-03 0. -1.
         11   -1    0    0    0    0 -0.00000000000E+00 -0.00000000000E+00 -0.45593999997E+02  0.45594000000E+02  0.51100000000E-03 0.  1.
         23    2    1    2    0    0 -0.17763568394E-14  0.00000000000E+00  0.00000000000E+00  0.91188000000E+02  0.91188000000E+02 0.  0.
    9900012    2    3    3    0    0  0.10783983524E+02 -0.23195817688E+02 -0.35061135427E+02  0.47787268712E+02  0.19999989366E+02 0.  0.
         12    1    3    3    0    0 -0.10783983524E+02  0.23195817688E+02  0.35061135427E+02  0.43400731288E+02  0.00000000000E+00 0. -1.
         11    1    4    4    0    0 -0.16428101900E+01 -0.53701328820E+01 -0.14098411812E+02  0.15175716404E+02  0.51100000000E-03 0. -1.
        -11    1    4    4    0    0  0.83898621509E+01 -0.22320418877E+01 -0.54624423126E+01  0.10257196214E+02  0.51100000000E-03 0.  1.
        -12    1    4    4    0    0  0.40369315636E+01 -0.15593642919E+02 -0.15500281303E+02  0.22354356094E+02  0.00000000000E+00 0.  1.
</event>
<event>
 8    1  0.6019723E-011  0.9118800E+02  0.7816164E-02  0.1184000E+00
        -11   -1    0    0    0    0  0.00000000000E+00  0.00000000000E+00  0.45593999997E+02  0.45594000000E+02  0.51100000000E-03 0. -1.
         11   -1    0    0    0    0 -0.00000000000E+00 -0.00000000000E+00 -0.45593999997E+02  0.45594000000E+02  0.51100000000E-03 0.  1.
         23    2    1    2    0    0  0.00000000000E+00 -0.22204460493E-15  0.35527136788E-14  0.91188000000E+02  0.91188000000E+02 0.  0.
    9900012    2    3    3    0    0  0.35126194102E+02 -0.17297539188E+01  0.25431902695E+02  0.47787271488E+02  0.20000002022E+02 0.  0.
        -12    1    3    3    0    0 -0.35126194102E+02  0.17297539188E+01 -0.25431902695E+02  0.43400728512E+02  0.00000000000E+00 0.  1.
         11    1    4    4    0    0  0.26744479206E+02 -0.52387234921E+01  0.19516301938E+02  0.33520104913E+02  0.51100000000E-03 0. -1.
        -11    1    4    4    0    0  0.26649205320E+01 -0.28817756528E+01  0.37383415146E+01  0.54204824413E+01  0.51100000000E-03 0.  1.
         12    1    4    4    0    0  0.57167943638E+01  0.63907452261E+01  0.21772592427E+01  0.88466841332E+01  0.00000000000E+00 0. -1.
</event>
<event>
 8    1  0.6019723E-011  0.9118800E+02  0.7816164E-02  0.1184000E+00
        -11   -1    0    0    0    0  0.00000000000E+00  0.00000000000E+00  0.45593999997E+02  0.45594000000E+02  0.51100000000E-03 0. -1.
         11   -1    0    0    0    0 -0.00000000000E+00 -0.00000000000E+00 -0.45593999997E+02  0.45594000000E+02  0.51100000000E-03 0.  1.
         23    2    1    2    0    0  0.71054273576E-14  0.00000000000E+00  0.00000000000E+00  0.91188000000E+02  0.91188000000E+02 0.  0.
    9900012    2    3    3    0    0  0.40519134755E+02  0.11923202382E+02 -0.99829820285E+01  0.47787274586E+02  0.20000016145E+02 0.  0.
         12    1    3    3    0    0 -0.40519134755E+02 -0.11923202382E+02  0.99829820285E+01  0.43400725414E+02  0.00000000000E+00 0. -1.
         11    1    4    4    0    0  0.23541712888E+02  0.11921895633E+02 -0.36263415126E+01  0.26636332222E+02  0.51100000000E-03 0. -1.
        -11    1    4    4    0    0  0.68937842107E+01 -0.52792560965E+01 -0.16747628642E+01  0.88430558399E+01  0.51100000000E-03 0.  1.
         12    1    4    4    0    0  0.10083637656E+02  0.52805628452E+01 -0.46818776517E+01  0.12307886524E+02  0.00000000000E+00 0. -1.
</event>
<event>
 8    1  0.6019723E-011  0.9118800E+02  0.7816164E-02  0.1184000E+00
        -11   -1    0    0    0    0  0.00000000000E+00  0.00000000000E+00  0.45593999997E+02  0.45594000000E+02  0.51100000000E-03 0. -1.
         11   -1    0    0    0    0 -0.00000000000E+00 -0.00000000000E+00 -0.45593999997E+02  0.45594000000E+02  0.51100000000E-03 0.  1.
         23    2    1    2    0    0  0.88817841970E-15 -0.35527136788E-14  0.00000000000E+00  0.91188000000E+02  0.91188000000E+02 0.  0.
    9900012    2    3    3    0    0  0.69056831040E+01  0.25061050073E+02  0.34754550682E+02  0.47787268635E+02  0.19999989014E+02 0.  0.
        -12    1    3    3    0    0 -0.69056831040E+01 -0.25061050073E+02 -0.34754550682E+02  0.43400731365E+02  0.00000000000E+00 0.  1.
         11    1    4    4    0    0 -0.68090663108E+01  0.10588052775E+02  0.12106005844E+02  0.17464982775E+02  0.51100000000E-03 0. -1.
        -11    1    4    4    0    0  0.12092455917E+02  0.12179156850E+02  0.20765666321E+02  0.26940160536E+02  0.51100000000E-03 0.  1.
         12    1    4    4    0    0  0.16222934977E+01  0.22938404488E+01  0.18828785172E+01  0.33821253240E+01  0.00000000000E+00 0. -1.
</event>
<event>
 8    1  0.6019723E-011  0.9118800E+02  0.7816164E-02  0.1184000E+00
        -11   -1    0    0    0    0  0.00000000000E+00  0.00000000000E+00  0.45593999997E+02  0.45594000000E+02  0.51100000000E-03 0. -1.
         11   -1    0    0    0    0 -0.00000000000E+00 -0.00000000000E+00 -0.45593999997E+02  0.45594000000E+02  0.51100000000E-03 0.  1.
         23    2    1    2    0    0  0.00000000000E+00  0.00000000000E+00  0.00000000000E+00  0.91188000000E+02  0.91188000000E+02 0.  0.
    9900012    2    3    3    0    0 -0.29213405904E+02 -0.22877389214E+02 -0.22512785507E+02  0.47787268058E+02  0.19999986386E+02 0.  0.
         12    1    3    3    0    0  0.29213405904E+02  0.22877389214E+02  0.22512785507E+02  0.43400731942E+02  0.00000000000E+00 0. -1.
         11    1    4    4    0    0 -0.11583390753E+02 -0.86069333328E+01 -0.19718338175E+01  0.14565108019E+02  0.51100000000E-03 0. -1.
        -11    1    4    4    0    0 -0.12573535679E+02 -0.15021362792E+02 -0.11176408955E+02  0.22553209461E+02  0.51100000000E-03 0.  1.
         12    1    4    4    0    0 -0.50564794728E+01  0.75090691013E+00 -0.93645427337E+01  0.10668950579E+02  0.00000000000E+00 0. -1.
</event>
<event>
 8    1  0.6019723E-011  0.9118800E+02  0.7816164E-02  0.1184000E+00
        -11   -1    0    0    0    0  0.00000000000E+00  0.00000000000E+00  0.45593999997E+02  0.45594000000E+02  0.51100000000E-03 0.  1.
         11   -1    0    0    0    0 -0.00000000000E+00 -0.00000000000E+00 -0.45593999997E+02  0.45594000000E+02  0.51100000000E-03 0. -1.
         23    2    1    2    0    0  0.00000000000E+00  0.00000000000E+00  0.00000000000E+00  0.91188000000E+02  0.91188000000E+02 0.  0.
    9900012    2    3    3    0    0  0.34372745142E+02  0.90338572983E+01  0.24910377623E+02  0.47787273052E+02  0.20000009153E+02 0.  0.
        -12    1    3    3    0    0 -0.34372745142E+02 -0.90338572983E+01 -0.24910377623E+02  0.43400726948E+02  0.00000000000E+00 0.  1.
         11    1    4    4    0    0  0.19225992699E+02  0.18152236610E+01  0.14192930641E+02  0.23966082547E+02  0.51100000000E-03 0. -1.
        -11    1    4    4    0    0  0.10366036653E+01  0.66022472377E+01  0.11997594271E+01  0.67899660301E+01  0.51100000000E-03 0.  1.
        -12    1    4    4    0    0  0.14110148777E+02  0.61638639960E+00  0.95176875552E+01  0.17031224475E+02  0.00000000000E+00 0.  1.
</event>
<event>
 8    1  0.6019723E-011  0.9118800E+02  0.7816164E-02  0.1184000E+00
        -11   -1    0    0    0    0  0.00000000000E+00  0.00000000000E+00  0.45593999997E+02  0.45594000000E+02  0.51100000000E-03 0. -1.
         11   -1    0    0    0    0 -0.00000000000E+00 -0.00000000000E+00 -0.45593999997E+02  0.45594000000E+02  0.51100000000E-03 0.  1.
         23    2    1    2    0    0  0.44408920985E-15  0.35527136788E-14  0.00000000000E+00  0.91188000000E+02  0.91188000000E+02 0.  0.
    9900012    2    3    3    0    0  0.33970535797E+01  0.14846637464E+02 -0.40640613581E+02  0.47787284692E+02  0.20000062227E+02 0.  0.
         12    1    3    3    0    0 -0.33970535797E+01 -0.14846637464E+02  0.40640613581E+02  0.43400715308E+02  0.00000000000E+00 0. -1.
         11    1    4    4    0    0 -0.21509323895E+01  0.65044351724E+01 -0.20044984007E+02  0.21183379597E+02  0.51100000000E-03 0.  1.
        -11    1    4    4    0    0  0.70317818176E+01 -0.99888462587E+00 -0.11270806135E+02  0.13321966717E+02  0.51100000000E-03 0. -1.
        -12    1    4    4    0    0 -0.14837958483E+01  0.93410869172E+01 -0.93248234386E+01  0.13281938378E+02  0.00000000000E+00 0.  1.
</event>
<event>
 8    1  0.6019723E-011  0.9118800E+02  0.7816164E-02  0.1184000E+00
        -11   -1    0    0    0    0  0.00000000000E+00  0.00000000000E+00  0.45593999997E+02  0.45594000000E+02  0.51100000000E-03 0. -1.
         11   -1    0    0    0    0 -0.00000000000E+00 -0.00000000000E+00 -0.45593999997E+02  0.45594000000E+02  0.51100000000E-03 0.  1.
         23    2    1    2    0    0  0.00000000000E+00  0.00000000000E+00  0.17763568394E-14  0.91188000000E+02  0.91188000000E+02 0.  0.
    9900012    2    3    3    0    0 -0.21464610795E+02  0.34736973710E+02  0.14704966293E+02  0.47787275435E+02  0.20000020019E+02 0.  0.
        -12    1    3    3    0    0  0.21464610795E+02 -0.34736973710E+02 -0.14704966293E+02  0.43400724565E+02  0.00000000000E+00 0.  1.
         11    1    4    4    0    0 -0.20846535252E+01  0.82936248588E+01  0.80092104436E+01  0.11716545814E+02  0.51100000000E-03 0. -1.
        -11    1    4    4    0    0 -0.92089502836E+01  0.12957670916E+02 -0.35861886296E+01  0.16296218888E+02  0.51100000000E-03 0.  1.
        -12    1    4    4    0    0 -0.10171006986E+02  0.13485677935E+02  0.10281944479E+02  0.19774510734E+02  0.00000000000E+00 0.  1.
</event>
<event>
 8    1  0.6019723E-011  0.9118800E+02  0.7816164E-02  0.1184000E+00
        -11   -1    0    0    0    0  0.00000000000E+00  0.00000000000E+00  0.45593999997E+02  0.45594000000E+02  0.51100000000E-03 0. -1.
         11   -1    0    0    0    0 -0.00000000000E+00 -0.00000000000E+00 -0.45593999997E+02  0.45594000000E+02  0.51100000000E-03 0.  1.
         23    2    1    2    0    0  0.00000000000E+00  0.00000000000E+00  0.00000000000E+00  0.91188000000E+02  0.91188000000E+02 0.  0.
    9900012    2    3    3    0    0  0.12565168121E+02  0.18211643455E+02 -0.37337333242E+02  0.47787264282E+02  0.19999969166E+02 0.  0.
         12    1    3    3    0    0 -0.12565168121E+02 -0.18211643455E+02  0.37337333242E+02  0.43400735718E+02  0.00000000000E+00 0. -1.
         11    1    4    4    0    0  0.89849765832E+00  0.43218890155E+01 -0.16265827972E+01  0.47044441289E+01  0.51100000000E-03 0. -1.
        -11    1    4    4    0    0  0.48161302788E+01  0.15720144535E+02 -0.28908054047E+02  0.33256482739E+02  0.51100000000E-03 0.  1.
        -12    1    4    4    0    0  0.68505401834E+01 -0.18303900952E+01 -0.68026963974E+01  0.98263374144E+01  0.00000000000E+00 0.  1.
</event>
<event>
 8    1  0.6019723E-011  0.9118800E+02  0.7816164E-02  0.1184000E+00
        -11   -1    0    0    0    0  0.00000000000E+00  0.00000000000E+00  0.45593999997E+02  0.45594000000E+02  0.51100000000E-03 0. -1.
         11   -1    0    0    0    0 -0.00000000000E+00 -0.00000000000E+00 -0.45593999997E+02  0.45594000000E+02  0.51100000000E-03 0.  1.
         23    2    1    2    0    0  0.00000000000E+00  0.00000000000E+00  0.71054273576E-14  0.91188000000E+02  0.91188000000E+02 0.  0.
    9900012    2    3    3    0    0  0.26040264334E+02 -0.57083346173E+00 -0.34716022771E+02  0.47787268965E+02  0.19999990517E+02 0.  0.
         12    1    3    3    0    0 -0.26040264334E+02  0.57083346173E+00  0.34716022771E+02  0.43400731035E+02  0.00000000000E+00 0. -1.
         11    1    4    4    0    0 -0.17334434928E+01 -0.37393557253E+00 -0.84325852626E+01  0.86170266697E+01  0.51100000000E-03 0. -1.
        -11    1    4    4    0    0  0.27206703774E+00 -0.13156735547E+01 -0.22956372969E+01  0.26598812446E+01  0.51100000000E-03 0.  1.
         12    1    4    4    0    0  0.27501640789E+02  0.11187756655E+01 -0.23987800211E+02  0.36510361050E+02  0.00000000000E+00 0. -1.
</event>
<event>
 8    1  0.6019723E-011  0.9118800E+02  0.7816164E-02  0.1184000E+00
        -11   -1    0    0    0    0  0.00000000000E+00  0.00000000000E+00  0.45593999997E+02  0.45594000000E+02  0.51100000000E-03 0. -1.
         11   -1    0    0    0    0 -0.00000000000E+00 -0.00000000000E+00 -0.45593999997E+02  0.45594000000E+02  0.51100000000E-03 0.  1.
         23    2    1    2    0    0  0.00000000000E+00  0.00000000000E+00  0.00000000000E+00  0.91188000000E+02  0.91188000000E+02 0.  0.
    9900012    2    3    3    0    0  0.65900612383E+01 -0.12189598930E+01 -0.42880161033E+02  0.47787274423E+02  0.20000015405E+02 0.  0.
         12    1    3    3    0    0 -0.65900612383E+01  0.12189598930E+01  0.42880161033E+02  0.43400725577E+02  0.00000000000E+00 0. -1.
         11    1    4    4    0    0  0.56836651733E+01  0.28799413211E+01 -0.42951723308E+01  0.76841796848E+01  0.51100000000E-03 0. -1.
        -11    1    4    4    0    0  0.48457211446E+01 -0.36623807299E+01 -0.30499285691E+02  0.31098239081E+02  0.51100000000E-03 0.  1.
        -12    1    4    4    0    0 -0.39393250796E+01 -0.43652048420E+00 -0.80857030114E+01  0.90048556571E+01  0.00000000000E+00 0.  1.
</event>
<event>
 8    1  0.6019723E-011  0.9118800E+02  0.7816164E-02  0.1184000E+00
        -11   -1    0    0    0    0  0.00000000000E+00  0.00000000000E+00  0.45593999997E+02  0.45594000000E+02  0.51100000000E-03 0. -1.
         11   -1    0    0    0    0 -0.00000000000E+00 -0.00000000000E+00 -0.45593999997E+02  0.45594000000E+02  0.51100000000E-03 0.  1.
         23    2    1    2    0    0  0.35527136788E-14 -0.17763568394E-14  0.00000000000E+00  0.91188000000E+02  0.91188000000E+02 0.  0.
    9900012    2    3    3    0    0  0.20017699965E+02  0.13222314565E+02  0.36167461885E+02  0.47787271740E+02  0.20000003169E+02 0.  0.
        -12    1    3    3    0    0 -0.20017699965E+02 -0.13222314565E+02 -0.36167461885E+02  0.43400728260E+02  0.00000000000E+00 0.  1.
         11    1    4    4    0    0  0.14141438801E+02  0.11934420625E+02  0.29428525766E+02  0.34762750409E+02  0.51100000000E-03 0. -1.
        -11    1    4    4    0    0  0.78138839335E+01  0.31810727865E+01  0.50816492999E+01  0.98488154652E+01  0.51100000000E-03 0.  1.
         12    1    4    4    0    0 -0.19376227691E+01 -0.18931788466E+01  0.16572868191E+01  0.31757058651E+01  0.00000000000E+00 0. -1.
</event>
<event>
 8    1  0.6019723E-011  0.9118800E+02  0.7816164E-02  0.1184000E+00
        -11   -1    0    0    0    0  0.00000000000E+00  0.00000000000E+00  0.45593999997E+02  0.45594000000E+02  0.51100000000E-03 0. -1.
         11   -1    0    0    0    0 -0.00000000000E+00 -0.00000000000E+00 -0.45593999997E+02  0.45594000000E+02  0.51100000000E-03 0.  1.
         23    2    1    2    0    0  0.00000000000E+00 -0.17763568394E-14  0.00000000000E+00  0.91188000000E+02  0.91188000000E+02 0.  0.
    9900012    2    3    3    0    0  0.16768014866E+02  0.13592155737E+02 -0.37652487851E+02  0.47787275796E+02  0.20000021663E+02 0.  0.
         12    1    3    3    0    0 -0.16768014866E+02 -0.13592155737E+02  0.37652487851E+02  0.43400724204E+02  0.00000000000E+00 0. -1.
         11    1    4    4    0    0  0.13904291171E+01  0.24416072897E+01 -0.18894809580E+02  0.19102580156E+02  0.51100000000E-03 0.  1.
        -11    1    4    4    0    0  0.14934992488E+02  0.84995453819E+01 -0.19405072650E+02  0.25920129574E+02  0.51100000000E-03 0. -1.
        -12    1    4    4    0    0  0.44259326073E+00  0.26510030657E+01  0.64739437978E+00  0.27645660657E+01  0.00000000000E+00 0.  1.
</event>
<event>
 8    1  0.6019723E-011  0.9118800E+02  0.7816164E-02  0.1184000E+00
        -11   -1    0    0    0    0  0.00000000000E+00  0.00000000000E+00  0.45593999997E+02  0.45594000000E+02  0.51100000000E-03 0. -1.
         11   -1    0    0    0    0 -0.00000000000E+00 -0.00000000000E+00 -0.45593999997E+02  0.45594000000E+02  0.51100000000E-03 0.  1.
         23    2    1    2    0    0  0.35527136788E-14  0.00000000000E+00  0.00000000000E+00  0.91188000000E+02  0.91188000000E+02 0.  0.
    9900012    2    3    3    0    0  0.23478018877E+02  0.17032893240E+02  0.32284437535E+02  0.47787288837E+02  0.20000081124E+02 0.  0.
        -12    1    3    3    0    0 -0.23478018877E+02 -0.17032893240E+02 -0.32284437535E+02  0.43400711163E+02  0.00000000000E+00 0.  1.
         11    1    4    4    0    0  0.26072060017E+02  0.12694622036E+02  0.28233353966E+02  0.40472558834E+02  0.51100000000E-03 0. -1.
        -11    1    4    4    0    0 -0.55834653048E-01  0.30510915941E+01  0.30045545980E+01  0.42824789571E+01  0.51100000000E-03 0.  1.
         12    1    4    4    0    0 -0.25382064869E+01  0.12871796100E+01  0.10465289708E+01  0.30322510459E+01  0.00000000000E+00 0. -1.
</event>
<event>
 8    1  0.6019723E-011  0.9118800E+02  0.7816164E-02  0.1184000E+00
        -11   -1    0    0    0    0  0.00000000000E+00  0.00000000000E+00  0.45593999997E+02  0.45594000000E+02  0.51100000000E-03 0. -1.
         11   -1    0    0    0    0 -0.00000000000E+00 -0.00000000000E+00 -0.45593999997E+02  0.45594000000E+02  0.51100000000E-03 0.  1.
         23    2    1    2    0    0 -0.27755575616E-16  0.35527136788E-14  0.00000000000E+00  0.91188000000E+02  0.91188000000E+02 0.  0.
    9900012    2    3    3    0    0 -0.16596428183E+00  0.17185540865E+02  0.39852888898E+02  0.47787272904E+02  0.20000008477E+02 0.  0.
        -12    1    3    3    0    0  0.16596428183E+00 -0.17185540865E+02 -0.39852888898E+02  0.43400727096E+02  0.00000000000E+00 0.  1.
         11    1    4    4    0    0  0.17401915159E+00  0.12790882586E+02  0.11034677124E+02  0.16893817197E+02  0.51100000000E-03 0. -1.
        -11    1    4    4    0    0  0.26794898874E+01 -0.23948783476E+01  0.74817458222E+01  0.83000981419E+01  0.51100000000E-03 0.  1.
        -12    1    4    4    0    0 -0.30194733208E+01  0.67895366269E+01  0.21336465951E+02  0.22593357564E+02  0.00000000000E+00 0.  1.
</event>
<event>
 8    1  0.6019723E-011  0.9118800E+02  0.7816164E-02  0.1184000E+00
        -11   -1    0    0    0    0  0.00000000000E+00  0.00000000000E+00  0.45593999997E+02  0.45594000000E+02  0.51100000000E-03 0. -1.
         11   -1    0    0    0    0 -0.00000000000E+00 -0.00000000000E+00 -0.45593999997E+02  0.45594000000E+02  0.51100000000E-03 0.  1.
         23    2    1    2    0    0  0.00000000000E+00  0.35527136788E-14  0.00000000000E+00  0.91188000000E+02  0.91188000000E+02 0.  0.
    9900012    2    3    3    0    0  0.38331818529E+02  0.17229489755E+02 -0.10836963190E+02  0.47787269590E+02  0.19999993369E+02 0.  0.
         12    1    3    3    0    0 -0.38331818529E+02 -0.17229489755E+02  0.10836963190E+02  0.43400730410E+02  0.00000000000E+00 0. -1.
         11    1    4    4    0    0  0.26495088837E+02  0.15783649612E+02 -0.80784092637E+01  0.31880621450E+02  0.51100000000E-03 0. -1.
        -11    1    4    4    0    0  0.35037989624E+01 -0.11917682213E+01 -0.56030838791E+01  0.67150180848E+01  0.51100000000E-03 0.  1.
        -12    1    4    4    0    0  0.83329307292E+01  0.26376083645E+01  0.28445299525E+01  0.91916300553E+01  0.00000000000E+00 0.  1.
</event>
<event>
 8    1  0.6019723E-011  0.9118800E+02  0.7816164E-02  0.1184000E+00
        -11   -1    0    0    0    0  0.00000000000E+00  0.00000000000E+00  0.45593999997E+02  0.45594000000E+02  0.51100000000E-03 0. -1.
         11   -1    0    0    0    0 -0.00000000000E+00 -0.00000000000E+00 -0.45593999997E+02  0.45594000000E+02  0.51100000000E-03 0.  1.
         23    2    1    2    0    0  0.00000000000E+00  0.00000000000E+00 -0.17763568394E-14  0.91188000000E+02  0.91188000000E+02 0.  0.
    9900012    2    3    3    0    0 -0.77570691167E+01  0.39851335300E+02  0.15340226444E+02  0.47787267358E+02  0.19999983193E+02 0.  0.
        -12    1    3    3    0    0  0.77570691167E+01 -0.39851335300E+02 -0.15340226444E+02  0.43400732642E+02  0.00000000000E+00 0.  1.
         11    1    4    4    0    0 -0.77295317826E+01  0.18862287935E+02 -0.51126908193E+00  0.20391002037E+02  0.51100000000E-03 0. -1.
        -11    1    4    4    0    0  0.25468874106E+00  0.13972612416E+02  0.57905763228E+01  0.15127112695E+02  0.51100000000E-03 0.  1.
         12    1    4    4    0    0 -0.28222607517E+00  0.70164349494E+01  0.10060919203E+02  0.12269152626E+02  0.00000000000E+00 0. -1.
</event>
<event>
 8    1  0.6019723E-011  0.9118800E+02  0.7816164E-02  0.1184000E+00
        -11   -1    0    0    0    0  0.00000000000E+00  0.00000000000E+00  0.45593999997E+02  0.45594000000E+02  0.51100000000E-03 0. -1.
         11   -1    0    0    0    0 -0.00000000000E+00 -0.00000000000E+00 -0.45593999997E+02  0.45594000000E+02  0.51100000000E-03 0.  1.
         23    2    1    2    0    0  0.00000000000E+00  0.00000000000E+00  0.00000000000E+00  0.91188000000E+02  0.91188000000E+02 0.  0.
    9900012    2    3    3    0    0  0.32745433099E+02  0.26253648457E+02  0.11050145446E+02  0.47787272351E+02  0.20000005955E+02 0.  0.
        -12    1    3    3    0    0 -0.32745433099E+02 -0.26253648457E+02 -0.11050145446E+02  0.43400727649E+02  0.00000000000E+00 0.  1.
         11    1    4    4    0    0  0.28886746366E+02  0.18782619125E+02  0.15553476329E+02  0.37803988189E+02  0.51100000000E-03 0. -1.
        -11    1    4    4    0    0  0.32031747536E+01  0.30097999045E+01 -0.23964468646E+01  0.50062143186E+01  0.51100000000E-03 0.  1.
         12    1    4    4    0    0  0.65551197886E+00  0.44612294270E+01 -0.21068840179E+01  0.49770698427E+01  0.00000000000E+00 0. -1.
</event>
<event>
 8    1  0.6019723E-011  0.9118800E+02  0.7816164E-02  0.1184000E+00
        -11   -1    0    0    0    0  0.00000000000E+00  0.00000000000E+00  0.45593999997E+02  0.45594000000E+02  0.51100000000E-03 0. -1.
         11   -1    0    0    0    0 -0.00000000000E+00 -0.00000000000E+00 -0.45593999997E+02  0.45594000000E+02  0.51100000000E-03 0.  1.
         23    2    1    2    0    0  0.13322676296E-14  0.00000000000E+00  0.00000000000E+00  0.91188000000E+02  0.91188000000E+02 0.  0.
    9900012    2    3    3    0    0 -0.25361976439E+01  0.21947613408E+02 -0.37356232076E+02  0.47787330561E+02  0.20000271360E+02 0.  0.
         12    1    3    3    0    0  0.25361976439E+01 -0.21947613408E+02  0.37356232076E+02  0.43400669439E+02  0.00000000000E+00 0. -1.
         11    1    4    4    0    0  0.56036010642E+01  0.23321675849E+01 -0.16087349834E+02  0.17194248325E+02  0.51100000000E-03 0. -1.
        -11    1    4    4    0    0 -0.68803747509E+01  0.17363434882E+02 -0.20827718557E+02  0.27975387185E+02  0.51100000000E-03 0.  1.
         12    1    4    4    0    0 -0.12594239572E+01  0.22520109412E+01 -0.44116368516E+00  0.26176950511E+01  0.00000000000E+00 0. -1.
</event>
<event>
 8    1  0.6019723E-011  0.9118800E+02  0.7816164E-02  0.1184000E+00
        -11   -1    0    0    0    0  0.00000000000E+00  0.00000000000E+00  0.45593999997E+02  0.45594000000E+02  0.51100000000E-03 0. -1.
         11   -1    0    0    0    0 -0.00000000000E+00 -0.00000000000E+00 -0.45593999997E+02  0.45594000000E+02  0.51100000000E-03 0.  1.
         23    2    1    2    0    0  0.00000000000E+00 -0.35527136788E-14  0.00000000000E+00  0.91188000000E+02  0.91188000000E+02 0.  0.
    9900012    2    3    3    0    0 -0.55855301796E+01  0.28197929700E+02 -0.32516187064E+02  0.47787264892E+02  0.19999971949E+02 0.  0.
         12    1    3    3    0    0  0.55855301796E+01 -0.28197929700E+02  0.32516187064E+02  0.43400735108E+02  0.00000000000E+00 0. -1.
         11    1    4    4    0    0 -0.65692045949E+01  0.76538781648E+01 -0.19532224008E+01  0.10273820029E+02  0.51100000000E-03 0. -1.
        -11    1    4    4    0    0  0.24537004308E+01  0.69490355316E+01 -0.15541019990E+02  0.17199797767E+02  0.51100000000E-03 0.  1.
         12    1    4    4    0    0 -0.14700260155E+01  0.13595016003E+02 -0.15021944673E+02  0.20313647097E+02  0.00000000000E+00 0. -1.
</event>
<event>
 8    1  0.6019723E-011  0.9118800E+02  0.7816164E-02  0.1184000E+00
        -11   -1    0    0    0    0  0.00000000000E+00  0.00000000000E+00  0.45593999997E+02  0.45594000000E+02  0.51100000000E-03 0. -1.
         11   -1    0    0    0    0 -0.00000000000E+00 -0.00000000000E+00 -0.45593999997E+02  0.45594000000E+02  0.51100000000E-03 0.  1.
         23    2    1    2    0    0  0.00000000000E+00 -0.88817841970E-15  0.00000000000E+00  0.91188000000E+02  0.91188000000E+02 0.  0.
    9900012    2    3    3    0    0 -0.18996181826E+02  0.51647330940E+01  0.38679370582E+02  0.47787273042E+02  0.20000009106E+02 0.  0.
        -12    1    3    3    0    0  0.18996181826E+02 -0.51647330940E+01 -0.38679370582E+02  0.43400726958E+02  0.00000000000E+00 0.  1.
         11    1    4    4    0    0 -0.66019822592E+01  0.99856241530E+01  0.13199284366E+02  0.17819089974E+02  0.51100000000E-03 0. -1.
        -11    1    4    4    0    0 -0.18367468466E+01 -0.24381210278E+01  0.10164194385E+01  0.32173252650E+01  0.51100000000E-03 0.  1.
         12    1    4    4    0    0 -0.10557452720E+02 -0.23827700312E+01  0.24463666778E+02  0.26750857803E+02  0.00000000000E+00 0. -1.
</event>
<event>
 8    1  0.6019723E-011  0.9118800E+02  0.7816164E-02  0.1184000E+00
        -11   -1    0    0    0    0  0.00000000000E+00  0.00000000000E+00  0.45593999997E+02  0.45594000000E+02  0.51100000000E-03 0. -1.
         11   -1    0    0    0    0 -0.00000000000E+00 -0.00000000000E+00 -0.45593999997E+02  0.45594000000E+02  0.51100000000E-03 0.  1.
         23    2    1    2    0    0  0.00000000000E+00 -0.11102230246E-14  0.00000000000E+00  0.91188000000E+02  0.91188000000E+02 0.  0.
    9900012    2    3    3    0    0  0.38282262225E+02 -0.12365725280E+01 -0.20409877666E+02  0.47787264764E+02  0.19999971363E+02 0.  0.
         12    1    3    3    0    0 -0.38282262225E+02  0.12365725280E+01  0.20409877666E+02  0.43400735236E+02  0.00000000000E+00 0. -1.
         11    1    4    4    0    0  0.89184406933E+01 -0.63331264278E+01 -0.85212542230E+00  0.10971471768E+02  0.51100000000E-03 0. -1.
        -11    1    4    4    0    0  0.15288827674E+02 -0.19937863913E+01 -0.91406335518E+01  0.17924135065E+02  0.51100000000E-03 0.  1.
         12    1    4    4    0    0  0.14074993858E+02  0.70903402911E+01 -0.10417118692E+02  0.18891657931E+02  0.00000000000E+00 0. -1.
</event>
<event>
 8    1  0.6019723E-011  0.9118800E+02  0.7816164E-02  0.1184000E+00
        -11   -1    0    0    0    0  0.00000000000E+00  0.00000000000E+00  0.45593999997E+02  0.45594000000E+02  0.51100000000E-03 0. -1.
         11   -1    0    0    0    0 -0.00000000000E+00 -0.00000000000E+00 -0.45593999997E+02  0.45594000000E+02  0.51100000000E-03 0.  1.
         23    2    1    2    0    0  0.00000000000E+00  0.00000000000E+00  0.00000000000E+00  0.91188000000E+02  0.91188000000E+02 0.  0.
    9900012    2    3    3    0    0 -0.21028663370E+02  0.19128562209E+02 -0.32795054756E+02  0.47787283511E+02  0.20000056841E+02 0.  0.
         12    1    3    3    0    0  0.21028663370E+02 -0.19128562209E+02  0.32795054756E+02  0.43400716489E+02  0.00000000000E+00 0. -1.
         11    1    4    4    0    0 -0.20137175149E+02  0.62962393236E+01 -0.20828565410E+02  0.29647556222E+02  0.51100000000E-03 0. -1.
        -11    1    4    4    0    0 -0.24133236198E+01  0.78072607458E+01 -0.87966901022E+01  0.12006631845E+02  0.51100000000E-03 0.  1.
         12    1    4    4    0    0  0.15218353990E+01  0.50250621395E+01 -0.31697992437E+01  0.61330954446E+01  0.00000000000E+00 0. -1.
</event>
<event>
 8    1  0.6019723E-011  0.9118800E+02  0.7816164E-02  0.1184000E+00
        -11   -1    0    0    0    0  0.00000000000E+00  0.00000000000E+00  0.45593999997E+02  0.45594000000E+02  0.51100000000E-03 0. -1.
         11   -1    0    0    0    0 -0.00000000000E+00 -0.00000000000E+00 -0.45593999997E+02  0.45594000000E+02  0.51100000000E-03 0.  1.
         23    2    1    2    0    0  0.00000000000E+00  0.11102230246E-14  0.00000000000E+00  0.91188000000E+02  0.91188000000E+02 0.  0.
    9900012    2    3    3    0    0  0.18587768345E+02  0.19295158183E+01  0.39171352437E+02  0.47787274025E+02  0.20000013591E+02 0.  0.
        -12    1    3    3    0    0 -0.18587768345E+02 -0.19295158183E+01 -0.39171352437E+02  0.43400725975E+02  0.00000000000E+00 0.  1.
         11    1    4    4    0    0  0.83222187610E+01  0.58732267156E+01  0.19478789906E+02  0.21981295995E+02  0.51100000000E-03 0. -1.
        -11    1    4    4    0    0  0.12149486269E+02 -0.60060549748E+01  0.14116059356E+02  0.19569002145E+02  0.51100000000E-03 0.  1.
        -12    1    4    4    0    0 -0.18839366847E+01  0.20623440775E+01  0.55765031755E+01  0.62369758852E+01  0.00000000000E+00 0.  1.
</event>
<event>
 8    1  0.6019723E-011  0.9118800E+02  0.7816164E-02  0.1184000E+00
        -11   -1    0    0    0    0  0.00000000000E+00  0.00000000000E+00  0.45593999997E+02  0.45594000000E+02  0.51100000000E-03 0. -1.
         11   -1    0    0    0    0 -0.00000000000E+00 -0.00000000000E+00 -0.45593999997E+02  0.45594000000E+02  0.51100000000E-03 0.  1.
         23    2    1    2    0    0  0.00000000000E+00  0.00000000000E+00  0.00000000000E+00  0.91188000000E+02  0.91188000000E+02 0.  0.
    9900012    2    3    3    0    0 -0.31421484071E+02  0.25350277328E+02  0.15927242433E+02  0.47787271051E+02  0.20000000028E+02 0.  0.
        -12    1    3    3    0    0  0.31421484071E+02 -0.25350277328E+02 -0.15927242433E+02  0.43400728949E+02  0.00000000000E+00 0.  1.
         11    1    4    4    0    0 -0.25772085461E+02  0.17204531100E+02  0.61623568156E+01  0.31593843089E+02  0.51100000000E-03 0. -1.
        -11    1    4    4    0    0 -0.21298677252E+01  0.90200816065E+01  0.74485313893E+01  0.11890282958E+02  0.51100000000E-03 0.  1.
         12    1    4    4    0    0 -0.35195308852E+01 -0.87433537877E+00  0.23163542279E+01  0.43031450029E+01  0.00000000000E+00 0. -1.
</event>
<event>
 8    1  0.6019723E-011  0.9118800E+02  0.7816164E-02  0.1184000E+00
        -11   -1    0    0    0    0  0.00000000000E+00  0.00000000000E+00  0.45593999997E+02  0.45594000000E+02  0.51100000000E-03 0. -1.
         11   -1    0    0    0    0 -0.00000000000E+00 -0.00000000000E+00 -0.45593999997E+02  0.45594000000E+02  0.51100000000E-03 0.  1.
         23    2    1    2    0    0  0.00000000000E+00  0.35527136788E-14 -0.71054273576E-14  0.91188000000E+02  0.91188000000E+02 0.  0.
    9900012    2    3    3    0    0  0.10615895112E+02  0.23859806409E+02 -0.34664618188E+02  0.47787270225E+02  0.19999996266E+02 0.  0.
         12    1    3    3    0    0 -0.10615895112E+02 -0.23859806409E+02  0.34664618188E+02  0.43400729775E+02  0.00000000000E+00 0. -1.
         11    1    4    4    0    0  0.97872401282E+01  0.29247497879E+01 -0.71567632449E+01  0.12472509413E+02  0.51100000000E-03 0. -1.
        -11    1    4    4    0    0  0.25812617124E+01  0.70497602284E+01 -0.13880762543E+02  0.15780925206E+02  0.51100000000E-03 0.  1.
         12    1    4    4    0    0 -0.17526067289E+01  0.13885296392E+02 -0.13627092399E+02  0.19533835607E+02  0.00000000000E+00 0. -1.
</event>
<event>
 8    1  0.8793869E-011  0.9118800E+02  0.7816164E-02  0.1184000E+00
        -11   -1    0    0    0    0  0.00000000000E+00  0.00000000000E+00  0.45593999997E+02  0.45594000000E+02  0.51100000000E-03 0. -1.
         11   -1    0    0    0    0 -0.00000000000E+00 -0.00000000000E+00 -0.45593999997E+02  0.45594000000E+02  0.51100000000E-03 0.  1.
         23    2    1    2    0    0 -0.44408920985E-15  0.00000000000E+00  0.00000000000E+00  0.91188000000E+02  0.91188000000E+02 0.  0.
    9900012    2    3    3    0    0 -0.39889232182E+01  0.38637337107E+02 -0.19361503816E+02  0.47787272389E+02  0.20000006131E+02 0.  0.
         12    1    3    3    0    0  0.39889232182E+01 -0.38637337107E+02  0.19361503816E+02  0.43400727611E+02  0.00000000000E+00 0. -1.
         11    1    4    4    0    0  0.47862061659E+01  0.18772241718E+01 -0.72676678525E+00  0.51922952801E+01  0.51100000000E-03 0. -1.
        -11    1    4    4    0    0 -0.28111803592E+01  0.24582322049E+02 -0.11979579060E+02  0.27490063788E+02  0.51100000000E-03 0.  1.
         12    1    4    4    0    0 -0.59639490249E+01  0.12177790886E+02 -0.66551579700E+01  0.15104913322E+02  0.00000000000E+00 0. -1.
</event>
<event>
 8    1  0.6019723E-011  0.9118800E+02  0.7816164E-02  0.1184000E+00
        -11   -1    0    0    0    0  0.00000000000E+00  0.00000000000E+00  0.45593999997E+02  0.45594000000E+02  0.51100000000E-03 0. -1.
         11   -1    0    0    0    0 -0.00000000000E+00 -0.00000000000E+00 -0.45593999997E+02  0.45594000000E+02  0.51100000000E-03 0.  1.
         23    2    1    2    0    0 -0.44408920985E-15  0.00000000000E+00  0.00000000000E+00  0.91188000000E+02  0.91188000000E+02 0.  0.
    9900012    2    3    3    0    0  0.30256384574E+01 -0.26954410882E+02 -0.33881093595E+02  0.47787271236E+02  0.20000000873E+02 0.  0.
         12    1    3    3    0    0 -0.30256384574E+01  0.26954410882E+02  0.33881093595E+02  0.43400728764E+02  0.00000000000E+00 0. -1.
         11    1    4    4    0    0 -0.93659665989E+00  0.31193171291E+01 -0.29435154538E+01  0.43899471686E+01  0.51100000000E-03 0. -1.
        -11    1    4    4    0    0  0.35238199697E+01 -0.18452042031E+02 -0.18378843161E+02  0.26280735121E+02  0.51100000000E-03 0.  1.
         12    1    4    4    0    0  0.43841514759E+00 -0.11621685980E+02 -0.12558734980E+02  0.17116588947E+02  0.00000000000E+00 0. -1.
</event>
<event>
 8    1  0.6019723E-011  0.9118800E+02  0.7816164E-02  0.1184000E+00
        -11   -1    0    0    0    0  0.00000000000E+00  0.00000000000E+00  0.45593999997E+02  0.45594000000E+02  0.51100000000E-03 0. -1.
         11   -1    0    0    0    0 -0.00000000000E+00 -0.00000000000E+00 -0.45593999997E+02  0.45594000000E+02  0.51100000000E-03 0.  1.
         23    2    1    2    0    0  0.17763568394E-14  0.00000000000E+00  0.00000000000E+00  0.91188000000E+02  0.91188000000E+02 0.  0.
    9900012    2    3    3    0    0  0.12998504936E+02 -0.28019817666E+02 -0.30488551882E+02  0.47787272950E+02  0.20000008688E+02 0.  0.
         12    1    3    3    0    0 -0.12998504936E+02  0.28019817666E+02  0.30488551882E+02  0.43400727050E+02  0.00000000000E+00 0. -1.
         11    1    4    4    0    0  0.12106849738E+02 -0.13020001642E+02 -0.24430521493E+02  0.30215006768E+02  0.51100000000E-03 0.  1.
        -11    1    4    4    0    0  0.99852060380E-01 -0.31766649231E+01  0.15031431474E+01  0.35157659266E+01  0.51100000000E-03 0. -1.
         12    1    4    4    0    0  0.79180313796E+00 -0.11823151102E+02 -0.75611735361E+01  0.14056500255E+02  0.00000000000E+00 0. -1.
</event>
<event>
 8    1  0.6019723E-011  0.9118800E+02  0.7816164E-02  0.1184000E+00
        -11   -1    0    0    0    0  0.00000000000E+00  0.00000000000E+00  0.45593999997E+02  0.45594000000E+02  0.51100000000E-03 0. -1.
         11   -1    0    0    0    0 -0.00000000000E+00 -0.00000000000E+00 -0.45593999997E+02  0.45594000000E+02  0.51100000000E-03 0.  1.
         23    2    1    2    0    0 -0.13322676296E-14  0.00000000000E+00  0.00000000000E+00  0.91188000000E+02  0.91188000000E+02 0.  0.
    9900012    2    3    3    0    0 -0.11406589963E+01  0.69325264206E+01 -0.42828289559E+02  0.47787269452E+02  0.19999992740E+02 0.  0.
         12    1    3    3    0    0  0.11406589963E+01 -0.69325264206E+01  0.42828289559E+02  0.43400730548E+02  0.00000000000E+00 0. -1.
         11    1    4    4    0    0 -0.74234966380E+01 -0.66165853637E+00 -0.14848828121E+02  0.16614264689E+02  0.51100000000E-03 0. -1.
        -11    1    4    4    0    0  0.80952796617E+01  0.27762188656E+01 -0.18582455078E+02  0.20458459888E+02  0.51100000000E-03 0.  1.
        -12    1    4    4    0    0 -0.18124420200E+01  0.48179660914E+01 -0.93970063608E+01  0.10714544875E+02  0.00000000000E+00 0.  1.
</event>
<event>
 8    1  0.6019723E-011  0.9118800E+02  0.7816164E-02  0.1184000E+00
        -11   -1    0    0    0    0  0.00000000000E+00  0.00000000000E+00  0.45593999997E+02  0.45594000000E+02  0.51100000000E-03 0. -1.
         11   -1    0    0    0    0 -0.00000000000E+00 -0.00000000000E+00 -0.45593999997E+02  0.45594000000E+02  0.51100000000E-03 0.  1.
         23    2    1    2    0    0  0.14210854715E-13 -0.88817841970E-15 -0.88817841970E-15  0.91188000000E+02  0.91188000000E+02 0.  0.
    9900012    2    3    3    0    0  0.42675223515E+02 -0.47602328537E+01 -0.63078344306E+01  0.47787270812E+02  0.19999998939E+02 0.  0.
         12    1    3    3    0    0 -0.42675223515E+02  0.47602328537E+01  0.63078344306E+01  0.43400729188E+02  0.00000000000E+00 0. -1.
         11    1    4    4    0    0  0.26905764194E+01 -0.35008655963E+01 -0.40734286120E+01  0.60073357081E+01  0.51100000000E-03 0. -1.
        -11    1    4    4    0    0  0.33299613268E+02 -0.55458862978E+01 -0.23236901510E+01  0.33838153537E+02  0.51100000000E-03 0.  1.
         12    1    4    4    0    0  0.66850338273E+01  0.42865190403E+01  0.89284332338E-01  0.79417815663E+01  0.00000000000E+00 0. -1.
</event>
<event>
 8    1  0.6019723E-011  0.9118800E+02  0.7816164E-02  0.1184000E+00
        -11   -1    0    0    0    0  0.00000000000E+00  0.00000000000E+00  0.45593999997E+02  0.45594000000E+02  0.51100000000E-03 0. -1.
         11   -1    0    0    0    0 -0.00000000000E+00 -0.00000000000E+00 -0.45593999997E+02  0.45594000000E+02  0.51100000000E-03 0.  1.
         23    2    1    2    0    0  0.00000000000E+00  0.00000000000E+00  0.00000000000E+00  0.91188000000E+02  0.91188000000E+02 0.  0.
    9900012    2    3    3    0    0  0.19100078053E+02  0.37249968512E+02  0.11456438955E+02  0.47787272710E+02  0.20000007594E+02 0.  0.
         12    1    3    3    0    0 -0.19100078053E+02 -0.37249968512E+02 -0.11456438955E+02  0.43400727290E+02  0.00000000000E+00 0. -1.
         11    1    4    4    0    0  0.17609077659E+02  0.14213441082E+02  0.26332203592E+01  0.22782347840E+02  0.51100000000E-03 0. -1.
        -11    1    4    4    0    0  0.24186934517E+01  0.15971333460E+02  0.72585638601E+01  0.17709328617E+02  0.51100000000E-03 0.  1.
        -12    1    4    4    0    0 -0.92769305705E+00  0.70651939704E+01  0.15646547354E+01  0.72955962531E+01  0.00000000000E+00 0.  1.
</event>
<event>
 8    1  0.6019723E-011  0.9118800E+02  0.7816164E-02  0.1184000E+00
        -11   -1    0    0    0    0  0.00000000000E+00  0.00000000000E+00  0.45593999997E+02  0.45594000000E+02  0.51100000000E-03 0. -1.
         11   -1    0    0    0    0 -0.00000000000E+00 -0.00000000000E+00 -0.45593999997E+02  0.45594000000E+02  0.51100000000E-03 0.  1.
         23    2    1    2    0    0 -0.17763568394E-14  0.00000000000E+00 -0.71054273576E-14  0.91188000000E+02  0.91188000000E+02 0.  0.
    9900012    2    3    3    0    0  0.12393858761E+02 -0.20015132627E+02  0.36461080609E+02  0.47787266501E+02  0.19999979286E+02 0.  0.
        -12    1    3    3    0    0 -0.12393858761E+02  0.20015132627E+02 -0.36461080609E+02  0.43400733499E+02  0.00000000000E+00 0.  1.
         11    1    4    4    0    0  0.13437219604E+02 -0.89715112204E+01  0.21168442675E+02  0.26629867627E+02  0.51100000000E-03 0. -1.
        -11    1    4    4    0    0 -0.48287069933E+01 -0.70137102163E+01  0.12026402911E+02  0.14735769728E+02  0.51100000000E-03 0.  1.
        -12    1    4    4    0    0  0.37853461505E+01 -0.40299111903E+01  0.32662350221E+01  0.64216291469E+01  0.00000000000E+00 0.  1.
</event>
<event>
 8    1  0.6019723E-011  0.9118800E+02  0.7816164E-02  0.1184000E+00
        -11   -1    0    0    0    0  0.00000000000E+00  0.00000000000E+00  0.45593999997E+02  0.45594000000E+02  0.51100000000E-03 0. -1.
         11   -1    0    0    0    0 -0.00000000000E+00 -0.00000000000E+00 -0.45593999997E+02  0.45594000000E+02  0.51100000000E-03 0.  1.
         23    2    1    2    0    0  0.00000000000E+00  0.00000000000E+00  0.00000000000E+00  0.91188000000E+02  0.91188000000E+02 0.  0.
    9900012    2    3    3    0    0 -0.17634603223E+02 -0.32774876444E+02  0.22326029955E+02  0.47787269933E+02  0.19999994934E+02 0.  0.
        -12    1    3    3    0    0  0.17634603223E+02  0.32774876444E+02 -0.22326029955E+02  0.43400730067E+02  0.00000000000E+00 0.  1.
         11    1    4    4    0    0 -0.16744940232E+02 -0.30843642956E+02  0.14735367848E+02  0.38063820093E+02  0.51100000000E-03 0. -1.
        -11    1    4    4    0    0 -0.28830396592E+01 -0.10924486494E+01  0.67174046606E+01  0.73911357290E+01  0.51100000000E-03 0.  1.
         12    1    4    4    0    0  0.19933766681E+01 -0.83878483838E+00  0.87325744657E+00  0.23323141114E+01  0.00000000000E+00 0. -1.
</event>
<event>
 8    1  0.6019723E-011  0.9118800E+02  0.7816164E-02  0.1184000E+00
        -11   -1    0    0    0    0  0.00000000000E+00  0.00000000000E+00  0.45593999997E+02  0.45594000000E+02  0.51100000000E-03 0. -1.
         11   -1    0    0    0    0 -0.00000000000E+00 -0.00000000000E+00 -0.45593999997E+02  0.45594000000E+02  0.51100000000E-03 0.  1.
         23    2    1    2    0    0  0.00000000000E+00  0.00000000000E+00 -0.35527136788E-14  0.91188000000E+02  0.91188000000E+02 0.  0.
    9900012    2    3    3    0    0  0.32312802400E+02  0.19485377628E+02  0.21443560563E+02  0.47787269247E+02  0.19999991804E+02 0.  0.
        -12    1    3    3    0    0 -0.32312802400E+02 -0.19485377628E+02 -0.21443560563E+02  0.43400730753E+02  0.00000000000E+00 0.  1.
         11    1    4    4    0    0  0.27855532375E+02  0.13855793906E+02  0.21202628635E+02  0.37649238637E+02  0.51100000000E-03 0. -1.
        -11    1    4    4    0    0  0.35388861613E+01  0.72809099874E+01 -0.49437860805E+00  0.81104732276E+01  0.51100000000E-03 0.  1.
         12    1    4    4    0    0  0.91838386365E+00 -0.16513262645E+01  0.73531053684E+00  0.20275573822E+01  0.00000000000E+00 0. -1.
</event>
<event>
 8    1  0.6019723E-011  0.9118800E+02  0.7816164E-02  0.1184000E+00
        -11   -1    0    0    0    0  0.00000000000E+00  0.00000000000E+00  0.45593999997E+02  0.45594000000E+02  0.51100000000E-03 0. -1.
         11   -1    0    0    0    0 -0.00000000000E+00 -0.00000000000E+00 -0.45593999997E+02  0.45594000000E+02  0.51100000000E-03 0.  1.
         23    2    1    2    0    0 -0.71054273576E-14  0.31086244690E-14  0.00000000000E+00  0.91188000000E+02  0.91188000000E+02 0.  0.
    9900012    2    3    3    0    0 -0.22541813083E+02  0.34872965194E+01  0.36923280430E+02  0.47787271760E+02  0.20000003261E+02 0.  0.
        -12    1    3    3    0    0  0.22541813083E+02 -0.34872965194E+01 -0.36923280430E+02  0.43400728240E+02  0.00000000000E+00 0.  1.
         11    1    4    4    0    0 -0.62324435739E+01 -0.54502834189E+01  0.16982823451E+02  0.18893523622E+02  0.51100000000E-03 0. -1.
        -11    1    4    4    0    0 -0.89532532941E+01 -0.47017751408E+00  0.83489726979E+01  0.12251006359E+02  0.51100000000E-03 0.  1.
         12    1    4    4    0    0 -0.73561162150E+01  0.94077574524E+01  0.11591484281E+02  0.16642741778E+02  0.00000000000E+00 0. -1.
</event>
<event>
 8    1  0.6019723E-011  0.9118800E+02  0.7816164E-02  0.1184000E+00
        -11   -1    0    0    0    0  0.00000000000E+00  0.00000000000E+00  0.45593999997E+02  0.45594000000E+02  0.51100000000E-03 0. -1.
         11   -1    0    0    0    0 -0.00000000000E+00 -0.00000000000E+00 -0.45593999997E+02  0.45594000000E+02  0.51100000000E-03 0.  1.
         23    2    1    2    0    0  0.17763568394E-14  0.00000000000E+00  0.00000000000E+00  0.91188000000E+02  0.91188000000E+02 0.  0.
    9900012    2    3    3    0    0  0.14653864809E+02 -0.11631814365E+02  0.39161091245E+02  0.47787240482E+02  0.19999860653E+02 0.  0.
        -12    1    3    3    0    0 -0.14653864809E+02  0.11631814365E+02 -0.39161091245E+02  0.43400759518E+02  0.00000000000E+00 0.  1.
         11    1    4    4    0    0  0.10018606496E+02 -0.32985563650E+01  0.85430714640E+01  0.13573393847E+02  0.51100000000E-03 0. -1.
        -11    1    4    4    0    0 -0.15142001630E+01  0.21472180855E+01  0.94247502212E+01  0.97841333103E+01  0.51100000000E-03 0.  1.
        -12    1    4    4    0    0  0.61494584760E+01 -0.10480476085E+02  0.21193269560E+02  0.24429713325E+02  0.00000000000E+00 0.  1.
</event>
<event>
 8    1  0.6019723E-011  0.9118800E+02  0.7816164E-02  0.1184000E+00
        -11   -1    0    0    0    0  0.00000000000E+00  0.00000000000E+00  0.45593999997E+02  0.45594000000E+02  0.51100000000E-03 0. -1.
         11   -1    0    0    0    0 -0.00000000000E+00 -0.00000000000E+00 -0.45593999997E+02  0.45594000000E+02  0.51100000000E-03 0.  1.
         23    2    1    2    0    0  0.71054273576E-14  0.00000000000E+00 -0.35527136788E-14  0.91188000000E+02  0.91188000000E+02 0.  0.
    9900012    2    3    3    0    0  0.34467058803E+02  0.94646007617E+01 -0.24618419499E+02  0.47787269721E+02  0.19999993967E+02 0.  0.
         12    1    3    3    0    0 -0.34467058803E+02 -0.94646007617E+01  0.24618419499E+02  0.43400730279E+02  0.00000000000E+00 0. -1.
         11    1    4    4    0    0  0.11690079790E+02  0.74051007845E+01 -0.10983152894E+02  0.17667006845E+02  0.51100000000E-03 0. -1.
        -11    1    4    4    0    0  0.10595892454E+02 -0.11640492358E+01 -0.13900355252E+02  0.17517072355E+02  0.51100000000E-03 0.  1.
        -12    1    4    4    0    0  0.12181086560E+02  0.32235492130E+01  0.26508864703E+00  0.12603190520E+02  0.00000000000E+00 0.  1.
</event>
<event>
 8    1  0.6019723E-011  0.9118800E+02  0.7816164E-02  0.1184000E+00
        -11   -1    0    0    0    0  0.00000000000E+00  0.00000000000E+00  0.45593999997E+02  0.45594000000E+02  0.51100000000E-03 0.  1.
         11   -1    0    0    0    0 -0.00000000000E+00 -0.00000000000E+00 -0.45593999997E+02  0.45594000000E+02  0.51100000000E-03 0. -1.
         23    2    1    2    0    0  0.35527136788E-14  0.17763568394E-14 -0.35527136788E-14  0.91188000000E+02  0.91188000000E+02 0.  0.
    9900012    2    3    3    0    0 -0.30301439996E+02  0.86829974211E+01  0.29833736256E+02  0.47787268105E+02  0.19999986600E+02 0.  0.
        -12    1    3    3    0    0  0.30301439996E+02 -0.86829974211E+01 -0.29833736256E+02  0.43400731895E+02  0.00000000000E+00 0.  1.
         11    1    4    4    0    0 -0.20749386442E+01  0.21397456959E+01 -0.97132738592E+00  0.31348619064E+01  0.51100000000E-03 0. -1.
        -11    1    4    4    0    0 -0.18607357977E+02 -0.24344154148E+01  0.21494277317E+02  0.28533561063E+02  0.51100000000E-03 0.  1.
        -12    1    4    4    0    0 -0.96191433744E+01  0.89776671401E+01  0.93107863243E+01  0.16118845136E+02  0.00000000000E+00 0.  1.
</event>
<event>
 8    1  0.6019723E-011  0.9118800E+02  0.7816164E-02  0.1184000E+00
        -11   -1    0    0    0    0  0.00000000000E+00  0.00000000000E+00  0.45593999997E+02  0.45594000000E+02  0.51100000000E-03 0. -1.
         11   -1    0    0    0    0 -0.00000000000E+00 -0.00000000000E+00 -0.45593999997E+02  0.45594000000E+02  0.51100000000E-03 0.  1.
         23    2    1    2    0    0  0.17763568394E-14  0.71054273576E-14  0.00000000000E+00  0.91188000000E+02  0.91188000000E+02 0.  0.
    9900012    2    3    3    0    0 -0.91469838303E+01  0.35539872041E+02 -0.23170529275E+02  0.47787271380E+02  0.20000001528E+02 0.  0.
         12    1    3    3    0    0  0.91469838303E+01 -0.35539872041E+02  0.23170529275E+02  0.43400728620E+02  0.00000000000E+00 0. -1.
         11    1    4    4    0    0 -0.78569823124E+01  0.31901269010E+01 -0.80785764562E+01  0.11712065511E+02  0.51100000000E-03 0. -1.
        -11    1    4    4    0    0  0.84541730717E+00  0.19338487169E+02 -0.68880213079E+01  0.20545964427E+02  0.51100000000E-03 0.  1.
         12    1    4    4    0    0 -0.21354188251E+01  0.13011257971E+02 -0.82039315114E+01  0.15529241442E+02  0.00000000000E+00 0. -1.
</event>
<event>
 8    1  0.6019723E-011  0.9118800E+02  0.7816164E-02  0.1184000E+00
        -11   -1    0    0    0    0  0.00000000000E+00  0.00000000000E+00  0.45593999997E+02  0.45594000000E+02  0.51100000000E-03 0. -1.
         11   -1    0    0    0    0 -0.00000000000E+00 -0.00000000000E+00 -0.45593999997E+02  0.45594000000E+02  0.51100000000E-03 0.  1.
         23    2    1    2    0    0  0.00000000000E+00  0.00000000000E+00 -0.35527136788E-14  0.91188000000E+02  0.91188000000E+02 0.  0.
    9900012    2    3    3    0    0 -0.37289650436E+02  0.86769555626E+01  0.20440537416E+02  0.47787272387E+02  0.20000006122E+02 0.  0.
        -12    1    3    3    0    0  0.37289650436E+02 -0.86769555626E+01 -0.20440537416E+02  0.43400727613E+02  0.00000000000E+00 0.  1.
         11    1    4    4    0    0 -0.20943063869E+02  0.31254721645E+01  0.20963112367E+02  0.29796519609E+02  0.51100000000E-03 0. -1.
        -11    1    4    4    0    0 -0.71432029976E+01  0.71980744717E+00 -0.20929181775E+01  0.74782202820E+01  0.51100000000E-03 0.  1.
        -12    1    4    4    0    0 -0.92033835699E+01  0.48316759509E+01  0.15703432264E+01  0.10512532496E+02  0.00000000000E+00 0.  1.
</event>
<event>
 8    1  0.6019723E-011  0.9118800E+02  0.7816164E-02  0.1184000E+00
        -11   -1    0    0    0    0  0.00000000000E+00  0.00000000000E+00  0.45593999997E+02  0.45594000000E+02  0.51100000000E-03 0. -1.
         11   -1    0    0    0    0 -0.00000000000E+00 -0.00000000000E+00 -0.45593999997E+02  0.45594000000E+02  0.51100000000E-03 0.  1.
         23    2    1    2    0    0  0.88817841970E-15  0.00000000000E+00  0.00000000000E+00  0.91188000000E+02  0.91188000000E+02 0.  0.
    9900012    2    3    3    0    0 -0.34238406187E+01 -0.22118363759E+02 -0.37184387750E+02  0.47787269680E+02  0.19999993777E+02 0.  0.
         12    1    3    3    0    0  0.34238406187E+01  0.22118363759E+02  0.37184387750E+02  0.43400730320E+02  0.00000000000E+00 0. -1.
         11    1    4    4    0    0  0.74588470646E+01 -0.92234349729E+01 -0.88753260573E+01  0.14814775230E+02  0.51100000000E-03 0. -1.
        -11    1    4    4    0    0 -0.97852332614E+01 -0.11734861284E+02 -0.25025705771E+02  0.29321386545E+02  0.51100000000E-03 0.  1.
         12    1    4    4    0    0 -0.10974544219E+01 -0.11600675024E+01 -0.32833559220E+01  0.36511079043E+01  0.00000000000E+00 0. -1.
</event>
<event>
 8    1  0.6019723E-011  0.9118800E+02  0.7816164E-02  0.1184000E+00
        -11   -1    0    0    0    0  0.00000000000E+00  0.00000000000E+00  0.45593999997E+02  0.45594000000E+02  0.51100000000E-03 0. -1.
         11   -1    0    0    0    0 -0.00000000000E+00 -0.00000000000E+00 -0.45593999997E+02  0.45594000000E+02  0.51100000000E-03 0.  1.
         23    2    1    2    0    0 -0.66613381478E-15 -0.35527136788E-14  0.00000000000E+00  0.91188000000E+02  0.91188000000E+02 0.  0.
    9900012    2    3    3    0    0  0.16905877202E+01  0.26031107094E+02 -0.34686406539E+02  0.47787269339E+02  0.19999992223E+02 0.  0.
         12    1    3    3    0    0 -0.16905877202E+01 -0.26031107094E+02  0.34686406539E+02  0.43400730661E+02  0.00000000000E+00 0. -1.
         11    1    4    4    0    0  0.76778169413E+01  0.32887834252E+01 -0.10539903328E+02  0.13448216678E+02  0.51100000000E-03 0. -1.
        -11    1    4    4    0    0 -0.51703613880E+01  0.14883686540E+02 -0.19857169420E+02  0.25348844935E+02  0.51100000000E-03 0.  1.
         12    1    4    4    0    0 -0.81686783306E+00  0.78586371286E+01 -0.42893337902E+01  0.89902077250E+01  0.00000000000E+00 0. -1.
</event>
<event>
 8    1  0.6019723E-011  0.9118800E+02  0.7816164E-02  0.1184000E+00
        -11   -1    0    0    0    0  0.00000000000E+00  0.00000000000E+00  0.45593999997E+02  0.45594000000E+02  0.51100000000E-03 0. -1.
         11   -1    0    0    0    0 -0.00000000000E+00 -0.00000000000E+00 -0.45593999997E+02  0.45594000000E+02  0.51100000000E-03 0.  1.
         23    2    1    2    0    0 -0.88817841970E-15  0.00000000000E+00  0.71054273576E-14  0.91188000000E+02  0.91188000000E+02 0.  0.
    9900012    2    3    3    0    0  0.70939263883E+01  0.25074651249E+02 -0.34706783454E+02  0.47787277142E+02  0.20000027802E+02 0.  0.
         12    1    3    3    0    0 -0.70939263883E+01 -0.25074651249E+02  0.34706783454E+02  0.43400722858E+02  0.00000000000E+00 0. -1.
         11    1    4    4    0    0  0.75333195617E+01  0.19881161715E+02 -0.35757820718E+02  0.41600880249E+02  0.51100000000E-03 0.  1.
        -11    1    4    4    0    0 -0.17019955077E+01  0.26822868949E+01 -0.24770890161E-01  0.31768011510E+01  0.51100000000E-03 0. -1.
         12    1    4    4    0    0  0.12626023342E+01  0.25112026389E+01  0.10758081536E+01  0.30095957422E+01  0.00000000000E+00 0. -1.
</event>
<event>
 8    1  0.6019723E-011  0.9118800E+02  0.7816164E-02  0.1184000E+00
        -11   -1    0    0    0    0  0.00000000000E+00  0.00000000000E+00  0.45593999997E+02  0.45594000000E+02  0.51100000000E-03 0.  1.
         11   -1    0    0    0    0 -0.00000000000E+00 -0.00000000000E+00 -0.45593999997E+02  0.45594000000E+02  0.51100000000E-03 0. -1.
         23    2    1    2    0    0  0.00000000000E+00  0.00000000000E+00  0.00000000000E+00  0.91188000000E+02  0.91188000000E+02 0.  0.
    9900012    2    3    3    0    0 -0.40810343498E+02 -0.42286086408E+01  0.14151254432E+02  0.47787271095E+02  0.20000000230E+02 0.  0.
        -12    1    3    3    0    0  0.40810343498E+02  0.42286086408E+01 -0.14151254432E+02  0.43400728905E+02  0.00000000000E+00 0.  1.
         11    1    4    4    0    0 -0.24187568540E+02  0.15053102719E+01  0.30569192147E+01  0.24426403465E+02  0.51100000000E-03 0. -1.
        -11    1    4    4    0    0 -0.15114325416E+02 -0.74665185767E+01  0.12201940018E+02  0.20810551961E+02  0.51100000000E-03 0.  1.
        -12    1    4    4    0    0 -0.15084495426E+01  0.17325996640E+01 -0.11076048008E+01  0.25503156693E+01  0.00000000000E+00 0.  1.
</event>
<event>
 8    1  0.6019723E-011  0.9118800E+02  0.7816164E-02  0.1184000E+00
        -11   -1    0    0    0    0  0.00000000000E+00  0.00000000000E+00  0.45593999997E+02  0.45594000000E+02  0.51100000000E-03 0. -1.
         11   -1    0    0    0    0 -0.00000000000E+00 -0.00000000000E+00 -0.45593999997E+02  0.45594000000E+02  0.51100000000E-03 0.  1.
         23    2    1    2    0    0  0.00000000000E+00  0.00000000000E+00  0.00000000000E+00  0.91188000000E+02  0.91188000000E+02 0.  0.
    9900012    2    3    3    0    0 -0.35413596468E+02  0.16680115075E+02 -0.18742312003E+02  0.47787270594E+02  0.19999997948E+02 0.  0.
         12    1    3    3    0    0  0.35413596468E+02 -0.16680115075E+02  0.18742312003E+02  0.43400729406E+02  0.00000000000E+00 0. -1.
         11    1    4    4    0    0 -0.44429941261E+01  0.49587772405E+01  0.28733939525E+01  0.72516247554E+01  0.51100000000E-03 0. -1.
        -11    1    4    4    0    0 -0.31415461058E+02  0.11118571403E+02 -0.20298453449E+02  0.39020264430E+02  0.51100000000E-03 0.  1.
        -12    1    4    4    0    0  0.44485871562E+00  0.60276643182E+00 -0.13172525068E+01  0.15153814091E+01  0.00000000000E+00 0.  1.
</event>
<event>
 8    1  0.6019723E-011  0.9118800E+02  0.7816164E-02  0.1184000E+00
        -11   -1    0    0    0    0  0.00000000000E+00  0.00000000000E+00  0.45593999997E+02  0.45594000000E+02  0.51100000000E-03 0. -1.
         11   -1    0    0    0    0 -0.00000000000E+00 -0.00000000000E+00 -0.45593999997E+02  0.45594000000E+02  0.51100000000E-03 0.  1.
         23    2    1    2    0    0  0.00000000000E+00  0.00000000000E+00  0.00000000000E+00  0.91188000000E+02  0.91188000000E+02 0.  0.
    9900012    2    3    3    0    0  0.19782539153E+02  0.35149348601E+02 -0.16024836176E+02  0.47787297968E+02  0.20000122753E+02 0.  0.
         12    1    3    3    0    0 -0.19782539153E+02 -0.35149348601E+02  0.16024836176E+02  0.43400702032E+02  0.00000000000E+00 0. -1.
         11    1    4    4    0    0  0.94081884733E+00  0.10554843140E+02 -0.29303266202E+01  0.10994392579E+02  0.51100000000E-03 0. -1.
        -11    1    4    4    0    0  0.15506885759E+02  0.86239392625E+01 -0.42945446108E+01  0.18255929120E+02  0.51100000000E-03 0.  1.
        -12    1    4    4    0    0  0.33348345462E+01  0.15970566199E+02 -0.87999649452E+01  0.18536976269E+02  0.00000000000E+00 0.  1.
</event>
<event>
 8    1  0.6019723E-011  0.9118800E+02  0.7816164E-02  0.1184000E+00
        -11   -1    0    0    0    0  0.00000000000E+00  0.00000000000E+00  0.45593999997E+02  0.45594000000E+02  0.51100000000E-03 0. -1.
         11   -1    0    0    0    0 -0.00000000000E+00 -0.00000000000E+00 -0.45593999997E+02  0.45594000000E+02  0.51100000000E-03 0.  1.
         23    2    1    2    0    0  0.00000000000E+00  0.17763568394E-14  0.00000000000E+00  0.91188000000E+02  0.91188000000E+02 0.  0.
    9900012    2    3    3    0    0 -0.85465634139E+01 -0.11841621860E+02  0.40869975977E+02  0.47787277761E+02  0.20000030625E+02 0.  0.
        -12    1    3    3    0    0  0.85465634139E+01  0.11841621860E+02 -0.40869975977E+02  0.43400722239E+02  0.00000000000E+00 0.  1.
         11    1    4    4    0    0  0.27229105920E+01 -0.52465932274E+01  0.14344554289E+02  0.15514742041E+02  0.51100000000E-03 0. -1.
        -11    1    4    4    0    0 -0.81695375980E+01 -0.59876430242E+01  0.65799090890E+01  0.12078427772E+02  0.51100000000E-03 0.  1.
         12    1    4    4    0    0 -0.30999364079E+01 -0.60738560786E+00  0.19945512599E+02  0.20194107949E+02  0.00000000000E+00 0. -1.
</event>
<event>
 8    1  0.8519521E-011  0.9118800E+02  0.7816164E-02  0.1184000E+00
        -11   -1    0    0    0    0  0.00000000000E+00  0.00000000000E+00  0.45593999997E+02  0.45594000000E+02  0.51100000000E-03 0. -1.
         11   -1    0    0    0    0 -0.00000000000E+00 -0.00000000000E+00 -0.45593999997E+02  0.45594000000E+02  0.51100000000E-03 0.  1.
         23    2    1    2    0    0 -0.88817841970E-15 -0.11102230246E-14  0.00000000000E+00  0.91188000000E+02  0.91188000000E+02 0.  0.
    9900012    2    3    3    0    0 -0.78608430329E+01  0.19238472440E+01 -0.42639528260E+02  0.47787269458E+02  0.19999992765E+02 0.  0.
         12    1    3    3    0    0  0.78608430329E+01 -0.19238472440E+01  0.42639528260E+02  0.43400730542E+02  0.00000000000E+00 0. -1.
         11    1    4    4    0    0  0.14316548444E+01  0.62391890361E+01 -0.20398493747E+02  0.21379327932E+02  0.51100000000E-03 0. -1.
        -11    1    4    4    0    0 -0.27423166202E+01  0.83035332984E+00 -0.15298261286E+02  0.15564272734E+02  0.51100000000E-03 0.  1.
         12    1    4    4    0    0 -0.65501812571E+01 -0.51456951219E+01 -0.69427732270E+01  0.10843668792E+02  0.00000000000E+00 0. -1.
</event>
<event>
 8    1  0.6019723E-011  0.9118800E+02  0.7816164E-02  0.1184000E+00
        -11   -1    0    0    0    0  0.00000000000E+00  0.00000000000E+00  0.45593999997E+02  0.45594000000E+02  0.51100000000E-03 0. -1.
         11   -1    0    0    0    0 -0.00000000000E+00 -0.00000000000E+00 -0.45593999997E+02  0.45594000000E+02  0.51100000000E-03 0.  1.
         23    2    1    2    0    0 -0.35527136788E-14  0.00000000000E+00  0.35527136788E-14  0.91188000000E+02  0.91188000000E+02 0.  0.
    9900012    2    3    3    0    0 -0.22426386438E+02  0.32624034892E+02  0.17786316386E+02  0.47787268303E+02  0.19999987499E+02 0.  0.
        -12    1    3    3    0    0  0.22426386438E+02 -0.32624034892E+02 -0.17786316386E+02  0.43400731697E+02  0.00000000000E+00 0.  1.
         11    1    4    4    0    0 -0.17489343147E+02  0.15241084421E+02  0.43798448659E+01  0.23608278619E+02  0.51100000000E-03 0. -1.
        -11    1    4    4    0    0  0.61149005033E+00  0.54024425955E+01  0.10582992240E+00  0.54379689511E+01  0.51100000000E-03 0.  1.
         12    1    4    4    0    0 -0.55485333410E+01  0.11980507875E+02  0.13300641597E+02  0.18741020732E+02  0.00000000000E+00 0. -1.
</event>
<event>
 8    1  0.6019723E-011  0.9118800E+02  0.7816164E-02  0.1184000E+00
        -11   -1    0    0    0    0  0.00000000000E+00  0.00000000000E+00  0.45593999997E+02  0.45594000000E+02  0.51100000000E-03 0. -1.
         11   -1    0    0    0    0 -0.00000000000E+00 -0.00000000000E+00 -0.45593999997E+02  0.45594000000E+02  0.51100000000E-03 0.  1.
         23    2    1    2    0    0  0.17763568394E-14  0.00000000000E+00  0.00000000000E+00  0.91188000000E+02  0.91188000000E+02 0.  0.
    9900012    2    3    3    0    0  0.10130038575E+02  0.12603589302E+02 -0.40275982214E+02  0.47787275488E+02  0.20000020261E+02 0.  0.
         12    1    3    3    0    0 -0.10130038575E+02 -0.12603589302E+02  0.40275982214E+02  0.43400724512E+02  0.00000000000E+00 0. -1.
         11    1    4    4    0    0  0.12117883598E+01  0.15985679918E+00  0.92835250642E-01  0.12258074360E+01  0.51100000000E-03 0. -1.
        -11    1    4    4    0    0 -0.25585293434E+01 -0.30101975072E+01 -0.70987765399E+01  0.81240377928E+01  0.51100000000E-03 0.  1.
        -12    1    4    4    0    0  0.11476779559E+02  0.15453930010E+02 -0.33270040925E+02  0.38437430259E+02  0.00000000000E+00 0.  1.
</event>
<event>
 8    1  0.6019723E-011  0.9118800E+02  0.7816164E-02  0.1184000E+00
        -11   -1    0    0    0    0  0.00000000000E+00  0.00000000000E+00  0.45593999997E+02  0.45594000000E+02  0.51100000000E-03 0. -1.
         11   -1    0    0    0    0 -0.00000000000E+00 -0.00000000000E+00 -0.45593999997E+02  0.45594000000E+02  0.51100000000E-03 0.  1.
         23    2    1    2    0    0 -0.88817841970E-15  0.00000000000E+00  0.00000000000E+00  0.91188000000E+02  0.91188000000E+02 0.  0.
    9900012    2    3    3    0    0  0.70744815762E+01 -0.88449473853E+01 -0.41896799621E+02  0.47787271869E+02  0.20000003758E+02 0.  0.
         12    1    3    3    0    0 -0.70744815762E+01  0.88449473853E+01  0.41896799621E+02  0.43400728131E+02  0.00000000000E+00 0. -1.
         11    1    4    4    0    0  0.20961951507E+00 -0.23855063615E+01 -0.21848682320E+02  0.21979524570E+02  0.51100000000E-03 0.  1.
        -11    1    4    4    0    0  0.20553668448E+01 -0.14445159628E+01  0.16623886427E+01  0.30124235250E+01  0.51100000000E-03 0. -1.
        -12    1    4    4    0    0  0.48094952163E+01 -0.50149250611E+01 -0.21710505944E+02  0.22795323774E+02  0.00000000000E+00 0.  1.
</event>
<event>
 8    1  0.6019723E-011  0.9118800E+02  0.7816164E-02  0.1184000E+00
        -11   -1    0    0    0    0  0.00000000000E+00  0.00000000000E+00  0.45593999997E+02  0.45594000000E+02  0.51100000000E-03 0. -1.
         11   -1    0    0    0    0 -0.00000000000E+00 -0.00000000000E+00 -0.45593999997E+02  0.45594000000E+02  0.51100000000E-03 0.  1.
         23    2    1    2    0    0  0.88817841970E-15  0.00000000000E+00 -0.35527136788E-14  0.91188000000E+02  0.91188000000E+02 0.  0.
    9900012    2    3    3    0    0 -0.77850229225E+01 -0.37728716174E+02 -0.19989010428E+02  0.47787272542E+02  0.20000006827E+02 0.  0.
         12    1    3    3    0    0  0.77850229225E+01  0.37728716174E+02  0.19989010428E+02  0.43400727458E+02  0.00000000000E+00 0. -1.
         11    1    4    4    0    0 -0.83134259143E+01 -0.20343464559E+02 -0.80520293520E+01  0.23405229707E+02  0.51100000000E-03 0. -1.
        -11    1    4    4    0    0  0.54201065368E+01 -0.12542446461E+02 -0.48403446445E+01  0.14495497737E+02  0.51100000000E-03 0.  1.
        -12    1    4    4    0    0 -0.48917035450E+01 -0.48428051532E+01 -0.70966364315E+01  0.98865450975E+01  0.00000000000E+00 0.  1.
</event>
<event>
 8    1  0.6019723E-011  0.9118800E+02  0.7816164E-02  0.1184000E+00
        -11   -1    0    0    0    0  0.00000000000E+00  0.00000000000E+00  0.45593999997E+02  0.45594000000E+02  0.51100000000E-03 0.  1.
         11   -1    0    0    0    0 -0.00000000000E+00 -0.00000000000E+00 -0.45593999997E+02  0.45594000000E+02  0.51100000000E-03 0. -1.
         23    2    1    2    0    0 -0.35527136788E-14  0.00000000000E+00  0.00000000000E+00  0.91188000000E+02  0.91188000000E+02 0.  0.
    9900012    2    3    3    0    0  0.29691940583E+02 -0.31247007041E+02 -0.50632560758E+01  0.47787270205E+02  0.19999996175E+02 0.  0.
        -12    1    3    3    0    0 -0.29691940583E+02  0.31247007041E+02  0.50632560758E+01  0.43400729795E+02  0.00000000000E+00 0.  1.
         11    1    4    4    0    0  0.57735507130E+01 -0.16512676555E+02 -0.12830832324E-01  0.17492928278E+02  0.51100000000E-03 0. -1.
        -11    1    4    4    0    0  0.23750929672E+02 -0.15226571144E+02 -0.32251094355E+01  0.28396416327E+02  0.51100000000E-03 0.  1.
        -12    1    4    4    0    0  0.16746019789E+00  0.49224065838E+00 -0.18253158080E+01  0.18979255998E+01  0.00000000000E+00 0.  1.
</event>
<event>
 8    1  0.6019723E-011  0.9118800E+02  0.7816164E-02  0.1184000E+00
        -11   -1    0    0    0    0  0.00000000000E+00  0.00000000000E+00  0.45593999997E+02  0.45594000000E+02  0.51100000000E-03 0. -1.
         11   -1    0    0    0    0 -0.00000000000E+00 -0.00000000000E+00 -0.45593999997E+02  0.45594000000E+02  0.51100000000E-03 0.  1.
         23    2    1    2    0    0  0.44408920985E-15 -0.35527136788E-14  0.00000000000E+00  0.91188000000E+02  0.91188000000E+02 0.  0.
    9900012    2    3    3    0    0 -0.39871593234E+01 -0.21739163690E+02  0.37351500364E+02  0.47787271241E+02  0.20000000896E+02 0.  0.
        -12    1    3    3    0    0  0.39871593234E+01  0.21739163690E+02 -0.37351500364E+02  0.43400728759E+02  0.00000000000E+00 0.  1.
         11    1    4    4    0    0 -0.43392411412E+01 -0.10614463244E+02  0.19405241467E+02  0.22540169482E+02  0.51100000000E-03 0. -1.
        -11    1    4    4    0    0  0.62375269446E+01 -0.46494825865E+01  0.39107418237E+01  0.87073723120E+01  0.51100000000E-03 0.  1.
        -12    1    4    4    0    0 -0.58854451267E+01 -0.64752178592E+01  0.14035517073E+02  0.16539729447E+02  0.00000000000E+00 0.  1.
</event>
<event>
 8    1  0.6019723E-011  0.9118800E+02  0.7816164E-02  0.1184000E+00
        -11   -1    0    0    0    0  0.00000000000E+00  0.00000000000E+00  0.45593999997E+02  0.45594000000E+02  0.51100000000E-03 0. -1.
         11   -1    0    0    0    0 -0.00000000000E+00 -0.00000000000E+00 -0.45593999997E+02  0.45594000000E+02  0.51100000000E-03 0.  1.
         23    2    1    2    0    0  0.00000000000E+00  0.35527136788E-14 -0.35527136788E-14  0.91188000000E+02  0.91188000000E+02 0.  0.
    9900012    2    3    3    0    0  0.32000673343E+02  0.23182901237E+02 -0.17948072861E+02  0.47787270471E+02  0.19999997387E+02 0.  0.
         12    1    3    3    0    0 -0.32000673343E+02 -0.23182901237E+02  0.17948072861E+02  0.43400729529E+02  0.00000000000E+00 0. -1.
         11    1    4    4    0    0  0.10658953987E+02 -0.21268179110E+00 -0.38461833335E+01  0.11333651668E+02  0.51100000000E-03 0. -1.
        -11    1    4    4    0    0  0.15792306920E+02  0.16323044877E+02 -0.15299260999E+02  0.27384414168E+02  0.51100000000E-03 0.  1.
        -12    1    4    4    0    0  0.55494124363E+01  0.70725381504E+01  0.11973714714E+01  0.90692046354E+01  0.00000000000E+00 0.  1.
</event>
<event>
 8    1  0.6019723E-011  0.9118800E+02  0.7816164E-02  0.1184000E+00
        -11   -1    0    0    0    0  0.00000000000E+00  0.00000000000E+00  0.45593999997E+02  0.45594000000E+02  0.51100000000E-03 0. -1.
         11   -1    0    0    0    0 -0.00000000000E+00 -0.00000000000E+00 -0.45593999997E+02  0.45594000000E+02  0.51100000000E-03 0.  1.
         23    2    1    2    0    0  0.00000000000E+00  0.00000000000E+00  0.71054273576E-14  0.91188000000E+02  0.91188000000E+02 0.  0.
    9900012    2    3    3    0    0  0.13698458864E+02 -0.65282857050E+01  0.40661492317E+02  0.47787271355E+02  0.20000001415E+02 0.  0.
        -12    1    3    3    0    0 -0.13698458864E+02  0.65282857050E+01 -0.40661492317E+02  0.43400728645E+02  0.00000000000E+00 0.  1.
         11    1    4    4    0    0  0.88156707842E+01  0.33895283085E+01  0.22498641313E+02  0.24400692914E+02  0.51100000000E-03 0. -1.
        -11    1    4    4    0    0 -0.18751786267E+00 -0.86234397826E+01  0.14909598652E+02  0.17224836976E+02  0.51100000000E-03 0.  1.
        -12    1    4    4    0    0  0.50703059429E+01 -0.12943742308E+01  0.32532523528E+01  0.61617414645E+01  0.00000000000E+00 0.  1.
</event>
<event>
 8    1  0.6019723E-011  0.9118800E+02  0.7816164E-02  0.1184000E+00
        -11   -1    0    0    0    0  0.00000000000E+00  0.00000000000E+00  0.45593999997E+02  0.45594000000E+02  0.51100000000E-03 0. -1.
         11   -1    0    0    0    0 -0.00000000000E+00 -0.00000000000E+00 -0.45593999997E+02  0.45594000000E+02  0.51100000000E-03 0.  1.
         23    2    1    2    0    0 -0.71054273576E-14 -0.35527136788E-14  0.00000000000E+00  0.91188000000E+02  0.91188000000E+02 0.  0.
    9900012    2    3    3    0    0  0.30136244157E+02 -0.27609895056E+02  0.14598756957E+02  0.47787271647E+02  0.20000002747E+02 0.  0.
        -12    1    3    3    0    0 -0.30136244157E+02  0.27609895056E+02 -0.14598756957E+02  0.43400728353E+02  0.00000000000E+00 0.  1.
         11    1    4    4    0    0  0.33315012394E+01 -0.59908477842E+01  0.15490238554E+01  0.70277046642E+01  0.51100000000E-03 0. -1.
        -11    1    4    4    0    0  0.62059362885E+01 -0.94144290503E+00  0.94596025780E+01  0.11352710740E+02  0.51100000000E-03 0.  1.
        -12    1    4    4    0    0  0.20598806629E+02 -0.20677604366E+02  0.35901305233E+01  0.29406856242E+02  0.00000000000E+00 0.  1.
</event>
<event>
 8    1  0.6019723E-011  0.9118800E+02  0.7816164E-02  0.1184000E+00
        -11   -1    0    0    0    0  0.00000000000E+00  0.00000000000E+00  0.45593999997E+02  0.45594000000E+02  0.51100000000E-03 0. -1.
         11   -1    0    0    0    0 -0.00000000000E+00 -0.00000000000E+00 -0.45593999997E+02  0.45594000000E+02  0.51100000000E-03 0.  1.
         23    2    1    2    0    0  0.00000000000E+00  0.00000000000E+00  0.88817841970E-15  0.91188000000E+02  0.91188000000E+02 0.  0.
    9900012    2    3    3    0    0 -0.27698686949E+02  0.32813210426E+02 -0.63007308831E+01  0.47787271356E+02  0.20000001419E+02 0.  0.
         12    1    3    3    0    0  0.27698686949E+02 -0.32813210426E+02  0.63007308831E+01  0.43400728644E+02  0.00000000000E+00 0. -1.
         11    1    4    4    0    0 -0.45158643018E+00  0.11443070893E+02 -0.42377171926E+01  0.12210898781E+02  0.51100000000E-03 0. -1.
        -11    1    4    4    0    0 -0.24087246137E+02  0.21098448997E+02 -0.46337439179E+00  0.32024282859E+02  0.51100000000E-03 0.  1.
        -12    1    4    4    0    0 -0.31598543817E+01  0.27169053647E+00 -0.15996392987E+01  0.35520897155E+01  0.00000000000E+00 0.  1.
</event>
<event>
 8    1  0.6019723E-011  0.9118800E+02  0.7816164E-02  0.1184000E+00
        -11   -1    0    0    0    0  0.00000000000E+00  0.00000000000E+00  0.45593999997E+02  0.45594000000E+02  0.51100000000E-03 0. -1.
         11   -1    0    0    0    0 -0.00000000000E+00 -0.00000000000E+00 -0.45593999997E+02  0.45594000000E+02  0.51100000000E-03 0.  1.
         23    2    1    2    0    0  0.00000000000E+00  0.00000000000E+00  0.00000000000E+00  0.91188000000E+02  0.91188000000E+02 0.  0.
    9900012    2    3    3    0    0 -0.30530495293E+02  0.88905827773E+01 -0.29537598202E+02  0.47787270600E+02  0.19999997973E+02 0.  0.
         12    1    3    3    0    0  0.30530495293E+02 -0.88905827773E+01  0.29537598202E+02  0.43400729400E+02  0.00000000000E+00 0. -1.
         11    1    4    4    0    0 -0.61768386463E+00  0.54584721876E+01 -0.66221404993E+01  0.86040221427E+01  0.51100000000E-03 0. -1.
        -11    1    4    4    0    0 -0.18522358572E+02 -0.18561870320E+01 -0.98479932156E+01  0.21059586131E+02  0.51100000000E-03 0.  1.
        -12    1    4    4    0    0 -0.11390452856E+02  0.52882976217E+01 -0.13067464487E+02  0.18123662326E+02  0.00000000000E+00 0.  1.
</event>
<event>
 8    1  0.6019723E-011  0.9118800E+02  0.7816164E-02  0.1184000E+00
        -11   -1    0    0    0    0  0.00000000000E+00  0.00000000000E+00  0.45593999997E+02  0.45594000000E+02  0.51100000000E-03 0.  1.
         11   -1    0    0    0    0 -0.00000000000E+00 -0.00000000000E+00 -0.45593999997E+02  0.45594000000E+02  0.51100000000E-03 0. -1.
         23    2    1    2    0    0  0.00000000000E+00  0.00000000000E+00 -0.88817841970E-15  0.91188000000E+02  0.91188000000E+02 0.  0.
    9900012    2    3    3    0    0  0.40594188038E+02 -0.13244352019E+02 -0.77667513926E+01  0.47787269705E+02  0.19999993895E+02 0.  0.
        -12    1    3    3    0    0 -0.40594188038E+02  0.13244352019E+02  0.77667513926E+01  0.43400730295E+02  0.00000000000E+00 0.  1.
         11    1    4    4    0    0  0.99307348567E+01 -0.10244367088E+02  0.18856148785E+00  0.14268921036E+02  0.51100000000E-03 0. -1.
        -11    1    4    4    0    0  0.43170545287E+01 -0.21123705724E+01  0.21777806424E+01  0.52765327656E+01  0.51100000000E-03 0.  1.
         12    1    4    4    0    0  0.26346398653E+02 -0.88761435892E+00 -0.10133093523E+02  0.28241815904E+02  0.00000000000E+00 0. -1.
</event>
<event>
 8    1  0.6019723E-011  0.9118800E+02  0.7816164E-02  0.1184000E+00
        -11   -1    0    0    0    0  0.00000000000E+00  0.00000000000E+00  0.45593999997E+02  0.45594000000E+02  0.51100000000E-03 0. -1.
         11   -1    0    0    0    0 -0.00000000000E+00 -0.00000000000E+00 -0.45593999997E+02  0.45594000000E+02  0.51100000000E-03 0.  1.
         23    2    1    2    0    0  0.00000000000E+00  0.17763568394E-14  0.00000000000E+00  0.91188000000E+02  0.91188000000E+02 0.  0.
    9900012    2    3    3    0    0 -0.22145854622E+02  0.10299280660E+02 -0.35876305366E+02  0.47787270216E+02  0.19999996223E+02 0.  0.
         12    1    3    3    0    0  0.22145854622E+02 -0.10299280660E+02  0.35876305366E+02  0.43400729784E+02  0.00000000000E+00 0. -1.
         11    1    4    4    0    0 -0.56047006250E+01  0.43358179153E+01 -0.14248603923E+01  0.72278775231E+01  0.51100000000E-03 0. -1.
        -11    1    4    4    0    0 -0.14003272068E+02 -0.95300909019E+00 -0.22832567395E+02  0.26801604225E+02  0.51100000000E-03 0.  1.
        -12    1    4    4    0    0 -0.25378819280E+01  0.69164718345E+01 -0.11618877580E+02  0.13757788468E+02  0.00000000000E+00 0.  1.
</event>
<event>
 8    1  0.6019723E-011  0.9118800E+02  0.7816164E-02  0.1184000E+00
        -11   -1    0    0    0    0  0.00000000000E+00  0.00000000000E+00  0.45593999997E+02  0.45594000000E+02  0.51100000000E-03 0.  1.
         11   -1    0    0    0    0 -0.00000000000E+00 -0.00000000000E+00 -0.45593999997E+02  0.45594000000E+02  0.51100000000E-03 0. -1.
         23    2    1    2    0    0 -0.35527136788E-14  0.00000000000E+00 -0.17763568394E-14  0.91188000000E+02  0.91188000000E+02 0.  0.
    9900012    2    3    3    0    0 -0.26935079765E+02  0.31957741058E+02  0.11697311522E+02  0.47787276132E+02  0.20000023196E+02 0.  0.
        -12    1    3    3    0    0  0.26935079765E+02 -0.31957741058E+02 -0.11697311522E+02  0.43400723868E+02  0.00000000000E+00 0.  1.
         11    1    4    4    0    0 -0.63690646803E+00 -0.42664935252E-01 -0.22222804795E+01  0.23121420667E+01  0.51100000000E-03 0. -1.
        -11    1    4    4    0    0 -0.43325053385E+01  0.30123180237E+01 -0.21690902209E+01  0.57052269921E+01  0.51100000000E-03 0.  1.
         12    1    4    4    0    0 -0.21965667958E+02  0.28988087969E+02  0.16088682222E+02  0.39769907073E+02  0.00000000000E+00 0. -1.
</event>
<event>
 8    1  0.6019723E-011  0.9118800E+02  0.7816164E-02  0.1184000E+00
        -11   -1    0    0    0    0  0.00000000000E+00  0.00000000000E+00  0.45593999997E+02  0.45594000000E+02  0.51100000000E-03 0. -1.
         11   -1    0    0    0    0 -0.00000000000E+00 -0.00000000000E+00 -0.45593999997E+02  0.45594000000E+02  0.51100000000E-03 0.  1.
         23    2    1    2    0    0  0.00000000000E+00  0.00000000000E+00 -0.71054273576E-14  0.91188000000E+02  0.91188000000E+02 0.  0.
    9900012    2    3    3    0    0 -0.57811845720E+01 -0.26143922337E+02 -0.34156937565E+02  0.47787272425E+02  0.20000006296E+02 0.  0.
         12    1    3    3    0    0  0.57811845720E+01  0.26143922337E+02  0.34156937565E+02  0.43400727575E+02  0.00000000000E+00 0. -1.
         11    1    4    4    0    0 -0.17723201469E+01  0.23720365241E+01 -0.23108679382E+01  0.37560333949E+01  0.51100000000E-03 0. -1.
        -11    1    4    4    0    0  0.79691663928E+00 -0.14618014983E+02 -0.10122869176E+02  0.17798705537E+02  0.51100000000E-03 0.  1.
        -12    1    4    4    0    0 -0.48057810644E+01 -0.13897943878E+02 -0.21723200450E+02  0.26232533493E+02  0.00000000000E+00 0.  1.
</event>
<event>
 8    1  0.6019723E-011  0.9118800E+02  0.7816164E-02  0.1184000E+00
        -11   -1    0    0    0    0  0.00000000000E+00  0.00000000000E+00  0.45593999997E+02  0.45594000000E+02  0.51100000000E-03 0. -1.
         11   -1    0    0    0    0 -0.00000000000E+00 -0.00000000000E+00 -0.45593999997E+02  0.45594000000E+02  0.51100000000E-03 0.  1.
         23    2    1    2    0    0  0.00000000000E+00  0.00000000000E+00 -0.35527136788E-14  0.91188000000E+02  0.91188000000E+02 0.  0.
    9900012    2    3    3    0    0  0.14018797327E+02 -0.26666976909E+02  0.31240486322E+02  0.47787282015E+02  0.20000050020E+02 0.  0.
        -12    1    3    3    0    0 -0.14018797327E+02  0.26666976909E+02 -0.31240486322E+02  0.43400717985E+02  0.00000000000E+00 0.  1.
         11    1    4    4    0    0  0.11105060562E+00 -0.28958962576E+01  0.85478751597E+01  0.90257807074E+01  0.51100000000E-03 0. -1.
        -11    1    4    4    0    0  0.15086101825E+02 -0.17346481680E+02  0.11269008870E+02  0.25602372080E+02  0.51100000000E-03 0.  1.
        -12    1    4    4    0    0 -0.11783551041E+01 -0.64245989710E+01  0.11423602292E+02  0.13159129227E+02  0.00000000000E+00 0.  1.
</event>
<event>
 8    1  0.6019723E-011  0.9118800E+02  0.7816164E-02  0.1184000E+00
        -11   -1    0    0    0    0  0.00000000000E+00  0.00000000000E+00  0.45593999997E+02  0.45594000000E+02  0.51100000000E-03 0. -1.
         11   -1    0    0    0    0 -0.00000000000E+00 -0.00000000000E+00 -0.45593999997E+02  0.45594000000E+02  0.51100000000E-03 0.  1.
         23    2    1    2    0    0  0.88817841970E-15  0.44408920985E-15  0.71054273576E-14  0.91188000000E+02  0.91188000000E+02 0.  0.
    9900012    2    3    3    0    0  0.67113858655E+01  0.31772543429E+01  0.42760795267E+02  0.47787271236E+02  0.20000000875E+02 0.  0.
        -12    1    3    3    0    0 -0.67113858655E+01 -0.31772543429E+01 -0.42760795267E+02  0.43400728764E+02  0.00000000000E+00 0.  1.
         11    1    4    4    0    0  0.77008579701E+01  0.66002431047E+01  0.10572434318E+02  0.14650692482E+02  0.51100000000E-03 0. -1.
        -11    1    4    4    0    0  0.22283906572E+01 -0.25002478090E+01  0.24801296638E+02  0.25026411633E+02  0.51100000000E-03 0.  1.
         12    1    4    4    0    0 -0.32178627619E+01 -0.92274095275E+00  0.73870643104E+01  0.81101671219E+01  0.00000000000E+00 0. -1.
</event>
<event>
 8    1  0.6019723E-011  0.9118800E+02  0.7816164E-02  0.1184000E+00
        -11   -1    0    0    0    0  0.00000000000E+00  0.00000000000E+00  0.45593999997E+02  0.45594000000E+02  0.51100000000E-03 0. -1.
         11   -1    0    0    0    0 -0.00000000000E+00 -0.00000000000E+00 -0.45593999997E+02  0.45594000000E+02  0.51100000000E-03 0.  1.
         23    2    1    2    0    0  0.00000000000E+00  0.00000000000E+00  0.00000000000E+00  0.91188000000E+02  0.91188000000E+02 0.  0.
    9900012    2    3    3    0    0  0.88965056150E+01  0.19898783568E+02  0.37530171971E+02  0.47787271805E+02  0.20000003469E+02 0.  0.
        -12    1    3    3    0    0 -0.88965056150E+01 -0.19898783568E+02 -0.37530171971E+02  0.43400728195E+02  0.00000000000E+00 0.  1.
         11    1    4    4    0    0 -0.85088210747E+00 -0.30528736782E+01  0.67529189848E+01  0.74596215140E+01  0.51100000000E-03 0. -1.
        -11    1    4    4    0    0  0.85515702069E+01  0.13012028260E+02  0.14858255925E+02  0.21522314044E+02  0.51100000000E-03 0.  1.
        -12    1    4    4    0    0  0.11958175156E+01  0.99396289866E+01  0.15918997062E+02  0.18805336247E+02  0.00000000000E+00 0.  1.
</event>
<event>
 8    1  0.6019723E-011  0.9118800E+02  0.7816164E-02  0.1184000E+00
        -11   -1    0    0    0    0  0.00000000000E+00  0.00000000000E+00  0.45593999997E+02  0.45594000000E+02  0.51100000000E-03 0. -1.
         11   -1    0    0    0    0 -0.00000000000E+00 -0.00000000000E+00 -0.45593999997E+02  0.45594000000E+02  0.51100000000E-03 0.  1.
         23    2    1    2    0    0  0.00000000000E+00 -0.35527136788E-14  0.71054273576E-14  0.91188000000E+02  0.91188000000E+02 0.  0.
    9900012    2    3    3    0    0  0.60155014611E+01 -0.23884184809E+02  0.35734894621E+02  0.47787271487E+02  0.20000002019E+02 0.  0.
        -12    1    3    3    0    0 -0.60155014611E+01  0.23884184809E+02 -0.35734894621E+02  0.43400728513E+02  0.00000000000E+00 0.  1.
         11    1    4    4    0    0 -0.15319916923E+01 -0.20558955629E+02  0.32955175115E+02  0.38872370937E+02  0.51100000000E-03 0. -1.
        -11    1    4    4    0    0  0.59711139298E+01 -0.33860729678E+01  0.25399838374E+01  0.73192356064E+01  0.51100000000E-03 0.  1.
        -12    1    4    4    0    0  0.15763792235E+01  0.60843787414E-01  0.23973566849E+00  0.15956649440E+01  0.00000000000E+00 0.  1.
</event>
<event>
 8    1  0.6019723E-011  0.9118800E+02  0.7816164E-02  0.1184000E+00
        -11   -1    0    0    0    0  0.00000000000E+00  0.00000000000E+00  0.45593999997E+02  0.45594000000E+02  0.51100000000E-03 0. -1.
         11   -1    0    0    0    0 -0.00000000000E+00 -0.00000000000E+00 -0.45593999997E+02  0.45594000000E+02  0.51100000000E-03 0.  1.
         23    2    1    2    0    0  0.88817841970E-15  0.00000000000E+00  0.71054273576E-14  0.91188000000E+02  0.91188000000E+02 0.  0.
    9900012    2    3    3    0    0  0.58123957878E+01 -0.10501615286E+02 -0.41707978243E+02  0.47787270542E+02  0.19999997709E+02 0.  0.
         12    1    3    3    0    0 -0.58123957878E+01  0.10501615286E+02  0.41707978243E+02  0.43400729458E+02  0.00000000000E+00 0. -1.
         11    1    4    4    0    0  0.53521100535E+00 -0.10516930932E+02 -0.19991578852E+02  0.22595475483E+02  0.51100000000E-03 0. -1.
        -11    1    4    4    0    0  0.14136542872E+01  0.41985647456E+01 -0.23690058741E+01  0.50237987081E+01  0.51100000000E-03 0.  1.
        -12    1    4    4    0    0  0.38635304952E+01 -0.41832490997E+01 -0.19347393516E+02  0.20167996350E+02  0.00000000000E+00 0.  1.
</event>
<event>
 8    1  0.6019723E-011  0.9118800E+02  0.7816164E-02  0.1184000E+00
        -11   -1    0    0    0    0  0.00000000000E+00  0.00000000000E+00  0.45593999997E+02  0.45594000000E+02  0.51100000000E-03 0.  1.
         11   -1    0    0    0    0 -0.00000000000E+00 -0.00000000000E+00 -0.45593999997E+02  0.45594000000E+02  0.51100000000E-03 0. -1.
         23    2    1    2    0    0 -0.35527136788E-14  0.71054273576E-14  0.00000000000E+00  0.91188000000E+02  0.91188000000E+02 0.  0.
    9900012    2    3    3    0    0  0.28015466308E+02 -0.32376066629E+02  0.71096347848E+01  0.47787274780E+02  0.20000017031E+02 0.  0.
        -12    1    3    3    0    0 -0.28015466308E+02  0.32376066629E+02 -0.71096347848E+01  0.43400725220E+02  0.00000000000E+00 0.  1.
         11    1    4    4    0    0  0.10094347494E+02 -0.33067776915E+01 -0.40575541264E+01  0.11370768478E+02  0.51100000000E-03 0. -1.
        -11    1    4    4    0    0  0.90293426932E+00 -0.29692990203E+01 -0.50403270806E+00  0.31442131286E+01  0.51100000000E-03 0.  1.
         12    1    4    4    0    0  0.17018184545E+02 -0.26099989918E+02  0.11671221619E+02  0.33272293173E+02  0.00000000000E+00 0. -1.
</event>
<event>
 8    1  0.6019723E-011  0.9118800E+02  0.7816164E-02  0.1184000E+00
        -11   -1    0    0    0    0  0.00000000000E+00  0.00000000000E+00  0.45593999997E+02  0.45594000000E+02  0.51100000000E-03 0. -1.
         11   -1    0    0    0    0 -0.00000000000E+00 -0.00000000000E+00 -0.45593999997E+02  0.45594000000E+02  0.51100000000E-03 0.  1.
         23    2    1    2    0    0  0.00000000000E+00  0.00000000000E+00  0.00000000000E+00  0.91188000000E+02  0.91188000000E+02 0.  0.
    9900012    2    3    3    0    0  0.21487407844E+02 -0.24091253278E+02 -0.29009067336E+02  0.47787272264E+02  0.20000005559E+02 0.  0.
         12    1    3    3    0    0 -0.21487407844E+02  0.24091253278E+02  0.29009067336E+02  0.43400727736E+02  0.00000000000E+00 0. -1.
         11    1    4    4    0    0  0.22837548488E+02 -0.20194155221E+02 -0.18984984517E+02  0.35913606939E+02  0.51100000000E-03 0. -1.
        -11    1    4    4    0    0 -0.69139681407E+00 -0.21756017142E+01 -0.97457488214E+01  0.10009540086E+02  0.51100000000E-03 0.  1.
         12    1    4    4    0    0 -0.65874383034E+00 -0.17214963427E+01 -0.27833399783E+00  0.18641252389E+01  0.00000000000E+00 0. -1.
</event>
<event>
 8    1  0.6019723E-011  0.9118800E+02  0.7816164E-02  0.1184000E+00
        -11   -1    0    0    0    0  0.00000000000E+00  0.00000000000E+00  0.45593999997E+02  0.45594000000E+02  0.51100000000E-03 0. -1.
         11   -1    0    0    0    0 -0.00000000000E+00 -0.00000000000E+00 -0.45593999997E+02  0.45594000000E+02  0.51100000000E-03 0.  1.
         23    2    1    2    0    0  0.35527136788E-14 -0.17763568394E-14  0.00000000000E+00  0.91188000000E+02  0.91188000000E+02 0.  0.
    9900012    2    3    3    0    0 -0.18691027578E+02  0.63292326557E+01 -0.38655007643E+02  0.47787270584E+02  0.19999997901E+02 0.  0.
         12    1    3    3    0    0  0.18691027578E+02 -0.63292326557E+01  0.38655007643E+02  0.43400729416E+02  0.00000000000E+00 0. -1.
         11    1    4    4    0    0  0.52476955875E+00 -0.25061678680E+01  0.73363701063E+00  0.26635472583E+01  0.51100000000E-03 0. -1.
        -11    1    4    4    0    0 -0.15063387889E+02  0.87446619066E+01 -0.27720231229E+02  0.32738142681E+02  0.51100000000E-03 0.  1.
        -12    1    4    4    0    0 -0.41524092481E+01  0.90738617067E-01 -0.11668413425E+02  0.12385580645E+02  0.00000000000E+00 0.  1.
</event>
<event>
 8    1  0.6019723E-011  0.9118800E+02  0.7816164E-02  0.1184000E+00
        -11   -1    0    0    0    0  0.00000000000E+00  0.00000000000E+00  0.45593999997E+02  0.45594000000E+02  0.51100000000E-03 0.  1.
         11   -1    0    0    0    0 -0.00000000000E+00 -0.00000000000E+00 -0.45593999997E+02  0.45594000000E+02  0.51100000000E-03 0. -1.
         23    2    1    2    0    0  0.00000000000E+00  0.00000000000E+00  0.17763568394E-14  0.91188000000E+02  0.91188000000E+02 0.  0.
    9900012    2    3    3    0    0 -0.21593254728E+02 -0.35467656030E+02 -0.12625359711E+02  0.47787274409E+02  0.20000015340E+02 0.  0.
         12    1    3    3    0    0  0.21593254728E+02  0.35467656030E+02  0.12625359711E+02  0.43400725591E+02  0.00000000000E+00 0. -1.
         11    1    4    4    0    0 -0.15161019065E+01 -0.18307363709E+02 -0.26016426903E+01  0.18553346758E+02  0.51100000000E-03 0.  1.
        -11    1    4    4    0    0 -0.12583992212E+02 -0.91510536922E+01 -0.95484184520E+01  0.18255709760E+02  0.51100000000E-03 0. -1.
        -12    1    4    4    0    0 -0.74931606094E+01 -0.80092386285E+01 -0.47529856910E+00  0.10978217891E+02  0.00000000000E+00 0.  1.
</event>
<event>
 8    1  0.6019723E-011  0.9118800E+02  0.7816164E-02  0.1184000E+00
        -11   -1    0    0    0    0  0.00000000000E+00  0.00000000000E+00  0.45593999997E+02  0.45594000000E+02  0.51100000000E-03 0. -1.
         11   -1    0    0    0    0 -0.00000000000E+00 -0.00000000000E+00 -0.45593999997E+02  0.45594000000E+02  0.51100000000E-03 0.  1.
         23    2    1    2    0    0  0.00000000000E+00  0.00000000000E+00 -0.35527136788E-14  0.91188000000E+02  0.91188000000E+02 0.  0.
    9900012    2    3    3    0    0  0.10727116843E+02 -0.28758522657E+02 -0.30683841682E+02  0.47787288006E+02  0.20000077335E+02 0.  0.
         12    1    3    3    0    0 -0.10727116843E+02  0.28758522657E+02  0.30683841682E+02  0.43400711994E+02  0.00000000000E+00 0. -1.
         11    1    4    4    0    0 -0.20487771087E+01 -0.15283963412E+01  0.10082030778E+01  0.27477184579E+01  0.51100000000E-03 0. -1.
        -11    1    4    4    0    0  0.12196173421E+02 -0.18188534627E+02 -0.27220598590E+02  0.34936090592E+02  0.51100000000E-03 0.  1.
        -12    1    4    4    0    0  0.57972053061E+00 -0.90415916892E+01 -0.44714461703E+01  0.10103478956E+02  0.00000000000E+00 0.  1.
</event>
<event>
 8    1  0.6019723E-011  0.9118800E+02  0.7816164E-02  0.1184000E+00
        -11   -1    0    0    0    0  0.00000000000E+00  0.00000000000E+00  0.45593999997E+02  0.45594000000E+02  0.51100000000E-03 0. -1.
         11   -1    0    0    0    0 -0.00000000000E+00 -0.00000000000E+00 -0.45593999997E+02  0.45594000000E+02  0.51100000000E-03 0.  1.
         23    2    1    2    0    0  0.00000000000E+00  0.00000000000E+00  0.00000000000E+00  0.91188000000E+02  0.91188000000E+02 0.  0.
    9900012    2    3    3    0    0  0.26319291181E+02  0.10940897607E+02  0.32729420936E+02  0.47787270472E+02  0.19999997390E+02 0.  0.
        -12    1    3    3    0    0 -0.26319291181E+02 -0.10940897607E+02 -0.32729420936E+02  0.43400729528E+02  0.00000000000E+00 0.  1.
         11    1    4    4    0    0  0.32369917479E+01 -0.28269074878E+01  0.35470140368E+01  0.55723271941E+01  0.51100000000E-03 0. -1.
        -11    1    4    4    0    0  0.10932048522E+02  0.71325492883E+00  0.46884711428E+01  0.11916382815E+02  0.51100000000E-03 0.  1.
        -12    1    4    4    0    0  0.12150250912E+02  0.13054550166E+02  0.24493935757E+02  0.30298560463E+02  0.00000000000E+00 0.  1.
</event>
<event>
 8    1  0.6019723E-011  0.9118800E+02  0.7816164E-02  0.1184000E+00
        -11   -1    0    0    0    0  0.00000000000E+00  0.00000000000E+00  0.45593999997E+02  0.45594000000E+02  0.51100000000E-03 0. -1.
         11   -1    0    0    0    0 -0.00000000000E+00 -0.00000000000E+00 -0.45593999997E+02  0.45594000000E+02  0.51100000000E-03 0.  1.
         23    2    1    2    0    0 -0.35527136788E-14  0.00000000000E+00 -0.71054273576E-14  0.91188000000E+02  0.91188000000E+02 0.  0.
    9900012    2    3    3    0    0  0.16593544934E+02  0.20757148617E+01  0.40049580504E+02  0.47787271616E+02  0.20000002606E+02 0.  0.
        -12    1    3    3    0    0 -0.16593544934E+02 -0.20757148617E+01 -0.40049580504E+02  0.43400728384E+02  0.00000000000E+00 0.  1.
         11    1    4    4    0    0  0.20157194147E+02 -0.16993433612E+01  0.29719382208E+02  0.35950548296E+02  0.51100000000E-03 0. -1.
        -11    1    4    4    0    0 -0.29142369764E+01  0.17981803019E+01  0.80594961094E+01  0.87568091992E+01  0.51100000000E-03 0.  1.
         12    1    4    4    0    0 -0.64941223612E+00  0.19768779211E+01  0.22707021873E+01  0.30799141206E+01  0.00000000000E+00 0. -1.
</event>
<event>
 8    1  0.6019723E-011  0.9118800E+02  0.7816164E-02  0.1184000E+00
        -11   -1    0    0    0    0  0.00000000000E+00  0.00000000000E+00  0.45593999997E+02  0.45594000000E+02  0.51100000000E-03 0. -1.
         11   -1    0    0    0    0 -0.00000000000E+00 -0.00000000000E+00 -0.45593999997E+02  0.45594000000E+02  0.51100000000E-03 0.  1.
         23    2    1    2    0    0  0.00000000000E+00  0.17763568394E-14  0.00000000000E+00  0.91188000000E+02  0.91188000000E+02 0.  0.
    9900012    2    3    3    0    0 -0.11031295792E+01  0.15692379894E+02 -0.40449400185E+02  0.47787289672E+02  0.20000084931E+02 0.  0.
         12    1    3    3    0    0  0.11031295792E+01 -0.15692379894E+02  0.40449400185E+02  0.43400710328E+02  0.00000000000E+00 0. -1.
         11    1    4    4    0    0  0.21321808586E+01  0.21636848733E+01  0.15989338953E+01  0.34328293444E+01  0.51100000000E-03 0. -1.
        -11    1    4    4    0    0 -0.21771930014E+01  0.46828195027E+01 -0.17124767293E+02  0.17886492752E+02  0.51100000000E-03 0.  1.
         12    1    4    4    0    0 -0.10581174364E+01  0.88458755178E+01 -0.24923566787E+02  0.26467967576E+02  0.00000000000E+00 0. -1.
</event>
<event>
 8    1  0.6019723E-011  0.9118800E+02  0.7816164E-02  0.1184000E+00
        -11   -1    0    0    0    0  0.00000000000E+00  0.00000000000E+00  0.45593999997E+02  0.45594000000E+02  0.51100000000E-03 0. -1.
         11   -1    0    0    0    0 -0.00000000000E+00 -0.00000000000E+00 -0.45593999997E+02  0.45594000000E+02  0.51100000000E-03 0.  1.
         23    2    1    2    0    0  0.00000000000E+00  0.00000000000E+00  0.00000000000E+00  0.91188000000E+02  0.91188000000E+02 0.  0.
    9900012    2    3    3    0    0  0.78169409871E+01  0.21864489285E+02  0.36666915674E+02  0.47787272320E+02  0.20000005817E+02 0.  0.
        -12    1    3    3    0    0 -0.78169409871E+01 -0.21864489285E+02 -0.36666915674E+02  0.43400727680E+02  0.00000000000E+00 0.  1.
         11    1    4    4    0    0 -0.32063966721E+01  0.53359090084E+01  0.14521165919E+02  0.15799277340E+02  0.51100000000E-03 0. -1.
        -11    1    4    4    0    0  0.31178465256E+01  0.52751389387E+00  0.97715152347E+01  0.10270430765E+02  0.51100000000E-03 0.  1.
         12    1    4    4    0    0  0.79054911335E+01  0.16001066383E+02  0.12374234520E+02  0.21717564215E+02  0.00000000000E+00 0. -1.
</event>
<event>
 8    1  0.6019723E-011  0.9118800E+02  0.7816164E-02  0.1184000E+00
        -11   -1    0    0    0    0  0.00000000000E+00  0.00000000000E+00  0.45593999997E+02  0.45594000000E+02  0.51100000000E-03 0. -1.
         11   -1    0    0    0    0 -0.00000000000E+00 -0.00000000000E+00 -0.45593999997E+02  0.45594000000E+02  0.51100000000E-03 0.  1.
         23    2    1    2    0    0  0.00000000000E+00  0.00000000000E+00 -0.71054273576E-14  0.91188000000E+02  0.91188000000E+02 0.  0.
    9900012    2    3    3    0    0  0.28309745099E+02  0.95749444925E+00 -0.32882593029E+02  0.47787269735E+02  0.19999994031E+02 0.  0.
         12    1    3    3    0    0 -0.28309745099E+02 -0.95749444925E+00  0.32882593029E+02  0.43400730265E+02  0.00000000000E+00 0. -1.
         11    1    4    4    0    0  0.11992622398E+01 -0.19874060398E+01 -0.11622207051E+02  0.11851738678E+02  0.51100000000E-03 0. -1.
        -11    1    4    4    0    0  0.21284029861E+02 -0.14981326788E+00 -0.11608567138E+02  0.24244405590E+02  0.51100000000E-03 0.  1.
        -12    1    4    4    0    0  0.58264529977E+01  0.30947137570E+01 -0.96518188406E+01  0.11691125468E+02  0.00000000000E+00 0.  1.
</event>
<event>
 8    1  0.6019723E-011  0.9118800E+02  0.7816164E-02  0.1184000E+00
        -11   -1    0    0    0    0  0.00000000000E+00  0.00000000000E+00  0.45593999997E+02  0.45594000000E+02  0.51100000000E-03 0. -1.
         11   -1    0    0    0    0 -0.00000000000E+00 -0.00000000000E+00 -0.45593999997E+02  0.45594000000E+02  0.51100000000E-03 0.  1.
         23    2    1    2    0    0  0.00000000000E+00  0.00000000000E+00  0.35527136788E-14  0.91188000000E+02  0.91188000000E+02 0.  0.
    9900012    2    3    3    0    0 -0.41796752870E+01  0.33256510778E+02  0.27570958583E+02  0.47787274755E+02  0.20000016917E+02 0.  0.
        -12    1    3    3    0    0  0.41796752870E+01 -0.33256510778E+02 -0.27570958583E+02  0.43400725245E+02  0.00000000000E+00 0.  1.
         11    1    4    4    0    0 -0.15178457205E+01  0.18883622685E+02  0.19429480333E+02  0.27136686747E+02  0.51100000000E-03 0. -1.
        -11    1    4    4    0    0 -0.24680122024E+01  0.61854032061E+01 -0.25947936195E+01  0.71472548047E+01  0.51100000000E-03 0.  1.
        -12    1    4    4    0    0 -0.19381736404E+00  0.81874848868E+01  0.10736271869E+02  0.13503333203E+02  0.00000000000E+00 0.  1.
</event>
<event>
 8    1  0.6019723E-011  0.9118800E+02  0.7816164E-02  0.1184000E+00
        -11   -1    0    0    0    0  0.00000000000E+00  0.00000000000E+00  0.45593999997E+02  0.45594000000E+02  0.51100000000E-03 0. -1.
         11   -1    0    0    0    0 -0.00000000000E+00 -0.00000000000E+00 -0.45593999997E+02  0.45594000000E+02  0.51100000000E-03 0.  1.
         23    2    1    2    0    0  0.00000000000E+00  0.00000000000E+00  0.00000000000E+00  0.91188000000E+02  0.91188000000E+02 0.  0.
    9900012    2    3    3    0    0  0.23311507538E+02 -0.17271481583E+02 -0.32278368856E+02  0.47787267797E+02  0.19999985192E+02 0.  0.
         12    1    3    3    0    0 -0.23311507538E+02  0.17271481583E+02  0.32278368856E+02  0.43400732203E+02  0.00000000000E+00 0. -1.
         11    1    4    4    0    0  0.11687954852E+02 -0.69364007993E+01 -0.36306470764E+01  0.14067819416E+02  0.51100000000E-03 0. -1.
        -11    1    4    4    0    0  0.15623410471E+01  0.44207466788E+00 -0.90530063331E+01  0.91974596214E+01  0.51100000000E-03 0.  1.
         12    1    4    4    0    0  0.10061211639E+02 -0.10777155451E+02 -0.19594715446E+02  0.24521988759E+02  0.00000000000E+00 0. -1.
</event>
<event>
 8    1  0.6019723E-011  0.9118800E+02  0.7816164E-02  0.1184000E+00
        -11   -1    0    0    0    0  0.00000000000E+00  0.00000000000E+00  0.45593999997E+02  0.45594000000E+02  0.51100000000E-03 0. -1.
         11   -1    0    0    0    0 -0.00000000000E+00 -0.00000000000E+00 -0.45593999997E+02  0.45594000000E+02  0.51100000000E-03 0.  1.
         23    2    1    2    0    0  0.00000000000E+00  0.17763568394E-14 -0.35527136788E-14  0.91188000000E+02  0.91188000000E+02 0.  0.
    9900012    2    3    3    0    0  0.32068977142E+02  0.63906251586E+01  0.28537066329E+02  0.47787267984E+02  0.19999986047E+02 0.  0.
        -12    1    3    3    0    0 -0.32068977142E+02 -0.63906251586E+01 -0.28537066329E+02  0.43400732016E+02  0.00000000000E+00 0.  1.
         11    1    4    4    0    0  0.63071175755E+01  0.15643832366E+01  0.22111168227E+01  0.68641142828E+01  0.51100000000E-03 0. -1.
        -11    1    4    4    0    0  0.18736211203E+02 -0.28270866849E+01  0.96204741367E+01  0.21250683571E+02  0.51100000000E-03 0.  1.
        -12    1    4    4    0    0  0.70256483633E+01  0.76533286069E+01  0.16705475370E+02  0.19672470130E+02  0.00000000000E+00 0.  1.
</event>
<event>
 8    1  0.6586518E-011  0.9118800E+02  0.7816164E-02  0.1184000E+00
        -11   -1    0    0    0    0  0.00000000000E+00  0.00000000000E+00  0.45593999997E+02  0.45594000000E+02  0.51100000000E-03 0. -1.
         11   -1    0    0    0    0 -0.00000000000E+00 -0.00000000000E+00 -0.45593999997E+02  0.45594000000E+02  0.51100000000E-03 0.  1.
         23    2    1    2    0    0 -0.44408920985E-15  0.00000000000E+00  0.00000000000E+00  0.91188000000E+02  0.91188000000E+02 0.  0.
    9900012    2    3    3    0    0 -0.25093273838E+01 -0.34786052237E+02 -0.25831316710E+02  0.47787273311E+02  0.20000010336E+02 0.  0.
         12    1    3    3    0    0  0.25093273838E+01  0.34786052237E+02  0.25831316710E+02  0.43400726689E+02  0.00000000000E+00 0. -1.
         11    1    4    4    0    0 -0.72830252359E+01 -0.11658785781E+02 -0.14777751878E+02  0.20182955514E+02  0.51100000000E-03 0. -1.
        -11    1    4    4    0    0  0.44125011386E-01 -0.87448055331E+01 -0.86027978562E+01  0.12267098355E+02  0.51100000000E-03 0.  1.
         12    1    4    4    0    0  0.47295728407E+01 -0.14382460923E+02 -0.24507669759E+01  0.15337219442E+02  0.00000000000E+00 0. -1.
</event>
<event>
 8    1  0.6019723E-011  0.9118800E+02  0.7816164E-02  0.1184000E+00
        -11   -1    0    0    0    0  0.00000000000E+00  0.00000000000E+00  0.45593999997E+02  0.45594000000E+02  0.51100000000E-03 0. -1.
         11   -1    0    0    0    0 -0.00000000000E+00 -0.00000000000E+00 -0.45593999997E+02  0.45594000000E+02  0.51100000000E-03 0.  1.
         23    2    1    2    0    0 -0.35527136788E-14  0.00000000000E+00  0.00000000000E+00  0.91188000000E+02  0.91188000000E+02 0.  0.
    9900012    2    3    3    0    0 -0.20764803797E+02  0.36008755160E+02  0.12482703402E+02  0.47787246445E+02  0.19999887843E+02 0.  0.
        -12    1    3    3    0    0  0.20764803797E+02 -0.36008755160E+02 -0.12482703402E+02  0.43400753555E+02  0.00000000000E+00 0.  1.
         11    1    4    4    0    0 -0.15751389528E+02  0.22333239931E+02  0.16612369666E+02  0.31982037210E+02  0.51100000000E-03 0. -1.
        -11    1    4    4    0    0 -0.19310905533E+01  0.47334223807E+01 -0.37483091876E+01  0.63391024748E+01  0.51100000000E-03 0.  1.
         12    1    4    4    0    0 -0.30823237156E+01  0.89420928478E+01 -0.38135707680E+00  0.94661067608E+01  0.00000000000E+00 0. -1.
</event>
<event>
 8    1  0.6019723E-011  0.9118800E+02  0.7816164E-02  0.1184000E+00
        -11   -1    0    0    0    0  0.00000000000E+00  0.00000000000E+00  0.45593999997E+02  0.45594000000E+02  0.51100000000E-03 0. -1.
         11   -1    0    0    0    0 -0.00000000000E+00 -0.00000000000E+00 -0.45593999997E+02  0.45594000000E+02  0.51100000000E-03 0.  1.
         23    2    1    2    0    0  0.00000000000E+00  0.00000000000E+00  0.00000000000E+00  0.91188000000E+02  0.91188000000E+02 0.  0.
    9900012    2    3    3    0    0 -0.13498510420E+02 -0.31650423416E+02  0.26451170043E+02  0.47787268640E+02  0.19999989036E+02 0.  0.
        -12    1    3    3    0    0  0.13498510420E+02  0.31650423416E+02 -0.26451170043E+02  0.43400731360E+02  0.00000000000E+00 0.  1.
         11    1    4    4    0    0 -0.13110019904E+02 -0.24530814829E+02  0.25405174022E+02  0.37670364551E+02  0.51100000000E-03 0. -1.
        -11    1    4    4    0    0 -0.74615130216E+00  0.13191735075E+01  0.68405023345E+00  0.16627944827E+01  0.51100000000E-03 0.  1.
         12    1    4    4    0    0  0.35766078582E+00 -0.84387820947E+01  0.36194578758E+00  0.84541096061E+01  0.00000000000E+00 0. -1.
</event>
<event>
 8    1  0.6789402E-011  0.9118800E+02  0.7816164E-02  0.1184000E+00
        -11   -1    0    0    0    0  0.00000000000E+00  0.00000000000E+00  0.45593999997E+02  0.45594000000E+02  0.51100000000E-03 0. -1.
         11   -1    0    0    0    0 -0.00000000000E+00 -0.00000000000E+00 -0.45593999997E+02  0.45594000000E+02  0.51100000000E-03 0.  1.
         23    2    1    2    0    0  0.00000000000E+00  0.00000000000E+00  0.00000000000E+00  0.91188000000E+02  0.91188000000E+02 0.  0.
    9900012    2    3    3    0    0 -0.19568971328E+02 -0.22621247359E+02 -0.31447695325E+02  0.47787274059E+02  0.20000013744E+02 0.  0.
         12    1    3    3    0    0  0.19568971328E+02  0.22621247359E+02  0.31447695325E+02  0.43400725941E+02  0.00000000000E+00 0. -1.
         11    1    4    4    0    0 -0.13016032989E+02 -0.16770055208E+02 -0.11961874050E+02  0.24366745730E+02  0.51100000000E-03 0. -1.
        -11    1    4    4    0    0 -0.38019284568E+01 -0.74894470171E+01 -0.18055923308E+02  0.19913885693E+02  0.51100000000E-03 0.  1.
         12    1    4    4    0    0 -0.27510098830E+01  0.16382548653E+01 -0.14298979669E+01  0.35066426359E+01  0.00000000000E+00 0. -1.
</event>
<event>
 8    1  0.6019723E-011  0.9118800E+02  0.7816164E-02  0.1184000E+00
        -11   -1    0    0    0    0  0.00000000000E+00  0.00000000000E+00  0.45593999997E+02  0.45594000000E+02  0.51100000000E-03 0. -1.
         11   -1    0    0    0    0 -0.00000000000E+00 -0.00000000000E+00 -0.45593999997E+02  0.45594000000E+02  0.51100000000E-03 0.  1.
         23    2    1    2    0    0 -0.35527136788E-14  0.00000000000E+00  0.00000000000E+00  0.91188000000E+02  0.91188000000E+02 0.  0.
    9900012    2    3    3    0    0 -0.22062993009E+02 -0.16198775264E+02 -0.33681551830E+02  0.47787275188E+02  0.20000018890E+02 0.  0.
         12    1    3    3    0    0  0.22062993009E+02  0.16198775264E+02  0.33681551830E+02  0.43400724812E+02  0.00000000000E+00 0. -1.
         11    1    4    4    0    0 -0.42327144195E+01 -0.10152351500E+02 -0.22620780835E+02  0.25153247071E+02  0.51100000000E-03 0. -1.
        -11    1    4    4    0    0 -0.14940125344E+02 -0.61127871227E+01 -0.11343409089E+02  0.19729329480E+02  0.51100000000E-03 0.  1.
         12    1    4    4    0    0 -0.28901532453E+01  0.66363358586E-01  0.28263809501E+00  0.29046986366E+01  0.00000000000E+00 0. -1.
</event>
<event>
 8    1  0.6019723E-011  0.9118800E+02  0.7816164E-02  0.1184000E+00
        -11   -1    0    0    0    0  0.00000000000E+00  0.00000000000E+00  0.45593999997E+02  0.45594000000E+02  0.51100000000E-03 0. -1.
         11   -1    0    0    0    0 -0.00000000000E+00 -0.00000000000E+00 -0.45593999997E+02  0.45594000000E+02  0.51100000000E-03 0.  1.
         23    2    1    2    0    0  0.17763568394E-14 -0.71054273576E-14  0.00000000000E+00  0.91188000000E+02  0.91188000000E+02 0.  0.
    9900012    2    3    3    0    0  0.86642337658E+01  0.38444129461E+02 -0.18182493125E+02  0.47787273128E+02  0.20000009501E+02 0.  0.
         12    1    3    3    0    0 -0.86642337658E+01 -0.38444129461E+02  0.18182493125E+02  0.43400726872E+02  0.00000000000E+00 0. -1.
         11    1    4    4    0    0 -0.29962731480E+00 -0.21156545321E+00  0.94945210583E+00  0.10178389024E+01  0.51100000000E-03 0. -1.
        -11    1    4    4    0    0  0.12032495863E+02  0.17158167352E+02 -0.97579136372E+01  0.23117104974E+02  0.51100000000E-03 0.  1.
        -12    1    4    4    0    0 -0.30686347827E+01  0.21497527562E+02 -0.93740315934E+01  0.23652329252E+02  0.00000000000E+00 0.  1.
</event>
<event>
 8    1  0.6019723E-011  0.9118800E+02  0.7816164E-02  0.1184000E+00
        -11   -1    0    0    0    0  0.00000000000E+00  0.00000000000E+00  0.45593999997E+02  0.45594000000E+02  0.51100000000E-03 0. -1.
         11   -1    0    0    0    0 -0.00000000000E+00 -0.00000000000E+00 -0.45593999997E+02  0.45594000000E+02  0.51100000000E-03 0.  1.
         23    2    1    2    0    0  0.00000000000E+00  0.00000000000E+00 -0.35527136788E-14  0.91188000000E+02  0.91188000000E+02 0.  0.
    9900012    2    3    3    0    0  0.45125874099E+01  0.32204564725E+02 -0.28742426942E+02  0.47787256449E+02  0.19999933456E+02 0.  0.
         12    1    3    3    0    0 -0.45125874099E+01 -0.32204564725E+02  0.28742426942E+02  0.43400743551E+02  0.00000000000E+00 0. -1.
         11    1    4    4    0    0  0.69911938824E+01  0.65811026085E+01 -0.16550225850E+02  0.19133679191E+02  0.51100000000E-03 0. -1.
        -11    1    4    4    0    0 -0.25216741453E+01  0.23640621297E+02 -0.12078574141E+02  0.26667016506E+02  0.51100000000E-03 0.  1.
         12    1    4    4    0    0  0.43067672773E-01  0.19828408190E+01 -0.11362695085E+00  0.19865607522E+01  0.00000000000E+00 0. -1.
</event>
<event>
 8    1  0.6019723E-011  0.9118800E+02  0.7816164E-02  0.1184000E+00
        -11   -1    0    0    0    0  0.00000000000E+00  0.00000000000E+00  0.45593999997E+02  0.45594000000E+02  0.51100000000E-03 0. -1.
         11   -1    0    0    0    0 -0.00000000000E+00 -0.00000000000E+00 -0.45593999997E+02  0.45594000000E+02  0.51100000000E-03 0.  1.
         23    2    1    2    0    0  0.00000000000E+00  0.00000000000E+00  0.00000000000E+00  0.91188000000E+02  0.91188000000E+02 0.  0.
    9900012    2    3    3    0    0  0.74416464116E+01 -0.19473121904E+02 -0.38066299181E+02  0.47787266005E+02  0.19999977023E+02 0.  0.
         12    1    3    3    0    0 -0.74416464116E+01  0.19473121904E+02  0.38066299181E+02  0.43400733995E+02  0.00000000000E+00 0. -1.
         11    1    4    4    0    0  0.12896000857E-01  0.15061728294E+01 -0.13118028294E+02  0.13204218625E+02  0.51100000000E-03 0. -1.
        -11    1    4    4    0    0  0.82651592228E+01 -0.17854548553E+02 -0.24330030669E+02  0.31289745183E+02  0.51100000000E-03 0.  1.
         12    1    4    4    0    0 -0.83640881200E+00 -0.31247461807E+01 -0.61824021693E+00  0.32933021970E+01  0.00000000000E+00 0. -1.
</event>
<event>
 8    1  0.7461228E-011  0.9118800E+02  0.7816164E-02  0.1184000E+00
        -11   -1    0    0    0    0  0.00000000000E+00  0.00000000000E+00  0.45593999997E+02  0.45594000000E+02  0.51100000000E-03 0. -1.
         11   -1    0    0    0    0 -0.00000000000E+00 -0.00000000000E+00 -0.45593999997E+02  0.45594000000E+02  0.51100000000E-03 0.  1.
         23    2    1    2    0    0  0.00000000000E+00  0.00000000000E+00  0.00000000000E+00  0.91188000000E+02  0.91188000000E+02 0.  0.
    9900012    2    3    3    0    0  0.12135702561E+02  0.25774521800E+01 -0.41589729960E+02  0.47787260669E+02  0.19999952692E+02 0.  0.
         12    1    3    3    0    0 -0.12135702561E+02 -0.25774521800E+01  0.41589729960E+02  0.43400739331E+02  0.00000000000E+00 0. -1.
         11    1    4    4    0    0  0.10450835136E+02  0.67013106428E+01 -0.15498706030E+02  0.19857930613E+02  0.51100000000E-03 0. -1.
        -11    1    4    4    0    0  0.46386347665E+01  0.18333400027E+00 -0.10320569547E+02  0.11316567496E+02  0.51100000000E-03 0.  1.
         12    1    4    4    0    0 -0.29537673413E+01 -0.43071924631E+01 -0.15770454383E+02  0.16612762560E+02  0.00000000000E+00 0. -1.
</event>
<event>
 8    1  0.6019723E-011  0.9118800E+02  0.7816164E-02  0.1184000E+00
        -11   -1    0    0    0    0  0.00000000000E+00  0.00000000000E+00  0.45593999997E+02  0.45594000000E+02  0.51100000000E-03 0. -1.
         11   -1    0    0    0    0 -0.00000000000E+00 -0.00000000000E+00 -0.45593999997E+02  0.45594000000E+02  0.51100000000E-03 0.  1.
         23    2    1    2    0    0  0.00000000000E+00  0.00000000000E+00  0.00000000000E+00  0.91188000000E+02  0.91188000000E+02 0.  0.
    9900012    2    3    3    0    0 -0.42470087720E+02  0.62560852084E+01  0.63856048159E+01  0.47787275330E+02  0.20000019538E+02 0.  0.
        -12    1    3    3    0    0  0.42470087720E+02 -0.62560852084E+01 -0.63856048159E+01  0.43400724670E+02  0.00000000000E+00 0.  1.
         11    1    4    4    0    0 -0.14879424603E+02  0.93757251750E+01  0.65613895954E+01  0.18771077027E+02  0.51100000000E-03 0. -1.
        -11    1    4    4    0    0 -0.31099972311E+00  0.12107405886E+01  0.59454244233E+00  0.13842306807E+01  0.51100000000E-03 0.  1.
         12    1    4    4    0    0 -0.27279663393E+02 -0.43303805551E+01 -0.77032722187E+00  0.27631967622E+02  0.00000000000E+00 0. -1.
</event>
<event>
 8    1  0.6019723E-011  0.9118800E+02  0.7816164E-02  0.1184000E+00
        -11   -1    0    0    0    0  0.00000000000E+00  0.00000000000E+00  0.45593999997E+02  0.45594000000E+02  0.51100000000E-03 0. -1.
         11   -1    0    0    0    0 -0.00000000000E+00 -0.00000000000E+00 -0.45593999997E+02  0.45594000000E+02  0.51100000000E-03 0.  1.
         23    2    1    2    0    0  0.00000000000E+00 -0.17763568394E-14  0.00000000000E+00  0.91188000000E+02  0.91188000000E+02 0.  0.
    9900012    2    3    3    0    0 -0.38891235309E+02 -0.13292081263E+02 -0.13943248804E+02  0.47787288078E+02  0.20000077661E+02 0.  0.
         12    1    3    3    0    0  0.38891235309E+02  0.13292081263E+02  0.13943248804E+02  0.43400711922E+02  0.00000000000E+00 0. -1.
         11    1    4    4    0    0 -0.26442958295E+02 -0.16184930451E+02 -0.87974104601E+01  0.32226952200E+02  0.51100000000E-03 0. -1.
        -11    1    4    4    0    0 -0.96379827371E+01 -0.12069813266E+01 -0.34906610612E+01  0.10321445154E+02  0.51100000000E-03 0.  1.
         12    1    4    4    0    0 -0.28102942774E+01  0.40998305144E+01 -0.16551772824E+01  0.52388907230E+01  0.00000000000E+00 0. -1.
</event>
<event>
 8    1  0.6019723E-011  0.9118800E+02  0.7816164E-02  0.1184000E+00
        -11   -1    0    0    0    0  0.00000000000E+00  0.00000000000E+00  0.45593999997E+02  0.45594000000E+02  0.51100000000E-03 0. -1.
         11   -1    0    0    0    0 -0.00000000000E+00 -0.00000000000E+00 -0.45593999997E+02  0.45594000000E+02  0.51100000000E-03 0.  1.
         23    2    1    2    0    0 -0.35527136788E-14  0.35527136788E-14  0.00000000000E+00  0.91188000000E+02  0.91188000000E+02 0.  0.
    9900012    2    3    3    0    0 -0.17840405013E+02  0.16505497757E+02 -0.35957060429E+02  0.47787289155E+02  0.20000082572E+02 0.  0.
         12    1    3    3    0    0  0.17840405013E+02 -0.16505497757E+02  0.35957060429E+02  0.43400710845E+02  0.00000000000E+00 0. -1.
         11    1    4    4    0    0 -0.25886874763E+01 -0.86090882310E+00 -0.23497392489E+01  0.36005196362E+01  0.51100000000E-03 0. -1.
        -11    1    4    4    0    0 -0.24837749420E+01  0.29076835724E+01  0.15173341919E+01  0.41141299239E+01  0.51100000000E-03 0.  1.
        -12    1    4    4    0    0 -0.12767942594E+02  0.14458723008E+02 -0.35124655372E+02  0.40072639595E+02  0.00000000000E+00 0.  1.
</event>
<event>
 8    1  0.6019723E-011  0.9118800E+02  0.7816164E-02  0.1184000E+00
        -11   -1    0    0    0    0  0.00000000000E+00  0.00000000000E+00  0.45593999997E+02  0.45594000000E+02  0.51100000000E-03 0. -1.
         11   -1    0    0    0    0 -0.00000000000E+00 -0.00000000000E+00 -0.45593999997E+02  0.45594000000E+02  0.51100000000E-03 0.  1.
         23    2    1    2    0    0  0.00000000000E+00  0.00000000000E+00  0.00000000000E+00  0.91188000000E+02  0.91188000000E+02 0.  0.
    9900012    2    3    3    0    0  0.30834943310E+02 -0.30442087357E+02 -0.24716260043E+01  0.47787270206E+02  0.19999996176E+02 0.  0.
        -12    1    3    3    0    0 -0.30834943310E+02  0.30442087357E+02  0.24716260043E+01  0.43400729794E+02  0.00000000000E+00 0.  1.
         11    1    4    4    0    0 -0.11332080621E+01 -0.70002823751E+01 -0.24617321122E+01  0.75065464161E+01  0.51100000000E-03 0.  1.
        -11    1    4    4    0    0  0.23774904579E+02 -0.15310993640E+02  0.27516590819E+01  0.28412043960E+02  0.51100000000E-03 0. -1.
        -12    1    4    4    0    0  0.81932467932E+01 -0.81308113413E+01 -0.27615529740E+01  0.11868679830E+02  0.00000000000E+00 0.  1.
</event>
<event>
 8    1  0.1023472E-010  0.9118800E+02  0.7816164E-02  0.1184000E+00
        -11   -1    0    0    0    0  0.00000000000E+00  0.00000000000E+00  0.45593999997E+02  0.45594000000E+02  0.51100000000E-03 0. -1.
         11   -1    0    0    0    0 -0.00000000000E+00 -0.00000000000E+00 -0.45593999997E+02  0.45594000000E+02  0.51100000000E-03 0.  1.
         23    2    1    2    0    0  0.00000000000E+00 -0.35527136788E-14  0.00000000000E+00  0.91188000000E+02  0.91188000000E+02 0.  0.
    9900012    2    3    3    0    0 -0.12447099651E+02  0.28509593114E+02 -0.30263762162E+02  0.47787280082E+02  0.20000041204E+02 0.  0.
         12    1    3    3    0    0  0.12447099651E+02 -0.28509593114E+02  0.30263762162E+02  0.43400719918E+02  0.00000000000E+00 0. -1.
         11    1    4    4    0    0 -0.26951271801E+01 -0.24929179041E+01 -0.50112503785E+01  0.62121639395E+01  0.51100000000E-03 0. -1.
        -11    1    4    4    0    0 -0.80376794572E+01  0.18870564138E+02 -0.18296965924E+02  0.27486022707E+02  0.51100000000E-03 0.  1.
         12    1    4    4    0    0 -0.17142930140E+01  0.12131946879E+02 -0.69555458596E+01  0.14089093435E+02  0.00000000000E+00 0. -1.
</event>
<event>
 8    1  0.6019723E-011  0.9118800E+02  0.7816164E-02  0.1184000E+00
        -11   -1    0    0    0    0  0.00000000000E+00  0.00000000000E+00  0.45593999997E+02  0.45594000000E+02  0.51100000000E-03 0. -1.
         11   -1    0    0    0    0 -0.00000000000E+00 -0.00000000000E+00 -0.45593999997E+02  0.45594000000E+02  0.51100000000E-03 0.  1.
         23    2    1    2    0    0  0.17763568394E-14 -0.35527136788E-14  0.00000000000E+00  0.91188000000E+02  0.91188000000E+02 0.  0.
    9900012    2    3    3    0    0 -0.12601732946E+02  0.14967708269E+02 -0.38739995225E+02  0.47787271963E+02  0.20000004189E+02 0.  0.
         12    1    3    3    0    0  0.12601732946E+02 -0.14967708269E+02  0.38739995225E+02  0.43400728037E+02  0.00000000000E+00 0. -1.
         11    1    4    4    0    0 -0.55787212788E+01  0.10069265780E+02 -0.14098671306E+02  0.18201230104E+02  0.51100000000E-03 0. -1.
        -11    1    4    4    0    0 -0.17219634874E+01  0.81480802965E+00  0.16106540479E+01  0.24946496949E+01  0.51100000000E-03 0.  1.
        -12    1    4    4    0    0 -0.53010481798E+01  0.40836344598E+01 -0.26251977967E+02  0.27091392164E+02  0.00000000000E+00 0.  1.
</event>
<event>
 8    1  0.6019723E-011  0.9118800E+02  0.7816164E-02  0.1184000E+00
        -11   -1    0    0    0    0  0.00000000000E+00  0.00000000000E+00  0.45593999997E+02  0.45594000000E+02  0.51100000000E-03 0. -1.
         11   -1    0    0    0    0 -0.00000000000E+00 -0.00000000000E+00 -0.45593999997E+02  0.45594000000E+02  0.51100000000E-03 0.  1.
         23    2    1    2    0    0  0.00000000000E+00  0.00000000000E+00 -0.35527136788E-14  0.91188000000E+02  0.91188000000E+02 0.  0.
    9900012    2    3    3    0    0 -0.75172634790E+01  0.36632102083E+02 -0.22027324278E+02  0.47787272263E+02  0.20000005557E+02 0.  0.
         12    1    3    3    0    0  0.75172634790E+01 -0.36632102083E+02  0.22027324278E+02  0.43400727737E+02  0.00000000000E+00 0. -1.
         11    1    4    4    0    0 -0.29960886152E+01 -0.70733894182E+00 -0.46368839335E+01  0.55657495670E+01  0.51100000000E-03 0. -1.
        -11    1    4    4    0    0 -0.19464585823E+01  0.30733869389E+02 -0.16868393539E+02  0.35112706098E+02  0.51100000000E-03 0.  1.
         12    1    4    4    0    0 -0.25747162816E+01  0.66055716356E+01 -0.52204680516E+00  0.71088165985E+01  0.00000000000E+00 0. -1.
</event>
<event>
 8    1  0.6019723E-011  0.9118800E+02  0.7816164E-02  0.1184000E+00
        -11   -1    0    0    0    0  0.00000000000E+00  0.00000000000E+00  0.45593999997E+02  0.45594000000E+02  0.51100000000E-03 0. -1.
         11   -1    0    0    0    0 -0.00000000000E+00 -0.00000000000E+00 -0.45593999997E+02  0.45594000000E+02  0.51100000000E-03 0.  1.
         23    2    1    2    0    0  0.00000000000E+00  0.00000000000E+00  0.17763568394E-14  0.91188000000E+02  0.91188000000E+02 0.  0.
    9900012    2    3    3    0    0  0.21213058737E+02  0.35910302850E+02  0.12003312954E+02  0.47787271508E+02  0.20000002113E+02 0.  0.
        -12    1    3    3    0    0 -0.21213058737E+02 -0.35910302850E+02 -0.12003312954E+02  0.43400728492E+02  0.00000000000E+00 0.  1.
         11    1    4    4    0    0  0.17118631468E+01  0.43629418972E+01  0.81864334789E+01  0.94331029252E+01  0.51100000000E-03 0. -1.
        -11    1    4    4    0    0  0.12934505119E+02  0.13576650859E+02  0.42046718508E+01  0.19217339484E+02  0.51100000000E-03 0.  1.
         12    1    4    4    0    0  0.65666904714E+01  0.17970710093E+02 -0.38779237562E+00  0.19136829098E+02  0.00000000000E+00 0. -1.
</event>
<event>
 8    1  0.6019723E-011  0.9118800E+02  0.7816164E-02  0.1184000E+00
        -11   -1    0    0    0    0  0.00000000000E+00  0.00000000000E+00  0.45593999997E+02  0.45594000000E+02  0.51100000000E-03 0. -1.
         11   -1    0    0    0    0 -0.00000000000E+00 -0.00000000000E+00 -0.45593999997E+02  0.45594000000E+02  0.51100000000E-03 0.  1.
         23    2    1    2    0    0  0.71054273576E-14 -0.22204460493E-15 -0.35527136788E-14  0.91188000000E+02  0.91188000000E+02 0.  0.
    9900012    2    3    3    0    0  0.32935818396E+02  0.16805269472E+01 -0.28214018602E+02  0.47787272473E+02  0.20000006512E+02 0.  0.
         12    1    3    3    0    0 -0.32935818396E+02 -0.16805269472E+01  0.28214018602E+02  0.43400727527E+02  0.00000000000E+00 0. -1.
         11    1    4    4    0    0  0.15784841236E+02 -0.49863962635E+01 -0.78142818299E+01  0.18305418906E+02  0.51100000000E-03 0. -1.
        -11    1    4    4    0    0  0.14868220524E+02  0.94969372675E+01 -0.17176709288E+02  0.24623061167E+02  0.51100000000E-03 0.  1.
        -12    1    4    4    0    0  0.22827566367E+01 -0.28300140568E+01 -0.32230274840E+01  0.48587924000E+01  0.00000000000E+00 0.  1.
</event>
<event>
 8    1  0.6019723E-011  0.9118800E+02  0.7816164E-02  0.1184000E+00
        -11   -1    0    0    0    0  0.00000000000E+00  0.00000000000E+00  0.45593999997E+02  0.45594000000E+02  0.51100000000E-03 0. -1.
         11   -1    0    0    0    0 -0.00000000000E+00 -0.00000000000E+00 -0.45593999997E+02  0.45594000000E+02  0.51100000000E-03 0.  1.
         23    2    1    2    0    0  0.00000000000E+00  0.00000000000E+00  0.17763568394E-14  0.91188000000E+02  0.91188000000E+02 0.  0.
    9900012    2    3    3    0    0 -0.43041649642E+02  0.30813744621E+01  0.46416371217E+01  0.47787271117E+02  0.20000000329E+02 0.  0.
         12    1    3    3    0    0  0.43041649642E+02 -0.30813744621E+01 -0.46416371217E+01  0.43400728883E+02  0.00000000000E+00 0. -1.
         11    1    4    4    0    0 -0.90915169815E+00 -0.69819412121E+00 -0.31873103057E+01  0.33871786323E+01  0.51100000000E-03 0. -1.
        -11    1    4    4    0    0 -0.29876767438E+02  0.28386322246E+01  0.35306287085E+00  0.30013392329E+02  0.51100000000E-03 0.  1.
         12    1    4    4    0    0 -0.12255730506E+02  0.94093635874E+00  0.74758845565E+01  0.14386700155E+02  0.00000000000E+00 0. -1.
</event>
<event>
 8    1  0.6019723E-011  0.9118800E+02  0.7816164E-02  0.1184000E+00
        -11   -1    0    0    0    0  0.00000000000E+00  0.00000000000E+00  0.45593999997E+02  0.45594000000E+02  0.51100000000E-03 0. -1.
         11   -1    0    0    0    0 -0.00000000000E+00 -0.00000000000E+00 -0.45593999997E+02  0.45594000000E+02  0.51100000000E-03 0.  1.
         23    2    1    2    0    0  0.00000000000E+00  0.00000000000E+00  0.00000000000E+00  0.91188000000E+02  0.91188000000E+02 0.  0.
    9900012    2    3    3    0    0 -0.22535996397E+02  0.49559812001E+01  0.36758542372E+02  0.47787270506E+02  0.19999997547E+02 0.  0.
        -12    1    3    3    0    0  0.22535996397E+02 -0.49559812001E+01 -0.36758542372E+02  0.43400729494E+02  0.00000000000E+00 0.  1.
         11    1    4    4    0    0 -0.11969186821E+02  0.51325470851E+01  0.92817843481E+01  0.15992372985E+02  0.51100000000E-03 0. -1.
        -11    1    4    4    0    0 -0.11296018837E+02 -0.40846339811E+01  0.21141483725E+02  0.24315563137E+02  0.51100000000E-03 0.  1.
        -12    1    4    4    0    0  0.72920926083E+00  0.39080680961E+01  0.63352742991E+01  0.74793343844E+01  0.00000000000E+00 0.  1.
</event>
<event>
 8    1  0.6019723E-011  0.9118800E+02  0.7816164E-02  0.1184000E+00
        -11   -1    0    0    0    0  0.00000000000E+00  0.00000000000E+00  0.45593999997E+02  0.45594000000E+02  0.51100000000E-03 0.  1.
         11   -1    0    0    0    0 -0.00000000000E+00 -0.00000000000E+00 -0.45593999997E+02  0.45594000000E+02  0.51100000000E-03 0. -1.
         23    2    1    2    0    0  0.00000000000E+00  0.00000000000E+00 -0.35527136788E-14  0.91188000000E+02  0.91188000000E+02 0.  0.
    9900012    2    3    3    0    0  0.20252711923E+02  0.31158326869E+02 -0.22418942947E+02  0.47787277928E+02  0.20000031384E+02 0.  0.
         12    1    3    3    0    0 -0.20252711923E+02 -0.31158326869E+02  0.22418942947E+02  0.43400722072E+02  0.00000000000E+00 0. -1.
         11    1    4    4    0    0  0.13875536731E+01  0.74004650646E+00  0.15262670264E+01  0.21914527886E+01  0.51100000000E-03 0. -1.
        -11    1    4    4    0    0  0.19377484091E+02  0.31849152363E+02 -0.22927291235E+02  0.43766609185E+02  0.51100000000E-03 0.  1.
        -12    1    4    4    0    0 -0.51232584146E+00 -0.14308720001E+01 -0.10179187385E+01  0.18292159541E+01  0.00000000000E+00 0.  1.
</event>
<event>
 8    1  0.6019723E-011  0.9118800E+02  0.7816164E-02  0.1184000E+00
        -11   -1    0    0    0    0  0.00000000000E+00  0.00000000000E+00  0.45593999997E+02  0.45594000000E+02  0.51100000000E-03 0. -1.
         11   -1    0    0    0    0 -0.00000000000E+00 -0.00000000000E+00 -0.45593999997E+02  0.45594000000E+02  0.51100000000E-03 0.  1.
         23    2    1    2    0    0 -0.88817841970E-15  0.35527136788E-14  0.00000000000E+00  0.91188000000E+02  0.91188000000E+02 0.  0.
    9900012    2    3    3    0    0 -0.73048570920E+01  0.24063276070E+02 -0.35372605451E+02  0.47787269491E+02  0.19999992915E+02 0.  0.
         12    1    3    3    0    0  0.73048570920E+01 -0.24063276070E+02  0.35372605451E+02  0.43400730509E+02  0.00000000000E+00 0. -1.
         11    1    4    4    0    0 -0.97101300273E+01  0.10594593885E+02 -0.11292221626E+02  0.18276933940E+02  0.51100000000E-03 0. -1.
        -11    1    4    4    0    0  0.33833522285E+01  0.88588802919E+01 -0.22698044059E+02  0.24599350331E+02  0.51100000000E-03 0.  1.
        -12    1    4    4    0    0 -0.97807929325E+00  0.46098018932E+01 -0.13823397653E+01  0.49109852194E+01  0.00000000000E+00 0.  1.
</event>
<event>
 8    1  0.6019723E-011  0.9118800E+02  0.7816164E-02  0.1184000E+00
        -11   -1    0    0    0    0  0.00000000000E+00  0.00000000000E+00  0.45593999997E+02  0.45594000000E+02  0.51100000000E-03 0. -1.
         11   -1    0    0    0    0 -0.00000000000E+00 -0.00000000000E+00 -0.45593999997E+02  0.45594000000E+02  0.51100000000E-03 0.  1.
         23    2    1    2    0    0  0.00000000000E+00  0.22204460493E-15 -0.71054273576E-14  0.91188000000E+02  0.91188000000E+02 0.  0.
    9900012    2    3    3    0    0  0.16535159086E+02 -0.17003748396E+01 -0.40091371583E+02  0.47787299130E+02  0.20000128053E+02 0.  0.
         12    1    3    3    0    0 -0.16535159086E+02  0.17003748396E+01  0.40091371583E+02  0.43400700870E+02  0.00000000000E+00 0. -1.
         11    1    4    4    0    0  0.12133393199E+02 -0.30692434248E+01 -0.10019467527E+02  0.16032130723E+02  0.51100000000E-03 0. -1.
        -11    1    4    4    0    0 -0.11938818830E+01  0.19111612288E+01 -0.20729999698E+02  0.20852116893E+02  0.51100000000E-03 0.  1.
         12    1    4    4    0    0  0.55956477701E+01 -0.54229264361E+00 -0.93419043582E+01  0.10903051514E+02  0.00000000000E+00 0. -1.
</event>
<event>
 8    1  0.6019723E-011  0.9118800E+02  0.7816164E-02  0.1184000E+00
        -11   -1    0    0    0    0  0.00000000000E+00  0.00000000000E+00  0.45593999997E+02  0.45594000000E+02  0.51100000000E-03 0. -1.
         11   -1    0    0    0    0 -0.00000000000E+00 -0.00000000000E+00 -0.45593999997E+02  0.45594000000E+02  0.51100000000E-03 0.  1.
         23    2    1    2    0    0  0.00000000000E+00  0.00000000000E+00  0.16653345369E-15  0.91188000000E+02  0.91188000000E+02 0.  0.
    9900012    2    3    3    0    0  0.34036042702E+01 -0.43264763423E+02  0.44623127556E+00  0.47787269609E+02  0.19999993457E+02 0.  0.
         12    1    3    3    0    0 -0.34036042702E+01  0.43264763423E+02 -0.44623127556E+00  0.43400730391E+02  0.00000000000E+00 0. -1.
         11    1    4    4    0    0  0.20122769897E+01 -0.31101692359E+02 -0.16919008121E+01  0.31212610511E+02  0.51100000000E-03 0.  1.
        -11    1    4    4    0    0 -0.33040532860E+01 -0.59389053881E-01  0.13453840511E+01  0.35679621190E+01  0.51100000000E-03 0. -1.
         12    1    4    4    0    0  0.46953805665E+01 -0.12103682010E+02  0.79274803649E+00  0.13006696980E+02  0.00000000000E+00 0. -1.
</event>
<event>
 8    1  0.6019723E-011  0.9118800E+02  0.7816164E-02  0.1184000E+00
        -11   -1    0    0    0    0  0.00000000000E+00  0.00000000000E+00  0.45593999997E+02  0.45594000000E+02  0.51100000000E-03 0. -1.
         11   -1    0    0    0    0 -0.00000000000E+00 -0.00000000000E+00 -0.45593999997E+02  0.45594000000E+02  0.51100000000E-03 0.  1.
         23    2    1    2    0    0  0.00000000000E+00  0.00000000000E+00  0.00000000000E+00  0.91188000000E+02  0.91188000000E+02 0.  0.
    9900012    2    3    3    0    0  0.40168070241E+02  0.81099267030E+01 -0.14296101879E+02  0.47787270663E+02  0.19999998260E+02 0.  0.
         12    1    3    3    0    0 -0.40168070241E+02 -0.81099267030E+01  0.14296101879E+02  0.43400729337E+02  0.00000000000E+00 0. -1.
         11    1    4    4    0    0  0.76333751261E+01 -0.12215494080E+01  0.82143304147E+00  0.77740177048E+01  0.51100000000E-03 0. -1.
        -11    1    4    4    0    0  0.25351163467E+02  0.91941639602E+01 -0.17835615206E+02  0.32331460068E+02  0.51100000000E-03 0.  1.
        -12    1    4    4    0    0  0.71835316486E+01  0.13731215084E+00  0.27180802855E+01  0.76817928905E+01  0.00000000000E+00 0.  1.
</event>
<event>
 8    1  0.6019723E-011  0.9118800E+02  0.7816164E-02  0.1184000E+00
        -11   -1    0    0    0    0  0.00000000000E+00  0.00000000000E+00  0.45593999997E+02  0.45594000000E+02  0.51100000000E-03 0. -1.
         11   -1    0    0    0    0 -0.00000000000E+00 -0.00000000000E+00 -0.45593999997E+02  0.45594000000E+02  0.51100000000E-03 0.  1.
         23    2    1    2    0    0  0.00000000000E+00  0.00000000000E+00  0.00000000000E+00  0.91188000000E+02  0.91188000000E+02 0.  0.
    9900012    2    3    3    0    0  0.15811965611E+02  0.52958468342E+01  0.40069428315E+02  0.47787270332E+02  0.19999996753E+02 0.  0.
        -12    1    3    3    0    0 -0.15811965611E+02 -0.52958468342E+01 -0.40069428315E+02  0.43400729668E+02  0.00000000000E+00 0.  1.
         11    1    4    4    0    0  0.14413078909E+02 -0.22993162372E+01  0.17683753901E+02  0.22928995858E+02  0.51100000000E-03 0. -1.
        -11    1    4    4    0    0  0.41213896365E+00  0.83954276922E+01  0.13648256127E+02  0.16028972526E+02  0.51100000000E-03 0.  1.
        -12    1    4    4    0    0  0.98674773842E+00 -0.80026462084E+00  0.87374182872E+01  0.88293019479E+01  0.00000000000E+00 0.  1.
</event>
<event>
 8    1  0.6019723E-011  0.9118800E+02  0.7816164E-02  0.1184000E+00
        -11   -1    0    0    0    0  0.00000000000E+00  0.00000000000E+00  0.45593999997E+02  0.45594000000E+02  0.51100000000E-03 0. -1.
         11   -1    0    0    0    0 -0.00000000000E+00 -0.00000000000E+00 -0.45593999997E+02  0.45594000000E+02  0.51100000000E-03 0.  1.
         23    2    1    2    0    0 -0.17763568394E-14  0.00000000000E+00  0.00000000000E+00  0.91188000000E+02  0.91188000000E+02 0.  0.
    9900012    2    3    3    0    0 -0.12989411908E+02 -0.19979577737E+02 -0.36272796610E+02  0.47787261272E+02  0.19999955442E+02 0.  0.
         12    1    3    3    0    0  0.12989411908E+02  0.19979577737E+02  0.36272796610E+02  0.43400738728E+02  0.00000000000E+00 0. -1.
         11    1    4    4    0    0 -0.10226779251E+02 -0.17866807696E+02 -0.21952185091E+02  0.30094987318E+02  0.51100000000E-03 0.  1.
        -11    1    4    4    0    0 -0.19703483425E+00  0.22666650485E+01 -0.11814676345E+02  0.12031756753E+02  0.51100000000E-03 0. -1.
        -12    1    4    4    0    0 -0.25655978221E+01 -0.43794350893E+01 -0.25059351740E+01  0.56605172010E+01  0.00000000000E+00 0.  1.
</event>
<event>
 8    1  0.6019723E-011  0.9118800E+02  0.7816164E-02  0.1184000E+00
        -11   -1    0    0    0    0  0.00000000000E+00  0.00000000000E+00  0.45593999997E+02  0.45594000000E+02  0.51100000000E-03 0. -1.
         11   -1    0    0    0    0 -0.00000000000E+00 -0.00000000000E+00 -0.45593999997E+02  0.45594000000E+02  0.51100000000E-03 0.  1.
         23    2    1    2    0    0  0.00000000000E+00  0.88817841970E-15  0.00000000000E+00  0.91188000000E+02  0.91188000000E+02 0.  0.
    9900012    2    3    3    0    0  0.11170161832E+02 -0.35354907636E+01 -0.41789362911E+02  0.47787273476E+02  0.20000011086E+02 0.  0.
         12    1    3    3    0    0 -0.11170161832E+02  0.35354907636E+01  0.41789362911E+02  0.43400726524E+02  0.00000000000E+00 0. -1.
         11    1    4    4    0    0 -0.31319506429E+01  0.49388389964E+01 -0.12636480700E+02  0.13924147737E+02  0.51100000000E-03 0. -1.
        -11    1    4    4    0    0  0.10006542320E+02 -0.80232038730E+01 -0.20291524055E+02  0.24005179406E+02  0.51100000000E-03 0.  1.
         12    1    4    4    0    0  0.42955701552E+01 -0.45112588700E+00 -0.88613581565E+01  0.98579463329E+01  0.00000000000E+00 0. -1.
</event>
<event>
 8    1  0.6019723E-011  0.9118800E+02  0.7816164E-02  0.1184000E+00
        -11   -1    0    0    0    0  0.00000000000E+00  0.00000000000E+00  0.45593999997E+02  0.45594000000E+02  0.51100000000E-03 0. -1.
         11   -1    0    0    0    0 -0.00000000000E+00 -0.00000000000E+00 -0.45593999997E+02  0.45594000000E+02  0.51100000000E-03 0.  1.
         23    2    1    2    0    0  0.00000000000E+00  0.00000000000E+00  0.79103390505E-15  0.91188000000E+02  0.91188000000E+02 0.  0.
    9900012    2    3    3    0    0 -0.40302864528E+02 -0.16102554270E+02 -0.10082572941E+00  0.47787270640E+02  0.19999998155E+02 0.  0.
         12    1    3    3    0    0  0.40302864528E+02  0.16102554270E+02  0.10082572941E+00  0.43400729360E+02  0.00000000000E+00 0. -1.
         11    1    4    4    0    0 -0.33897543664E+00 -0.14661610784E+01  0.66958509565E+00  0.16470813932E+01  0.51100000000E-03 0. -1.
        -11    1    4    4    0    0 -0.13408510401E+02 -0.12507833504E+02  0.47318060381E+01  0.18937371486E+02  0.51100000000E-03 0.  1.
        -12    1    4    4    0    0 -0.26555378690E+02 -0.21285596877E+01 -0.55022168632E+01  0.27202817761E+02  0.00000000000E+00 0.  1.
</event>
<event>
 8    1  0.6019723E-011  0.9118800E+02  0.7816164E-02  0.1184000E+00
        -11   -1    0    0    0    0  0.00000000000E+00  0.00000000000E+00  0.45593999997E+02  0.45594000000E+02  0.51100000000E-03 0. -1.
         11   -1    0    0    0    0 -0.00000000000E+00 -0.00000000000E+00 -0.45593999997E+02  0.45594000000E+02  0.51100000000E-03 0.  1.
         23    2    1    2    0    0 -0.35527136788E-14  0.17763568394E-14 -0.71054273576E-14  0.91188000000E+02  0.91188000000E+02 0.  0.
    9900012    2    3    3    0    0  0.19474340018E+02 -0.11094311268E+02  0.37165705613E+02  0.47787270336E+02  0.19999996771E+02 0.  0.
        -12    1    3    3    0    0 -0.19474340018E+02  0.11094311268E+02 -0.37165705613E+02  0.43400729664E+02  0.00000000000E+00 0.  1.
         11    1    4    4    0    0  0.77442466537E+01 -0.90996996772E+00  0.12878708287E+02  0.15055315639E+02  0.51100000000E-03 0. -1.
        -11    1    4    4    0    0  0.62824769020E+01 -0.26904775285E+00  0.39954791734E+00  0.63009159269E+01  0.51100000000E-03 0.  1.
        -12    1    4    4    0    0  0.54476164619E+01 -0.99152935475E+01  0.23887449409E+02  0.26431038771E+02  0.00000000000E+00 0.  1.
</event>
<event>
 8    1  0.6019723E-011  0.9118800E+02  0.7816164E-02  0.1184000E+00
        -11   -1    0    0    0    0  0.00000000000E+00  0.00000000000E+00  0.45593999997E+02  0.45594000000E+02  0.51100000000E-03 0. -1.
         11   -1    0    0    0    0 -0.00000000000E+00 -0.00000000000E+00 -0.45593999997E+02  0.45594000000E+02  0.51100000000E-03 0.  1.
         23    2    1    2    0    0  0.00000000000E+00  0.00000000000E+00 -0.35527136788E-14  0.91188000000E+02  0.91188000000E+02 0.  0.
    9900012    2    3    3    0    0 -0.36244543286E+02  0.46262159751E+01  0.23421238223E+02  0.47787271986E+02  0.20000004292E+02 0.  0.
        -12    1    3    3    0    0  0.36244543286E+02 -0.46262159751E+01 -0.23421238223E+02  0.43400728014E+02  0.00000000000E+00 0.  1.
         11    1    4    4    0    0 -0.16397087024E+02  0.10930937923E+02  0.16375695334E+02  0.25622514800E+02  0.51100000000E-03 0. -1.
        -11    1    4    4    0    0 -0.16365803634E+02 -0.61293838009E+01  0.52742317784E+01  0.18254489735E+02  0.51100000000E-03 0.  1.
         12    1    4    4    0    0 -0.34816526276E+01 -0.17533814699E+00  0.17713111105E+01  0.39102674506E+01  0.00000000000E+00 0. -1.
</event>
<event>
 8    1  0.6019723E-011  0.9118800E+02  0.7816164E-02  0.1184000E+00
        -11   -1    0    0    0    0  0.00000000000E+00  0.00000000000E+00  0.45593999997E+02  0.45594000000E+02  0.51100000000E-03 0. -1.
         11   -1    0    0    0    0 -0.00000000000E+00 -0.00000000000E+00 -0.45593999997E+02  0.45594000000E+02  0.51100000000E-03 0.  1.
         23    2    1    2    0    0 -0.35527136788E-14  0.00000000000E+00  0.00000000000E+00  0.91188000000E+02  0.91188000000E+02 0.  0.
    9900012    2    3    3    0    0 -0.18726647046E+02 -0.18071455616E+02  0.34732678148E+02  0.47787265570E+02  0.19999975042E+02 0.  0.
        -12    1    3    3    0    0  0.18726647046E+02  0.18071455616E+02 -0.34732678148E+02  0.43400734430E+02  0.00000000000E+00 0.  1.
         11    1    4    4    0    0 -0.91954496065E+01 -0.16325839934E+02  0.10978699295E+02  0.21716840965E+02  0.51100000000E-03 0.  1.
        -11    1    4    4    0    0 -0.20620583694E+00 -0.13804678412E+01  0.35832849649E+01  0.38455355554E+01  0.51100000000E-03 0. -1.
         12    1    4    4    0    0 -0.93249916030E+01 -0.36514784011E+00  0.20170693889E+02  0.22224889050E+02  0.00000000000E+00 0. -1.
</event>
<event>
 8    1  0.6019723E-011  0.9118800E+02  0.7816164E-02  0.1184000E+00
        -11   -1    0    0    0    0  0.00000000000E+00  0.00000000000E+00  0.45593999997E+02  0.45594000000E+02  0.51100000000E-03 0.  1.
         11   -1    0    0    0    0 -0.00000000000E+00 -0.00000000000E+00 -0.45593999997E+02  0.45594000000E+02  0.51100000000E-03 0. -1.
         23    2    1    2    0    0 -0.88817841970E-15  0.00000000000E+00  0.00000000000E+00  0.91188000000E+02  0.91188000000E+02 0.  0.
    9900012    2    3    3    0    0  0.50165164839E+01  0.41960462314E+02  0.98882810830E+01  0.47787263393E+02  0.19999965116E+02 0.  0.
         12    1    3    3    0    0 -0.50165164839E+01 -0.41960462314E+02 -0.98882810830E+01  0.43400736607E+02  0.00000000000E+00 0. -1.
         11    1    4    4    0    0  0.11824495597E+02  0.25767563056E+02  0.40596031625E+01  0.28640292946E+02  0.51100000000E-03 0.  1.
        -11    1    4    4    0    0 -0.31264163370E+01  0.10900160832E+02  0.16377753634E+01  0.11457324892E+02  0.51100000000E-03 0. -1.
         12    1    4    4    0    0 -0.36815627764E+01  0.52927384265E+01  0.41909025571E+01  0.76896455556E+01  0.00000000000E+00 0. -1.
</event>
<event>
 8    1  0.6019723E-011  0.9118800E+02  0.7816164E-02  0.1184000E+00
        -11   -1    0    0    0    0  0.00000000000E+00  0.00000000000E+00  0.45593999997E+02  0.45594000000E+02  0.51100000000E-03 0. -1.
         11   -1    0    0    0    0 -0.00000000000E+00 -0.00000000000E+00 -0.45593999997E+02  0.45594000000E+02  0.51100000000E-03 0.  1.
         23    2    1    2    0    0  0.00000000000E+00  0.00000000000E+00  0.00000000000E+00  0.91188000000E+02  0.91188000000E+02 0.  0.
    9900012    2    3    3    0    0  0.13034068203E+02 -0.34182264651E+02  0.23351864685E+02  0.47787265734E+02  0.19999975787E+02 0.  0.
        -12    1    3    3    0    0 -0.13034068203E+02  0.34182264651E+02 -0.23351864685E+02  0.43400734266E+02  0.00000000000E+00 0.  1.
         11    1    4    4    0    0  0.20977249199E+01 -0.18516086375E+02  0.42519654927E+01  0.19113479937E+02  0.51100000000E-03 0. -1.
        -11    1    4    4    0    0 -0.67734901917E+00  0.79696540925E+00  0.19622944270E+01  0.22236355899E+01  0.51100000000E-03 0.  1.
         12    1    4    4    0    0  0.11613692302E+02 -0.16463143685E+02  0.17137604765E+02  0.26450150207E+02  0.00000000000E+00 0. -1.
</event>
<event>
 8    1  0.6019723E-011  0.9118800E+02  0.7816164E-02  0.1184000E+00
        -11   -1    0    0    0    0  0.00000000000E+00  0.00000000000E+00  0.45593999997E+02  0.45594000000E+02  0.51100000000E-03 0. -1.
         11   -1    0    0    0    0 -0.00000000000E+00 -0.00000000000E+00 -0.45593999997E+02  0.45594000000E+02  0.51100000000E-03 0.  1.
         23    2    1    2    0    0  0.00000000000E+00 -0.88817841970E-15  0.00000000000E+00  0.91188000000E+02  0.91188000000E+02 0.  0.
    9900012    2    3    3    0    0 -0.26814495598E+02  0.74140138194E+01  0.33311204812E+02  0.47787295615E+02  0.20000112026E+02 0.  0.
        -12    1    3    3    0    0  0.26814495598E+02 -0.74140138194E+01 -0.33311204812E+02  0.43400704385E+02  0.00000000000E+00 0.  1.
         11    1    4    4    0    0 -0.23873814426E+02  0.10815104828E+02  0.33420232832E+02  0.42471607816E+02  0.51100000000E-03 0. -1.
        -11    1    4    4    0    0 -0.78780062382E+00 -0.11856046290E+01 -0.13731479970E+01  0.19778331178E+01  0.51100000000E-03 0.  1.
         12    1    4    4    0    0 -0.21528805480E+01 -0.22154863798E+01  0.12641199777E+01  0.33378546809E+01  0.00000000000E+00 0. -1.
</event>
<event>
 8    1  0.6019723E-011  0.9118800E+02  0.7816164E-02  0.1184000E+00
        -11   -1    0    0    0    0  0.00000000000E+00  0.00000000000E+00  0.45593999997E+02  0.45594000000E+02  0.51100000000E-03 0. -1.
         11   -1    0    0    0    0 -0.00000000000E+00 -0.00000000000E+00 -0.45593999997E+02  0.45594000000E+02  0.51100000000E-03 0.  1.
         23    2    1    2    0    0  0.00000000000E+00  0.00000000000E+00  0.00000000000E+00  0.91188000000E+02  0.91188000000E+02 0.  0.
    9900012    2    3    3    0    0 -0.20599320672E+02  0.29859786760E+02  0.23826118513E+02  0.47787276493E+02  0.20000024843E+02 0.  0.
        -12    1    3    3    0    0  0.20599320672E+02 -0.29859786760E+02 -0.23826118513E+02  0.43400723507E+02  0.00000000000E+00 0.  1.
         11    1    4    4    0    0 -0.72597930983E+01  0.73807397080E+01  0.60846882884E+01  0.12008469773E+02  0.51100000000E-03 0. -1.
        -11    1    4    4    0    0 -0.14432586582E+02  0.92825963327E+01  0.63034233861E+01  0.18281118586E+02  0.51100000000E-03 0.  1.
        -12    1    4    4    0    0  0.10930590081E+01  0.13196450720E+02  0.11438006838E+02  0.17497688134E+02  0.00000000000E+00 0.  1.
</event>
<event>
 8    1  0.6019723E-011  0.9118800E+02  0.7816164E-02  0.1184000E+00
        -11   -1    0    0    0    0  0.00000000000E+00  0.00000000000E+00  0.45593999997E+02  0.45594000000E+02  0.51100000000E-03 0. -1.
         11   -1    0    0    0    0 -0.00000000000E+00 -0.00000000000E+00 -0.45593999997E+02  0.45594000000E+02  0.51100000000E-03 0.  1.
         23    2    1    2    0    0 -0.35527136788E-14 -0.35527136788E-14  0.00000000000E+00  0.91188000000E+02  0.91188000000E+02 0.  0.
    9900012    2    3    3    0    0  0.18945163048E+02  0.14007423947E+02  0.36448541360E+02  0.47787270792E+02  0.19999998849E+02 0.  0.
        -12    1    3    3    0    0 -0.18945163048E+02 -0.14007423947E+02 -0.36448541360E+02  0.43400729208E+02  0.00000000000E+00 0.  1.
         11    1    4    4    0    0  0.90899708021E+00 -0.36296501442E+01  0.94959115347E+01  0.10206516154E+02  0.51100000000E-03 0. -1.
        -11    1    4    4    0    0  0.82335875574E+01  0.12069017455E+02  0.12334878287E+02  0.19120731393E+02  0.51100000000E-03 0.  1.
         12    1    4    4    0    0  0.98025784099E+01  0.55680566365E+01  0.14617751538E+02  0.18460023245E+02  0.00000000000E+00 0. -1.
</event>
<event>
 8    1  0.6019723E-011  0.9118800E+02  0.7816164E-02  0.1184000E+00
        -11   -1    0    0    0    0  0.00000000000E+00  0.00000000000E+00  0.45593999997E+02  0.45594000000E+02  0.51100000000E-03 0. -1.
         11   -1    0    0    0    0 -0.00000000000E+00 -0.00000000000E+00 -0.45593999997E+02  0.45594000000E+02  0.51100000000E-03 0.  1.
         23    2    1    2    0    0  0.00000000000E+00 -0.35527136788E-14  0.00000000000E+00  0.91188000000E+02  0.91188000000E+02 0.  0.
    9900012    2    3    3    0    0 -0.69933956939E+01  0.29418848963E+02 -0.31132730681E+02  0.47787272157E+02  0.20000005073E+02 0.  0.
         12    1    3    3    0    0  0.69933956939E+01 -0.29418848963E+02  0.31132730681E+02  0.43400727843E+02  0.00000000000E+00 0. -1.
         11    1    4    4    0    0  0.48324568013E+01  0.35158855861E+01 -0.10861861865E+01  0.60740341523E+01  0.51100000000E-03 0. -1.
        -11    1    4    4    0    0 -0.68521185690E+01  0.20373857935E+02 -0.22544104700E+02  0.31149354295E+02  0.51100000000E-03 0.  1.
        -12    1    4    4    0    0 -0.49737339262E+01  0.55291054423E+01 -0.75024397942E+01  0.10563883709E+02  0.00000000000E+00 0.  1.
</event>
<event>
 8    1  0.6019723E-011  0.9118800E+02  0.7816164E-02  0.1184000E+00
        -11   -1    0    0    0    0  0.00000000000E+00  0.00000000000E+00  0.45593999997E+02  0.45594000000E+02  0.51100000000E-03 0. -1.
         11   -1    0    0    0    0 -0.00000000000E+00 -0.00000000000E+00 -0.45593999997E+02  0.45594000000E+02  0.51100000000E-03 0.  1.
         23    2    1    2    0    0 -0.17763568394E-14 -0.17763568394E-14  0.00000000000E+00  0.91188000000E+02  0.91188000000E+02 0.  0.
    9900012    2    3    3    0    0 -0.14454175012E+02  0.11032208867E+02  0.39408000287E+02  0.47787270808E+02  0.19999998921E+02 0.  0.
        -12    1    3    3    0    0  0.14454175012E+02 -0.11032208867E+02 -0.39408000287E+02  0.43400729192E+02  0.00000000000E+00 0.  1.
         11    1    4    4    0    0 -0.48785171982E+01 -0.20782475910E+01  0.94751876437E+01  0.10858094872E+02  0.51100000000E-03 0. -1.
        -11    1    4    4    0    0 -0.41012485508E+01 -0.23228925676E+01  0.36460413112E+01  0.59590005085E+01  0.51100000000E-03 0.  1.
         12    1    4    4    0    0 -0.54744092632E+01  0.15433349026E+02  0.26286771332E+02  0.30970175428E+02  0.00000000000E+00 0. -1.
</event>
<event>
 8    1  0.6019723E-011  0.9118800E+02  0.7816164E-02  0.1184000E+00
        -11   -1    0    0    0    0  0.00000000000E+00  0.00000000000E+00  0.45593999997E+02  0.45594000000E+02  0.51100000000E-03 0. -1.
         11   -1    0    0    0    0 -0.00000000000E+00 -0.00000000000E+00 -0.45593999997E+02  0.45594000000E+02  0.51100000000E-03 0.  1.
         23    2    1    2    0    0 -0.88817841970E-15  0.00000000000E+00  0.00000000000E+00  0.91188000000E+02  0.91188000000E+02 0.  0.
    9900012    2    3    3    0    0 -0.57451681671E+01 -0.42377349865E+02 -0.74011478713E+01  0.47787265805E+02  0.19999976111E+02 0.  0.
         12    1    3    3    0    0  0.57451681671E+01  0.42377349865E+02  0.74011478713E+01  0.43400734195E+02  0.00000000000E+00 0. -1.
         11    1    4    4    0    0  0.17121211216E+01 -0.30691263392E+01  0.36967518633E+01  0.51006734674E+01  0.51100000000E-03 0. -1.
        -11    1    4    4    0    0 -0.76470626845E+01 -0.37151056960E+02 -0.12692613367E+02  0.39997262848E+02  0.51100000000E-03 0.  1.
        -12    1    4    4    0    0  0.18977339584E+00 -0.21571665660E+01  0.15947136328E+01  0.26893294900E+01  0.00000000000E+00 0.  1.
</event>
<event>
 8    1  0.6019723E-011  0.9118800E+02  0.7816164E-02  0.1184000E+00
        -11   -1    0    0    0    0  0.00000000000E+00  0.00000000000E+00  0.45593999997E+02  0.45594000000E+02  0.51100000000E-03 0. -1.
         11   -1    0    0    0    0 -0.00000000000E+00 -0.00000000000E+00 -0.45593999997E+02  0.45594000000E+02  0.51100000000E-03 0.  1.
         23    2    1    2    0    0  0.88817841970E-15  0.00000000000E+00  0.00000000000E+00  0.91188000000E+02  0.91188000000E+02 0.  0.
    9900012    2    3    3    0    0 -0.49860675988E+01  0.22004564652E+02  0.37075082944E+02  0.47787268313E+02  0.19999987546E+02 0.  0.
        -12    1    3    3    0    0  0.49860675988E+01 -0.22004564652E+02 -0.37075082944E+02  0.43400731687E+02  0.00000000000E+00 0.  1.
         11    1    4    4    0    0 -0.41905486011E+01  0.24525670702E+02  0.25329996466E+02  0.35506026844E+02  0.51100000000E-03 0. -1.
        -11    1    4    4    0    0 -0.87014145432E+00 -0.18070662458E+01  0.11204371333E+02  0.11382467737E+02  0.51100000000E-03 0.  1.
         12    1    4    4    0    0  0.74622456615E-01 -0.71403980425E+00  0.54071514552E+00  0.89877373219E+00  0.00000000000E+00 0. -1.
</event>
<event>
 8    1  0.6019723E-011  0.9118800E+02  0.7816164E-02  0.1184000E+00
        -11   -1    0    0    0    0  0.00000000000E+00  0.00000000000E+00  0.45593999997E+02  0.45594000000E+02  0.51100000000E-03 0. -1.
         11   -1    0    0    0    0 -0.00000000000E+00 -0.00000000000E+00 -0.45593999997E+02  0.45594000000E+02  0.51100000000E-03 0.  1.
         23    2    1    2    0    0  0.00000000000E+00  0.00000000000E+00 -0.71054273576E-14  0.91188000000E+02  0.91188000000E+02 0.  0.
    9900012    2    3    3    0    0 -0.19551847496E+02 -0.62254999030E+01  0.38243842931E+02  0.47787272913E+02  0.20000008521E+02 0.  0.
        -12    1    3    3    0    0  0.19551847496E+02  0.62254999030E+01 -0.38243842931E+02  0.43400727087E+02  0.00000000000E+00 0.  1.
         11    1    4    4    0    0 -0.24174871368E+00  0.17027835582E-01 -0.22076988638E+00  0.32782921103E+00  0.51100000000E-03 0.  1.
        -11    1    4    4    0    0 -0.18288843351E+02  0.89117809701E+00  0.17648447078E+02  0.25431155578E+02  0.51100000000E-03 0. -1.
        -12    1    4    4    0    0 -0.10212554311E+01 -0.71337058356E+01  0.20816165739E+02  0.22028288124E+02  0.00000000000E+00 0.  1.
</event>
<event>
 8    1  0.6019723E-011  0.9118800E+02  0.7816164E-02  0.1184000E+00
        -11   -1    0    0    0    0  0.00000000000E+00  0.00000000000E+00  0.45593999997E+02  0.45594000000E+02  0.51100000000E-03 0. -1.
         11   -1    0    0    0    0 -0.00000000000E+00 -0.00000000000E+00 -0.45593999997E+02  0.45594000000E+02  0.51100000000E-03 0.  1.
         23    2    1    2    0    0  0.35527136788E-14  0.00000000000E+00  0.00000000000E+00  0.91188000000E+02  0.91188000000E+02 0.  0.
    9900012    2    3    3    0    0 -0.31880059072E+02  0.22192124183E+02  0.19359613166E+02  0.47787272309E+02  0.20000005767E+02 0.  0.
        -12    1    3    3    0    0  0.31880059072E+02 -0.22192124183E+02 -0.19359613166E+02  0.43400727691E+02  0.00000000000E+00 0.  1.
         11    1    4    4    0    0  0.85613775637E+00  0.26956822230E+01  0.48434542141E+01  0.56088076710E+01  0.51100000000E-03 0.  1.
        -11    1    4    4    0    0 -0.22560709357E+02  0.84179566371E+01  0.57092065967E+01  0.24747578484E+02  0.51100000000E-03 0. -1.
         12    1    4    4    0    0 -0.10175487471E+02  0.11078485323E+02  0.88069523551E+01  0.17430886154E+02  0.00000000000E+00 0. -1.
</event>
<event>
 8    1  0.6019723E-011  0.9118800E+02  0.7816164E-02  0.1184000E+00
        -11   -1    0    0    0    0  0.00000000000E+00  0.00000000000E+00  0.45593999997E+02  0.45594000000E+02  0.51100000000E-03 0. -1.
         11   -1    0    0    0    0 -0.00000000000E+00 -0.00000000000E+00 -0.45593999997E+02  0.45594000000E+02  0.51100000000E-03 0.  1.
         23    2    1    2    0    0  0.00000000000E+00  0.00000000000E+00  0.00000000000E+00  0.91188000000E+02  0.91188000000E+02 0.  0.
    9900012    2    3    3    0    0  0.39375918492E+02  0.12606473638E+01 -0.18209093369E+02  0.47787271087E+02  0.20000000195E+02 0.  0.
         12    1    3    3    0    0 -0.39375918492E+02 -0.12606473638E+01  0.18209093369E+02  0.43400728913E+02  0.00000000000E+00 0. -1.
         11    1    4    4    0    0  0.13866725304E+02 -0.59194242928E+00  0.15381261706E+01  0.13964322357E+02  0.51100000000E-03 0. -1.
        -11    1    4    4    0    0  0.10782730201E+02  0.23332617241E+01 -0.14417739406E+02  0.18154409677E+02  0.51100000000E-03 0.  1.
         12    1    4    4    0    0  0.14726462986E+02 -0.48067193109E+00 -0.53294801339E+01  0.15668539054E+02  0.00000000000E+00 0. -1.
</event>
<event>
 8    1  0.6019723E-011  0.9118800E+02  0.7816164E-02  0.1184000E+00
        -11   -1    0    0    0    0  0.00000000000E+00  0.00000000000E+00  0.45593999997E+02  0.45594000000E+02  0.51100000000E-03 0. -1.
         11   -1    0    0    0    0 -0.00000000000E+00 -0.00000000000E+00 -0.45593999997E+02  0.45594000000E+02  0.51100000000E-03 0.  1.
         23    2    1    2    0    0 -0.88817841970E-15 -0.88817841970E-15  0.00000000000E+00  0.91188000000E+02  0.91188000000E+02 0.  0.
    9900012    2    3    3    0    0 -0.12041791817E+01 -0.52316725096E+01  0.43067408083E+02  0.47787284755E+02  0.20000062514E+02 0.  0.
        -12    1    3    3    0    0  0.12041791817E+01  0.52316725096E+01 -0.43067408083E+02  0.43400715245E+02  0.00000000000E+00 0.  1.
         11    1    4    4    0    0 -0.37599024311E+01 -0.17114807914E+01  0.30896552464E+02  0.31171509222E+02  0.51100000000E-03 0. -1.
        -11    1    4    4    0    0  0.56346553418E+01 -0.40082450947E+00  0.28749205962E+01  0.63383885810E+01  0.51100000000E-03 0.  1.
        -12    1    4    4    0    0 -0.30789320924E+01 -0.31193672088E+01  0.92959350232E+01  0.10277386952E+02  0.00000000000E+00 0.  1.
</event>
<event>
 8    1  0.6019723E-011  0.9118800E+02  0.7816164E-02  0.1184000E+00
        -11   -1    0    0    0    0  0.00000000000E+00  0.00000000000E+00  0.45593999997E+02  0.45594000000E+02  0.51100000000E-03 0. -1.
         11   -1    0    0    0    0 -0.00000000000E+00 -0.00000000000E+00 -0.45593999997E+02  0.45594000000E+02  0.51100000000E-03 0.  1.
         23    2    1    2    0    0 -0.44408920985E-15  0.00000000000E+00 -0.35527136788E-14  0.91188000000E+02  0.91188000000E+02 0.  0.
    9900012    2    3    3    0    0  0.36069517089E+01 -0.34661007914E+02 -0.25869465195E+02  0.47787253466E+02  0.19999919853E+02 0.  0.
         12    1    3    3    0    0 -0.36069517089E+01  0.34661007914E+02  0.25869465195E+02  0.43400746534E+02  0.00000000000E+00 0. -1.
         11    1    4    4    0    0  0.35368977990E+01  0.53383701958E+00 -0.29076564034E+01  0.46096739609E+01  0.51100000000E-03 0. -1.
        -11    1    4    4    0    0  0.73032492371E+00 -0.26370363908E+02 -0.11709441138E+02  0.28862440631E+02  0.51100000000E-03 0.  1.
         12    1    4    4    0    0 -0.66027101380E+00 -0.88244810253E+01 -0.11252367654E+02  0.14315138874E+02  0.00000000000E+00 0. -1.
</event>
<event>
 8    1  0.6019723E-011  0.9118800E+02  0.7816164E-02  0.1184000E+00
        -11   -1    0    0    0    0  0.00000000000E+00  0.00000000000E+00  0.45593999997E+02  0.45594000000E+02  0.51100000000E-03 0. -1.
         11   -1    0    0    0    0 -0.00000000000E+00 -0.00000000000E+00 -0.45593999997E+02  0.45594000000E+02  0.51100000000E-03 0.  1.
         23    2    1    2    0    0  0.00000000000E+00  0.71054273576E-14  0.00000000000E+00  0.91188000000E+02  0.91188000000E+02 0.  0.
    9900012    2    3    3    0    0 -0.22749625299E+02  0.35708862186E+02 -0.95370332474E+01  0.47787270824E+02  0.19999998996E+02 0.  0.
         12    1    3    3    0    0  0.22749625299E+02 -0.35708862186E+02  0.95370332474E+01  0.43400729176E+02  0.00000000000E+00 0. -1.
         11    1    4    4    0    0 -0.67503800273E+01  0.11913333798E+02  0.44106112552E+01  0.14385709736E+02  0.51100000000E-03 0. -1.
        -11    1    4    4    0    0 -0.12808520373E+02  0.23864653688E+02 -0.13168967850E+02  0.30116467328E+02  0.51100000000E-03 0.  1.
        -12    1    4    4    0    0 -0.31907248986E+01 -0.69125300925E-01 -0.77867665269E+00  0.32850937605E+01  0.00000000000E+00 0.  1.
</event>
<event>
 8    1  0.6019723E-011  0.9118800E+02  0.7816164E-02  0.1184000E+00
        -11   -1    0    0    0    0  0.00000000000E+00  0.00000000000E+00  0.45593999997E+02  0.45594000000E+02  0.51100000000E-03 0.  1.
         11   -1    0    0    0    0 -0.00000000000E+00 -0.00000000000E+00 -0.45593999997E+02  0.45594000000E+02  0.51100000000E-03 0. -1.
         23    2    1    2    0    0  0.00000000000E+00  0.00000000000E+00  0.00000000000E+00  0.91188000000E+02  0.91188000000E+02 0.  0.
    9900012    2    3    3    0    0  0.27469525859E+02  0.19386919434E+02  0.27444420697E+02  0.47787265866E+02  0.19999976388E+02 0.  0.
        -12    1    3    3    0    0 -0.27469525859E+02 -0.19386919434E+02 -0.27444420697E+02  0.43400734134E+02  0.00000000000E+00 0.  1.
         11    1    4    4    0    0  0.57253657024E+01  0.10629103862E+02  0.12206699454E+02  0.17168610111E+02  0.51100000000E-03 0. -1.
        -11    1    4    4    0    0  0.61869474392E+01 -0.31172162182E+01  0.48918962880E+01  0.84809200633E+01  0.51100000000E-03 0.  1.
        -12    1    4    4    0    0  0.15557212717E+02  0.11875031790E+02  0.10345824955E+02  0.22137735691E+02  0.00000000000E+00 0.  1.
</event>
<event>
 8    1  0.6019723E-011  0.9118800E+02  0.7816164E-02  0.1184000E+00
        -11   -1    0    0    0    0  0.00000000000E+00  0.00000000000E+00  0.45593999997E+02  0.45594000000E+02  0.51100000000E-03 0. -1.
         11   -1    0    0    0    0 -0.00000000000E+00 -0.00000000000E+00 -0.45593999997E+02  0.45594000000E+02  0.51100000000E-03 0.  1.
         23    2    1    2    0    0 -0.26645352591E-14  0.71054273576E-14 -0.35527136788E-14  0.91188000000E+02  0.91188000000E+02 0.  0.
    9900012    2    3    3    0    0  0.59628793056E+01 -0.37452427788E+02  0.21104103355E+02  0.47787268955E+02  0.19999990475E+02 0.  0.
        -12    1    3    3    0    0 -0.59628793056E+01  0.37452427788E+02 -0.21104103355E+02  0.43400731045E+02  0.00000000000E+00 0.  1.
         11    1    4    4    0    0 -0.23831008341E+01 -0.36455505375E+01  0.98511275903E+01  0.10770975971E+02  0.51100000000E-03 0. -1.
        -11    1    4    4    0    0  0.96142083960E+00 -0.13140937922E+02  0.58437009295E+01  0.14413792711E+02  0.51100000000E-03 0.  1.
         12    1    4    4    0    0  0.73845593002E+01 -0.20665939328E+02  0.54092748347E+01  0.22602500274E+02  0.00000000000E+00 0. -1.
</event>
<event>
 8    1  0.6019723E-011  0.9118800E+02  0.7816164E-02  0.1184000E+00
        -11   -1    0    0    0    0  0.00000000000E+00  0.00000000000E+00  0.45593999997E+02  0.45594000000E+02  0.51100000000E-03 0. -1.
         11   -1    0    0    0    0 -0.00000000000E+00 -0.00000000000E+00 -0.45593999997E+02  0.45594000000E+02  0.51100000000E-03 0.  1.
         23    2    1    2    0    0  0.00000000000E+00 -0.35527136788E-14 -0.35527136788E-14  0.91188000000E+02  0.91188000000E+02 0.  0.
    9900012    2    3    3    0    0  0.21942429996E+02 -0.21343384715E+02 -0.30767070088E+02  0.47787275270E+02  0.20000019268E+02 0.  0.
         12    1    3    3    0    0 -0.21942429996E+02  0.21343384715E+02  0.30767070088E+02  0.43400724730E+02  0.00000000000E+00 0. -1.
         11    1    4    4    0    0 -0.53224549698E+00  0.92373513330E+00  0.72652314927E+00  0.12901193794E+01  0.51100000000E-03 0. -1.
        -11    1    4    4    0    0  0.79246347955E+01 -0.12489993968E+02 -0.22143539553E+02  0.26629610026E+02  0.51100000000E-03 0.  1.
        -12    1    4    4    0    0  0.14550040698E+02 -0.97771258806E+01 -0.93500536848E+01  0.19867545865E+02  0.00000000000E+00 0.  1.
</event>
<event>
 8    1  0.6019723E-011  0.9118800E+02  0.7816164E-02  0.1184000E+00
        -11   -1    0    0    0    0  0.00000000000E+00  0.00000000000E+00  0.45593999997E+02  0.45594000000E+02  0.51100000000E-03 0. -1.
         11   -1    0    0    0    0 -0.00000000000E+00 -0.00000000000E+00 -0.45593999997E+02  0.45594000000E+02  0.51100000000E-03 0.  1.
         23    2    1    2    0    0  0.00000000000E+00  0.00000000000E+00  0.00000000000E+00  0.91188000000E+02  0.91188000000E+02 0.  0.
    9900012    2    3    3    0    0  0.33944987510E+02  0.21704752782E+02 -0.16132711771E+02  0.47787275818E+02  0.20000021766E+02 0.  0.
         12    1    3    3    0    0 -0.33944987510E+02 -0.21704752782E+02  0.16132711771E+02  0.43400724182E+02  0.00000000000E+00 0. -1.
         11    1    4    4    0    0  0.19274434807E+02  0.70529156651E+01 -0.14540167848E+02  0.25152811727E+02  0.51100000000E-03 0. -1.
        -11    1    4    4    0    0  0.14717144638E+02  0.14558440034E+02 -0.32663777373E+01  0.20957379280E+02  0.51100000000E-03 0.  1.
         12    1    4    4    0    0 -0.46591933949E-01  0.93397083372E-01  0.16738338145E+01  0.16770848107E+01  0.00000000000E+00 0. -1.
</event>
<event>
 8    1  0.6019723E-011  0.9118800E+02  0.7816164E-02  0.1184000E+00
        -11   -1    0    0    0    0  0.00000000000E+00  0.00000000000E+00  0.45593999997E+02  0.45594000000E+02  0.51100000000E-03 0. -1.
         11   -1    0    0    0    0 -0.00000000000E+00 -0.00000000000E+00 -0.45593999997E+02  0.45594000000E+02  0.51100000000E-03 0.  1.
         23    2    1    2    0    0 -0.35527136788E-14  0.00000000000E+00  0.00000000000E+00  0.91188000000E+02  0.91188000000E+02 0.  0.
    9900012    2    3    3    0    0 -0.31134524419E+02  0.81419779908E+01 -0.29119962197E+02  0.47787278637E+02  0.20000034620E+02 0.  0.
         12    1    3    3    0    0  0.31134524419E+02 -0.81419779908E+01  0.29119962197E+02  0.43400721363E+02  0.00000000000E+00 0. -1.
         11    1    4    4    0    0 -0.19553478586E+02  0.21302252899E+01 -0.26848502248E+02  0.33282404628E+02  0.51100000000E-03 0. -1.
        -11    1    4    4    0    0 -0.66179934620E+01  0.62649418767E+01 -0.18438863445E+00  0.91148962479E+01  0.51100000000E-03 0.  1.
        -12    1    4    4    0    0 -0.49630523711E+01 -0.25318917580E+00 -0.20870713152E+01  0.53899777618E+01  0.00000000000E+00 0.  1.
</event>
<event>
 8    1  0.6019723E-011  0.9118800E+02  0.7816164E-02  0.1184000E+00
        -11   -1    0    0    0    0  0.00000000000E+00  0.00000000000E+00  0.45593999997E+02  0.45594000000E+02  0.51100000000E-03 0.  1.
         11   -1    0    0    0    0 -0.00000000000E+00 -0.00000000000E+00 -0.45593999997E+02  0.45594000000E+02  0.51100000000E-03 0. -1.
         23    2    1    2    0    0  0.35527136788E-14  0.00000000000E+00  0.17763568394E-14  0.91188000000E+02  0.91188000000E+02 0.  0.
    9900012    2    3    3    0    0 -0.23878309711E+02  0.34842455634E+02  0.99726153924E+01  0.47787269050E+02  0.19999990905E+02 0.  0.
        -12    1    3    3    0    0  0.23878309711E+02 -0.34842455634E+02 -0.99726153924E+01  0.43400730950E+02  0.00000000000E+00 0.  1.
         11    1    4    4    0    0 -0.10090356582E+02  0.80533564965E+01  0.85353262471E+01  0.15476551335E+02  0.51100000000E-03 0. -1.
        -11    1    4    4    0    0 -0.16817752385E+01  0.10407175410E+02 -0.39214063974E+01  0.11247892975E+02  0.51100000000E-03 0.  1.
        -12    1    4    4    0    0 -0.12106177890E+02  0.16381923727E+02  0.53586955428E+01  0.21062824740E+02  0.00000000000E+00 0.  1.
</event>
<event>
 8    1  0.6019723E-011  0.9118800E+02  0.7816164E-02  0.1184000E+00
        -11   -1    0    0    0    0  0.00000000000E+00  0.00000000000E+00  0.45593999997E+02  0.45594000000E+02  0.51100000000E-03 0. -1.
         11   -1    0    0    0    0 -0.00000000000E+00 -0.00000000000E+00 -0.45593999997E+02  0.45594000000E+02  0.51100000000E-03 0.  1.
         23    2    1    2    0    0  0.88817841970E-15  0.00000000000E+00  0.00000000000E+00  0.91188000000E+02  0.91188000000E+02 0.  0.
    9900012    2    3    3    0    0  0.58424017217E+01 -0.19867263370E+02  0.38141597539E+02  0.47787271037E+02  0.19999999964E+02 0.  0.
        -12    1    3    3    0    0 -0.58424017217E+01  0.19867263370E+02 -0.38141597539E+02  0.43400728963E+02  0.00000000000E+00 0.  1.
         11    1    4    4    0    0  0.32547104677E+01  0.14952911918E+01 -0.23763649738E+00  0.35896388875E+01  0.51100000000E-03 0.  1.
        -11    1    4    4    0    0  0.29022202323E+01 -0.13438375704E+02  0.27376996065E+02  0.30635155257E+02  0.51100000000E-03 0. -1.
        -12    1    4    4    0    0 -0.31452897829E+00 -0.79241788580E+01  0.11002237972E+02  0.13562476892E+02  0.00000000000E+00 0.  1.
</event>
<event>
 8    1  0.6019723E-011  0.9118800E+02  0.7816164E-02  0.1184000E+00
        -11   -1    0    0    0    0  0.00000000000E+00  0.00000000000E+00  0.45593999997E+02  0.45594000000E+02  0.51100000000E-03 0. -1.
         11   -1    0    0    0    0 -0.00000000000E+00 -0.00000000000E+00 -0.45593999997E+02  0.45594000000E+02  0.51100000000E-03 0.  1.
         23    2    1    2    0    0  0.44408920985E-15 -0.35527136788E-14 -0.71054273576E-14  0.91188000000E+02  0.91188000000E+02 0.  0.
    9900012    2    3    3    0    0 -0.38342934991E+01  0.24577608456E+02  0.35564855579E+02  0.47787313410E+02  0.20000193162E+02 0.  0.
        -12    1    3    3    0    0  0.38342934991E+01 -0.24577608456E+02 -0.35564855579E+02  0.43400686590E+02  0.00000000000E+00 0.  1.
         11    1    4    4    0    0 -0.89351004475E+00  0.20795718129E+02  0.24587820975E+02  0.32215232318E+02  0.51100000000E-03 0. -1.
        -11    1    4    4    0    0  0.77329650972E+00 -0.14593730157E+00 -0.16546738142E+01  0.18322747830E+01  0.51100000000E-03 0.  1.
        -12    1    4    4    0    0 -0.37140799641E+01  0.39278276285E+01  0.12631708418E+02  0.13739806309E+02  0.00000000000E+00 0.  1.
</event>
<event>
 8    1  0.6019723E-011  0.9118800E+02  0.7816164E-02  0.1184000E+00
        -11   -1    0    0    0    0  0.00000000000E+00  0.00000000000E+00  0.45593999997E+02  0.45594000000E+02  0.51100000000E-03 0.  1.
         11   -1    0    0    0    0 -0.00000000000E+00 -0.00000000000E+00 -0.45593999997E+02  0.45594000000E+02  0.51100000000E-03 0. -1.
         23    2    1    2    0    0  0.00000000000E+00  0.00000000000E+00 -0.17763568394E-14  0.91188000000E+02  0.91188000000E+02 0.  0.
    9900012    2    3    3    0    0  0.36158242796E+02 -0.18302793787E+02 -0.15531020367E+02  0.47787269866E+02  0.19999994627E+02 0.  0.
        -12    1    3    3    0    0 -0.36158242796E+02  0.18302793787E+02  0.15531020367E+02  0.43400730134E+02  0.00000000000E+00 0.  1.
         11    1    4    4    0    0  0.17066362880E+02 -0.18360294201E+02 -0.62590266484E+01  0.25836728894E+02  0.51100000000E-03 0. -1.
        -11    1    4    4    0    0  0.19099502363E+02  0.64304380996E+00 -0.83423667175E+01  0.20851848325E+02  0.51100000000E-03 0.  1.
         12    1    4    4    0    0 -0.76224471112E-02 -0.58554339621E+00 -0.92962700138E+00  0.10986926468E+01  0.00000000000E+00 0. -1.
</event>
<event>
 8    1  0.6019723E-011  0.9118800E+02  0.7816164E-02  0.1184000E+00
        -11   -1    0    0    0    0  0.00000000000E+00  0.00000000000E+00  0.45593999997E+02  0.45594000000E+02  0.51100000000E-03 0. -1.
         11   -1    0    0    0    0 -0.00000000000E+00 -0.00000000000E+00 -0.45593999997E+02  0.45594000000E+02  0.51100000000E-03 0.  1.
         23    2    1    2    0    0 -0.44408920985E-15 -0.66613381478E-15  0.00000000000E+00  0.91188000000E+02  0.91188000000E+02 0.  0.
    9900012    2    3    3    0    0  0.33285598212E+01  0.11137411511E+01  0.43258563208E+02  0.47787273961E+02  0.20000013299E+02 0.  0.
        -12    1    3    3    0    0 -0.33285598212E+01 -0.11137411511E+01 -0.43258563208E+02  0.43400726039E+02  0.00000000000E+00 0.  1.
         11    1    4    4    0    0 -0.72684956230E+00 -0.53921838674E+01  0.17223175355E+02  0.18062162847E+02  0.51100000000E-03 0. -1.
        -11    1    4    4    0    0  0.79718856161E+01  0.59829398355E+01  0.21576339268E+02  0.23767308342E+02  0.51100000000E-03 0.  1.
         12    1    4    4    0    0 -0.39164762326E+01  0.52298518297E+00  0.44590485850E+01  0.59578027716E+01  0.00000000000E+00 0. -1.
</event>
<event>
 8    1  0.6019723E-011  0.9118800E+02  0.7816164E-02  0.1184000E+00
        -11   -1    0    0    0    0  0.00000000000E+00  0.00000000000E+00  0.45593999997E+02  0.45594000000E+02  0.51100000000E-03 0. -1.
         11   -1    0    0    0    0 -0.00000000000E+00 -0.00000000000E+00 -0.45593999997E+02  0.45594000000E+02  0.51100000000E-03 0.  1.
         23    2    1    2    0    0  0.00000000000E+00  0.00000000000E+00  0.00000000000E+00  0.91188000000E+02  0.91188000000E+02 0.  0.
    9900012    2    3    3    0    0  0.27307372353E+02  0.22737199525E+02  0.24918882161E+02  0.47787268265E+02  0.19999987325E+02 0.  0.
        -12    1    3    3    0    0 -0.27307372353E+02 -0.22737199525E+02 -0.24918882161E+02  0.43400731735E+02  0.00000000000E+00 0.  1.
         11    1    4    4    0    0  0.23096404321E+02  0.18302700190E+02  0.19052247091E+02  0.35091606493E+02  0.51100000000E-03 0. -1.
        -11    1    4    4    0    0 -0.65851828368E+00  0.52913732046E+01  0.56172874345E+01  0.77450755389E+01  0.51100000000E-03 0.  1.
         12    1    4    4    0    0  0.48694863149E+01 -0.85687386985E+00  0.24934763566E+00  0.49505862323E+01  0.00000000000E+00 0. -1.
</event>
<event>
 8    1  0.6019723E-011  0.9118800E+02  0.7816164E-02  0.1184000E+00
        -11   -1    0    0    0    0  0.00000000000E+00  0.00000000000E+00  0.45593999997E+02  0.45594000000E+02  0.51100000000E-03 0. -1.
         11   -1    0    0    0    0 -0.00000000000E+00 -0.00000000000E+00 -0.45593999997E+02  0.45594000000E+02  0.51100000000E-03 0.  1.
         23    2    1    2    0    0  0.00000000000E+00 -0.44408920985E-15  0.00000000000E+00  0.91188000000E+02  0.91188000000E+02 0.  0.
    9900012    2    3    3    0    0 -0.61055742672E+01 -0.35429634317E+01  0.42822805094E+02  0.47787271168E+02  0.20000000565E+02 0.  0.
        -12    1    3    3    0    0  0.61055742672E+01  0.35429634317E+01 -0.42822805094E+02  0.43400728832E+02  0.00000000000E+00 0.  1.
         11    1    4    4    0    0 -0.15454051855E+00 -0.24755259994E+01  0.15816543737E+02  0.16009845964E+02  0.51100000000E-03 0. -1.
        -11    1    4    4    0    0 -0.13680501538E+01 -0.70576079768E+01  0.56965792610E+01  0.91723719460E+01  0.51100000000E-03 0.  1.
        -12    1    4    4    0    0 -0.45829835949E+01  0.59901705445E+01  0.21309682096E+02  0.22605053258E+02  0.00000000000E+00 0.  1.
</event>
<event>
 8    1  0.6019723E-011  0.9118800E+02  0.7816164E-02  0.1184000E+00
        -11   -1    0    0    0    0  0.00000000000E+00  0.00000000000E+00  0.45593999997E+02  0.45594000000E+02  0.51100000000E-03 0. -1.
         11   -1    0    0    0    0 -0.00000000000E+00 -0.00000000000E+00 -0.45593999997E+02  0.45594000000E+02  0.51100000000E-03 0.  1.
         23    2    1    2    0    0  0.00000000000E+00 -0.71054273576E-14  0.00000000000E+00  0.91188000000E+02  0.91188000000E+02 0.  0.
    9900012    2    3    3    0    0  0.11368460596E+02  0.33177258791E+02 -0.25566589730E+02  0.47787275264E+02  0.20000019238E+02 0.  0.
         12    1    3    3    0    0 -0.11368460596E+02 -0.33177258791E+02  0.25566589730E+02  0.43400724736E+02  0.00000000000E+00 0. -1.
         11    1    4    4    0    0  0.10676708149E+02  0.83857082874E+01 -0.98721183595E+01  0.16786033526E+02  0.51100000000E-03 0.  1.
        -11    1    4    4    0    0  0.22087359859E+01  0.20950729909E+02 -0.85226290473E+01  0.22725465991E+02  0.51100000000E-03 0. -1.
         12    1    4    4    0    0 -0.15169835393E+01  0.38408205949E+01 -0.71718423235E+01  0.82757757469E+01  0.00000000000E+00 0. -1.
</event>
<event>
 8    1  0.6019723E-011  0.9118800E+02  0.7816164E-02  0.1184000E+00
        -11   -1    0    0    0    0  0.00000000000E+00  0.00000000000E+00  0.45593999997E+02  0.45594000000E+02  0.51100000000E-03 0. -1.
         11   -1    0    0    0    0 -0.00000000000E+00 -0.00000000000E+00 -0.45593999997E+02  0.45594000000E+02  0.51100000000E-03 0.  1.
         23    2    1    2    0    0  0.71054273576E-14 -0.35527136788E-14  0.35527136788E-14  0.91188000000E+02  0.91188000000E+02 0.  0.
    9900012    2    3    3    0    0 -0.23766842669E+02  0.26843898601E+02 -0.24457432321E+02  0.47787266155E+02  0.19999977706E+02 0.  0.
         12    1    3    3    0    0  0.23766842669E+02 -0.26843898601E+02  0.24457432321E+02  0.43400733845E+02  0.00000000000E+00 0. -1.
         11    1    4    4    0    0 -0.13984903299E+02  0.88342133697E+01 -0.58836685804E+01  0.17556719579E+02  0.51100000000E-03 0. -1.
        -11    1    4    4    0    0 -0.73133460910E+01  0.18657297711E+02 -0.19032846798E+02  0.27637457307E+02  0.51100000000E-03 0.  1.
        -12    1    4    4    0    0 -0.24685932796E+01 -0.64761247945E+00  0.45908305741E+00  0.25930892691E+01  0.00000000000E+00 0.  1.
</event>
<event>
 8    1  0.6019723E-011  0.9118800E+02  0.7816164E-02  0.1184000E+00
        -11   -1    0    0    0    0  0.00000000000E+00  0.00000000000E+00  0.45593999997E+02  0.45594000000E+02  0.51100000000E-03 0. -1.
         11   -1    0    0    0    0 -0.00000000000E+00 -0.00000000000E+00 -0.45593999997E+02  0.45594000000E+02  0.51100000000E-03 0.  1.
         23    2    1    2    0    0  0.17763568394E-14  0.00000000000E+00 -0.35527136788E-14  0.91188000000E+02  0.91188000000E+02 0.  0.
    9900012    2    3    3    0    0  0.13619286591E+02 -0.33034733458E+02 -0.24634220126E+02  0.47787269786E+02  0.19999994263E+02 0.  0.
         12    1    3    3    0    0 -0.13619286591E+02  0.33034733458E+02  0.24634220126E+02  0.43400730214E+02  0.00000000000E+00 0. -1.
         11    1    4    4    0    0  0.31702194735E+01 -0.21746701002E+02 -0.15742096910E+02  0.27032996715E+02  0.51100000000E-03 0.  1.
        -11    1    4    4    0    0 -0.75987063979E+00 -0.50854595969E+01  0.31468126730E-01  0.51420125637E+01  0.51100000000E-03 0. -1.
         12    1    4    4    0    0  0.11208937757E+02 -0.62025728584E+01 -0.89235913429E+01  0.15612260508E+02  0.00000000000E+00 0. -1.
</event>
<event>
 8    1  0.6019723E-011  0.9118800E+02  0.7816164E-02  0.1184000E+00
        -11   -1    0    0    0    0  0.00000000000E+00  0.00000000000E+00  0.45593999997E+02  0.45594000000E+02  0.51100000000E-03 0. -1.
         11   -1    0    0    0    0 -0.00000000000E+00 -0.00000000000E+00 -0.45593999997E+02  0.45594000000E+02  0.51100000000E-03 0.  1.
         23    2    1    2    0    0  0.35527136788E-14  0.00000000000E+00 -0.35527136788E-14  0.91188000000E+02  0.91188000000E+02 0.  0.
    9900012    2    3    3    0    0 -0.22759971623E+02 -0.26917896000E+02  0.25318645588E+02  0.47787271346E+02  0.20000001373E+02 0.  0.
        -12    1    3    3    0    0  0.22759971623E+02  0.26917896000E+02 -0.25318645588E+02  0.43400728654E+02  0.00000000000E+00 0.  1.
         11    1    4    4    0    0 -0.19193843880E+02 -0.25686705318E+02  0.16186928527E+02  0.35919731741E+02  0.51100000000E-03 0. -1.
        -11    1    4    4    0    0 -0.92635437585E+00  0.15546633050E+01  0.74687124612E+01  0.76848406952E+01  0.51100000000E-03 0.  1.
        -12    1    4    4    0    0 -0.26397733674E+01 -0.27858539870E+01  0.16630046000E+01  0.41826989095E+01  0.00000000000E+00 0.  1.
</event>
<event>
 8    1  0.6019723E-011  0.9118800E+02  0.7816164E-02  0.1184000E+00
        -11   -1    0    0    0    0  0.00000000000E+00  0.00000000000E+00  0.45593999997E+02  0.45594000000E+02  0.51100000000E-03 0. -1.
         11   -1    0    0    0    0 -0.00000000000E+00 -0.00000000000E+00 -0.45593999997E+02  0.45594000000E+02  0.51100000000E-03 0.  1.
         23    2    1    2    0    0  0.35527136788E-14  0.00000000000E+00 -0.35527136788E-14  0.91188000000E+02  0.91188000000E+02 0.  0.
    9900012    2    3    3    0    0 -0.31871843452E+02 -0.20887357889E+01  0.29384451519E+02  0.47787271743E+02  0.20000003185E+02 0.  0.
        -12    1    3    3    0    0  0.31871843452E+02  0.20887357889E+01 -0.29384451519E+02  0.43400728257E+02  0.00000000000E+00 0.  1.
         11    1    4    4    0    0 -0.25786721151E+02  0.10489119781E+01  0.17479842336E+02  0.31170500355E+02  0.51100000000E-03 0. -1.
        -11    1    4    4    0    0  0.14758006838E+01  0.19697818148E+01  0.22913084092E+01  0.33627552012E+01  0.51100000000E-03 0.  1.
        -12    1    4    4    0    0 -0.75609229848E+01 -0.51074295819E+01  0.96133007738E+01  0.13254016187E+02  0.00000000000E+00 0.  1.
</event>
<event>
 8    1  0.6019723E-011  0.9118800E+02  0.7816164E-02  0.1184000E+00
        -11   -1    0    0    0    0  0.00000000000E+00  0.00000000000E+00  0.45593999997E+02  0.45594000000E+02  0.51100000000E-03 0. -1.
         11   -1    0    0    0    0 -0.00000000000E+00 -0.00000000000E+00 -0.45593999997E+02  0.45594000000E+02  0.51100000000E-03 0.  1.
         23    2    1    2    0    0  0.00000000000E+00  0.00000000000E+00  0.00000000000E+00  0.91188000000E+02  0.91188000000E+02 0.  0.
    9900012    2    3    3    0    0  0.81402920154E+01 -0.70642952739E+01  0.42041108328E+02  0.47787269462E+02  0.19999992785E+02 0.  0.
        -12    1    3    3    0    0 -0.81402920154E+01  0.70642952739E+01 -0.42041108328E+02  0.43400730538E+02  0.00000000000E+00 0.  1.
         11    1    4    4    0    0  0.17301618773E+01 -0.43635160979E+01  0.19029016987E+02  0.19599418884E+02  0.51100000000E-03 0. -1.
        -11    1    4    4    0    0 -0.30858463745E+01  0.36983124576E+01  0.63408164389E+01  0.79627831977E+01  0.51100000000E-03 0.  1.
        -12    1    4    4    0    0  0.94959765126E+01 -0.63990916337E+01  0.16671274902E+02  0.20225067380E+02  0.00000000000E+00 0.  1.
</event>
<event>
 8    1  0.6019723E-011  0.9118800E+02  0.7816164E-02  0.1184000E+00
        -11   -1    0    0    0    0  0.00000000000E+00  0.00000000000E+00  0.45593999997E+02  0.45594000000E+02  0.51100000000E-03 0. -1.
         11   -1    0    0    0    0 -0.00000000000E+00 -0.00000000000E+00 -0.45593999997E+02  0.45594000000E+02  0.51100000000E-03 0.  1.
         23    2    1    2    0    0  0.00000000000E+00  0.00000000000E+00  0.35527136788E-14  0.91188000000E+02  0.91188000000E+02 0.  0.
    9900012    2    3    3    0    0 -0.29254845955E+02  0.10401526137E+02 -0.30324629280E+02  0.47787298407E+02  0.20000124755E+02 0.  0.
         12    1    3    3    0    0  0.29254845955E+02 -0.10401526137E+02  0.30324629280E+02  0.43400701593E+02  0.00000000000E+00 0. -1.
         11    1    4    4    0    0 -0.11622232342E+01 -0.13836119998E+01 -0.33571199889E+01  0.38125319531E+01  0.51100000000E-03 0. -1.
        -11    1    4    4    0    0 -0.38092435067E+01  0.87491924428E+01 -0.11830334329E+02  0.15199194554E+02  0.51100000000E-03 0.  1.
        -12    1    4    4    0    0 -0.24283379214E+02  0.30359456939E+01 -0.15137174962E+02  0.28775571899E+02  0.00000000000E+00 0.  1.
</event>
<event>
 8    1  0.6019723E-011  0.9118800E+02  0.7816164E-02  0.1184000E+00
        -11   -1    0    0    0    0  0.00000000000E+00  0.00000000000E+00  0.45593999997E+02  0.45594000000E+02  0.51100000000E-03 0. -1.
         11   -1    0    0    0    0 -0.00000000000E+00 -0.00000000000E+00 -0.45593999997E+02  0.45594000000E+02  0.51100000000E-03 0.  1.
         23    2    1    2    0    0  0.00000000000E+00  0.35527136788E-14  0.00000000000E+00  0.91188000000E+02  0.91188000000E+02 0.  0.
    9900012    2    3    3    0    0  0.58181452467E+01  0.24941358272E+02 -0.35038576484E+02  0.47787262580E+02  0.19999961409E+02 0.  0.
         12    1    3    3    0    0 -0.58181452467E+01 -0.24941358272E+02  0.35038576484E+02  0.43400737420E+02  0.00000000000E+00 0. -1.
         11    1    4    4    0    0 -0.70084796179E+00  0.74436764410E+01 -0.18115269415E+01  0.76929277226E+01  0.51100000000E-03 0. -1.
        -11    1    4    4    0    0  0.75779598899E+01  0.18944469692E+02 -0.28602034671E+02  0.35133955024E+02  0.51100000000E-03 0.  1.
        -12    1    4    4    0    0 -0.10589666814E+01 -0.14467878604E+01 -0.46250148707E+01  0.49603798342E+01  0.00000000000E+00 0.  1.
</event>
<event>
 8    1  0.6019723E-011  0.9118800E+02  0.7816164E-02  0.1184000E+00
        -11   -1    0    0    0    0  0.00000000000E+00  0.00000000000E+00  0.45593999997E+02  0.45594000000E+02  0.51100000000E-03 0. -1.
         11   -1    0    0    0    0 -0.00000000000E+00 -0.00000000000E+00 -0.45593999997E+02  0.45594000000E+02  0.51100000000E-03 0.  1.
         23    2    1    2    0    0  0.17763568394E-14 -0.71054273576E-14 -0.17763568394E-14  0.91188000000E+02  0.91188000000E+02 0.  0.
    9900012    2    3    3    0    0  0.11593746233E+02 -0.39727894825E+02 -0.13072972159E+02  0.47787272126E+02  0.20000004929E+02 0.  0.
         12    1    3    3    0    0 -0.11593746233E+02  0.39727894825E+02  0.13072972159E+02  0.43400727874E+02  0.00000000000E+00 0. -1.
         11    1    4    4    0    0  0.24399787195E+01 -0.24822875167E+01 -0.52267174263E+00  0.35197206535E+01  0.51100000000E-03 0. -1.
        -11    1    4    4    0    0  0.14348061222E+02 -0.21617400881E+02 -0.85720521561E+01  0.27325061026E+02  0.51100000000E-03 0.  1.
        -12    1    4    4    0    0 -0.51942937084E+01 -0.15628206428E+02 -0.39782482599E+01  0.16942490446E+02  0.00000000000E+00 0.  1.
</event>
<event>
 8    1  0.6019723E-011  0.9118800E+02  0.7816164E-02  0.1184000E+00
        -11   -1    0    0    0    0  0.00000000000E+00  0.00000000000E+00  0.45593999997E+02  0.45594000000E+02  0.51100000000E-03 0.  1.
         11   -1    0    0    0    0 -0.00000000000E+00 -0.00000000000E+00 -0.45593999997E+02  0.45594000000E+02  0.51100000000E-03 0. -1.
         23    2    1    2    0    0  0.00000000000E+00  0.17763568394E-14 -0.88817841970E-15  0.91188000000E+02  0.91188000000E+02 0.  0.
    9900012    2    3    3    0    0 -0.41118493236E+02  0.13845873614E+02 -0.10882192505E+01  0.47787275083E+02  0.20000018416E+02 0.  0.
        -12    1    3    3    0    0  0.41118493236E+02 -0.13845873614E+02  0.10882192505E+01  0.43400724917E+02  0.00000000000E+00 0.  1.
         11    1    4    4    0    0 -0.13265558506E+02 -0.30037381551E+01  0.11014805201E+01  0.13645905796E+02  0.51100000000E-03 0. -1.
        -11    1    4    4    0    0 -0.24143322074E+02  0.11224745329E+02 -0.45316814054E+01  0.27007981137E+02  0.51100000000E-03 0.  1.
        -12    1    4    4    0    0 -0.37096126553E+01  0.56248664409E+01  0.23419816347E+01  0.71333881507E+01  0.00000000000E+00 0.  1.
</event>
<event>
 8    1  0.6019723E-011  0.9118800E+02  0.7816164E-02  0.1184000E+00
        -11   -1    0    0    0    0  0.00000000000E+00  0.00000000000E+00  0.45593999997E+02  0.45594000000E+02  0.51100000000E-03 0.  1.
         11   -1    0    0    0    0 -0.00000000000E+00 -0.00000000000E+00 -0.45593999997E+02  0.45594000000E+02  0.51100000000E-03 0. -1.
         23    2    1    2    0    0  0.00000000000E+00  0.00000000000E+00  0.00000000000E+00  0.91188000000E+02  0.91188000000E+02 0.  0.
    9900012    2    3    3    0    0  0.39898658685E+02  0.58892505860E+01 -0.16032398674E+02  0.47787262166E+02  0.19999959518E+02 0.  0.
         12    1    3    3    0    0 -0.39898658685E+02 -0.58892505860E+01  0.16032398674E+02  0.43400737834E+02  0.00000000000E+00 0. -1.
         11    1    4    4    0    0  0.23721661670E+01 -0.31131935372E+01 -0.36722771826E+01  0.53670072005E+01  0.51100000000E-03 0. -1.
        -11    1    4    4    0    0  0.25648717471E+02  0.12002188194E+02 -0.90778080579E+01  0.29737448256E+02  0.51100000000E-03 0.  1.
        -12    1    4    4    0    0  0.11877775046E+02 -0.29997440710E+01 -0.32823134334E+01  0.12682806709E+02  0.00000000000E+00 0.  1.
</event>
<event>
 8    1  0.6019723E-011  0.9118800E+02  0.7816164E-02  0.1184000E+00
        -11   -1    0    0    0    0  0.00000000000E+00  0.00000000000E+00  0.45593999997E+02  0.45594000000E+02  0.51100000000E-03 0. -1.
         11   -1    0    0    0    0 -0.00000000000E+00 -0.00000000000E+00 -0.45593999997E+02  0.45594000000E+02  0.51100000000E-03 0.  1.
         23    2    1    2    0    0  0.00000000000E+00  0.00000000000E+00  0.35527136788E-14  0.91188000000E+02  0.91188000000E+02 0.  0.
    9900012    2    3    3    0    0  0.10361814934E+02  0.33905928034E+02 -0.25032813391E+02  0.47787298268E+02  0.20000124121E+02 0.  0.
         12    1    3    3    0    0 -0.10361814934E+02 -0.33905928034E+02  0.25032813391E+02  0.43400701732E+02  0.00000000000E+00 0. -1.
         11    1    4    4    0    0 -0.18579393802E+01  0.25831615547E+02 -0.15681142663E+02  0.30275774738E+02  0.51100000000E-03 0. -1.
        -11    1    4    4    0    0  0.10945015312E+02  0.63291946346E+01 -0.80587704832E+01  0.14993193351E+02  0.51100000000E-03 0.  1.
         12    1    4    4    0    0  0.12747390025E+01  0.17451178522E+01 -0.12929002456E+01  0.25183301784E+01  0.00000000000E+00 0. -1.
</event>
<event>
 8    1  0.6019723E-011  0.9118800E+02  0.7816164E-02  0.1184000E+00
        -11   -1    0    0    0    0  0.00000000000E+00  0.00000000000E+00  0.45593999997E+02  0.45594000000E+02  0.51100000000E-03 0. -1.
         11   -1    0    0    0    0 -0.00000000000E+00 -0.00000000000E+00 -0.45593999997E+02  0.45594000000E+02  0.51100000000E-03 0.  1.
         23    2    1    2    0    0  0.00000000000E+00  0.00000000000E+00 -0.71054273576E-14  0.91188000000E+02  0.91188000000E+02 0.  0.
    9900012    2    3    3    0    0  0.87255102485E+01  0.89067086768E+01 -0.41571139897E+02  0.47787266586E+02  0.19999979673E+02 0.  0.
         12    1    3    3    0    0 -0.87255102485E+01 -0.89067086768E+01  0.41571139897E+02  0.43400733414E+02  0.00000000000E+00 0. -1.
         11    1    4    4    0    0  0.51599410460E+01 -0.14677097423E+01 -0.33016388383E+02  0.33449380646E+02  0.51100000000E-03 0. -1.
        -11    1    4    4    0    0  0.39084241867E+01  0.71864049652E+01 -0.51789655669E+01  0.96820390699E+01  0.51100000000E-03 0.  1.
         12    1    4    4    0    0 -0.34285498419E+00  0.31880134539E+01 -0.33757859470E+01  0.46558468705E+01  0.00000000000E+00 0. -1.
</event>
<event>
 8    1  0.6019723E-011  0.9118800E+02  0.7816164E-02  0.1184000E+00
        -11   -1    0    0    0    0  0.00000000000E+00  0.00000000000E+00  0.45593999997E+02  0.45594000000E+02  0.51100000000E-03 0. -1.
         11   -1    0    0    0    0 -0.00000000000E+00 -0.00000000000E+00 -0.45593999997E+02  0.45594000000E+02  0.51100000000E-03 0.  1.
         23    2    1    2    0    0 -0.17763568394E-14  0.00000000000E+00  0.00000000000E+00  0.91188000000E+02  0.91188000000E+02 0.  0.
    9900012    2    3    3    0    0 -0.14690755968E+02  0.20275631469E+02  0.35450026813E+02  0.47787263331E+02  0.19999964830E+02 0.  0.
        -12    1    3    3    0    0  0.14690755968E+02 -0.20275631469E+02 -0.35450026813E+02  0.43400736669E+02  0.00000000000E+00 0.  1.
         11    1    4    4    0    0 -0.42614097766E+01  0.77361345272E+01  0.25260080412E+02  0.26759653462E+02  0.51100000000E-03 0. -1.
        -11    1    4    4    0    0 -0.75455659940E+01  0.12833611721E+02  0.10338335131E+02  0.18125074607E+02  0.51100000000E-03 0.  1.
        -12    1    4    4    0    0 -0.28837801976E+01 -0.29411477888E+00 -0.14838873007E+00  0.29025352619E+01  0.00000000000E+00 0.  1.
</event>
<event>
 8    1  0.6019723E-011  0.9118800E+02  0.7816164E-02  0.1184000E+00
        -11   -1    0    0    0    0  0.00000000000E+00  0.00000000000E+00  0.45593999997E+02  0.45594000000E+02  0.51100000000E-03 0. -1.
         11   -1    0    0    0    0 -0.00000000000E+00 -0.00000000000E+00 -0.45593999997E+02  0.45594000000E+02  0.51100000000E-03 0.  1.
         23    2    1    2    0    0  0.00000000000E+00 -0.35527136788E-14  0.00000000000E+00  0.91188000000E+02  0.91188000000E+02 0.  0.
    9900012    2    3    3    0    0  0.10590318373E+02  0.20157577457E+02 -0.36947808019E+02  0.47787270864E+02  0.19999999176E+02 0.  0.
         12    1    3    3    0    0 -0.10590318373E+02 -0.20157577457E+02  0.36947808019E+02  0.43400729136E+02  0.00000000000E+00 0. -1.
         11    1    4    4    0    0  0.61501066854E+01  0.17639145955E+02 -0.34083316956E+02  0.38866898220E+02  0.51100000000E-03 0. -1.
        -11    1    4    4    0    0  0.47563348525E+01 -0.84839196966E+00 -0.27001818234E+01  0.55347513317E+01  0.51100000000E-03 0.  1.
         12    1    4    4    0    0 -0.31612316506E+00  0.33668234713E+01 -0.16430923970E+00  0.33856213121E+01  0.00000000000E+00 0. -1.
</event>
<event>
 8    1  0.6019723E-011  0.9118800E+02  0.7816164E-02  0.1184000E+00
        -11   -1    0    0    0    0  0.00000000000E+00  0.00000000000E+00  0.45593999997E+02  0.45594000000E+02  0.51100000000E-03 0.  1.
         11   -1    0    0    0    0 -0.00000000000E+00 -0.00000000000E+00 -0.45593999997E+02  0.45594000000E+02  0.51100000000E-03 0. -1.
         23    2    1    2    0    0  0.00000000000E+00  0.35527136788E-14  0.35527136788E-14  0.91188000000E+02  0.91188000000E+02 0.  0.
    9900012    2    3    3    0    0  0.28548108213E+02 -0.26250538851E+02 -0.19481607138E+02  0.47787328470E+02  0.20000261826E+02 0.  0.
         12    1    3    3    0    0 -0.28548108213E+02  0.26250538851E+02  0.19481607138E+02  0.43400671530E+02  0.00000000000E+00 0. -1.
         11    1    4    4    0    0  0.19780121278E+02 -0.14811840671E+02 -0.14195810095E+02  0.28498506037E+02  0.51100000000E-03 0. -1.
        -11    1    4    4    0    0 -0.15782121286E+01  0.10402688020E+01  0.69010629123E+00  0.20122523841E+01  0.51100000000E-03 0.  1.
        -12    1    4    4    0    0  0.10346199064E+02 -0.12478966981E+02 -0.59759033349E+01  0.17276570049E+02  0.00000000000E+00 0.  1.
</event>
<event>
 8    1  0.6019723E-011  0.9118800E+02  0.7816164E-02  0.1184000E+00
        -11   -1    0    0    0    0  0.00000000000E+00  0.00000000000E+00  0.45593999997E+02  0.45594000000E+02  0.51100000000E-03 0. -1.
         11   -1    0    0    0    0 -0.00000000000E+00 -0.00000000000E+00 -0.45593999997E+02  0.45594000000E+02  0.51100000000E-03 0.  1.
         23    2    1    2    0    0  0.00000000000E+00  0.17763568394E-14  0.00000000000E+00  0.91188000000E+02  0.91188000000E+02 0.  0.
    9900012    2    3    3    0    0 -0.10210973414E+02  0.11074006810E+02  0.40702866298E+02  0.47787298050E+02  0.20000123130E+02 0.  0.
        -12    1    3    3    0    0  0.10210973414E+02 -0.11074006810E+02 -0.40702866298E+02  0.43400701950E+02  0.00000000000E+00 0.  1.
         11    1    4    4    0    0 -0.40612009272E+01  0.17194923652E+01  0.78209999329E+01  0.89787553245E+01  0.51100000000E-03 0. -1.
        -11    1    4    4    0    0 -0.91009500947E+01  0.19008418622E+01  0.27808161367E+02  0.29321226633E+02  0.51100000000E-03 0.  1.
        -12    1    4    4    0    0  0.29511776078E+01  0.74536725821E+01  0.50737049979E+01  0.94873160925E+01  0.00000000000E+00 0.  1.
</event>
<event>
 8    1  0.7494557E-011  0.9118800E+02  0.7816164E-02  0.1184000E+00
        -11   -1    0    0    0    0  0.00000000000E+00  0.00000000000E+00  0.45593999997E+02  0.45594000000E+02  0.51100000000E-03 0. -1.
         11   -1    0    0    0    0 -0.00000000000E+00 -0.00000000000E+00 -0.45593999997E+02  0.45594000000E+02  0.51100000000E-03 0.  1.
         23    2    1    2    0    0  0.13322676296E-14 -0.71054273576E-14 -0.35527136788E-14  0.91188000000E+02  0.91188000000E+02 0.  0.
    9900012    2    3    3    0    0 -0.25574647666E+01 -0.32783449222E+02 -0.28325397908E+02  0.47787270333E+02  0.19999996757E+02 0.  0.
         12    1    3    3    0    0  0.25574647666E+01  0.32783449222E+02  0.28325397908E+02  0.43400729667E+02  0.00000000000E+00 0. -1.
         11    1    4    4    0    0 -0.77433131414E+01 -0.49703064066E+01 -0.38478505970E+01  0.99734045671E+01  0.51100000000E-03 0. -1.
        -11    1    4    4    0    0  0.42299011055E+01 -0.13606830894E+02 -0.93692024623E+01  0.17053441453E+02  0.51100000000E-03 0.  1.
         12    1    4    4    0    0  0.95594726925E+00 -0.14206311922E+02 -0.15108344849E+02  0.20760424313E+02  0.00000000000E+00 0. -1.
</event>
<event>
 8    1  0.6019723E-011  0.9118800E+02  0.7816164E-02  0.1184000E+00
        -11   -1    0    0    0    0  0.00000000000E+00  0.00000000000E+00  0.45593999997E+02  0.45594000000E+02  0.51100000000E-03 0. -1.
         11   -1    0    0    0    0 -0.00000000000E+00 -0.00000000000E+00 -0.45593999997E+02  0.45594000000E+02  0.51100000000E-03 0.  1.
         23    2    1    2    0    0  0.71054273576E-14 -0.88817841970E-15  0.00000000000E+00  0.91188000000E+02  0.91188000000E+02 0.  0.
    9900012    2    3    3    0    0  0.39036709083E+02 -0.77757732444E+01  0.17300174019E+02  0.47787270436E+02  0.19999997227E+02 0.  0.
        -12    1    3    3    0    0 -0.39036709083E+02  0.77757732444E+01 -0.17300174019E+02  0.43400729564E+02  0.00000000000E+00 0.  1.
         11    1    4    4    0    0  0.21798417474E+02 -0.12654209235E+02  0.74789881524E+01  0.26291353707E+02  0.51100000000E-03 0.  1.
        -11    1    4    4    0    0  0.69511865982E+01 -0.13563774237E+01  0.33076432791E+01  0.78166015097E+01  0.51100000000E-03 0. -1.
         12    1    4    4    0    0  0.10287105011E+02  0.62348134143E+01  0.65135425877E+01  0.13679315219E+02  0.00000000000E+00 0. -1.
</event>
<event>
 8    1  0.6019723E-011  0.9118800E+02  0.7816164E-02  0.1184000E+00
        -11   -1    0    0    0    0  0.00000000000E+00  0.00000000000E+00  0.45593999997E+02  0.45594000000E+02  0.51100000000E-03 0. -1.
         11   -1    0    0    0    0 -0.00000000000E+00 -0.00000000000E+00 -0.45593999997E+02  0.45594000000E+02  0.51100000000E-03 0.  1.
         23    2    1    2    0    0  0.00000000000E+00  0.44408920985E-15  0.00000000000E+00  0.91188000000E+02  0.91188000000E+02 0.  0.
    9900012    2    3    3    0    0  0.18244080874E+02 -0.16811246636E+01 -0.39344001170E+02  0.47787273104E+02  0.20000009389E+02 0.  0.
         12    1    3    3    0    0 -0.18244080874E+02  0.16811246636E+01  0.39344001170E+02  0.43400726896E+02  0.00000000000E+00 0. -1.
         11    1    4    4    0    0  0.13545889095E+01 -0.85639807298E+00  0.12905069555E+01  0.20576047328E+01  0.51100000000E-03 0. -1.
        -11    1    4    4    0    0  0.87847435807E+01  0.49709783243E+01 -0.27133285165E+02  0.28949913806E+02  0.51100000000E-03 0.  1.
        -12    1    4    4    0    0  0.81047483837E+01 -0.57957049149E+01 -0.13501222961E+02  0.16779754565E+02  0.00000000000E+00 0.  1.
</event>
<event>
 8    1  0.6019723E-011  0.9118800E+02  0.7816164E-02  0.1184000E+00
        -11   -1    0    0    0    0  0.00000000000E+00  0.00000000000E+00  0.45593999997E+02  0.45594000000E+02  0.51100000000E-03 0. -1.
         11   -1    0    0    0    0 -0.00000000000E+00 -0.00000000000E+00 -0.45593999997E+02  0.45594000000E+02  0.51100000000E-03 0.  1.
         23    2    1    2    0    0  0.00000000000E+00  0.35527136788E-14  0.00000000000E+00  0.91188000000E+02  0.91188000000E+02 0.  0.
    9900012    2    3    3    0    0  0.24054138067E+02 -0.20966623656E+02 -0.29418079310E+02  0.47787259731E+02  0.19999948417E+02 0.  0.
         12    1    3    3    0    0 -0.24054138067E+02  0.20966623656E+02  0.29418079310E+02  0.43400740269E+02  0.00000000000E+00 0. -1.
         11    1    4    4    0    0  0.10598240850E+02 -0.15763015712E+01 -0.38265821998E+01  0.11377616945E+02  0.51100000000E-03 0. -1.
        -11    1    4    4    0    0  0.56129640105E+01 -0.16227954112E+02 -0.14583552314E+02  0.22528467724E+02  0.51100000000E-03 0.  1.
        -12    1    4    4    0    0  0.78429332064E+01 -0.31623679727E+01 -0.11007944796E+02  0.13881175062E+02  0.00000000000E+00 0.  1.
</event>
<event>
 8    1  0.6019723E-011  0.9118800E+02  0.7816164E-02  0.1184000E+00
        -11   -1    0    0    0    0  0.00000000000E+00  0.00000000000E+00  0.45593999997E+02  0.45594000000E+02  0.51100000000E-03 0. -1.
         11   -1    0    0    0    0 -0.00000000000E+00 -0.00000000000E+00 -0.45593999997E+02  0.45594000000E+02  0.51100000000E-03 0.  1.
         23    2    1    2    0    0  0.35527136788E-14 -0.35527136788E-14 -0.35527136788E-14  0.91188000000E+02  0.91188000000E+02 0.  0.
    9900012    2    3    3    0    0  0.24869637756E+02 -0.28996187499E+02 -0.20599641752E+02  0.47787274063E+02  0.20000013761E+02 0.  0.
         12    1    3    3    0    0 -0.24869637756E+02  0.28996187499E+02  0.20599641752E+02  0.43400725937E+02  0.00000000000E+00 0. -1.
         11    1    4    4    0    0  0.54927012966E+01 -0.15475983978E+01 -0.31556688183E+01  0.65209718820E+01  0.51100000000E-03 0. -1.
        -11    1    4    4    0    0  0.94226958939E+01 -0.62257768347E+01  0.11414264374E+01  0.11351226792E+02  0.51100000000E-03 0.  1.
        -12    1    4    4    0    0  0.99542405659E+01 -0.21222812266E+02 -0.18585399371E+02  0.29915075389E+02  0.00000000000E+00 0.  1.
</event>
<event>
 8    1  0.6019723E-011  0.9118800E+02  0.7816164E-02  0.1184000E+00
        -11   -1    0    0    0    0  0.00000000000E+00  0.00000000000E+00  0.45593999997E+02  0.45594000000E+02  0.51100000000E-03 0.  1.
         11   -1    0    0    0    0 -0.00000000000E+00 -0.00000000000E+00 -0.45593999997E+02  0.45594000000E+02  0.51100000000E-03 0. -1.
         23    2    1    2    0    0 -0.88817841970E-15  0.71054273576E-14  0.00000000000E+00  0.91188000000E+02  0.91188000000E+02 0.  0.
    9900012    2    3    3    0    0 -0.78493920845E+01  0.42079122753E+02 -0.71664408980E+01  0.47787269558E+02  0.19999993223E+02 0.  0.
         12    1    3    3    0    0  0.78493920845E+01 -0.42079122753E+02  0.71664408980E+01  0.43400730442E+02  0.00000000000E+00 0. -1.
         11    1    4    4    0    0 -0.12508604937E+01  0.96639087735E+01 -0.83242399882E+01  0.12815957100E+02  0.51100000000E-03 0. -1.
        -11    1    4    4    0    0 -0.72480646474E+01  0.32391281599E+02  0.26958029559E+01  0.33301605345E+02  0.51100000000E-03 0.  1.
        -12    1    4    4    0    0  0.64953305666E+00  0.23932380684E-01 -0.15380038657E+01  0.16697071125E+01  0.00000000000E+00 0.  1.
</event>
<event>
 8    1  0.6019723E-011  0.9118800E+02  0.7816164E-02  0.1184000E+00
        -11   -1    0    0    0    0  0.00000000000E+00  0.00000000000E+00  0.45593999997E+02  0.45594000000E+02  0.51100000000E-03 0. -1.
         11   -1    0    0    0    0 -0.00000000000E+00 -0.00000000000E+00 -0.45593999997E+02  0.45594000000E+02  0.51100000000E-03 0.  1.
         23    2    1    2    0    0  0.00000000000E+00  0.00000000000E+00 -0.17763568394E-14  0.91188000000E+02  0.91188000000E+02 0.  0.
    9900012    2    3    3    0    0  0.10008473881E+02 -0.41708926642E+02  0.66196104885E+01  0.47787270121E+02  0.19999995789E+02 0.  0.
        -12    1    3    3    0    0 -0.10008473881E+02  0.41708926642E+02 -0.66196104885E+01  0.43400729879E+02  0.00000000000E+00 0.  1.
         11    1    4    4    0    0 -0.14901020385E+00 -0.16009356581E+02 -0.42385277199E+01  0.16561606796E+02  0.51100000000E-03 0. -1.
        -11    1    4    4    0    0  0.49947853383E+01 -0.84485563283E+01 -0.68184041143E+00  0.98382361842E+01  0.51100000000E-03 0.  1.
         12    1    4    4    0    0  0.51626987468E+01 -0.17251013733E+02  0.11539978620E+02  0.21387427141E+02  0.00000000000E+00 0. -1.
</event>
<event>
 8    1  0.6019723E-011  0.9118800E+02  0.7816164E-02  0.1184000E+00
        -11   -1    0    0    0    0  0.00000000000E+00  0.00000000000E+00  0.45593999997E+02  0.45594000000E+02  0.51100000000E-03 0. -1.
         11   -1    0    0    0    0 -0.00000000000E+00 -0.00000000000E+00 -0.45593999997E+02  0.45594000000E+02  0.51100000000E-03 0.  1.
         23    2    1    2    0    0  0.22204460493E-15  0.00000000000E+00 -0.17763568394E-14  0.91188000000E+02  0.91188000000E+02 0.  0.
    9900012    2    3    3    0    0 -0.10761730617E+01  0.41202054301E+02 -0.13596171024E+02  0.47787270817E+02  0.19999998964E+02 0.  0.
         12    1    3    3    0    0  0.10761730617E+01 -0.41202054301E+02  0.13596171024E+02  0.43400729183E+02  0.00000000000E+00 0. -1.
         11    1    4    4    0    0  0.28533404307E+01  0.46640983060E+01 -0.46528032314E+01  0.71794110338E+01  0.51100000000E-03 0. -1.
        -11    1    4    4    0    0  0.20980596095E+01 -0.10504782168E+00 -0.18538885940E+01  0.28017480883E+01  0.51100000000E-03 0.  1.
         12    1    4    4    0    0 -0.60275731019E+01  0.36643003817E+02 -0.70894791983E+01  0.37806111695E+02  0.00000000000E+00 0. -1.
</event>
<event>
 8    1  0.6019723E-011  0.9118800E+02  0.7816164E-02  0.1184000E+00
        -11   -1    0    0    0    0  0.00000000000E+00  0.00000000000E+00  0.45593999997E+02  0.45594000000E+02  0.51100000000E-03 0. -1.
         11   -1    0    0    0    0 -0.00000000000E+00 -0.00000000000E+00 -0.45593999997E+02  0.45594000000E+02  0.51100000000E-03 0.  1.
         23    2    1    2    0    0  0.00000000000E+00  0.00000000000E+00  0.00000000000E+00  0.91188000000E+02  0.91188000000E+02 0.  0.
    9900012    2    3    3    0    0  0.39862736759E+02 -0.84507733403E+01  0.14938881143E+02  0.47787268189E+02  0.19999986980E+02 0.  0.
        -12    1    3    3    0    0 -0.39862736759E+02  0.84507733403E+01 -0.14938881143E+02  0.43400731811E+02  0.00000000000E+00 0.  1.
         11    1    4    4    0    0  0.28797089339E+02 -0.78008025738E+01  0.17173095225E+02  0.34424411034E+02  0.51100000000E-03 0. -1.
        -11    1    4    4    0    0  0.11605799526E+01  0.53376103069E+00  0.21226288716E+01  0.24773776966E+01  0.51100000000E-03 0.  1.
         12    1    4    4    0    0  0.99050674675E+01 -0.11837317972E+01 -0.43568429541E+01  0.10885479458E+02  0.00000000000E+00 0. -1.
</event>
<event>
 8    1  0.6019723E-011  0.9118800E+02  0.7816164E-02  0.1184000E+00
        -11   -1    0    0    0    0  0.00000000000E+00  0.00000000000E+00  0.45593999997E+02  0.45594000000E+02  0.51100000000E-03 0. -1.
         11   -1    0    0    0    0 -0.00000000000E+00 -0.00000000000E+00 -0.45593999997E+02  0.45594000000E+02  0.51100000000E-03 0.  1.
         23    2    1    2    0    0  0.17763568394E-14  0.35527136788E-14  0.00000000000E+00  0.91188000000E+02  0.91188000000E+02 0.  0.
    9900012    2    3    3    0    0  0.11417689497E+02  0.21454959142E+02 -0.35957539040E+02  0.47787268220E+02  0.19999987122E+02 0.  0.
         12    1    3    3    0    0 -0.11417689497E+02 -0.21454959142E+02  0.35957539040E+02  0.43400731780E+02  0.00000000000E+00 0. -1.
         11    1    4    4    0    0  0.95015279442E+01  0.80779746458E+01 -0.11780836576E+02  0.17155780902E+02  0.51100000000E-03 0. -1.
        -11    1    4    4    0    0 -0.24943309773E+01  0.11472768381E+02 -0.22781557684E+02  0.25628996706E+02  0.51100000000E-03 0.  1.
        -12    1    4    4    0    0  0.44104925305E+01  0.19042161145E+01 -0.13951447795E+01  0.50024906125E+01  0.00000000000E+00 0.  1.
</event>
<event>
 8    1  0.6019723E-011  0.9118800E+02  0.7816164E-02  0.1184000E+00
        -11   -1    0    0    0    0  0.00000000000E+00  0.00000000000E+00  0.45593999997E+02  0.45594000000E+02  0.51100000000E-03 0. -1.
         11   -1    0    0    0    0 -0.00000000000E+00 -0.00000000000E+00 -0.45593999997E+02  0.45594000000E+02  0.51100000000E-03 0.  1.
         23    2    1    2    0    0  0.00000000000E+00  0.00000000000E+00  0.00000000000E+00  0.91188000000E+02  0.91188000000E+02 0.  0.
    9900012    2    3    3    0    0 -0.18500293261E+02 -0.16810550809E+02  0.35479118319E+02  0.47787270676E+02  0.19999998318E+02 0.  0.
        -12    1    3    3    0    0  0.18500293261E+02  0.16810550809E+02 -0.35479118319E+02  0.43400729324E+02  0.00000000000E+00 0.  1.
         11    1    4    4    0    0 -0.62955951744E+01 -0.11157853532E+02  0.63857544000E+01  0.14314680351E+02  0.51100000000E-03 0. -1.
        -11    1    4    4    0    0 -0.13757655100E+02 -0.43701568312E+01  0.26629245444E+02  0.30290065331E+02  0.51100000000E-03 0.  1.
        -12    1    4    4    0    0  0.15529570130E+01 -0.12825404459E+01  0.24641184749E+01  0.31825249941E+01  0.00000000000E+00 0.  1.
</event>
<event>
 8    1  0.6019723E-011  0.9118800E+02  0.7816164E-02  0.1184000E+00
        -11   -1    0    0    0    0  0.00000000000E+00  0.00000000000E+00  0.45593999997E+02  0.45594000000E+02  0.51100000000E-03 0. -1.
         11   -1    0    0    0    0 -0.00000000000E+00 -0.00000000000E+00 -0.45593999997E+02  0.45594000000E+02  0.51100000000E-03 0.  1.
         23    2    1    2    0    0  0.00000000000E+00  0.00000000000E+00  0.00000000000E+00  0.91188000000E+02  0.91188000000E+02 0.  0.
    9900012    2    3    3    0    0 -0.62325695668E+01  0.11626471657E+02  0.41347350806E+02  0.47787272065E+02  0.20000004655E+02 0.  0.
        -12    1    3    3    0    0  0.62325695668E+01 -0.11626471657E+02 -0.41347350806E+02  0.43400727935E+02  0.00000000000E+00 0.  1.
         11    1    4    4    0    0  0.23307290224E+01  0.90499592764E+00  0.23851197337E+02  0.23981887542E+02  0.51100000000E-03 0. -1.
        -11    1    4    4    0    0 -0.70335445948E+01  0.12152485656E+02  0.14989953976E+02  0.20539045198E+02  0.51100000000E-03 0.  1.
        -12    1    4    4    0    0 -0.15297539945E+01 -0.14310099264E+01  0.25061994933E+01  0.32663393261E+01  0.00000000000E+00 0.  1.
</event>
<event>
 8    1  0.6019723E-011  0.9118800E+02  0.7816164E-02  0.1184000E+00
        -11   -1    0    0    0    0  0.00000000000E+00  0.00000000000E+00  0.45593999997E+02  0.45594000000E+02  0.51100000000E-03 0. -1.
         11   -1    0    0    0    0 -0.00000000000E+00 -0.00000000000E+00 -0.45593999997E+02  0.45594000000E+02  0.51100000000E-03 0.  1.
         23    2    1    2    0    0  0.00000000000E+00  0.00000000000E+00  0.35527136788E-14  0.91188000000E+02  0.91188000000E+02 0.  0.
    9900012    2    3    3    0    0  0.29327481240E+02 -0.21953707959E+02  0.23271364327E+02  0.47787275966E+02  0.20000022441E+02 0.  0.
        -12    1    3    3    0    0 -0.29327481240E+02  0.21953707959E+02 -0.23271364327E+02  0.43400724034E+02  0.00000000000E+00 0.  1.
         11    1    4    4    0    0  0.65227091542E+01 -0.45496534406E+01 -0.33516559848E+01  0.86301030840E+01  0.51100000000E-03 0.  1.
        -11    1    4    4    0    0  0.16988514883E+02 -0.13123407234E+02  0.19195217215E+02  0.28797392583E+02  0.51100000000E-03 0. -1.
        -12    1    4    4    0    0  0.58162572023E+01 -0.42806472844E+01  0.74278030965E+01  0.10359780300E+02  0.00000000000E+00 0.  1.
</event>
<event>
 8    1  0.6019723E-011  0.9118800E+02  0.7816164E-02  0.1184000E+00
        -11   -1    0    0    0    0  0.00000000000E+00  0.00000000000E+00  0.45593999997E+02  0.45594000000E+02  0.51100000000E-03 0. -1.
         11   -1    0    0    0    0 -0.00000000000E+00 -0.00000000000E+00 -0.45593999997E+02  0.45594000000E+02  0.51100000000E-03 0.  1.
         23    2    1    2    0    0 -0.35527136788E-14  0.00000000000E+00 -0.35527136788E-14  0.91188000000E+02  0.91188000000E+02 0.  0.
    9900012    2    3    3    0    0  0.20522444012E+02 -0.23147702060E+02 -0.30440702173E+02  0.47787272268E+02  0.20000005580E+02 0.  0.
         12    1    3    3    0    0 -0.20522444012E+02  0.23147702060E+02  0.30440702173E+02  0.43400727732E+02  0.00000000000E+00 0. -1.
         11    1    4    4    0    0  0.49704283999E+01 -0.15410565118E+02 -0.52581431286E+01  0.17024651102E+02  0.51100000000E-03 0. -1.
        -11    1    4    4    0    0  0.77516544221E+01 -0.44391026855E+01 -0.10254398237E+02  0.13599502285E+02  0.51100000000E-03 0.  1.
         12    1    4    4    0    0  0.78003611900E+01 -0.32980342568E+01 -0.14928160807E+02  0.17163118881E+02  0.00000000000E+00 0. -1.
</event>
<event>
 8    1  0.6019723E-011  0.9118800E+02  0.7816164E-02  0.1184000E+00
        -11   -1    0    0    0    0  0.00000000000E+00  0.00000000000E+00  0.45593999997E+02  0.45594000000E+02  0.51100000000E-03 0. -1.
         11   -1    0    0    0    0 -0.00000000000E+00 -0.00000000000E+00 -0.45593999997E+02  0.45594000000E+02  0.51100000000E-03 0.  1.
         23    2    1    2    0    0 -0.44408920985E-15  0.66613381478E-15  0.71054273576E-14  0.91188000000E+02  0.91188000000E+02 0.  0.
    9900012    2    3    3    0    0  0.15441130659E+01  0.37323952698E+00  0.43371644292E+02  0.47787272799E+02  0.20000008002E+02 0.  0.
        -12    1    3    3    0    0 -0.15441130659E+01 -0.37323952698E+00 -0.43371644292E+02  0.43400727201E+02  0.00000000000E+00 0.  1.
         11    1    4    4    0    0  0.15415998540E+00  0.27771117518E+01  0.78560151483E+01  0.83338520058E+01  0.51100000000E-03 0. -1.
        -11    1    4    4    0    0  0.45262863595E+01 -0.35179286975E+01  0.35664002371E+02  0.36121796134E+02  0.51100000000E-03 0.  1.
        -12    1    4    4    0    0 -0.31363332789E+01  0.11140564728E+01 -0.14837322698E+00  0.33316246601E+01  0.00000000000E+00 0.  1.
</event>
<event>
 8    1  0.6019723E-011  0.9118800E+02  0.7816164E-02  0.1184000E+00
        -11   -1    0    0    0    0  0.00000000000E+00  0.00000000000E+00  0.45593999997E+02  0.45594000000E+02  0.51100000000E-03 0. -1.
         11   -1    0    0    0    0 -0.00000000000E+00 -0.00000000000E+00 -0.45593999997E+02  0.45594000000E+02  0.51100000000E-03 0.  1.
         23    2    1    2    0    0  0.17763568394E-14 -0.71054273576E-14  0.00000000000E+00  0.91188000000E+02  0.91188000000E+02 0.  0.
    9900012    2    3    3    0    0 -0.10939621052E+02  0.37624550188E+02  0.18663905400E+02  0.47787269011E+02  0.19999990728E+02 0.  0.
        -12    1    3    3    0    0  0.10939621052E+02 -0.37624550188E+02 -0.18663905400E+02  0.43400730989E+02  0.00000000000E+00 0.  1.
         11    1    4    4    0    0 -0.27245541566E+01  0.21636144138E+02  0.14712122845E+02  0.26305750082E+02  0.51100000000E-03 0. -1.
        -11    1    4    4    0    0 -0.10537955554E+02  0.96769445746E+01  0.35678703222E+01  0.14745218291E+02  0.51100000000E-03 0.  1.
        -12    1    4    4    0    0  0.23228886587E+01  0.63114614749E+01  0.38391223259E+00  0.67363006370E+01  0.00000000000E+00 0.  1.
</event>
<event>
 8    1  0.6019723E-011  0.9118800E+02  0.7816164E-02  0.1184000E+00
        -11   -1    0    0    0    0  0.00000000000E+00  0.00000000000E+00  0.45593999997E+02  0.45594000000E+02  0.51100000000E-03 0. -1.
         11   -1    0    0    0    0 -0.00000000000E+00 -0.00000000000E+00 -0.45593999997E+02  0.45594000000E+02  0.51100000000E-03 0.  1.
         23    2    1    2    0    0  0.00000000000E+00  0.22204460493E-15  0.00000000000E+00  0.91188000000E+02  0.91188000000E+02 0.  0.
    9900012    2    3    3    0    0  0.12520627286E+02 -0.10507483916E+01  0.41542180270E+02  0.47787275105E+02  0.20000018514E+02 0.  0.
        -12    1    3    3    0    0 -0.12520627286E+02  0.10507483916E+01 -0.41542180270E+02  0.43400724895E+02  0.00000000000E+00 0.  1.
         11    1    4    4    0    0 -0.63643522720E+00  0.31698460102E+01 -0.33525004959E+00  0.32504409522E+01  0.51100000000E-03 0.  1.
        -11    1    4    4    0    0  0.93523975056E+01 -0.51714058084E+01  0.35266847890E+02  0.36850526963E+02  0.51100000000E-03 0. -1.
        -12    1    4    4    0    0  0.38046650074E+01  0.95081140654E+00  0.66105824301E+01  0.76863071897E+01  0.00000000000E+00 0.  1.
</event>
<event>
 8    1  0.6019723E-011  0.9118800E+02  0.7816164E-02  0.1184000E+00
        -11   -1    0    0    0    0  0.00000000000E+00  0.00000000000E+00  0.45593999997E+02  0.45594000000E+02  0.51100000000E-03 0. -1.
         11   -1    0    0    0    0 -0.00000000000E+00 -0.00000000000E+00 -0.45593999997E+02  0.45594000000E+02  0.51100000000E-03 0.  1.
         23    2    1    2    0    0  0.00000000000E+00  0.00000000000E+00  0.00000000000E+00  0.91188000000E+02  0.91188000000E+02 0.  0.
    9900012    2    3    3    0    0 -0.11580311323E+02 -0.30005740525E+02 -0.29140618121E+02  0.47787266144E+02  0.19999977656E+02 0.  0.
         12    1    3    3    0    0  0.11580311323E+02  0.30005740525E+02  0.29140618121E+02  0.43400733856E+02  0.00000000000E+00 0. -1.
         11    1    4    4    0    0 -0.15160334378E+01 -0.30083565811E+01  0.16867468183E+01  0.37674503041E+01  0.51100000000E-03 0. -1.
        -11    1    4    4    0    0 -0.46826631536E+01 -0.25142770688E+02 -0.23422737489E+02  0.34680122315E+02  0.51100000000E-03 0.  1.
        -12    1    4    4    0    0 -0.53816147314E+01 -0.18546132561E+01 -0.74046274510E+01  0.93396935247E+01  0.00000000000E+00 0.  1.
</event>
<event>
 8    1  0.6019723E-011  0.9118800E+02  0.7816164E-02  0.1184000E+00
        -11   -1    0    0    0    0  0.00000000000E+00  0.00000000000E+00  0.45593999997E+02  0.45594000000E+02  0.51100000000E-03 0. -1.
         11   -1    0    0    0    0 -0.00000000000E+00 -0.00000000000E+00 -0.45593999997E+02  0.45594000000E+02  0.51100000000E-03 0.  1.
         23    2    1    2    0    0  0.00000000000E+00  0.00000000000E+00  0.00000000000E+00  0.91188000000E+02  0.91188000000E+02 0.  0.
    9900012    2    3    3    0    0 -0.15908280841E+02 -0.29718883430E+02  0.27337480138E+02  0.47787271297E+02  0.20000001152E+02 0.  0.
        -12    1    3    3    0    0  0.15908280841E+02  0.29718883430E+02 -0.27337480138E+02  0.43400728703E+02  0.00000000000E+00 0.  1.
         11    1    4    4    0    0  0.13766326156E+01 -0.81252493786E+01  0.76485856818E+01  0.11243471795E+02  0.51100000000E-03 0. -1.
        -11    1    4    4    0    0 -0.19301059369E+02 -0.19089669491E+02  0.19294327035E+02  0.33304916004E+02  0.51100000000E-03 0.  1.
        -12    1    4    4    0    0  0.20161459124E+01 -0.25039645604E+01  0.39456742113E+00  0.32388834974E+01  0.00000000000E+00 0.  1.
</event>
<event>
 8    1  0.6663071E-011  0.9118800E+02  0.7816164E-02  0.1184000E+00
        -11   -1    0    0    0    0  0.00000000000E+00  0.00000000000E+00  0.45593999997E+02  0.45594000000E+02  0.51100000000E-03 0. -1.
         11   -1    0    0    0    0 -0.00000000000E+00 -0.00000000000E+00 -0.45593999997E+02  0.45594000000E+02  0.51100000000E-03 0.  1.
         23    2    1    2    0    0  0.00000000000E+00 -0.88817841970E-15 -0.71054273576E-14  0.91188000000E+02  0.91188000000E+02 0.  0.
    9900012    2    3    3    0    0 -0.11144210749E+02  0.62486022570E+01 -0.41477518574E+02  0.47787274079E+02  0.20000013836E+02 0.  0.
         12    1    3    3    0    0  0.11144210749E+02 -0.62486022570E+01  0.41477518574E+02  0.43400725921E+02  0.00000000000E+00 0. -1.
         11    1    4    4    0    0  0.40785346862E+01  0.38964168314E+01 -0.34507363133E+01  0.66124194267E+01  0.51100000000E-03 0. -1.
        -11    1    4    4    0    0 -0.80280433011E+01  0.29834106358E+01 -0.20200220409E+02  0.21940809536E+02  0.51100000000E-03 0.  1.
         12    1    4    4    0    0 -0.71947021338E+01 -0.63122521014E+00 -0.17826561853E+02  0.19234045116E+02  0.00000000000E+00 0. -1.
</event>
<event>
 8    1  0.6019723E-011  0.9118800E+02  0.7816164E-02  0.1184000E+00
        -11   -1    0    0    0    0  0.00000000000E+00  0.00000000000E+00  0.45593999997E+02  0.45594000000E+02  0.51100000000E-03 0. -1.
         11   -1    0    0    0    0 -0.00000000000E+00 -0.00000000000E+00 -0.45593999997E+02  0.45594000000E+02  0.51100000000E-03 0.  1.
         23    2    1    2    0    0  0.00000000000E+00  0.00000000000E+00 -0.71054273576E-14  0.91188000000E+02  0.91188000000E+02 0.  0.
    9900012    2    3    3    0    0  0.20248022941E+02 -0.11189640338E+02  0.36721029354E+02  0.47787257141E+02  0.19999936607E+02 0.  0.
        -12    1    3    3    0    0 -0.20248022941E+02  0.11189640338E+02 -0.36721029354E+02  0.43400742859E+02  0.00000000000E+00 0.  1.
         11    1    4    4    0    0  0.19576631675E+00 -0.47795720038E+01  0.75754018354E+00  0.48431911362E+01  0.51100000000E-03 0. -1.
        -11    1    4    4    0    0  0.13245249306E+02 -0.83829797126E+01  0.29231992440E+02  0.33169569794E+02  0.51100000000E-03 0.  1.
        -12    1    4    4    0    0  0.68070073178E+01  0.19729113789E+01  0.67314967308E+01  0.97744962106E+01  0.00000000000E+00 0.  1.
</event>
<event>
 8    1  0.6019723E-011  0.9118800E+02  0.7816164E-02  0.1184000E+00
        -11   -1    0    0    0    0  0.00000000000E+00  0.00000000000E+00  0.45593999997E+02  0.45594000000E+02  0.51100000000E-03 0.  1.
         11   -1    0    0    0    0 -0.00000000000E+00 -0.00000000000E+00 -0.45593999997E+02  0.45594000000E+02  0.51100000000E-03 0. -1.
         23    2    1    2    0    0 -0.71054273576E-14  0.00000000000E+00  0.00000000000E+00  0.91188000000E+02  0.91188000000E+02 0.  0.
    9900012    2    3    3    0    0  0.40455169155E+02 -0.15242989180E+02  0.38280244900E+01  0.47787271872E+02  0.20000003775E+02 0.  0.
        -12    1    3    3    0    0 -0.40455169155E+02  0.15242989180E+02 -0.38280244900E+01  0.43400728128E+02  0.00000000000E+00 0.  1.
         11    1    4    4    0    0  0.39751525753E+02 -0.13382458728E+02  0.19760169511E+01  0.41990220820E+02  0.51100000000E-03 0. -1.
        -11    1    4    4    0    0  0.64790959877E+00 -0.35857361478E+01  0.18143775906E+01  0.40705352071E+01  0.51100000000E-03 0.  1.
         12    1    4    4    0    0  0.55733803476E-01  0.17252056957E+01  0.37629948235E-01  0.17265158448E+01  0.00000000000E+00 0. -1.
</event>
<event>
 8    1  0.6019723E-011  0.9118800E+02  0.7816164E-02  0.1184000E+00
        -11   -1    0    0    0    0  0.00000000000E+00  0.00000000000E+00  0.45593999997E+02  0.45594000000E+02  0.51100000000E-03 0. -1.
         11   -1    0    0    0    0 -0.00000000000E+00 -0.00000000000E+00 -0.45593999997E+02  0.45594000000E+02  0.51100000000E-03 0.  1.
         23    2    1    2    0    0 -0.44408920985E-15 -0.35527136788E-14  0.00000000000E+00  0.91188000000E+02  0.91188000000E+02 0.  0.
    9900012    2    3    3    0    0  0.26279626866E+01  0.21460345438E+02  0.37632043331E+02  0.47787270750E+02  0.19999998657E+02 0.  0.
        -12    1    3    3    0    0 -0.26279626866E+01 -0.21460345438E+02 -0.37632043331E+02  0.43400729250E+02  0.00000000000E+00 0.  1.
         11    1    4    4    0    0  0.50121882295E+01  0.90337175116E+01  0.41333009413E+01  0.11127185622E+02  0.51100000000E-03 0. -1.
        -11    1    4    4    0    0 -0.32489431844E+01  0.98187671287E+00  0.84960380568E+01  0.91489002956E+01  0.51100000000E-03 0.  1.
         12    1    4    4    0    0  0.86471764151E+00  0.11444751213E+02  0.25002704333E+02  0.27511184833E+02  0.00000000000E+00 0. -1.
</event>
<event>
 8    1  0.6019723E-011  0.9118800E+02  0.7816164E-02  0.1184000E+00
        -11   -1    0    0    0    0  0.00000000000E+00  0.00000000000E+00  0.45593999997E+02  0.45594000000E+02  0.51100000000E-03 0. -1.
         11   -1    0    0    0    0 -0.00000000000E+00 -0.00000000000E+00 -0.45593999997E+02  0.45594000000E+02  0.51100000000E-03 0.  1.
         23    2    1    2    0    0  0.00000000000E+00  0.17763568394E-14 -0.71054273576E-14  0.91188000000E+02  0.91188000000E+02 0.  0.
    9900012    2    3    3    0    0 -0.22277680429E+01  0.13523824654E+02 -0.41179684778E+02  0.47787271641E+02  0.20000002718E+02 0.  0.
         12    1    3    3    0    0  0.22277680429E+01 -0.13523824654E+02  0.41179684778E+02  0.43400728359E+02  0.00000000000E+00 0. -1.
         11    1    4    4    0    0 -0.21360187322E+01  0.68898254387E+00 -0.86940664385E+01  0.89790904032E+01  0.51100000000E-03 0. -1.
        -11    1    4    4    0    0 -0.58455611312E+01  0.75995798327E+01 -0.28495957136E+02  0.30065657683E+02  0.51100000000E-03 0.  1.
        -12    1    4    4    0    0  0.57538118204E+01  0.52352622776E+01 -0.39896612036E+01  0.87425235544E+01  0.00000000000E+00 0.  1.
</event>
<event>
 8    1  0.6019723E-011  0.9118800E+02  0.7816164E-02  0.1184000E+00
        -11   -1    0    0    0    0  0.00000000000E+00  0.00000000000E+00  0.45593999997E+02  0.45594000000E+02  0.51100000000E-03 0. -1.
         11   -1    0    0    0    0 -0.00000000000E+00 -0.00000000000E+00 -0.45593999997E+02  0.45594000000E+02  0.51100000000E-03 0.  1.
         23    2    1    2    0    0  0.11102230246E-15  0.35527136788E-14 -0.71054273576E-14  0.91188000000E+02  0.91188000000E+02 0.  0.
    9900012    2    3    3    0    0  0.70635147465E+00  0.17525688160E+02 -0.39698545495E+02  0.47787271984E+02  0.20000004283E+02 0.  0.
         12    1    3    3    0    0 -0.70635147465E+00 -0.17525688160E+02  0.39698545495E+02  0.43400728016E+02  0.00000000000E+00 0. -1.
         11    1    4    4    0    0  0.15842435958E+01 -0.36069493060E+01 -0.31100569131E+01  0.50191996703E+01  0.51100000000E-03 0. -1.
        -11    1    4    4    0    0 -0.24174141943E-01  0.10904633789E+02 -0.25078034822E+02  0.27346287741E+02  0.51100000000E-03 0.  1.
        -12    1    4    4    0    0 -0.85371797922E+00  0.10228003678E+02 -0.11510453760E+02  0.15421784572E+02  0.00000000000E+00 0.  1.
</event>
<event>
 8    1  0.6019723E-011  0.9118800E+02  0.7816164E-02  0.1184000E+00
        -11   -1    0    0    0    0  0.00000000000E+00  0.00000000000E+00  0.45593999997E+02  0.45594000000E+02  0.51100000000E-03 0. -1.
         11   -1    0    0    0    0 -0.00000000000E+00 -0.00000000000E+00 -0.45593999997E+02  0.45594000000E+02  0.51100000000E-03 0.  1.
         23    2    1    2    0    0  0.00000000000E+00  0.00000000000E+00  0.00000000000E+00  0.91188000000E+02  0.91188000000E+02 0.  0.
    9900012    2    3    3    0    0  0.24472504402E+02 -0.34270357516E+02 -0.10500611274E+02  0.47787265984E+02  0.19999976927E+02 0.  0.
         12    1    3    3    0    0 -0.24472504402E+02  0.34270357516E+02  0.10500611274E+02  0.43400734016E+02  0.00000000000E+00 0. -1.
         11    1    4    4    0    0  0.67873824455E+00 -0.75446476520E+01  0.59781852729E+00  0.75986696895E+01  0.51100000000E-03 0. -1.
        -11    1    4    4    0    0  0.15520573477E+02 -0.92534326828E+01 -0.35773295281E+00  0.18073245159E+02  0.51100000000E-03 0.  1.
        -12    1    4    4    0    0  0.82731926809E+01 -0.17472277181E+02 -0.10740696849E+02  0.22115351135E+02  0.00000000000E+00 0.  1.
</event>
<event>
 8    1  0.6019723E-011  0.9118800E+02  0.7816164E-02  0.1184000E+00
        -11   -1    0    0    0    0  0.00000000000E+00  0.00000000000E+00  0.45593999997E+02  0.45594000000E+02  0.51100000000E-03 0. -1.
         11   -1    0    0    0    0 -0.00000000000E+00 -0.00000000000E+00 -0.45593999997E+02  0.45594000000E+02  0.51100000000E-03 0.  1.
         23    2    1    2    0    0 -0.17763568394E-14  0.17763568394E-14  0.71054273576E-14  0.91188000000E+02  0.91188000000E+02 0.  0.
    9900012    2    3    3    0    0  0.11724011377E+02  0.11406112326E+02  0.40200388743E+02  0.47787273091E+02  0.20000009332E+02 0.  0.
        -12    1    3    3    0    0 -0.11724011377E+02 -0.11406112326E+02 -0.40200388743E+02  0.43400726909E+02  0.00000000000E+00 0.  1.
         11    1    4    4    0    0  0.67474069861E+01  0.11000671929E+02  0.35852545715E+02  0.38104426494E+02  0.51100000000E-03 0. -1.
        -11    1    4    4    0    0  0.19332120487E+01 -0.32249684136E+01  0.10277705291E+01  0.38979536446E+01  0.51100000000E-03 0.  1.
        -12    1    4    4    0    0  0.30433923419E+01  0.36304088105E+01  0.33200724983E+01  0.57848929526E+01  0.00000000000E+00 0.  1.
</event>
<event>
 8    1  0.6019723E-011  0.9118800E+02  0.7816164E-02  0.1184000E+00
        -11   -1    0    0    0    0  0.00000000000E+00  0.00000000000E+00  0.45593999997E+02  0.45594000000E+02  0.51100000000E-03 0. -1.
         11   -1    0    0    0    0 -0.00000000000E+00 -0.00000000000E+00 -0.45593999997E+02  0.45594000000E+02  0.51100000000E-03 0.  1.
         23    2    1    2    0    0  0.00000000000E+00  0.35527136788E-14  0.71054273576E-14  0.91188000000E+02  0.91188000000E+02 0.  0.
    9900012    2    3    3    0    0  0.66125509445E+01  0.27010774668E+02  0.33321396044E+02  0.47787271752E+02  0.20000003227E+02 0.  0.
        -12    1    3    3    0    0 -0.66125509445E+01 -0.27010774668E+02 -0.33321396044E+02  0.43400728248E+02  0.00000000000E+00 0.  1.
         11    1    4    4    0    0  0.55290613665E+01  0.19062762890E+02  0.20154518407E+02  0.28287171316E+02  0.51100000000E-03 0. -1.
        -11    1    4    4    0    0 -0.18474448833E+01  0.32301635140E+01  0.13433696261E+02  0.13939555388E+02  0.51100000000E-03 0.  1.
        -12    1    4    4    0    0  0.29309344613E+01  0.47178482638E+01 -0.26681862400E+00  0.55605450484E+01  0.00000000000E+00 0.  1.
</event>
<event>
 8    1  0.6019723E-011  0.9118800E+02  0.7816164E-02  0.1184000E+00
        -11   -1    0    0    0    0  0.00000000000E+00  0.00000000000E+00  0.45593999997E+02  0.45594000000E+02  0.51100000000E-03 0. -1.
         11   -1    0    0    0    0 -0.00000000000E+00 -0.00000000000E+00 -0.45593999997E+02  0.45594000000E+02  0.51100000000E-03 0.  1.
         23    2    1    2    0    0  0.00000000000E+00  0.00000000000E+00  0.00000000000E+00  0.91188000000E+02  0.91188000000E+02 0.  0.
    9900012    2    3    3    0    0  0.14514065475E+02 -0.33872206439E+02  0.22926815695E+02  0.47787270241E+02  0.19999996337E+02 0.  0.
        -12    1    3    3    0    0 -0.14514065475E+02  0.33872206439E+02 -0.22926815695E+02  0.43400729759E+02  0.00000000000E+00 0.  1.
         11    1    4    4    0    0  0.18692420674E+01 -0.54401886722E+01  0.11970197199E+02  0.13280637783E+02  0.51100000000E-03 0. -1.
        -11    1    4    4    0    0  0.22503910573E+01 -0.27909712019E+00 -0.60356126396E+00  0.23465808261E+01  0.51100000000E-03 0.  1.
         12    1    4    4    0    0  0.10394432351E+02 -0.28152920647E+02  0.11560179761E+02  0.32160051631E+02  0.00000000000E+00 0. -1.
</event>
<event>
 8    1  0.6019723E-011  0.9118800E+02  0.7816164E-02  0.1184000E+00
        -11   -1    0    0    0    0  0.00000000000E+00  0.00000000000E+00  0.45593999997E+02  0.45594000000E+02  0.51100000000E-03 0. -1.
         11   -1    0    0    0    0 -0.00000000000E+00 -0.00000000000E+00 -0.45593999997E+02  0.45594000000E+02  0.51100000000E-03 0.  1.
         23    2    1    2    0    0  0.00000000000E+00  0.00000000000E+00 -0.71054273576E-14  0.91188000000E+02  0.91188000000E+02 0.  0.
    9900012    2    3    3    0    0  0.20065156304E+02 -0.43501976096E+01  0.38237267714E+02  0.47787270064E+02  0.19999995528E+02 0.  0.
        -12    1    3    3    0    0 -0.20065156304E+02  0.43501976096E+01 -0.38237267714E+02  0.43400729936E+02  0.00000000000E+00 0.  1.
         11    1    4    4    0    0  0.40112549211E+01  0.17137606453E+01  0.17253218317E+02  0.17796086203E+02  0.51100000000E-03 0. -1.
        -11    1    4    4    0    0  0.14684043519E+02 -0.30436980380E+00  0.10871130453E+02  0.18272800898E+02  0.51100000000E-03 0.  1.
        -12    1    4    4    0    0  0.13698578635E+01 -0.57595884512E+01  0.10112918944E+02  0.11718382963E+02  0.00000000000E+00 0.  1.
</event>
<event>
 8    1  0.6019723E-011  0.9118800E+02  0.7816164E-02  0.1184000E+00
        -11   -1    0    0    0    0  0.00000000000E+00  0.00000000000E+00  0.45593999997E+02  0.45594000000E+02  0.51100000000E-03 0. -1.
         11   -1    0    0    0    0 -0.00000000000E+00 -0.00000000000E+00 -0.45593999997E+02  0.45594000000E+02  0.51100000000E-03 0.  1.
         23    2    1    2    0    0  0.00000000000E+00  0.00000000000E+00  0.00000000000E+00  0.91188000000E+02  0.91188000000E+02 0.  0.
    9900012    2    3    3    0    0  0.33708453855E+02 -0.15328195481E+02  0.22636471626E+02  0.47787270908E+02  0.19999999379E+02 0.  0.
        -12    1    3    3    0    0 -0.33708453855E+02  0.15328195481E+02 -0.22636471626E+02  0.43400729092E+02  0.00000000000E+00 0.  1.
         11    1    4    4    0    0  0.21318488680E+02 -0.66895211743E+01  0.58335153914E+01  0.23092370065E+02  0.51100000000E-03 0. -1.
        -11    1    4    4    0    0  0.49630437865E+00 -0.58071393066E+01  0.62298842896E+01  0.85311572184E+01  0.51100000000E-03 0.  1.
         12    1    4    4    0    0  0.11893660797E+02 -0.28315350000E+01  0.10573071945E+02  0.16163743625E+02  0.00000000000E+00 0. -1.
</event>
<event>
 8    1  0.8756526E-011  0.9118800E+02  0.7816164E-02  0.1184000E+00
        -11   -1    0    0    0    0  0.00000000000E+00  0.00000000000E+00  0.45593999997E+02  0.45594000000E+02  0.51100000000E-03 0. -1.
         11   -1    0    0    0    0 -0.00000000000E+00 -0.00000000000E+00 -0.45593999997E+02  0.45594000000E+02  0.51100000000E-03 0.  1.
         23    2    1    2    0    0  0.17763568394E-14 -0.17763568394E-14  0.71054273576E-14  0.91188000000E+02  0.91188000000E+02 0.  0.
    9900012    2    3    3    0    0 -0.15553988932E+02  0.95375863881E+01 -0.39379327817E+02  0.47787267458E+02  0.19999983649E+02 0.  0.
         12    1    3    3    0    0  0.15553988932E+02 -0.95375863881E+01  0.39379327817E+02  0.43400732542E+02  0.00000000000E+00 0. -1.
         11    1    4    4    0    0 -0.11428050446E+02  0.27922118202E+01 -0.92591998013E+01  0.14970957386E+02  0.51100000000E-03 0.  1.
        -11    1    4    4    0    0 -0.45453759746E+01  0.86594242511E+01 -0.28895408195E+02  0.30505584507E+02  0.51100000000E-03 0. -1.
         12    1    4    4    0    0  0.41943748807E+00 -0.19140496832E+01 -0.12247198211E+01  0.23107255649E+01  0.00000000000E+00 0. -1.
</event>
<event>
 8    1  0.6019723E-011  0.9118800E+02  0.7816164E-02  0.1184000E+00
        -11   -1    0    0    0    0  0.00000000000E+00  0.00000000000E+00  0.45593999997E+02  0.45594000000E+02  0.51100000000E-03 0. -1.
         11   -1    0    0    0    0 -0.00000000000E+00 -0.00000000000E+00 -0.45593999997E+02  0.45594000000E+02  0.51100000000E-03 0.  1.
         23    2    1    2    0    0  0.44408920985E-15 -0.71054273576E-14 -0.35527136788E-14  0.91188000000E+02  0.91188000000E+02 0.  0.
    9900012    2    3    3    0    0 -0.23583586990E+01 -0.32457691013E+02 -0.28715159942E+02  0.47787263000E+02  0.19999963323E+02 0.  0.
         12    1    3    3    0    0  0.23583586990E+01  0.32457691013E+02  0.28715159942E+02  0.43400737000E+02  0.00000000000E+00 0. -1.
         11    1    4    4    0    0 -0.60940774510E+01 -0.26894857509E+02 -0.23173288345E+02  0.36020444658E+02  0.51100000000E-03 0. -1.
        -11    1    4    4    0    0 -0.17452568875E+01 -0.44389414137E+01 -0.28696153995E+01  0.55664005677E+01  0.51100000000E-03 0.  1.
         12    1    4    4    0    0  0.54809756394E+01 -0.11238920906E+01 -0.26722561968E+01  0.62004177741E+01  0.00000000000E+00 0. -1.
</event>
<event>
 8    1  0.6019723E-011  0.9118800E+02  0.7816164E-02  0.1184000E+00
        -11   -1    0    0    0    0  0.00000000000E+00  0.00000000000E+00  0.45593999997E+02  0.45594000000E+02  0.51100000000E-03 0. -1.
         11   -1    0    0    0    0 -0.00000000000E+00 -0.00000000000E+00 -0.45593999997E+02  0.45594000000E+02  0.51100000000E-03 0.  1.
         23    2    1    2    0    0  0.17763568394E-14  0.26645352591E-14 -0.71054273576E-14  0.91188000000E+02  0.91188000000E+02 0.  0.
    9900012    2    3    3    0    0  0.83850709112E+01 -0.63418702391E+01  0.42108128468E+02  0.47787271718E+02  0.20000003071E+02 0.  0.
        -12    1    3    3    0    0 -0.83850709112E+01  0.63418702391E+01 -0.42108128468E+02  0.43400728282E+02  0.00000000000E+00 0.  1.
         11    1    4    4    0    0  0.92904569956E+00  0.33460344958E+01  0.72845338358E+00  0.35481991703E+01  0.51100000000E-03 0. -1.
        -11    1    4    4    0    0  0.33398429466E+00 -0.20686422880E+01  0.64803835133E+00  0.21933491265E+01  0.51100000000E-03 0.  1.
         12    1    4    4    0    0  0.71220409170E+01 -0.76192624469E+01  0.40731636733E+02  0.42045723421E+02  0.00000000000E+00 0. -1.
</event>
<event>
 8    1  0.6019723E-011  0.9118800E+02  0.7816164E-02  0.1184000E+00
        -11   -1    0    0    0    0  0.00000000000E+00  0.00000000000E+00  0.45593999997E+02  0.45594000000E+02  0.51100000000E-03 0. -1.
         11   -1    0    0    0    0 -0.00000000000E+00 -0.00000000000E+00 -0.45593999997E+02  0.45594000000E+02  0.51100000000E-03 0.  1.
         23    2    1    2    0    0 -0.88817841970E-15  0.00000000000E+00  0.00000000000E+00  0.91188000000E+02  0.91188000000E+02 0.  0.
    9900012    2    3    3    0    0  0.19548568541E+01  0.49974474536E+01 -0.43067702371E+02  0.47787274962E+02  0.20000017860E+02 0.  0.
         12    1    3    3    0    0 -0.19548568541E+01 -0.49974474536E+01  0.43067702371E+02  0.43400725038E+02  0.00000000000E+00 0. -1.
         11    1    4    4    0    0  0.75230688854E+01  0.33320693732E+01 -0.96738694928E+01  0.12699724524E+02  0.51100000000E-03 0. -1.
        -11    1    4    4    0    0 -0.45455900259E+01 -0.32825551323E+01 -0.15045942982E+02  0.16056710664E+02  0.51100000000E-03 0.  1.
         12    1    4    4    0    0 -0.10226220053E+01  0.49479332126E+01 -0.18347889896E+02  0.19030839773E+02  0.00000000000E+00 0. -1.
</event>
<event>
 8    1  0.6019723E-011  0.9118800E+02  0.7816164E-02  0.1184000E+00
        -11   -1    0    0    0    0  0.00000000000E+00  0.00000000000E+00  0.45593999997E+02  0.45594000000E+02  0.51100000000E-03 0. -1.
         11   -1    0    0    0    0 -0.00000000000E+00 -0.00000000000E+00 -0.45593999997E+02  0.45594000000E+02  0.51100000000E-03 0.  1.
         23    2    1    2    0    0  0.35527136788E-14  0.00000000000E+00  0.00000000000E+00  0.91188000000E+02  0.91188000000E+02 0.  0.
    9900012    2    3    3    0    0  0.18255842447E+02 -0.11365600972E+02  0.37698411047E+02  0.47787275762E+02  0.20000021508E+02 0.  0.
        -12    1    3    3    0    0 -0.18255842447E+02  0.11365600972E+02 -0.37698411047E+02  0.43400724238E+02  0.00000000000E+00 0.  1.
         11    1    4    4    0    0  0.11716530013E+02 -0.52880693321E+01  0.34335686016E+02  0.36663061618E+02  0.51100000000E-03 0. -1.
        -11    1    4    4    0    0  0.74720640686E+01 -0.52289930507E+01  0.21398420240E+01  0.93676589348E+01  0.51100000000E-03 0.  1.
         12    1    4    4    0    0 -0.93275163493E+00 -0.84853858959E+00  0.12228830077E+01  0.17565552086E+01  0.00000000000E+00 0. -1.
</event>
<event>
 8    1  0.6019723E-011  0.9118800E+02  0.7816164E-02  0.1184000E+00
        -11   -1    0    0    0    0  0.00000000000E+00  0.00000000000E+00  0.45593999997E+02  0.45594000000E+02  0.51100000000E-03 0.  1.
         11   -1    0    0    0    0 -0.00000000000E+00 -0.00000000000E+00 -0.45593999997E+02  0.45594000000E+02  0.51100000000E-03 0. -1.
         23    2    1    2    0    0  0.00000000000E+00  0.00000000000E+00  0.00000000000E+00  0.91188000000E+02  0.91188000000E+02 0.  0.
    9900012    2    3    3    0    0 -0.35671471734E+02 -0.24360227891E+02  0.42129203713E+01  0.47787270782E+02  0.19999998804E+02 0.  0.
        -12    1    3    3    0    0  0.35671471734E+02  0.24360227891E+02 -0.42129203713E+01  0.43400729218E+02  0.00000000000E+00 0.  1.
         11    1    4    4    0    0 -0.85651566533E+01  0.13512232154E+01 -0.25990792020E+01  0.90522331849E+01  0.51100000000E-03 0. -1.
        -11    1    4    4    0    0 -0.47017591991E+00 -0.12358477199E+01 -0.10837097895E+01  0.17096233946E+01  0.51100000000E-03 0.  1.
         12    1    4    4    0    0 -0.26636139161E+02 -0.24475603386E+02  0.78957093628E+01  0.37025414203E+02  0.00000000000E+00 0. -1.
</event>
<event>
 8    1  0.6019723E-011  0.9118800E+02  0.7816164E-02  0.1184000E+00
        -11   -1    0    0    0    0  0.00000000000E+00  0.00000000000E+00  0.45593999997E+02  0.45594000000E+02  0.51100000000E-03 0. -1.
         11   -1    0    0    0    0 -0.00000000000E+00 -0.00000000000E+00 -0.45593999997E+02  0.45594000000E+02  0.51100000000E-03 0.  1.
         23    2    1    2    0    0 -0.71054273576E-14  0.00000000000E+00  0.00000000000E+00  0.91188000000E+02  0.91188000000E+02 0.  0.
    9900012    2    3    3    0    0 -0.34171117599E+02  0.12058443940E+02 -0.23886229275E+02  0.47787270776E+02  0.19999998775E+02 0.  0.
         12    1    3    3    0    0  0.34171117599E+02 -0.12058443940E+02  0.23886229275E+02  0.43400729224E+02  0.00000000000E+00 0. -1.
         11    1    4    4    0    0 -0.16963765254E+02  0.12298229004E+02 -0.79569649930E+01  0.22412698641E+02  0.51100000000E-03 0. -1.
        -11    1    4    4    0    0 -0.15319498410E+02  0.65743980644E+00 -0.82422507513E+01  0.17408444972E+02  0.51100000000E-03 0.  1.
         12    1    4    4    0    0 -0.18878539347E+01 -0.89722486986E+00 -0.76870135312E+01  0.79661271629E+01  0.00000000000E+00 0. -1.
</event>
<event>
 8    1  0.6019723E-011  0.9118800E+02  0.7816164E-02  0.1184000E+00
        -11   -1    0    0    0    0  0.00000000000E+00  0.00000000000E+00  0.45593999997E+02  0.45594000000E+02  0.51100000000E-03 0. -1.
         11   -1    0    0    0    0 -0.00000000000E+00 -0.00000000000E+00 -0.45593999997E+02  0.45594000000E+02  0.51100000000E-03 0.  1.
         23    2    1    2    0    0  0.35527136788E-14 -0.71054273576E-14 -0.44408920985E-15  0.91188000000E+02  0.91188000000E+02 0.  0.
    9900012    2    3    3    0    0  0.16031011400E+02 -0.40325535686E+02  0.69380831962E+00  0.47787268153E+02  0.19999986817E+02 0.  0.
        -12    1    3    3    0    0 -0.16031011400E+02  0.40325535686E+02 -0.69380831962E+00  0.43400731847E+02  0.00000000000E+00 0.  1.
         11    1    4    4    0    0  0.61567818331E+01 -0.19979194175E+02 -0.57760652851E+01  0.21689561842E+02  0.51100000000E-03 0. -1.
        -11    1    4    4    0    0  0.10849867943E+02 -0.20374402727E+02  0.78726124604E+01  0.24388807844E+02  0.51100000000E-03 0.  1.
        -12    1    4    4    0    0 -0.97563837658E+00  0.28061215982E-01 -0.14027388557E+01  0.17088984671E+01  0.00000000000E+00 0.  1.
</event>
<event>
 8    1  0.6019723E-011  0.9118800E+02  0.7816164E-02  0.1184000E+00
        -11   -1    0    0    0    0  0.00000000000E+00  0.00000000000E+00  0.45593999997E+02  0.45594000000E+02  0.51100000000E-03 0. -1.
         11   -1    0    0    0    0 -0.00000000000E+00 -0.00000000000E+00 -0.45593999997E+02  0.45594000000E+02  0.51100000000E-03 0.  1.
         23    2    1    2    0    0 -0.17763568394E-14  0.35527136788E-14  0.00000000000E+00  0.91188000000E+02  0.91188000000E+02 0.  0.
    9900012    2    3    3    0    0 -0.14932399081E+02  0.29624399169E+02 -0.27982882032E+02  0.47787271259E+02  0.20000000979E+02 0.  0.
         12    1    3    3    0    0  0.14932399081E+02 -0.29624399169E+02  0.27982882032E+02  0.43400728741E+02  0.00000000000E+00 0. -1.
         11    1    4    4    0    0  0.24500771572E+01  0.12846964141E+02 -0.10469241167E+02  0.16752682669E+02  0.51100000000E-03 0. -1.
        -11    1    4    4    0    0 -0.94934276356E+01  0.45329713990E+01 -0.10516933904E+02  0.14875446110E+02  0.51100000000E-03 0.  1.
         12    1    4    4    0    0 -0.78890486026E+01  0.12244463628E+02 -0.69967069609E+01  0.16159142480E+02  0.00000000000E+00 0. -1.
</event>
<event>
 8    1  0.6019723E-011  0.9118800E+02  0.7816164E-02  0.1184000E+00
        -11   -1    0    0    0    0  0.00000000000E+00  0.00000000000E+00  0.45593999997E+02  0.45594000000E+02  0.51100000000E-03 0. -1.
         11   -1    0    0    0    0 -0.00000000000E+00 -0.00000000000E+00 -0.45593999997E+02  0.45594000000E+02  0.51100000000E-03 0.  1.
         23    2    1    2    0    0 -0.81878948066E-15 -0.35527136788E-14  0.00000000000E+00  0.91188000000E+02  0.91188000000E+02 0.  0.
    9900012    2    3    3    0    0  0.11676982485E+00 -0.25323239971E+02 -0.35246887601E+02  0.47787271857E+02  0.20000003704E+02 0.  0.
         12    1    3    3    0    0 -0.11676982485E+00  0.25323239971E+02  0.35246887601E+02  0.43400728143E+02  0.00000000000E+00 0. -1.
         11    1    4    4    0    0 -0.17306142845E+01 -0.15514068296E+01 -0.12949032243E+01  0.26605757975E+01  0.51100000000E-03 0. -1.
        -11    1    4    4    0    0  0.89004424782E+01 -0.10200213804E+02 -0.10518966268E+02  0.17143829489E+02  0.51100000000E-03 0.  1.
        -12    1    4    4    0    0 -0.70530583689E+01 -0.13571619338E+02 -0.23433018109E+02  0.27982866570E+02  0.00000000000E+00 0.  1.
</event>
<event>
 8    1  0.6019723E-011  0.9118800E+02  0.7816164E-02  0.1184000E+00
        -11   -1    0    0    0    0  0.00000000000E+00  0.00000000000E+00  0.45593999997E+02  0.45594000000E+02  0.51100000000E-03 0. -1.
         11   -1    0    0    0    0 -0.00000000000E+00 -0.00000000000E+00 -0.45593999997E+02  0.45594000000E+02  0.51100000000E-03 0.  1.
         23    2    1    2    0    0  0.00000000000E+00  0.00000000000E+00  0.88817841970E-15  0.91188000000E+02  0.91188000000E+02 0.  0.
    9900012    2    3    3    0    0 -0.17616730901E+02  0.39209163551E+02  0.59928554045E+01  0.47787285375E+02  0.20000065341E+02 0.  0.
        -12    1    3    3    0    0  0.17616730901E+02 -0.39209163551E+02 -0.59928554045E+01  0.43400714625E+02  0.00000000000E+00 0.  1.
         11    1    4    4    0    0 -0.14928666954E+02  0.24155010230E+02 -0.22307767363E+01  0.28483433454E+02  0.51100000000E-03 0. -1.
        -11    1    4    4    0    0  0.61237087197E+00  0.97295877542E+00 -0.14898937023E+01  0.18818688500E+01  0.51100000000E-03 0.  1.
         12    1    4    4    0    0 -0.33004348193E+01  0.14081194546E+02  0.97135258431E+01  0.17421983072E+02  0.00000000000E+00 0. -1.
</event>
<event>
 8    1  0.6019723E-011  0.9118800E+02  0.7816164E-02  0.1184000E+00
        -11   -1    0    0    0    0  0.00000000000E+00  0.00000000000E+00  0.45593999997E+02  0.45594000000E+02  0.51100000000E-03 0. -1.
         11   -1    0    0    0    0 -0.00000000000E+00 -0.00000000000E+00 -0.45593999997E+02  0.45594000000E+02  0.51100000000E-03 0.  1.
         23    2    1    2    0    0  0.00000000000E+00  0.11102230246E-15  0.00000000000E+00  0.91188000000E+02  0.91188000000E+02 0.  0.
    9900012    2    3    3    0    0 -0.36655474208E+02  0.73505010464E+00  0.23226269654E+02  0.47787266250E+02  0.19999978138E+02 0.  0.
        -12    1    3    3    0    0  0.36655474208E+02 -0.73505010464E+00 -0.23226269654E+02  0.43400733750E+02  0.00000000000E+00 0.  1.
         11    1    4    4    0    0 -0.52911350584E+01 -0.59740504042E+01  0.36196153521E+01  0.87628194091E+01  0.51100000000E-03 0. -1.
        -11    1    4    4    0    0 -0.13469889437E+01  0.95305705242E-01 -0.12812374442E+01  0.18614596534E+01  0.51100000000E-03 0.  1.
         12    1    4    4    0    0 -0.30017350206E+02  0.66137948036E+01  0.20887891746E+02  0.37162987187E+02  0.00000000000E+00 0. -1.
</event>
<event>
 8    1  0.6019723E-011  0.9118800E+02  0.7816164E-02  0.1184000E+00
        -11   -1    0    0    0    0  0.00000000000E+00  0.00000000000E+00  0.45593999997E+02  0.45594000000E+02  0.51100000000E-03 0. -1.
         11   -1    0    0    0    0 -0.00000000000E+00 -0.00000000000E+00 -0.45593999997E+02  0.45594000000E+02  0.51100000000E-03 0.  1.
         23    2    1    2    0    0  0.00000000000E+00  0.00000000000E+00  0.00000000000E+00  0.91188000000E+02  0.91188000000E+02 0.  0.
    9900012    2    3    3    0    0 -0.30340861486E+02 -0.61112149920E+01 -0.30425460221E+02  0.47787268969E+02  0.19999990536E+02 0.  0.
         12    1    3    3    0    0  0.30340861486E+02  0.61112149920E+01  0.30425460221E+02  0.43400731031E+02  0.00000000000E+00 0. -1.
         11    1    4    4    0    0 -0.10535829784E+01  0.27676515468E+01  0.62496698872E+00  0.30266344634E+01  0.51100000000E-03 0. -1.
        -11    1    4    4    0    0 -0.11823769275E+02 -0.87507374448E+01 -0.15625144850E+02  0.21459778133E+02  0.51100000000E-03 0.  1.
        -12    1    4    4    0    0 -0.17463509233E+02 -0.12812909394E+00 -0.15425282360E+02  0.23300856372E+02  0.00000000000E+00 0.  1.
</event>
<event>
 8    1  0.6019723E-011  0.9118800E+02  0.7816164E-02  0.1184000E+00
        -11   -1    0    0    0    0  0.00000000000E+00  0.00000000000E+00  0.45593999997E+02  0.45594000000E+02  0.51100000000E-03 0. -1.
         11   -1    0    0    0    0 -0.00000000000E+00 -0.00000000000E+00 -0.45593999997E+02  0.45594000000E+02  0.51100000000E-03 0.  1.
         23    2    1    2    0    0 -0.35527136788E-14  0.00000000000E+00  0.00000000000E+00  0.91188000000E+02  0.91188000000E+02 0.  0.
    9900012    2    3    3    0    0  0.22525001942E+02  0.15011450222E+02  0.33924950787E+02  0.47787289912E+02  0.20000086023E+02 0.  0.
        -12    1    3    3    0    0 -0.22525001942E+02 -0.15011450222E+02 -0.33924950787E+02  0.43400710088E+02  0.00000000000E+00 0.  1.
         11    1    4    4    0    0  0.80204075897E+01  0.59139558421E+00  0.16410291564E+02  0.18274965283E+02  0.51100000000E-03 0. -1.
        -11    1    4    4    0    0  0.14279472487E+02  0.16402711261E+02  0.16278023951E+02  0.27164799562E+02  0.51100000000E-03 0.  1.
        -12    1    4    4    0    0  0.22512186605E+00 -0.19826566236E+01  0.12366352727E+01  0.23475250668E+01  0.00000000000E+00 0.  1.
</event>
<event>
 8    1  0.6019723E-011  0.9118800E+02  0.7816164E-02  0.1184000E+00
        -11   -1    0    0    0    0  0.00000000000E+00  0.00000000000E+00  0.45593999997E+02  0.45594000000E+02  0.51100000000E-03 0. -1.
         11   -1    0    0    0    0 -0.00000000000E+00 -0.00000000000E+00 -0.45593999997E+02  0.45594000000E+02  0.51100000000E-03 0.  1.
         23    2    1    2    0    0  0.00000000000E+00  0.88817841970E-15  0.00000000000E+00  0.91188000000E+02  0.91188000000E+02 0.  0.
    9900012    2    3    3    0    0 -0.17823147202E+02  0.73517283014E+01 -0.38883292176E+02  0.47787275402E+02  0.20000019867E+02 0.  0.
         12    1    3    3    0    0  0.17823147202E+02 -0.73517283014E+01  0.38883292176E+02  0.43400724598E+02  0.00000000000E+00 0. -1.
         11    1    4    4    0    0 -0.13301556553E+02 -0.10830192631E+01 -0.24174637896E+02  0.27613718604E+02  0.51100000000E-03 0. -1.
        -11    1    4    4    0    0  0.28540851744E+01  0.40172565548E+00 -0.35179862520E+01  0.45479020675E+01  0.51100000000E-03 0.  1.
         12    1    4    4    0    0 -0.73756758235E+01  0.80330219090E+01 -0.11190668028E+02  0.15625654730E+02  0.00000000000E+00 0. -1.
</event>
<event>
 8    1  0.6019723E-011  0.9118800E+02  0.7816164E-02  0.1184000E+00
        -11   -1    0    0    0    0  0.00000000000E+00  0.00000000000E+00  0.45593999997E+02  0.45594000000E+02  0.51100000000E-03 0. -1.
         11   -1    0    0    0    0 -0.00000000000E+00 -0.00000000000E+00 -0.45593999997E+02  0.45594000000E+02  0.51100000000E-03 0.  1.
         23    2    1    2    0    0  0.00000000000E+00  0.11102230246E-15 -0.35527136788E-14  0.91188000000E+02  0.91188000000E+02 0.  0.
    9900012    2    3    3    0    0  0.36631497248E+02  0.52353341323E+00  0.23269776876E+02  0.47787271968E+02  0.20000004211E+02 0.  0.
        -12    1    3    3    0    0 -0.36631497248E+02 -0.52353341323E+00 -0.23269776876E+02  0.43400728032E+02  0.00000000000E+00 0.  1.
         11    1    4    4    0    0  0.25633195685E+02  0.27771301978E+01  0.10579998767E+02  0.27869509276E+02  0.51100000000E-03 0. -1.
        -11    1    4    4    0    0  0.11144487611E+02 -0.52696366852E+01  0.10391777645E+02  0.16123204328E+02  0.51100000000E-03 0.  1.
         12    1    4    4    0    0 -0.14618604792E+00  0.30160399006E+01  0.22980004642E+01  0.37945583638E+01  0.00000000000E+00 0. -1.
</event>
<event>
 8    1  0.6019723E-011  0.9118800E+02  0.7816164E-02  0.1184000E+00
        -11   -1    0    0    0    0  0.00000000000E+00  0.00000000000E+00  0.45593999997E+02  0.45594000000E+02  0.51100000000E-03 0.  1.
         11   -1    0    0    0    0 -0.00000000000E+00 -0.00000000000E+00 -0.45593999997E+02  0.45594000000E+02  0.51100000000E-03 0. -1.
         23    2    1    2    0    0  0.35527136788E-14  0.00000000000E+00 -0.88817841970E-15  0.91188000000E+02  0.91188000000E+02 0.  0.
    9900012    2    3    3    0    0  0.27238573265E+02  0.33535788725E+02  0.41271262344E+01  0.47787283764E+02  0.20000057992E+02 0.  0.
        -12    1    3    3    0    0 -0.27238573265E+02 -0.33535788725E+02 -0.41271262344E+01  0.43400716236E+02  0.00000000000E+00 0.  1.
         11    1    4    4    0    0  0.62251226330E+00  0.10459747817E+02  0.30774040646E+01  0.10920817824E+02  0.51100000000E-03 0.  1.
        -11    1    4    4    0    0  0.19994092767E+02  0.19636846823E+02 -0.33182530245E+01  0.28220210880E+02  0.51100000000E-03 0. -1.
         12    1    4    4    0    0  0.66219682344E+01  0.34391940841E+01  0.43679751943E+01  0.86462550589E+01  0.00000000000E+00 0. -1.
</event>
<event>
 8    1  0.6019723E-011  0.9118800E+02  0.7816164E-02  0.1184000E+00
        -11   -1    0    0    0    0  0.00000000000E+00  0.00000000000E+00  0.45593999997E+02  0.45594000000E+02  0.51100000000E-03 0. -1.
         11   -1    0    0    0    0 -0.00000000000E+00 -0.00000000000E+00 -0.45593999997E+02  0.45594000000E+02  0.51100000000E-03 0.  1.
         23    2    1    2    0    0  0.00000000000E+00  0.00000000000E+00  0.00000000000E+00  0.91188000000E+02  0.91188000000E+02 0.  0.
    9900012    2    3    3    0    0  0.23617161682E+02  0.49382491006E+01 -0.36075846463E+02  0.47787270419E+02  0.19999997148E+02 0.  0.
         12    1    3    3    0    0 -0.23617161682E+02 -0.49382491006E+01  0.36075846463E+02  0.43400729581E+02  0.00000000000E+00 0. -1.
         11    1    4    4    0    0  0.18170755435E+01 -0.15424269216E+01 -0.58934059057E+00  0.24552325617E+01  0.51100000000E-03 0. -1.
        -11    1    4    4    0    0  0.48774787180E+01  0.31539592595E+01  0.75263471297E-01  0.58088658537E+01  0.51100000000E-03 0.  1.
        -12    1    4    4    0    0  0.16922607421E+02  0.33267167626E+01 -0.35561769344E+02  0.39523172004E+02  0.00000000000E+00 0.  1.
</event>
<event>
 8    1  0.8641912E-011  0.9118800E+02  0.7816164E-02  0.1184000E+00
        -11   -1    0    0    0    0  0.00000000000E+00  0.00000000000E+00  0.45593999997E+02  0.45594000000E+02  0.51100000000E-03 0. -1.
         11   -1    0    0    0    0 -0.00000000000E+00 -0.00000000000E+00 -0.45593999997E+02  0.45594000000E+02  0.51100000000E-03 0.  1.
         23    2    1    2    0    0 -0.17763568394E-14  0.53290705182E-14  0.00000000000E+00  0.91188000000E+02  0.91188000000E+02 0.  0.
    9900012    2    3    3    0    0 -0.11431318949E+02  0.15102122733E+02 -0.39049634843E+02  0.47787272525E+02  0.20000006751E+02 0.  0.
         12    1    3    3    0    0  0.11431318949E+02 -0.15102122733E+02  0.39049634843E+02  0.43400727475E+02  0.00000000000E+00 0. -1.
         11    1    4    4    0    0  0.20717179848E+01 -0.32174504966E+01 -0.28482413004E+01  0.47703754436E+01  0.51100000000E-03 0. -1.
        -11    1    4    4    0    0 -0.73444212903E+01  0.90704355249E+01 -0.22753043644E+02  0.25571748474E+02  0.51100000000E-03 0.  1.
         12    1    4    4    0    0 -0.61586156439E+01  0.92491377043E+01 -0.13448349899E+02  0.17445148607E+02  0.00000000000E+00 0. -1.
</event>
<event>
 8    1  0.6019723E-011  0.9118800E+02  0.7816164E-02  0.1184000E+00
        -11   -1    0    0    0    0  0.00000000000E+00  0.00000000000E+00  0.45593999997E+02  0.45594000000E+02  0.51100000000E-03 0.  1.
         11   -1    0    0    0    0 -0.00000000000E+00 -0.00000000000E+00 -0.45593999997E+02  0.45594000000E+02  0.51100000000E-03 0. -1.
         23    2    1    2    0    0  0.00000000000E+00  0.17763568394E-14  0.00000000000E+00  0.91188000000E+02  0.91188000000E+02 0.  0.
    9900012    2    3    3    0    0  0.38481074870E+02 -0.14584516920E+02  0.13788473179E+02  0.47787271325E+02  0.20000001278E+02 0.  0.
        -12    1    3    3    0    0 -0.38481074870E+02  0.14584516920E+02 -0.13788473179E+02  0.43400728675E+02  0.00000000000E+00 0.  1.
         11    1    4    4    0    0  0.13233831296E+02 -0.71898448250E+01  0.14082891753E+02  0.20619311331E+02  0.51100000000E-03 0. -1.
        -11    1    4    4    0    0  0.19075143323E+02 -0.80948745274E+01 -0.17259923581E+01  0.20793439742E+02  0.51100000000E-03 0.  1.
         12    1    4    4    0    0  0.61721002497E+01  0.70020243194E+00  0.14315737850E+01  0.63745202518E+01  0.00000000000E+00 0. -1.
</event>
<event>
 8    1  0.6019723E-011  0.9118800E+02  0.7816164E-02  0.1184000E+00
        -11   -1    0    0    0    0  0.00000000000E+00  0.00000000000E+00  0.45593999997E+02  0.45594000000E+02  0.51100000000E-03 0.  1.
         11   -1    0    0    0    0 -0.00000000000E+00 -0.00000000000E+00 -0.45593999997E+02  0.45594000000E+02  0.51100000000E-03 0. -1.
         23    2    1    2    0    0  0.35527136788E-14  0.71054273576E-14  0.00000000000E+00  0.91188000000E+02  0.91188000000E+02 0.  0.
    9900012    2    3    3    0    0  0.10200493569E+02  0.39946580222E+02  0.13558908446E+02  0.47787270297E+02  0.19999996592E+02 0.  0.
        -12    1    3    3    0    0 -0.10200493569E+02 -0.39946580222E+02 -0.13558908446E+02  0.43400729703E+02  0.00000000000E+00 0.  1.
         11    1    4    4    0    0  0.10029859568E+02  0.97521479143E+01  0.85256534381E+00  0.14015325177E+02  0.51100000000E-03 0. -1.
        -11    1    4    4    0    0 -0.84313317380E+00  0.30037229061E+02  0.11466008500E+02  0.32162328187E+02  0.51100000000E-03 0.  1.
        -12    1    4    4    0    0  0.10137671753E+01  0.15720324703E+00  0.12403346018E+01  0.16096169331E+01  0.00000000000E+00 0.  1.
</event>
<event>
 8    1  0.6244413E-011  0.9118800E+02  0.7816164E-02  0.1184000E+00
        -11   -1    0    0    0    0  0.00000000000E+00  0.00000000000E+00  0.45593999997E+02  0.45594000000E+02  0.51100000000E-03 0.  1.
         11   -1    0    0    0    0 -0.00000000000E+00 -0.00000000000E+00 -0.45593999997E+02  0.45594000000E+02  0.51100000000E-03 0. -1.
         23    2    1    2    0    0  0.00000000000E+00 -0.35527136788E-14  0.00000000000E+00  0.91188000000E+02  0.91188000000E+02 0.  0.
    9900012    2    3    3    0    0 -0.17582077979E+02 -0.30599117958E+02 -0.25262327695E+02  0.47787300853E+02  0.20000135909E+02 0.  0.
         12    1    3    3    0    0  0.17582077979E+02  0.30599117958E+02  0.25262327695E+02  0.43400699147E+02  0.00000000000E+00 0. -1.
         11    1    4    4    0    0  0.31002168537E+01 -0.21591182397E+01  0.47972853891E-01  0.37782850301E+01  0.51100000000E-03 0. -1.
        -11    1    4    4    0    0 -0.10776157501E+02 -0.18057260309E+02 -0.10954005735E+02  0.23710345048E+02  0.51100000000E-03 0.  1.
         12    1    4    4    0    0 -0.99061373317E+01 -0.10382739410E+02 -0.14356294813E+02  0.20298670775E+02  0.00000000000E+00 0. -1.
</event>
<event>
 8    1  0.6019723E-011  0.9118800E+02  0.7816164E-02  0.1184000E+00
        -11   -1    0    0    0    0  0.00000000000E+00  0.00000000000E+00  0.45593999997E+02  0.45594000000E+02  0.51100000000E-03 0. -1.
         11   -1    0    0    0    0 -0.00000000000E+00 -0.00000000000E+00 -0.45593999997E+02  0.45594000000E+02  0.51100000000E-03 0.  1.
         23    2    1    2    0    0  0.00000000000E+00  0.71054273576E-14  0.00000000000E+00  0.91188000000E+02  0.91188000000E+02 0.  0.
    9900012    2    3    3    0    0  0.10164014606E+01 -0.42171267573E+02  0.10206573862E+02  0.47787273846E+02  0.20000012775E+02 0.  0.
        -12    1    3    3    0    0 -0.10164014606E+01  0.42171267573E+02 -0.10206573862E+02  0.43400726154E+02  0.00000000000E+00 0.  1.
         11    1    4    4    0    0  0.10004529651E+01 -0.11303250367E+02  0.26035248018E+01  0.11642281420E+02  0.51100000000E-03 0. -1.
        -11    1    4    4    0    0 -0.28086211006E+01  0.93872531934E+00 -0.90956265198E+00  0.30978802738E+01  0.51100000000E-03 0.  1.
        -12    1    4    4    0    0  0.28245695961E+01 -0.31806742526E+02  0.85126117121E+01  0.33047112153E+02  0.00000000000E+00 0.  1.
</event>
<event>
 8    1  0.6019723E-011  0.9118800E+02  0.7816164E-02  0.1184000E+00
        -11   -1    0    0    0    0  0.00000000000E+00  0.00000000000E+00  0.45593999997E+02  0.45594000000E+02  0.51100000000E-03 0. -1.
         11   -1    0    0    0    0 -0.00000000000E+00 -0.00000000000E+00 -0.45593999997E+02  0.45594000000E+02  0.51100000000E-03 0.  1.
         23    2    1    2    0    0 -0.17763568394E-14  0.00000000000E+00  0.00000000000E+00  0.91188000000E+02  0.91188000000E+02 0.  0.
    9900012    2    3    3    0    0 -0.90793931862E+01 -0.23556655323E+02  0.35302575172E+02  0.47787271845E+02  0.20000003650E+02 0.  0.
        -12    1    3    3    0    0  0.90793931862E+01  0.23556655323E+02 -0.35302575172E+02  0.43400728155E+02  0.00000000000E+00 0.  1.
         11    1    4    4    0    0 -0.52338769740E-01 -0.15696648244E+02  0.24209490671E+02  0.28852849846E+02  0.51100000000E-03 0. -1.
        -11    1    4    4    0    0 -0.35542785054E+01  0.16629064695E+01  0.10756166224E+01  0.40687965051E+01  0.51100000000E-03 0.  1.
         12    1    4    4    0    0 -0.54727759111E+01 -0.95229135480E+01  0.10017467879E+02  0.14865625494E+02  0.00000000000E+00 0. -1.
</event>
<event>
 8    1  0.6019723E-011  0.9118800E+02  0.7816164E-02  0.1184000E+00
        -11   -1    0    0    0    0  0.00000000000E+00  0.00000000000E+00  0.45593999997E+02  0.45594000000E+02  0.51100000000E-03 0. -1.
         11   -1    0    0    0    0 -0.00000000000E+00 -0.00000000000E+00 -0.45593999997E+02  0.45594000000E+02  0.51100000000E-03 0.  1.
         23    2    1    2    0    0  0.00000000000E+00  0.17763568394E-14  0.00000000000E+00  0.91188000000E+02  0.91188000000E+02 0.  0.
    9900012    2    3    3    0    0  0.12808225145E+02  0.12968430753E+02  0.39387719964E+02  0.47787270610E+02  0.19999998021E+02 0.  0.
        -12    1    3    3    0    0 -0.12808225145E+02 -0.12968430753E+02 -0.39387719964E+02  0.43400729390E+02  0.00000000000E+00 0.  1.
         11    1    4    4    0    0  0.14849571477E+02  0.13985803388E+02  0.39236434550E+02  0.44222282460E+02  0.51100000000E-03 0. -1.
        -11    1    4    4    0    0 -0.10344397914E+01 -0.96780716732E-02 -0.12118394612E+01  0.15933343930E+01  0.51100000000E-03 0.  1.
         12    1    4    4    0    0 -0.10069065407E+01 -0.10076945633E+01  0.13631248753E+01  0.19716537577E+01  0.00000000000E+00 0. -1.
</event>
<event>
 8    1  0.6019723E-011  0.9118800E+02  0.7816164E-02  0.1184000E+00
        -11   -1    0    0    0    0  0.00000000000E+00  0.00000000000E+00  0.45593999997E+02  0.45594000000E+02  0.51100000000E-03 0. -1.
         11   -1    0    0    0    0 -0.00000000000E+00 -0.00000000000E+00 -0.45593999997E+02  0.45594000000E+02  0.51100000000E-03 0.  1.
         23    2    1    2    0    0 -0.35527136788E-14  0.00000000000E+00  0.00000000000E+00  0.91188000000E+02  0.91188000000E+02 0.  0.
    9900012    2    3    3    0    0 -0.27067907636E+02 -0.29002456088E+02 -0.17601406993E+02  0.47787267160E+02  0.19999982288E+02 0.  0.
         12    1    3    3    0    0  0.27067907636E+02  0.29002456088E+02  0.17601406993E+02  0.43400732840E+02  0.00000000000E+00 0. -1.
         11    1    4    4    0    0 -0.77495072395E+01  0.34531140684E+00 -0.22869634499E+01  0.80872927798E+01  0.51100000000E-03 0. -1.
        -11    1    4    4    0    0 -0.52352016283E+01 -0.14806890970E+02 -0.29503847388E+01  0.15979866291E+02  0.51100000000E-03 0.  1.
        -12    1    4    4    0    0 -0.14083198768E+02 -0.14540876525E+02 -0.12364058804E+02  0.23720108089E+02  0.00000000000E+00 0.  1.
</event>
<event>
 8    1  0.6019723E-011  0.9118800E+02  0.7816164E-02  0.1184000E+00
        -11   -1    0    0    0    0  0.00000000000E+00  0.00000000000E+00  0.45593999997E+02  0.45594000000E+02  0.51100000000E-03 0. -1.
         11   -1    0    0    0    0 -0.00000000000E+00 -0.00000000000E+00 -0.45593999997E+02  0.45594000000E+02  0.51100000000E-03 0.  1.
         23    2    1    2    0    0 -0.17763568394E-14  0.00000000000E+00  0.00000000000E+00  0.91188000000E+02  0.91188000000E+02 0.  0.
    9900012    2    3    3    0    0  0.11199318510E+02 -0.38586620461E+02  0.16409512432E+02  0.47787261390E+02  0.19999955980E+02 0.  0.
        -12    1    3    3    0    0 -0.11199318510E+02  0.38586620461E+02 -0.16409512432E+02  0.43400738610E+02  0.00000000000E+00 0.  1.
         11    1    4    4    0    0  0.10479398588E+02 -0.15060498816E+02  0.14126854466E+02  0.23156088546E+02  0.51100000000E-03 0. -1.
        -11    1    4    4    0    0 -0.84698906572E+00 -0.20275890574E+02  0.39202146224E+01  0.20668749647E+02  0.51100000000E-03 0.  1.
         12    1    4    4    0    0  0.15669089878E+01 -0.32502310704E+01 -0.16375566563E+01  0.39624231967E+01  0.00000000000E+00 0. -1.
</event>
<event>
 8    1  0.6019723E-011  0.9118800E+02  0.7816164E-02  0.1184000E+00
        -11   -1    0    0    0    0  0.00000000000E+00  0.00000000000E+00  0.45593999997E+02  0.45594000000E+02  0.51100000000E-03 0. -1.
         11   -1    0    0    0    0 -0.00000000000E+00 -0.00000000000E+00 -0.45593999997E+02  0.45594000000E+02  0.51100000000E-03 0.  1.
         23    2    1    2    0    0 -0.71054273576E-14  0.00000000000E+00  0.00000000000E+00  0.91188000000E+02  0.91188000000E+02 0.  0.
    9900012    2    3    3    0    0 -0.41926301925E+02 -0.43226400040E+01 -0.10350010609E+02  0.47787277318E+02  0.20000028604E+02 0.  0.
         12    1    3    3    0    0  0.41926301925E+02  0.43226400040E+01  0.10350010609E+02  0.43400722682E+02  0.00000000000E+00 0. -1.
         11    1    4    4    0    0 -0.14145160444E+02  0.43794815490E+01 -0.70229101606E+01  0.16388614646E+02  0.51100000000E-03 0. -1.
        -11    1    4    4    0    0 -0.23732459460E+02 -0.10711986746E+02 -0.51188760367E+01  0.26536374738E+02  0.51100000000E-03 0.  1.
        -12    1    4    4    0    0 -0.40486820203E+01  0.20098651934E+01  0.17917755880E+01  0.48622879341E+01  0.00000000000E+00 0.  1.
</event>
<event>
 8    1  0.6019723E-011  0.9118800E+02  0.7816164E-02  0.1184000E+00
        -11   -1    0    0    0    0  0.00000000000E+00  0.00000000000E+00  0.45593999997E+02  0.45594000000E+02  0.51100000000E-03 0.  1.
         11   -1    0    0    0    0 -0.00000000000E+00 -0.00000000000E+00 -0.45593999997E+02  0.45594000000E+02  0.51100000000E-03 0. -1.
         23    2    1    2    0    0  0.00000000000E+00 -0.71054273576E-14  0.00000000000E+00  0.91188000000E+02  0.91188000000E+02 0.  0.
    9900012    2    3    3    0    0 -0.82232483266E+01 -0.41259352155E+02 -0.10661487460E+02  0.47787271110E+02  0.20000000299E+02 0.  0.
         12    1    3    3    0    0  0.82232483266E+01  0.41259352155E+02  0.10661487460E+02  0.43400728890E+02  0.00000000000E+00 0. -1.
         11    1    4    4    0    0  0.16695398937E+01 -0.16884311614E+01  0.26914814310E+01  0.35891831658E+01  0.51100000000E-03 0. -1.
        -11    1    4    4    0    0  0.97206221402E+00 -0.28630097944E+00  0.52448271880E+00  0.11410326824E+01  0.51100000000E-03 0.  1.
         12    1    4    4    0    0 -0.10864850434E+02 -0.39284620014E+02 -0.13877451610E+02  0.43057055262E+02  0.00000000000E+00 0. -1.
</event>
<event>
 8    1  0.6019723E-011  0.9118800E+02  0.7816164E-02  0.1184000E+00
        -11   -1    0    0    0    0  0.00000000000E+00  0.00000000000E+00  0.45593999997E+02  0.45594000000E+02  0.51100000000E-03 0. -1.
         11   -1    0    0    0    0 -0.00000000000E+00 -0.00000000000E+00 -0.45593999997E+02  0.45594000000E+02  0.51100000000E-03 0.  1.
         23    2    1    2    0    0  0.35527136788E-14  0.00000000000E+00  0.35527136788E-14  0.91188000000E+02  0.91188000000E+02 0.  0.
    9900012    2    3    3    0    0  0.29338395895E+02 -0.17077609863E+02  0.27041392866E+02  0.47787272350E+02  0.20000005954E+02 0.  0.
        -12    1    3    3    0    0 -0.29338395895E+02  0.17077609863E+02 -0.27041392866E+02  0.43400727650E+02  0.00000000000E+00 0.  1.
         11    1    4    4    0    0  0.24561536578E+02 -0.49788804007E+01  0.21768057376E+02  0.33194979309E+02  0.51100000000E-03 0. -1.
        -11    1    4    4    0    0 -0.30963486418E-01 -0.51569024467E+01  0.21911274534E+01  0.56031813607E+01  0.51100000000E-03 0.  1.
         12    1    4    4    0    0  0.48078228038E+01 -0.69418270159E+01  0.30822080372E+01  0.89891116812E+01  0.00000000000E+00 0. -1.
</event>
<event>
 8    1  0.6019723E-011  0.9118800E+02  0.7816164E-02  0.1184000E+00
        -11   -1    0    0    0    0  0.00000000000E+00  0.00000000000E+00  0.45593999997E+02  0.45594000000E+02  0.51100000000E-03 0. -1.
         11   -1    0    0    0    0 -0.00000000000E+00 -0.00000000000E+00 -0.45593999997E+02  0.45594000000E+02  0.51100000000E-03 0.  1.
         23    2    1    2    0    0  0.00000000000E+00  0.00000000000E+00  0.00000000000E+00  0.91188000000E+02  0.91188000000E+02 0.  0.
    9900012    2    3    3    0    0  0.27297697985E+02 -0.24689431908E+02  0.22997627225E+02  0.47787271651E+02  0.20000002765E+02 0.  0.
        -12    1    3    3    0    0 -0.27297697985E+02  0.24689431908E+02 -0.22997627225E+02  0.43400728349E+02  0.00000000000E+00 0.  1.
         11    1    4    4    0    0  0.16843109894E+02 -0.35600013320E+01  0.11087574891E+02  0.20476774102E+02  0.51100000000E-03 0.  1.
        -11    1    4    4    0    0  0.11011465609E+02 -0.17474704216E+02  0.86917977548E+01  0.22409038595E+02  0.51100000000E-03 0. -1.
         12    1    4    4    0    0 -0.55687751768E+00 -0.36547263600E+01  0.32182545797E+01  0.49014589538E+01  0.00000000000E+00 0. -1.
</event>
<event>
 8    1  0.6019723E-011  0.9118800E+02  0.7816164E-02  0.1184000E+00
        -11   -1    0    0    0    0  0.00000000000E+00  0.00000000000E+00  0.45593999997E+02  0.45594000000E+02  0.51100000000E-03 0. -1.
         11   -1    0    0    0    0 -0.00000000000E+00 -0.00000000000E+00 -0.45593999997E+02  0.45594000000E+02  0.51100000000E-03 0.  1.
         23    2    1    2    0    0  0.00000000000E+00  0.00000000000E+00  0.00000000000E+00  0.91188000000E+02  0.91188000000E+02 0.  0.
    9900012    2    3    3    0    0 -0.26767883197E+02  0.27290692533E+02  0.20550473508E+02  0.47787269232E+02  0.19999991736E+02 0.  0.
        -12    1    3    3    0    0  0.26767883197E+02 -0.27290692533E+02 -0.20550473508E+02  0.43400730768E+02  0.00000000000E+00 0.  1.
         11    1    4    4    0    0 -0.23477283337E+02  0.27930580702E+02  0.16249615083E+02  0.39941834733E+02  0.51100000000E-03 0. -1.
        -11    1    4    4    0    0  0.69826462175E+00 -0.21483569865E+01  0.18981305402E+01  0.29505780845E+01  0.51100000000E-03 0.  1.
         12    1    4    4    0    0 -0.39888644817E+01  0.15084688178E+01  0.24027278849E+01  0.48948564143E+01  0.00000000000E+00 0. -1.
</event>
<event>
 8    1  0.6392283E-011  0.9118800E+02  0.7816164E-02  0.1184000E+00
        -11   -1    0    0    0    0  0.00000000000E+00  0.00000000000E+00  0.45593999997E+02  0.45594000000E+02  0.51100000000E-03 0. -1.
         11   -1    0    0    0    0 -0.00000000000E+00 -0.00000000000E+00 -0.45593999997E+02  0.45594000000E+02  0.51100000000E-03 0.  1.
         23    2    1    2    0    0 -0.71054273576E-14 -0.44408920985E-15  0.35527136788E-14  0.91188000000E+02  0.91188000000E+02 0.  0.
    9900012    2    3    3    0    0 -0.31557257889E+02 -0.27312176344E+01 -0.29669901973E+02  0.47787272375E+02  0.20000006069E+02 0.  0.
         12    1    3    3    0    0  0.31557257889E+02  0.27312176344E+01  0.29669901973E+02  0.43400727625E+02  0.00000000000E+00 0. -1.
         11    1    4    4    0    0 -0.17021733242E+01 -0.28653320747E+01  0.22274864890E+01  0.40086429429E+01  0.51100000000E-03 0. -1.
        -11    1    4    4    0    0 -0.20350142720E+02 -0.11198053325E+01 -0.22377718947E+02  0.30267880306E+02  0.51100000000E-03 0.  1.
         12    1    4    4    0    0 -0.95049418449E+01  0.12539197728E+01 -0.95196695156E+01  0.13510749126E+02  0.00000000000E+00 0. -1.
</event>
<event>
 8    1  0.6019723E-011  0.9118800E+02  0.7816164E-02  0.1184000E+00
        -11   -1    0    0    0    0  0.00000000000E+00  0.00000000000E+00  0.45593999997E+02  0.45594000000E+02  0.51100000000E-03 0.  1.
         11   -1    0    0    0    0 -0.00000000000E+00 -0.00000000000E+00 -0.45593999997E+02  0.45594000000E+02  0.51100000000E-03 0. -1.
         23    2    1    2    0    0 -0.71054273576E-14  0.00000000000E+00  0.88817841970E-15  0.91188000000E+02  0.91188000000E+02 0.  0.
    9900012    2    3    3    0    0  0.37583800027E+02 -0.20647748528E+02 -0.66896655956E+01  0.47787272247E+02  0.20000005482E+02 0.  0.
         12    1    3    3    0    0 -0.37583800027E+02  0.20647748528E+02  0.66896655956E+01  0.43400727753E+02  0.00000000000E+00 0. -1.
         11    1    4    4    0    0 -0.16167448796E+01 -0.47390275304E+00 -0.38659690897E+00  0.17285558296E+01  0.51100000000E-03 0. -1.
        -11    1    4    4    0    0  0.27990888875E+02 -0.19476644522E+02 -0.69788188651E+01  0.34807089146E+02  0.51100000000E-03 0.  1.
        -12    1    4    4    0    0  0.11209656032E+02 -0.69720125287E+00  0.67575017848E+00  0.11251627271E+02  0.00000000000E+00 0.  1.
</event>
<event>
 8    1  0.6019723E-011  0.9118800E+02  0.7816164E-02  0.1184000E+00
        -11   -1    0    0    0    0  0.00000000000E+00  0.00000000000E+00  0.45593999997E+02  0.45594000000E+02  0.51100000000E-03 0. -1.
         11   -1    0    0    0    0 -0.00000000000E+00 -0.00000000000E+00 -0.45593999997E+02  0.45594000000E+02  0.51100000000E-03 0.  1.
         23    2    1    2    0    0 -0.17763568394E-14  0.17763568394E-14  0.00000000000E+00  0.91188000000E+02  0.91188000000E+02 0.  0.
    9900012    2    3    3    0    0  0.13595924128E+02 -0.11604176823E+02 -0.39548992469E+02  0.47787206483E+02  0.19999705634E+02 0.  0.
         12    1    3    3    0    0 -0.13595924128E+02  0.11604176823E+02  0.39548992469E+02  0.43400793517E+02  0.00000000000E+00 0. -1.
         11    1    4    4    0    0  0.16818766569E+01  0.30856312682E+01 -0.77649218118E+00  0.35989956628E+01  0.51100000000E-03 0. -1.
        -11    1    4    4    0    0  0.27119013757E+01 -0.10897501782E+02 -0.21345527977E+02  0.24119318378E+02  0.51100000000E-03 0.  1.
         12    1    4    4    0    0  0.92021460952E+01 -0.37923063093E+01 -0.17426972311E+02  0.20068892441E+02  0.00000000000E+00 0. -1.
</event>
<event>
 8    1  0.6019723E-011  0.9118800E+02  0.7816164E-02  0.1184000E+00
        -11   -1    0    0    0    0  0.00000000000E+00  0.00000000000E+00  0.45593999997E+02  0.45594000000E+02  0.51100000000E-03 0. -1.
         11   -1    0    0    0    0 -0.00000000000E+00 -0.00000000000E+00 -0.45593999997E+02  0.45594000000E+02  0.51100000000E-03 0.  1.
         23    2    1    2    0    0  0.00000000000E+00  0.00000000000E+00  0.00000000000E+00  0.91188000000E+02  0.91188000000E+02 0.  0.
    9900012    2    3    3    0    0  0.40589548169E+01  0.32562437551E+02  0.28404854223E+02  0.47787271931E+02  0.20000004043E+02 0.  0.
        -12    1    3    3    0    0 -0.40589548169E+01 -0.32562437551E+02 -0.28404854223E+02  0.43400728069E+02  0.00000000000E+00 0.  1.
         11    1    4    4    0    0 -0.20494279643E+01  0.13496761883E+02  0.30971853213E+01  0.13998403248E+02  0.51100000000E-03 0. -1.
        -11    1    4    4    0    0  0.32396675605E+01  0.18234312975E+02  0.24467453058E+02  0.30686183780E+02  0.51100000000E-03 0.  1.
        -12    1    4    4    0    0  0.28687152207E+01  0.83136269307E+00  0.84021584358E+00  0.31026849032E+01  0.00000000000E+00 0.  1.
</event>
<event>
 8    1  0.6019723E-011  0.9118800E+02  0.7816164E-02  0.1184000E+00
        -11   -1    0    0    0    0  0.00000000000E+00  0.00000000000E+00  0.45593999997E+02  0.45594000000E+02  0.51100000000E-03 0. -1.
         11   -1    0    0    0    0 -0.00000000000E+00 -0.00000000000E+00 -0.45593999997E+02  0.45594000000E+02  0.51100000000E-03 0.  1.
         23    2    1    2    0    0  0.00000000000E+00  0.00000000000E+00  0.71054273576E-14  0.91188000000E+02  0.91188000000E+02 0.  0.
    9900012    2    3    3    0    0  0.12743096614E+02 -0.72888361912E+01 -0.40842497617E+02  0.47787271251E+02  0.20000000943E+02 0.  0.
         12    1    3    3    0    0 -0.12743096614E+02  0.72888361912E+01  0.40842497617E+02  0.43400728749E+02  0.00000000000E+00 0. -1.
         11    1    4    4    0    0 -0.28631904306E+01  0.17981069653E+01 -0.15238354293E+02  0.15608923406E+02  0.51100000000E-03 0. -1.
        -11    1    4    4    0    0  0.14511297835E+02 -0.87223929692E+01 -0.18895665075E+02  0.25371323632E+02  0.51100000000E-03 0.  1.
        -12    1    4    4    0    0  0.10949892096E+01 -0.36455018727E+00 -0.67084782493E+01  0.68070242124E+01  0.00000000000E+00 0.  1.
</event>
<event>
 8    1  0.6019723E-011  0.9118800E+02  0.7816164E-02  0.1184000E+00
        -11   -1    0    0    0    0  0.00000000000E+00  0.00000000000E+00  0.45593999997E+02  0.45594000000E+02  0.51100000000E-03 0. -1.
         11   -1    0    0    0    0 -0.00000000000E+00 -0.00000000000E+00 -0.45593999997E+02  0.45594000000E+02  0.51100000000E-03 0.  1.
         23    2    1    2    0    0 -0.35527136788E-14 -0.35527136788E-14  0.35527136788E-14  0.91188000000E+02  0.91188000000E+02 0.  0.
    9900012    2    3    3    0    0  0.26034995664E+02  0.19486599313E+02 -0.28741516757E+02  0.47787270311E+02  0.19999996657E+02 0.  0.
         12    1    3    3    0    0 -0.26034995664E+02 -0.19486599313E+02  0.28741516757E+02  0.43400729689E+02  0.00000000000E+00 0. -1.
         11    1    4    4    0    0  0.11819230737E+02  0.82140004983E+01 -0.17108936742E+02  0.22357990431E+02  0.51100000000E-03 0. -1.
        -11    1    4    4    0    0  0.77660226616E+01  0.30716185545E+01 -0.12419478714E+02  0.14966275432E+02  0.51100000000E-03 0.  1.
         12    1    4    4    0    0  0.64497422654E+01  0.82009802601E+01  0.78689869910E+00  0.10463004448E+02  0.00000000000E+00 0. -1.
</event>
<event>
 8    1  0.6019723E-011  0.9118800E+02  0.7816164E-02  0.1184000E+00
        -11   -1    0    0    0    0  0.00000000000E+00  0.00000000000E+00  0.45593999997E+02  0.45594000000E+02  0.51100000000E-03 0. -1.
         11   -1    0    0    0    0 -0.00000000000E+00 -0.00000000000E+00 -0.45593999997E+02  0.45594000000E+02  0.51100000000E-03 0.  1.
         23    2    1    2    0    0  0.00000000000E+00  0.00000000000E+00  0.00000000000E+00  0.91188000000E+02  0.91188000000E+02 0.  0.
    9900012    2    3    3    0    0 -0.14348289480E+02 -0.11296936833E+02  0.39371681045E+02  0.47787268887E+02  0.19999990164E+02 0.  0.
        -12    1    3    3    0    0  0.14348289480E+02  0.11296936833E+02 -0.39371681045E+02  0.43400731113E+02  0.00000000000E+00 0.  1.
         11    1    4    4    0    0  0.17836485314E+01 -0.71755341856E+01  0.13148573212E+02  0.15084915336E+02  0.51100000000E-03 0. -1.
        -11    1    4    4    0    0 -0.92684076926E+01  0.88684774548E+00  0.20334478670E+02  0.22364724526E+02  0.51100000000E-03 0.  1.
         12    1    4    4    0    0 -0.68635303186E+01 -0.50082503929E+01  0.58886291632E+01  0.10337629025E+02  0.00000000000E+00 0. -1.
</event>
<event>
 8    1  0.6019723E-011  0.9118800E+02  0.7816164E-02  0.1184000E+00
        -11   -1    0    0    0    0  0.00000000000E+00  0.00000000000E+00  0.45593999997E+02  0.45594000000E+02  0.51100000000E-03 0. -1.
         11   -1    0    0    0    0 -0.00000000000E+00 -0.00000000000E+00 -0.45593999997E+02  0.45594000000E+02  0.51100000000E-03 0.  1.
         23    2    1    2    0    0  0.88817841970E-15 -0.88817841970E-15  0.00000000000E+00  0.91188000000E+02  0.91188000000E+02 0.  0.
    9900012    2    3    3    0    0 -0.68155692270E+01 -0.52698134581E+01 -0.42537049111E+02  0.47787268845E+02  0.19999989970E+02 0.  0.
         12    1    3    3    0    0  0.68155692270E+01  0.52698134581E+01  0.42537049111E+02  0.43400731155E+02  0.00000000000E+00 0. -1.
         11    1    4    4    0    0  0.19494585719E+01 -0.11848057796E+01  0.12377232974E+01  0.25954022195E+01  0.51100000000E-03 0. -1.
        -11    1    4    4    0    0 -0.80767363201E+01 -0.51235263218E+01 -0.33399656289E+02  0.34742211099E+02  0.51100000000E-03 0.  1.
        -12    1    4    4    0    0 -0.68829147889E+00  0.10385186433E+01 -0.10375116119E+02  0.10449655527E+02  0.00000000000E+00 0.  1.
</event>
<event>
 8    1  0.6019723E-011  0.9118800E+02  0.7816164E-02  0.1184000E+00
        -11   -1    0    0    0    0  0.00000000000E+00  0.00000000000E+00  0.45593999997E+02  0.45594000000E+02  0.51100000000E-03 0. -1.
         11   -1    0    0    0    0 -0.00000000000E+00 -0.00000000000E+00 -0.45593999997E+02  0.45594000000E+02  0.51100000000E-03 0.  1.
         23    2    1    2    0    0  0.00000000000E+00  0.00000000000E+00  0.35527136788E-14  0.91188000000E+02  0.91188000000E+02 0.  0.
    9900012    2    3    3    0    0  0.42853320701E+01  0.30552390000E+02 -0.30525573244E+02  0.47787271578E+02  0.20000002434E+02 0.  0.
         12    1    3    3    0    0 -0.42853320701E+01 -0.30552390000E+02  0.30525573244E+02  0.43400728422E+02  0.00000000000E+00 0. -1.
         11    1    4    4    0    0 -0.24949057840E+01  0.22147653082E+02 -0.14420816948E+02  0.26546243682E+02  0.51100000000E-03 0.  1.
        -11    1    4    4    0    0  0.44316935142E+01  0.94823426386E-01 -0.23950682195E+01  0.50383778067E+01  0.51100000000E-03 0. -1.
        -12    1    4    4    0    0  0.23485443399E+01  0.83099134910E+01 -0.13709688077E+02  0.16202650089E+02  0.00000000000E+00 0.  1.
</event>
<event>
 8    1  0.6019723E-011  0.9118800E+02  0.7816164E-02  0.1184000E+00
        -11   -1    0    0    0    0  0.00000000000E+00  0.00000000000E+00  0.45593999997E+02  0.45594000000E+02  0.51100000000E-03 0. -1.
         11   -1    0    0    0    0 -0.00000000000E+00 -0.00000000000E+00 -0.45593999997E+02  0.45594000000E+02  0.51100000000E-03 0.  1.
         23    2    1    2    0    0  0.00000000000E+00  0.00000000000E+00  0.00000000000E+00  0.91188000000E+02  0.91188000000E+02 0.  0.
    9900012    2    3    3    0    0 -0.21574545521E+02 -0.93126443321E+01 -0.36488861030E+02  0.47787270304E+02  0.19999996622E+02 0.  0.
         12    1    3    3    0    0  0.21574545521E+02  0.93126443321E+01  0.36488861030E+02  0.43400729696E+02  0.00000000000E+00 0. -1.
         11    1    4    4    0    0 -0.24621758806E+01 -0.52317352110E+01 -0.70446896990E+01  0.91137816850E+01  0.51100000000E-03 0. -1.
        -11    1    4    4    0    0 -0.11874827961E+02 -0.62259392241E+01 -0.27919801051E+02  0.30972393342E+02  0.51100000000E-03 0.  1.
        -12    1    4    4    0    0 -0.72375416798E+01  0.21450301030E+01 -0.15243702800E+01  0.77010952766E+01  0.00000000000E+00 0.  1.
</event>
<event>
 8    1  0.6019723E-011  0.9118800E+02  0.7816164E-02  0.1184000E+00
        -11   -1    0    0    0    0  0.00000000000E+00  0.00000000000E+00  0.45593999997E+02  0.45594000000E+02  0.51100000000E-03 0. -1.
         11   -1    0    0    0    0 -0.00000000000E+00 -0.00000000000E+00 -0.45593999997E+02  0.45594000000E+02  0.51100000000E-03 0.  1.
         23    2    1    2    0    0  0.17763568394E-14  0.00000000000E+00  0.00000000000E+00  0.91188000000E+02  0.91188000000E+02 0.  0.
    9900012    2    3    3    0    0  0.13295482916E+02 -0.13114766790E+02  0.39177263633E+02  0.47787251623E+02  0.19999911449E+02 0.  0.
        -12    1    3    3    0    0 -0.13295482916E+02  0.13114766790E+02 -0.39177263633E+02  0.43400748377E+02  0.00000000000E+00 0.  1.
         11    1    4    4    0    0  0.68463941375E+01 -0.58293978933E+01  0.22313288260E+02  0.24056970419E+02  0.51100000000E-03 0. -1.
        -11    1    4    4    0    0  0.74604681382E+01 -0.20510412640E+01  0.16690076037E+02  0.18396303800E+02  0.51100000000E-03 0.  1.
         12    1    4    4    0    0 -0.10113793594E+01 -0.52343276327E+01  0.17389933598E+00  0.53339774047E+01  0.00000000000E+00 0. -1.
</event>
<event>
 8    1  0.6019723E-011  0.9118800E+02  0.7816164E-02  0.1184000E+00
        -11   -1    0    0    0    0  0.00000000000E+00  0.00000000000E+00  0.45593999997E+02  0.45594000000E+02  0.51100000000E-03 0. -1.
         11   -1    0    0    0    0 -0.00000000000E+00 -0.00000000000E+00 -0.45593999997E+02  0.45594000000E+02  0.51100000000E-03 0.  1.
         23    2    1    2    0    0  0.00000000000E+00  0.17763568394E-14  0.00000000000E+00  0.91188000000E+02  0.91188000000E+02 0.  0.
    9900012    2    3    3    0    0  0.17808143987E+02 -0.13574752477E+02  0.37178214253E+02  0.47787268299E+02  0.19999987483E+02 0.  0.
        -12    1    3    3    0    0 -0.17808143987E+02  0.13574752477E+02 -0.37178214253E+02  0.43400731701E+02  0.00000000000E+00 0.  1.
         11    1    4    4    0    0  0.11335369456E+02 -0.29754372016E+01  0.17178816856E+02  0.20795566260E+02  0.51100000000E-03 0. -1.
        -11    1    4    4    0    0 -0.86525689691E+00 -0.10751487697E+02  0.11775712823E+02  0.15969050377E+02  0.51100000000E-03 0.  1.
        -12    1    4    4    0    0  0.73380314282E+01  0.15217242071E+00  0.82236845737E+01  0.11022651662E+02  0.00000000000E+00 0.  1.
</event>
<event>
 8    1  0.6019723E-011  0.9118800E+02  0.7816164E-02  0.1184000E+00
        -11   -1    0    0    0    0  0.00000000000E+00  0.00000000000E+00  0.45593999997E+02  0.45594000000E+02  0.51100000000E-03 0. -1.
         11   -1    0    0    0    0 -0.00000000000E+00 -0.00000000000E+00 -0.45593999997E+02  0.45594000000E+02  0.51100000000E-03 0.  1.
         23    2    1    2    0    0  0.35527136788E-14  0.00000000000E+00  0.71054273576E-14  0.91188000000E+02  0.91188000000E+02 0.  0.
    9900012    2    3    3    0    0 -0.20060676888E+02  0.42718254912E+01 -0.38248446903E+02  0.47787274882E+02  0.20000017498E+02 0.  0.
         12    1    3    3    0    0  0.20060676888E+02 -0.42718254912E+01  0.38248446903E+02  0.43400725118E+02  0.00000000000E+00 0. -1.
         11    1    4    4    0    0 -0.64568476286E+01  0.26437208360E+01 -0.74819909690E+00  0.70171178776E+01  0.51100000000E-03 0. -1.
        -11    1    4    4    0    0 -0.13309030978E+02  0.31392451484E+01 -0.36383128926E+02  0.38867946130E+02  0.51100000000E-03 0.  1.
         12    1    4    4    0    0 -0.29479828157E+00 -0.15111404933E+01 -0.11171188804E+01  0.19022108743E+01  0.00000000000E+00 0. -1.
</event>
<event>
 8    1  0.8997368E-011  0.9118800E+02  0.7816164E-02  0.1184000E+00
        -11   -1    0    0    0    0  0.00000000000E+00  0.00000000000E+00  0.45593999997E+02  0.45594000000E+02  0.51100000000E-03 0. -1.
         11   -1    0    0    0    0 -0.00000000000E+00 -0.00000000000E+00 -0.45593999997E+02  0.45594000000E+02  0.51100000000E-03 0.  1.
         23    2    1    2    0    0  0.00000000000E+00 -0.17763568394E-14  0.00000000000E+00  0.91188000000E+02  0.91188000000E+02 0.  0.
    9900012    2    3    3    0    0 -0.11379392967E+02 -0.15913575218E+02 -0.38741333680E+02  0.47787269640E+02  0.19999993595E+02 0.  0.
         12    1    3    3    0    0  0.11379392967E+02  0.15913575218E+02  0.38741333680E+02  0.43400730360E+02  0.00000000000E+00 0. -1.
         11    1    4    4    0    0 -0.46489951857E+01  0.23577485450E+01 -0.30696624135E+01  0.60493769953E+01  0.51100000000E-03 0. -1.
        -11    1    4    4    0    0 -0.90803473769E+01 -0.13266506388E+02 -0.25087447306E+02  0.29796525181E+02  0.51100000000E-03 0.  1.
         12    1    4    4    0    0  0.23499495960E+01 -0.50048173748E+01 -0.10584223960E+02  0.11941367464E+02  0.00000000000E+00 0. -1.
</event>
<event>
 8    1  0.6019723E-011  0.9118800E+02  0.7816164E-02  0.1184000E+00
        -11   -1    0    0    0    0  0.00000000000E+00  0.00000000000E+00  0.45593999997E+02  0.45594000000E+02  0.51100000000E-03 0. -1.
         11   -1    0    0    0    0 -0.00000000000E+00 -0.00000000000E+00 -0.45593999997E+02  0.45594000000E+02  0.51100000000E-03 0.  1.
         23    2    1    2    0    0  0.00000000000E+00 -0.17763568394E-14  0.00000000000E+00  0.91188000000E+02  0.91188000000E+02 0.  0.
    9900012    2    3    3    0    0 -0.23831103708E+02  0.82933866193E+01 -0.35311779687E+02  0.47787267861E+02  0.19999985486E+02 0.  0.
         12    1    3    3    0    0  0.23831103708E+02 -0.82933866193E+01  0.35311779687E+02  0.43400732139E+02  0.00000000000E+00 0. -1.
         11    1    4    4    0    0 -0.19136236042E+02  0.96997248416E+01 -0.14551445327E+02  0.25923440228E+02  0.51100000000E-03 0. -1.
        -11    1    4    4    0    0 -0.10853678009E+00 -0.17818468402E+01 -0.10041915845E+02  0.10199354513E+02  0.51100000000E-03 0.  1.
         12    1    4    4    0    0 -0.45863308854E+01  0.37550861790E+00 -0.10718418515E+02  0.11664473120E+02  0.00000000000E+00 0. -1.
</event>
<event>
 8    1  0.6019723E-011  0.9118800E+02  0.7816164E-02  0.1184000E+00
        -11   -1    0    0    0    0  0.00000000000E+00  0.00000000000E+00  0.45593999997E+02  0.45594000000E+02  0.51100000000E-03 0. -1.
         11   -1    0    0    0    0 -0.00000000000E+00 -0.00000000000E+00 -0.45593999997E+02  0.45594000000E+02  0.51100000000E-03 0.  1.
         23    2    1    2    0    0 -0.17763568394E-14  0.00000000000E+00 -0.35527136788E-14  0.91188000000E+02  0.91188000000E+02 0.  0.
    9900012    2    3    3    0    0 -0.13298954512E+02 -0.36325843596E+02 -0.19677247986E+02  0.47787271984E+02  0.20000004283E+02 0.  0.
         12    1    3    3    0    0  0.13298954512E+02  0.36325843596E+02  0.19677247986E+02  0.43400728016E+02  0.00000000000E+00 0. -1.
         11    1    4    4    0    0 -0.10658849578E+02 -0.14991657953E+02 -0.34658123353E+01  0.18718246123E+02  0.51100000000E-03 0. -1.
        -11    1    4    4    0    0  0.18033853771E+01 -0.86844235096E+01 -0.12142015724E+01  0.89524128721E+01  0.51100000000E-03 0.  1.
        -12    1    4    4    0    0 -0.44434903106E+01 -0.12649762133E+02 -0.14997234078E+02  0.20116612989E+02  0.00000000000E+00 0.  1.
</event>
<event>
 8    1  0.6019723E-011  0.9118800E+02  0.7816164E-02  0.1184000E+00
        -11   -1    0    0    0    0  0.00000000000E+00  0.00000000000E+00  0.45593999997E+02  0.45594000000E+02  0.51100000000E-03 0. -1.
         11   -1    0    0    0    0 -0.00000000000E+00 -0.00000000000E+00 -0.45593999997E+02  0.45594000000E+02  0.51100000000E-03 0.  1.
         23    2    1    2    0    0  0.71054273576E-14  0.00000000000E+00 -0.35527136788E-14  0.91188000000E+02  0.91188000000E+02 0.  0.
    9900012    2    3    3    0    0  0.34379437651E+02 -0.47374102907E+01 -0.26062098944E+02  0.47787288130E+02  0.20000077901E+02 0.  0.
         12    1    3    3    0    0 -0.34379437651E+02  0.47374102907E+01  0.26062098944E+02  0.43400711870E+02  0.00000000000E+00 0. -1.
         11    1    4    4    0    0  0.20862982241E+01 -0.29323959949E+01 -0.10366881711E+02  0.10973778895E+02  0.51100000000E-03 0. -1.
        -11    1    4    4    0    0  0.17865703407E+02  0.16792299464E+01 -0.53616389052E+01  0.18728329970E+02  0.51100000000E-03 0.  1.
        -12    1    4    4    0    0  0.14427436019E+02 -0.34842442422E+01 -0.10333578327E+02  0.18085179266E+02  0.00000000000E+00 0.  1.
</event>
<event>
 8    1  0.6019723E-011  0.9118800E+02  0.7816164E-02  0.1184000E+00
        -11   -1    0    0    0    0  0.00000000000E+00  0.00000000000E+00  0.45593999997E+02  0.45594000000E+02  0.51100000000E-03 0. -1.
         11   -1    0    0    0    0 -0.00000000000E+00 -0.00000000000E+00 -0.45593999997E+02  0.45594000000E+02  0.51100000000E-03 0.  1.
         23    2    1    2    0    0  0.00000000000E+00 -0.35527136788E-14  0.00000000000E+00  0.91188000000E+02  0.91188000000E+02 0.  0.
    9900012    2    3    3    0    0 -0.77803621345E+01 -0.26005015909E+02  0.33864853817E+02  0.47787271764E+02  0.20000003279E+02 0.  0.
        -12    1    3    3    0    0  0.77803621345E+01  0.26005015909E+02 -0.33864853817E+02  0.43400728236E+02  0.00000000000E+00 0.  1.
         11    1    4    4    0    0 -0.61666510125E+01 -0.55306905443E+01  0.42428038279E+01  0.93068527005E+01  0.51100000000E-03 0. -1.
        -11    1    4    4    0    0  0.55016768025E+01 -0.99433741704E+01  0.10204039320E+02  0.15272902679E+02  0.51100000000E-03 0.  1.
        -12    1    4    4    0    0 -0.71153879246E+01 -0.10530951195E+02  0.19418010669E+02  0.23207516384E+02  0.00000000000E+00 0.  1.
</event>
<event>
 8    1  0.7568774E-011  0.9118800E+02  0.7816164E-02  0.1184000E+00
        -11   -1    0    0    0    0  0.00000000000E+00  0.00000000000E+00  0.45593999997E+02  0.45594000000E+02  0.51100000000E-03 0. -1.
         11   -1    0    0    0    0 -0.00000000000E+00 -0.00000000000E+00 -0.45593999997E+02  0.45594000000E+02  0.51100000000E-03 0.  1.
         23    2    1    2    0    0  0.00000000000E+00  0.00000000000E+00  0.71054273576E-14  0.91188000000E+02  0.91188000000E+02 0.  0.
    9900012    2    3    3    0    0 -0.63860574365E+01  0.17501705098E+02 -0.39198622502E+02  0.47787269395E+02  0.19999992482E+02 0.  0.
         12    1    3    3    0    0  0.63860574365E+01 -0.17501705098E+02  0.39198622502E+02  0.43400730605E+02  0.00000000000E+00 0. -1.
         11    1    4    4    0    0 -0.24077762646E+01 -0.99415653398E+00  0.10628459404E+01  0.28134277152E+01  0.51100000000E-03 0. -1.
        -11    1    4    4    0    0 -0.38431590032E+01  0.10626688307E+02 -0.16966315871E+02  0.20385098724E+02  0.51100000000E-03 0.  1.
         12    1    4    4    0    0 -0.13512216874E+00  0.78691733253E+01 -0.23295152572E+02  0.24588742956E+02  0.00000000000E+00 0. -1.
</event>
<event>
 8    1  0.6019723E-011  0.9118800E+02  0.7816164E-02  0.1184000E+00
        -11   -1    0    0    0    0  0.00000000000E+00  0.00000000000E+00  0.45593999997E+02  0.45594000000E+02  0.51100000000E-03 0.  1.
         11   -1    0    0    0    0 -0.00000000000E+00 -0.00000000000E+00 -0.45593999997E+02  0.45594000000E+02  0.51100000000E-03 0. -1.
         23    2    1    2    0    0  0.00000000000E+00  0.00000000000E+00  0.17763568394E-14  0.91188000000E+02  0.91188000000E+02 0.  0.
    9900012    2    3    3    0    0  0.33754235653E+02  0.22125007603E+02  0.15961164141E+02  0.47787272510E+02  0.20000006681E+02 0.  0.
        -12    1    3    3    0    0 -0.33754235653E+02 -0.22125007603E+02 -0.15961164141E+02  0.43400727490E+02  0.00000000000E+00 0.  1.
         11    1    4    4    0    0  0.16334757799E+02  0.17252630057E+02  0.10454871306E+02  0.25957309000E+02  0.51100000000E-03 0. -1.
        -11    1    4    4    0    0  0.16452953575E+02  0.36444846867E+00  0.36310626140E+01  0.16852807481E+02  0.51100000000E-03 0.  1.
        -12    1    4    4    0    0  0.96652427846E+00  0.45079290771E+01  0.18752302216E+01  0.49771560282E+01  0.00000000000E+00 0.  1.
</event>
<event>
 8    1  0.6019723E-011  0.9118800E+02  0.7816164E-02  0.1184000E+00
        -11   -1    0    0    0    0  0.00000000000E+00  0.00000000000E+00  0.45593999997E+02  0.45594000000E+02  0.51100000000E-03 0. -1.
         11   -1    0    0    0    0 -0.00000000000E+00 -0.00000000000E+00 -0.45593999997E+02  0.45594000000E+02  0.51100000000E-03 0.  1.
         23    2    1    2    0    0  0.00000000000E+00  0.00000000000E+00  0.00000000000E+00  0.91188000000E+02  0.91188000000E+02 0.  0.
    9900012    2    3    3    0    0  0.10148906280E+02 -0.91739530188E+01 -0.41188114867E+02  0.47787279741E+02  0.20000039652E+02 0.  0.
         12    1    3    3    0    0 -0.10148906280E+02  0.91739530188E+01  0.41188114867E+02  0.43400720259E+02  0.00000000000E+00 0. -1.
         11    1    4    4    0    0 -0.28943031646E+01 -0.35711303381E+01 -0.51346076170E+01  0.68916005646E+01  0.51100000000E-03 0.  1.
        -11    1    4    4    0    0  0.12747554723E+02  0.21189709065E+00 -0.29454570801E+02  0.32095432590E+02  0.51100000000E-03 0. -1.
        -12    1    4    4    0    0  0.29565472190E+00 -0.58147197714E+01 -0.65989364492E+01  0.88002465872E+01  0.00000000000E+00 0.  1.
</event>
<event>
 8    1  0.6019723E-011  0.9118800E+02  0.7816164E-02  0.1184000E+00
        -11   -1    0    0    0    0  0.00000000000E+00  0.00000000000E+00  0.45593999997E+02  0.45594000000E+02  0.51100000000E-03 0.  1.
         11   -1    0    0    0    0 -0.00000000000E+00 -0.00000000000E+00 -0.45593999997E+02  0.45594000000E+02  0.51100000000E-03 0. -1.
         23    2    1    2    0    0  0.00000000000E+00  0.00000000000E+00  0.17763568394E-14  0.91188000000E+02  0.91188000000E+02 0.  0.
    9900012    2    3    3    0    0 -0.46150441598E+01  0.42002534816E+02  0.99051440842E+01  0.47787269097E+02  0.19999991121E+02 0.  0.
        -12    1    3    3    0    0  0.46150441598E+01 -0.42002534816E+02 -0.99051440842E+01  0.43400730903E+02  0.00000000000E+00 0.  1.
         11    1    4    4    0    0  0.24768566886E+01  0.30901018110E+02 -0.20429589579E-01  0.31000131563E+02  0.51100000000E-03 0. -1.
        -11    1    4    4    0    0 -0.52307112479E+01  0.73999539064E+01  0.49967989765E+01  0.10348316687E+02  0.51100000000E-03 0.  1.
         12    1    4    4    0    0 -0.18611896005E+01  0.37015627996E+01  0.49287746973E+01  0.64388208474E+01  0.00000000000E+00 0. -1.
</event>
<event>
 8    1  0.6019723E-011  0.9118800E+02  0.7816164E-02  0.1184000E+00
        -11   -1    0    0    0    0  0.00000000000E+00  0.00000000000E+00  0.45593999997E+02  0.45594000000E+02  0.51100000000E-03 0. -1.
         11   -1    0    0    0    0 -0.00000000000E+00 -0.00000000000E+00 -0.45593999997E+02  0.45594000000E+02  0.51100000000E-03 0.  1.
         23    2    1    2    0    0 -0.35527136788E-14  0.00000000000E+00  0.00000000000E+00  0.91188000000E+02  0.91188000000E+02 0.  0.
    9900012    2    3    3    0    0 -0.19075020907E+02 -0.12831495901E+02  0.36811944445E+02  0.47787274620E+02  0.20000016302E+02 0.  0.
        -12    1    3    3    0    0  0.19075020907E+02  0.12831495901E+02 -0.36811944445E+02  0.43400725380E+02  0.00000000000E+00 0.  1.
         11    1    4    4    0    0 -0.11494555134E+02 -0.11806416048E+01  0.21242217801E+02  0.24181615532E+02  0.51100000000E-03 0. -1.
        -11    1    4    4    0    0 -0.27608167680E+01 -0.21319250830E+01 -0.12346646754E+01  0.37002176839E+01  0.51100000000E-03 0.  1.
        -12    1    4    4    0    0 -0.48196490048E+01 -0.95189292135E+01  0.16804391319E+02  0.19905441405E+02  0.00000000000E+00 0.  1.
</event>
<event>
 8    1  0.6019723E-011  0.9118800E+02  0.7816164E-02  0.1184000E+00
        -11   -1    0    0    0    0  0.00000000000E+00  0.00000000000E+00  0.45593999997E+02  0.45594000000E+02  0.51100000000E-03 0. -1.
         11   -1    0    0    0    0 -0.00000000000E+00 -0.00000000000E+00 -0.45593999997E+02  0.45594000000E+02  0.51100000000E-03 0.  1.
         23    2    1    2    0    0 -0.71054273576E-14  0.00000000000E+00  0.00000000000E+00  0.91188000000E+02  0.91188000000E+02 0.  0.
    9900012    2    3    3    0    0 -0.36680343322E+02  0.15179343251E+02  0.17543193059E+02  0.47787266475E+02  0.19999979167E+02 0.  0.
        -12    1    3    3    0    0  0.36680343322E+02 -0.15179343251E+02 -0.17543193059E+02  0.43400733525E+02  0.00000000000E+00 0.  1.
         11    1    4    4    0    0 -0.14380238562E+02  0.10485325684E+02  0.13475719608E+02  0.22323268915E+02  0.51100000000E-03 0. -1.
        -11    1    4    4    0    0 -0.13739170048E+02  0.54377099921E+01 -0.20473226569E+01  0.14917272334E+02  0.51100000000E-03 0.  1.
         12    1    4    4    0    0 -0.85609347117E+01 -0.74369242507E+00  0.61147961079E+01  0.10546725227E+02  0.00000000000E+00 0. -1.
</event>
<event>
 8    1  0.6019723E-011  0.9118800E+02  0.7816164E-02  0.1184000E+00
        -11   -1    0    0    0    0  0.00000000000E+00  0.00000000000E+00  0.45593999997E+02  0.45594000000E+02  0.51100000000E-03 0. -1.
         11   -1    0    0    0    0 -0.00000000000E+00 -0.00000000000E+00 -0.45593999997E+02  0.45594000000E+02  0.51100000000E-03 0.  1.
         23    2    1    2    0    0  0.00000000000E+00  0.00000000000E+00  0.00000000000E+00  0.91188000000E+02  0.91188000000E+02 0.  0.
    9900012    2    3    3    0    0 -0.18833188260E+02  0.33095968171E+02 -0.20822848105E+02  0.47787273135E+02  0.20000009532E+02 0.  0.
         12    1    3    3    0    0  0.18833188260E+02 -0.33095968171E+02  0.20822848105E+02  0.43400726865E+02  0.00000000000E+00 0. -1.
         11    1    4    4    0    0 -0.10052004316E+02  0.76851757546E+01 -0.67030920652E+01  0.14319083792E+02  0.51100000000E-03 0. -1.
        -11    1    4    4    0    0 -0.62128586521E+01  0.23002482134E+02 -0.59298546445E+01  0.24553553171E+02  0.51100000000E-03 0.  1.
        -12    1    4    4    0    0 -0.25683252923E+01  0.24083102823E+01 -0.81899013948E+01  0.89146361720E+01  0.00000000000E+00 0.  1.
</event>
<event>
 8    1  0.6019723E-011  0.9118800E+02  0.7816164E-02  0.1184000E+00
        -11   -1    0    0    0    0  0.00000000000E+00  0.00000000000E+00  0.45593999997E+02  0.45594000000E+02  0.51100000000E-03 0. -1.
         11   -1    0    0    0    0 -0.00000000000E+00 -0.00000000000E+00 -0.45593999997E+02  0.45594000000E+02  0.51100000000E-03 0.  1.
         23    2    1    2    0    0  0.00000000000E+00 -0.44408920985E-15 -0.17763568394E-14  0.91188000000E+02  0.91188000000E+02 0.  0.
    9900012    2    3    3    0    0  0.40445296245E+02  0.38193597199E+01  0.15271334006E+02  0.47787272594E+02  0.20000007066E+02 0.  0.
        -12    1    3    3    0    0 -0.40445296245E+02 -0.38193597199E+01 -0.15271334006E+02  0.43400727406E+02  0.00000000000E+00 0.  1.
         11    1    4    4    0    0  0.25469043050E+02  0.78593522871E+01  0.81392408307E+01  0.27869137300E+02  0.51100000000E-03 0. -1.
        -11    1    4    4    0    0  0.99952978126E+01 -0.71271497986E+01  0.26967462498E+01  0.12568798002E+02  0.51100000000E-03 0.  1.
        -12    1    4    4    0    0  0.49809553823E+01  0.30871572314E+01  0.44353469256E+01  0.73493372927E+01  0.00000000000E+00 0.  1.
</event>
<event>
 8    1  0.6019723E-011  0.9118800E+02  0.7816164E-02  0.1184000E+00
        -11   -1    0    0    0    0  0.00000000000E+00  0.00000000000E+00  0.45593999997E+02  0.45594000000E+02  0.51100000000E-03 0. -1.
         11   -1    0    0    0    0 -0.00000000000E+00 -0.00000000000E+00 -0.45593999997E+02  0.45594000000E+02  0.51100000000E-03 0.  1.
         23    2    1    2    0    0  0.22204460493E-15  0.00000000000E+00  0.00000000000E+00  0.91188000000E+02  0.91188000000E+02 0.  0.
    9900012    2    3    3    0    0  0.17221906876E+01 -0.11812640182E+02 -0.41726715047E+02  0.47787272386E+02  0.20000006115E+02 0.  0.
         12    1    3    3    0    0 -0.17221906876E+01  0.11812640182E+02  0.41726715047E+02  0.43400727614E+02  0.00000000000E+00 0. -1.
         11    1    4    4    0    0  0.10013483625E+02 -0.85687579788E+01 -0.17849198780E+02  0.22187549774E+02  0.51100000000E-03 0. -1.
        -11    1    4    4    0    0 -0.52344795263E+01 -0.14834809482E+01 -0.17309375152E+02  0.18144281745E+02  0.51100000000E-03 0.  1.
         12    1    4    4    0    0 -0.30568134115E+01 -0.17604012546E+01 -0.65681411154E+01  0.74554408670E+01  0.00000000000E+00 0. -1.
</event>
<event>
 8    1  0.6019723E-011  0.9118800E+02  0.7816164E-02  0.1184000E+00
        -11   -1    0    0    0    0  0.00000000000E+00  0.00000000000E+00  0.45593999997E+02  0.45594000000E+02  0.51100000000E-03 0. -1.
         11   -1    0    0    0    0 -0.00000000000E+00 -0.00000000000E+00 -0.45593999997E+02  0.45594000000E+02  0.51100000000E-03 0.  1.
         23    2    1    2    0    0  0.00000000000E+00  0.00000000000E+00  0.00000000000E+00  0.91188000000E+02  0.91188000000E+02 0.  0.
    9900012    2    3    3    0    0 -0.38763087213E+02  0.79330906299E+01  0.17835709501E+02  0.47787269700E+02  0.19999993868E+02 0.  0.
        -12    1    3    3    0    0  0.38763087213E+02 -0.79330906299E+01 -0.17835709501E+02  0.43400730300E+02  0.00000000000E+00 0.  1.
         11    1    4    4    0    0 -0.37866625220E+02  0.76298763153E+01  0.11118172010E+02  0.40195896150E+02  0.51100000000E-03 0. -1.
        -11    1    4    4    0    0 -0.17759564551E+01  0.79640126076E+00  0.61137377432E+01  0.64160786897E+01  0.51100000000E-03 0.  1.
         12    1    4    4    0    0  0.87949446258E+00 -0.49318694624E+00  0.60379974695E+00  0.11752948601E+01  0.00000000000E+00 0. -1.
</event>
<event>
 8    1  0.6019723E-011  0.9118800E+02  0.7816164E-02  0.1184000E+00
        -11   -1    0    0    0    0  0.00000000000E+00  0.00000000000E+00  0.45593999997E+02  0.45594000000E+02  0.51100000000E-03 0. -1.
         11   -1    0    0    0    0 -0.00000000000E+00 -0.00000000000E+00 -0.45593999997E+02  0.45594000000E+02  0.51100000000E-03 0.  1.
         23    2    1    2    0    0  0.00000000000E+00  0.00000000000E+00 -0.35527136788E-14  0.91188000000E+02  0.91188000000E+02 0.  0.
    9900012    2    3    3    0    0  0.25248195645E+02 -0.16947370156E+02 -0.30966736534E+02  0.47787268323E+02  0.19999987591E+02 0.  0.
         12    1    3    3    0    0 -0.25248195645E+02  0.16947370156E+02  0.30966736534E+02  0.43400731677E+02  0.00000000000E+00 0. -1.
         11    1    4    4    0    0  0.15497370209E+02 -0.96244519799E+01 -0.23253345928E+02  0.29555315198E+02  0.51100000000E-03 0.  1.
        -11    1    4    4    0    0  0.44795637420E+01 -0.43674076696E+01  0.21915298077E+01  0.66289927011E+01  0.51100000000E-03 0. -1.
         12    1    4    4    0    0  0.52712616938E+01 -0.29555105065E+01 -0.99049204136E+01  0.11602960424E+02  0.00000000000E+00 0. -1.
</event>
<event>
 8    1  0.6019723E-011  0.9118800E+02  0.7816164E-02  0.1184000E+00
        -11   -1    0    0    0    0  0.00000000000E+00  0.00000000000E+00  0.45593999997E+02  0.45594000000E+02  0.51100000000E-03 0. -1.
         11   -1    0    0    0    0 -0.00000000000E+00 -0.00000000000E+00 -0.45593999997E+02  0.45594000000E+02  0.51100000000E-03 0.  1.
         23    2    1    2    0    0  0.00000000000E+00  0.00000000000E+00  0.00000000000E+00  0.91188000000E+02  0.91188000000E+02 0.  0.
    9900012    2    3    3    0    0  0.32056871124E+02 -0.16914169899E+02 -0.23872401894E+02  0.47787266114E+02  0.19999977520E+02 0.  0.
         12    1    3    3    0    0 -0.32056871124E+02  0.16914169899E+02  0.23872401894E+02  0.43400733886E+02  0.00000000000E+00 0. -1.
         11    1    4    4    0    0  0.21834974941E+02 -0.43479475742E+01 -0.19445952538E+02  0.29560376336E+02  0.51100000000E-03 0. -1.
        -11    1    4    4    0    0  0.71548125324E+01 -0.76696682416E+01  0.68699477137E+00  0.10511285144E+02  0.51100000000E-03 0.  1.
         12    1    4    4    0    0  0.30670836508E+01 -0.48965540827E+01 -0.51134441280E+01  0.77156046332E+01  0.00000000000E+00 0. -1.
</event>
<event>
 8    1  0.6019723E-011  0.9118800E+02  0.7816164E-02  0.1184000E+00
        -11   -1    0    0    0    0  0.00000000000E+00  0.00000000000E+00  0.45593999997E+02  0.45594000000E+02  0.51100000000E-03 0.  1.
         11   -1    0    0    0    0 -0.00000000000E+00 -0.00000000000E+00 -0.45593999997E+02  0.45594000000E+02  0.51100000000E-03 0. -1.
         23    2    1    2    0    0  0.00000000000E+00  0.00000000000E+00  0.17763568394E-14  0.91188000000E+02  0.91188000000E+02 0.  0.
    9900012    2    3    3    0    0 -0.76711235802E+01  0.40567643086E+02  0.13380657921E+02  0.47787287921E+02  0.20000076947E+02 0.  0.
         12    1    3    3    0    0  0.76711235802E+01 -0.40567643086E+02 -0.13380657921E+02  0.43400712079E+02  0.00000000000E+00 0. -1.
         11    1    4    4    0    0  0.24445932968E+01  0.22288191447E+02  0.31616806648E+01  0.22643668856E+02  0.51100000000E-03 0. -1.
        -11    1    4    4    0    0 -0.11088687978E+02  0.14548240748E+02  0.56077362243E+01  0.19132616542E+02  0.51100000000E-03 0.  1.
         12    1    4    4    0    0  0.97297110061E+00  0.37312108910E+01  0.46112410318E+01  0.60110025228E+01  0.00000000000E+00 0. -1.
</event>
<event>
 8    1  0.6019723E-011  0.9118800E+02  0.7816164E-02  0.1184000E+00
        -11   -1    0    0    0    0  0.00000000000E+00  0.00000000000E+00  0.45593999997E+02  0.45594000000E+02  0.51100000000E-03 0. -1.
         11   -1    0    0    0    0 -0.00000000000E+00 -0.00000000000E+00 -0.45593999997E+02  0.45594000000E+02  0.51100000000E-03 0.  1.
         23    2    1    2    0    0  0.17763568394E-14  0.00000000000E+00  0.00000000000E+00  0.91188000000E+02  0.91188000000E+02 0.  0.
    9900012    2    3    3    0    0  0.88883405103E+01 -0.17942523638E+02  0.38505669892E+02  0.47787269990E+02  0.19999995194E+02 0.  0.
        -12    1    3    3    0    0 -0.88883405103E+01  0.17942523638E+02 -0.38505669892E+02  0.43400730010E+02  0.00000000000E+00 0.  1.
         11    1    4    4    0    0  0.11073245985E+02 -0.13155964311E+02  0.19812438567E+02  0.26234117020E+02  0.51100000000E-03 0. -1.
        -11    1    4    4    0    0  0.21693325941E+01 -0.14577692411E+01  0.14277527047E+02  0.14514781222E+02  0.51100000000E-03 0.  1.
         12    1    4    4    0    0 -0.43542380692E+01 -0.33287900866E+01  0.44157042777E+01  0.70383717486E+01  0.00000000000E+00 0. -1.
</event>
<event>
 8    1  0.6019723E-011  0.9118800E+02  0.7816164E-02  0.1184000E+00
        -11   -1    0    0    0    0  0.00000000000E+00  0.00000000000E+00  0.45593999997E+02  0.45594000000E+02  0.51100000000E-03 0. -1.
         11   -1    0    0    0    0 -0.00000000000E+00 -0.00000000000E+00 -0.45593999997E+02  0.45594000000E+02  0.51100000000E-03 0.  1.
         23    2    1    2    0    0  0.00000000000E+00  0.88817841970E-15  0.00000000000E+00  0.91188000000E+02  0.91188000000E+02 0.  0.
    9900012    2    3    3    0    0 -0.27388962405E+02 -0.58939820300E+01 -0.33147069049E+02  0.47787280279E+02  0.20000042102E+02 0.  0.
         12    1    3    3    0    0  0.27388962405E+02  0.58939820300E+01  0.33147069049E+02  0.43400719721E+02  0.00000000000E+00 0. -1.
         11    1    4    4    0    0 -0.79684340218E+01  0.30882894703E+01 -0.90211292176E+00  0.85934440474E+01  0.51100000000E-03 0. -1.
        -11    1    4    4    0    0 -0.13124207672E+02 -0.91202950691E+01 -0.22996796995E+02  0.28004951017E+02  0.51100000000E-03 0.  1.
         12    1    4    4    0    0 -0.62963207108E+01  0.13802356886E+00 -0.92481591320E+01  0.11188885214E+02  0.00000000000E+00 0. -1.
</event>
<event>
 8    1  0.6019723E-011  0.9118800E+02  0.7816164E-02  0.1184000E+00
        -11   -1    0    0    0    0  0.00000000000E+00  0.00000000000E+00  0.45593999997E+02  0.45594000000E+02  0.51100000000E-03 0. -1.
         11   -1    0    0    0    0 -0.00000000000E+00 -0.00000000000E+00 -0.45593999997E+02  0.45594000000E+02  0.51100000000E-03 0.  1.
         23    2    1    2    0    0  0.71054273576E-14  0.00000000000E+00  0.00000000000E+00  0.91188000000E+02  0.91188000000E+02 0.  0.
    9900012    2    3    3    0    0 -0.36312778766E+02  0.12735279388E+02  0.20070314538E+02  0.47787276867E+02  0.20000026548E+02 0.  0.
        -12    1    3    3    0    0  0.36312778766E+02 -0.12735279388E+02 -0.20070314538E+02  0.43400723133E+02  0.00000000000E+00 0.  1.
         11    1    4    4    0    0 -0.26723614430E+02  0.15238688138E+02  0.16779661626E+02  0.35041778336E+02  0.51100000000E-03 0. -1.
        -11    1    4    4    0    0 -0.25838306957E+01 -0.43551888845E+01  0.12052919744E+01  0.52054375694E+01  0.51100000000E-03 0.  1.
        -12    1    4    4    0    0 -0.70053336400E+01  0.18517801345E+01  0.20853609379E+01  0.75400609623E+01  0.00000000000E+00 0.  1.
</event>
<event>
 8    1  0.6019723E-011  0.9118800E+02  0.7816164E-02  0.1184000E+00
        -11   -1    0    0    0    0  0.00000000000E+00  0.00000000000E+00  0.45593999997E+02  0.45594000000E+02  0.51100000000E-03 0. -1.
         11   -1    0    0    0    0 -0.00000000000E+00 -0.00000000000E+00 -0.45593999997E+02  0.45594000000E+02  0.51100000000E-03 0.  1.
         23    2    1    2    0    0  0.00000000000E+00  0.00000000000E+00  0.00000000000E+00  0.91188000000E+02  0.91188000000E+02 0.  0.
    9900012    2    3    3    0    0  0.35085584038E+02 -0.55833560617E+01  0.24928921931E+02  0.47787271656E+02  0.20000002788E+02 0.  0.
        -12    1    3    3    0    0 -0.35085584038E+02  0.55833560617E+01 -0.24928921931E+02  0.43400728344E+02  0.00000000000E+00 0.  1.
         11    1    4    4    0    0  0.57558907363E+01  0.13280246297E+01 -0.28798499941E+01  0.65717169625E+01  0.51100000000E-03 0. -1.
        -11    1    4    4    0    0  0.13939681905E+02 -0.54160986281E+01  0.13387076711E+02  0.20071439388E+02  0.51100000000E-03 0.  1.
         12    1    4    4    0    0  0.15390011396E+02 -0.14952820633E+01  0.14421695214E+02  0.21144115306E+02  0.00000000000E+00 0. -1.
</event>
<event>
 8    1  0.6019723E-011  0.9118800E+02  0.7816164E-02  0.1184000E+00
        -11   -1    0    0    0    0  0.00000000000E+00  0.00000000000E+00  0.45593999997E+02  0.45594000000E+02  0.51100000000E-03 0. -1.
         11   -1    0    0    0    0 -0.00000000000E+00 -0.00000000000E+00 -0.45593999997E+02  0.45594000000E+02  0.51100000000E-03 0.  1.
         23    2    1    2    0    0  0.44408920985E-15  0.71054273576E-14 -0.35527136788E-14  0.91188000000E+02  0.91188000000E+02 0.  0.
    9900012    2    3    3    0    0 -0.18190878496E+01 -0.37890901996E+02 -0.21085389308E+02  0.47787272161E+02  0.20000005091E+02 0.  0.
         12    1    3    3    0    0  0.18190878496E+01  0.37890901996E+02  0.21085389308E+02  0.43400727839E+02  0.00000000000E+00 0. -1.
         11    1    4    4    0    0 -0.26812749602E+01 -0.11874285905E+01 -0.55816363127E+01  0.63050682992E+01  0.51100000000E-03 0. -1.
        -11    1    4    4    0    0  0.60580931780E+01 -0.21769387876E+02 -0.79094619462E+01  0.23940892422E+02  0.51100000000E-03 0.  1.
        -12    1    4    4    0    0 -0.51959060674E+01 -0.14934085530E+02 -0.75942910494E+01  0.17541311440E+02  0.00000000000E+00 0.  1.
</event>
<event>
 8    1  0.6019723E-011  0.9118800E+02  0.7816164E-02  0.1184000E+00
        -11   -1    0    0    0    0  0.00000000000E+00  0.00000000000E+00  0.45593999997E+02  0.45594000000E+02  0.51100000000E-03 0. -1.
         11   -1    0    0    0    0 -0.00000000000E+00 -0.00000000000E+00 -0.45593999997E+02  0.45594000000E+02  0.51100000000E-03 0.  1.
         23    2    1    2    0    0  0.17763568394E-14  0.00000000000E+00  0.00000000000E+00  0.91188000000E+02  0.91188000000E+02 0.  0.
    9900012    2    3    3    0    0 -0.95723987763E+01 -0.14643313050E+02 -0.39718577625E+02  0.47787275997E+02  0.20000022581E+02 0.  0.
         12    1    3    3    0    0  0.95723987763E+01  0.14643313050E+02  0.39718577625E+02  0.43400724003E+02  0.00000000000E+00 0. -1.
         11    1    4    4    0    0 -0.78235642677E+01 -0.52929753844E+01 -0.60070783668E+01  0.11194138512E+02  0.51100000000E-03 0. -1.
        -11    1    4    4    0    0  0.38560945104E+01 -0.13234372784E+01 -0.14042554353E+02  0.14622389822E+02  0.51100000000E-03 0.  1.
        -12    1    4    4    0    0 -0.56049290190E+01 -0.80269003871E+01 -0.19668944906E+02  0.21970747662E+02  0.00000000000E+00 0.  1.
</event>
<event>
 8    1  0.6019723E-011  0.9118800E+02  0.7816164E-02  0.1184000E+00
        -11   -1    0    0    0    0  0.00000000000E+00  0.00000000000E+00  0.45593999997E+02  0.45594000000E+02  0.51100000000E-03 0. -1.
         11   -1    0    0    0    0 -0.00000000000E+00 -0.00000000000E+00 -0.45593999997E+02  0.45594000000E+02  0.51100000000E-03 0.  1.
         23    2    1    2    0    0  0.00000000000E+00  0.17763568394E-14 -0.35527136788E-14  0.91188000000E+02  0.91188000000E+02 0.  0.
    9900012    2    3    3    0    0 -0.34282118163E+02 -0.13750923460E+02  0.22787532620E+02  0.47787272303E+02  0.20000005738E+02 0.  0.
        -12    1    3    3    0    0  0.34282118163E+02  0.13750923460E+02 -0.22787532620E+02  0.43400727697E+02  0.00000000000E+00 0.  1.
         11    1    4    4    0    0 -0.25070234321E+02 -0.16078888809E+02  0.14432265902E+02  0.33095885145E+02  0.51100000000E-03 0. -1.
        -11    1    4    4    0    0  0.69252136564E+00  0.44074284121E+00  0.33227029359E+01  0.34226006421E+01  0.51100000000E-03 0.  1.
         12    1    4    4    0    0 -0.99044052078E+01  0.18872225075E+01  0.50325637823E+01  0.11268786516E+02  0.00000000000E+00 0. -1.
</event>
<event>
 8    1  0.6019723E-011  0.9118800E+02  0.7816164E-02  0.1184000E+00
        -11   -1    0    0    0    0  0.00000000000E+00  0.00000000000E+00  0.45593999997E+02  0.45594000000E+02  0.51100000000E-03 0. -1.
         11   -1    0    0    0    0 -0.00000000000E+00 -0.00000000000E+00 -0.45593999997E+02  0.45594000000E+02  0.51100000000E-03 0.  1.
         23    2    1    2    0    0  0.00000000000E+00  0.35527136788E-14  0.00000000000E+00  0.91188000000E+02  0.91188000000E+02 0.  0.
    9900012    2    3    3    0    0  0.19690657984E+02  0.27169733594E+02  0.27526474770E+02  0.47787271335E+02  0.20000001323E+02 0.  0.
        -12    1    3    3    0    0 -0.19690657984E+02 -0.27169733594E+02 -0.27526474770E+02  0.43400728665E+02  0.00000000000E+00 0.  1.
         11    1    4    4    0    0  0.44968396767E+01  0.72004657637E+01  0.10008386342E+02  0.13123874113E+02  0.51100000000E-03 0. -1.
        -11    1    4    4    0    0  0.47464365848E+01  0.74624164965E+01  0.16019109123E+02  0.18298310785E+02  0.51100000000E-03 0.  1.
        -12    1    4    4    0    0  0.10447381722E+02  0.12506851334E+02  0.14989793054E+01  0.16365086437E+02  0.00000000000E+00 0.  1.
</event>
<event>
 8    1  0.6019723E-011  0.9118800E+02  0.7816164E-02  0.1184000E+00
        -11   -1    0    0    0    0  0.00000000000E+00  0.00000000000E+00  0.45593999997E+02  0.45594000000E+02  0.51100000000E-03 0. -1.
         11   -1    0    0    0    0 -0.00000000000E+00 -0.00000000000E+00 -0.45593999997E+02  0.45594000000E+02  0.51100000000E-03 0.  1.
         23    2    1    2    0    0 -0.17763568394E-14  0.88817841970E-15  0.00000000000E+00  0.91188000000E+02  0.91188000000E+02 0.  0.
    9900012    2    3    3    0    0 -0.15006454669E+02 -0.49928820942E+01  0.40416591232E+02  0.47787269589E+02  0.19999993365E+02 0.  0.
        -12    1    3    3    0    0  0.15006454669E+02  0.49928820942E+01 -0.40416591232E+02  0.43400730411E+02  0.00000000000E+00 0.  1.
         11    1    4    4    0    0 -0.16711338435E+02 -0.56277939391E+01  0.36145500259E+02  0.40217385372E+02  0.51100000000E-03 0. -1.
        -11    1    4    4    0    0  0.26940165203E+01  0.18393369313E+01  0.49022730647E+01  0.58883925498E+01  0.51100000000E-03 0.  1.
        -12    1    4    4    0    0 -0.98913275492E+00 -0.12044250864E+01 -0.63118209139E+00  0.16814916676E+01  0.00000000000E+00 0.  1.
</event>
<event>
 8    1  0.6019723E-011  0.9118800E+02  0.7816164E-02  0.1184000E+00
        -11   -1    0    0    0    0  0.00000000000E+00  0.00000000000E+00  0.45593999997E+02  0.45594000000E+02  0.51100000000E-03 0. -1.
         11   -1    0    0    0    0 -0.00000000000E+00 -0.00000000000E+00 -0.45593999997E+02  0.45594000000E+02  0.51100000000E-03 0.  1.
         23    2    1    2    0    0  0.00000000000E+00  0.00000000000E+00  0.00000000000E+00  0.91188000000E+02  0.91188000000E+02 0.  0.
    9900012    2    3    3    0    0  0.30148221926E+02  0.26329660356E+02  0.16776693399E+02  0.47787265660E+02  0.19999975452E+02 0.  0.
        -12    1    3    3    0    0 -0.30148221926E+02 -0.26329660356E+02 -0.16776693399E+02  0.43400734340E+02  0.00000000000E+00 0.  1.
         11    1    4    4    0    0  0.21449719038E+02  0.21080829615E+02  0.73283393016E+01  0.30954747314E+02  0.51100000000E-03 0. -1.
        -11    1    4    4    0    0  0.72229897659E+01  0.40733506747E+01  0.12091309946E+01  0.83800814376E+01  0.51100000000E-03 0.  1.
         12    1    4    4    0    0  0.14755131225E+01  0.11754800665E+01  0.82392231032E+01  0.84524369093E+01  0.00000000000E+00 0. -1.
</event>
<event>
 8    1  0.6019723E-011  0.9118800E+02  0.7816164E-02  0.1184000E+00
        -11   -1    0    0    0    0  0.00000000000E+00  0.00000000000E+00  0.45593999997E+02  0.45594000000E+02  0.51100000000E-03 0. -1.
         11   -1    0    0    0    0 -0.00000000000E+00 -0.00000000000E+00 -0.45593999997E+02  0.45594000000E+02  0.51100000000E-03 0.  1.
         23    2    1    2    0    0  0.17763568394E-14  0.35527136788E-14  0.00000000000E+00  0.91188000000E+02  0.91188000000E+02 0.  0.
    9900012    2    3    3    0    0  0.15095934025E+02  0.28809546390E+02 -0.28735826106E+02  0.47787252434E+02  0.19999915146E+02 0.  0.
         12    1    3    3    0    0 -0.15095934025E+02 -0.28809546390E+02  0.28735826106E+02  0.43400747566E+02  0.00000000000E+00 0. -1.
         11    1    4    4    0    0 -0.25454761454E+01 -0.40554189917E+00 -0.31320930752E+00  0.25965387288E+01  0.51100000000E-03 0. -1.
        -11    1    4    4    0    0  0.18560344186E+02  0.27337791172E+02 -0.26692436268E+02  0.42477374644E+02  0.51100000000E-03 0.  1.
        -12    1    4    4    0    0 -0.91893401542E+00  0.18772971172E+01 -0.17301805308E+01  0.27133390611E+01  0.00000000000E+00 0.  1.
</event>
<event>
 8    1  0.6019723E-011  0.9118800E+02  0.7816164E-02  0.1184000E+00
        -11   -1    0    0    0    0  0.00000000000E+00  0.00000000000E+00  0.45593999997E+02  0.45594000000E+02  0.51100000000E-03 0. -1.
         11   -1    0    0    0    0 -0.00000000000E+00 -0.00000000000E+00 -0.45593999997E+02  0.45594000000E+02  0.51100000000E-03 0.  1.
         23    2    1    2    0    0  0.44408920985E-15  0.71054273576E-14  0.35527136788E-14  0.91188000000E+02  0.91188000000E+02 0.  0.
    9900012    2    3    3    0    0 -0.36493740759E+01 -0.33733355872E+02 -0.27062260755E+02  0.47787272049E+02  0.20000004578E+02 0.  0.
         12    1    3    3    0    0  0.36493740759E+01  0.33733355872E+02  0.27062260755E+02  0.43400727951E+02  0.00000000000E+00 0. -1.
         11    1    4    4    0    0 -0.37978673540E+01 -0.52603841807E+01 -0.13293934668E+02  0.14792705546E+02  0.51100000000E-03 0. -1.
        -11    1    4    4    0    0  0.13289994386E+01 -0.15042616559E+02 -0.12215477466E+02  0.19423296384E+02  0.51100000000E-03 0.  1.
         12    1    4    4    0    0 -0.11805061605E+01 -0.13430355132E+02 -0.15528486212E+01  0.13571270118E+02  0.00000000000E+00 0. -1.
</event>
<event>
 8    1  0.6019723E-011  0.9118800E+02  0.7816164E-02  0.1184000E+00
        -11   -1    0    0    0    0  0.00000000000E+00  0.00000000000E+00  0.45593999997E+02  0.45594000000E+02  0.51100000000E-03 0. -1.
         11   -1    0    0    0    0 -0.00000000000E+00 -0.00000000000E+00 -0.45593999997E+02  0.45594000000E+02  0.51100000000E-03 0.  1.
         23    2    1    2    0    0  0.00000000000E+00  0.00000000000E+00  0.00000000000E+00  0.91188000000E+02  0.91188000000E+02 0.  0.
    9900012    2    3    3    0    0 -0.11913646634E+02  0.35085018692E+02 -0.22599324373E+02  0.47787274490E+02  0.20000015708E+02 0.  0.
         12    1    3    3    0    0  0.11913646634E+02 -0.35085018692E+02  0.22599324373E+02  0.43400725510E+02  0.00000000000E+00 0. -1.
         11    1    4    4    0    0 -0.11073462310E+02  0.86902006655E+01 -0.76455229648E+01  0.16018588477E+02  0.51100000000E-03 0. -1.
        -11    1    4    4    0    0  0.12978553476E+01  0.12747887962E+02 -0.22659767461E+01  0.13012598775E+02  0.51100000000E-03 0.  1.
        -12    1    4    4    0    0 -0.21380396714E+01  0.13646930064E+02 -0.12687824662E+02  0.18756087238E+02  0.00000000000E+00 0.  1.
</event>
<event>
 8    1  0.6019723E-011  0.9118800E+02  0.7816164E-02  0.1184000E+00
        -11   -1    0    0    0    0  0.00000000000E+00  0.00000000000E+00  0.45593999997E+02  0.45594000000E+02  0.51100000000E-03 0. -1.
         11   -1    0    0    0    0 -0.00000000000E+00 -0.00000000000E+00 -0.45593999997E+02  0.45594000000E+02  0.51100000000E-03 0.  1.
         23    2    1    2    0    0  0.00000000000E+00  0.00000000000E+00  0.17763568394E-14  0.91188000000E+02  0.91188000000E+02 0.  0.
    9900012    2    3    3    0    0  0.41231252908E+02  0.86542640367E+01  0.10426443233E+02  0.47787271655E+02  0.20000002784E+02 0.  0.
         12    1    3    3    0    0 -0.41231252908E+02 -0.86542640367E+01 -0.10426443233E+02  0.43400728345E+02  0.00000000000E+00 0. -1.
         11    1    4    4    0    0  0.48662953158E+01  0.60974339269E+01 -0.77801399585E+00  0.78399513157E+01  0.51100000000E-03 0. -1.
        -11    1    4    4    0    0  0.23967769734E+02  0.15652805230E+01  0.13112588238E+02  0.27365015252E+02  0.51100000000E-03 0.  1.
        -12    1    4    4    0    0  0.12397187858E+02  0.99154958680E+00 -0.19081310095E+01  0.12582305088E+02  0.00000000000E+00 0.  1.
</event>
<event>
 8    1  0.6019723E-011  0.9118800E+02  0.7816164E-02  0.1184000E+00
        -11   -1    0    0    0    0  0.00000000000E+00  0.00000000000E+00  0.45593999997E+02  0.45594000000E+02  0.51100000000E-03 0. -1.
         11   -1    0    0    0    0 -0.00000000000E+00 -0.00000000000E+00 -0.45593999997E+02  0.45594000000E+02  0.51100000000E-03 0.  1.
         23    2    1    2    0    0 -0.22204460493E-15 -0.14210854715E-13  0.00000000000E+00  0.91188000000E+02  0.91188000000E+02 0.  0.
    9900012    2    3    3    0    0 -0.39058514907E+00 -0.43035184923E+02 -0.56074741423E+01  0.47787268849E+02  0.19999989992E+02 0.  0.
        -12    1    3    3    0    0  0.39058514907E+00  0.43035184923E+02  0.56074741423E+01  0.43400731151E+02  0.00000000000E+00 0.  1.
         11    1    4    4    0    0 -0.15255813077E+01 -0.38048174605E+02 -0.71288067977E+01  0.38740300408E+02  0.51100000000E-03 0. -1.
        -11    1    4    4    0    0 -0.91350415512E+00  0.16460740075E+01 -0.20399092048E+00  0.18935844413E+01  0.51100000000E-03 0.  1.
        -12    1    4    4    0    0  0.20485003137E+01 -0.66330843256E+01  0.17253235758E+01  0.71533839997E+01  0.00000000000E+00 0.  1.
</event>
<event>
 8    1  0.6019723E-011  0.9118800E+02  0.7816164E-02  0.1184000E+00
        -11   -1    0    0    0    0  0.00000000000E+00  0.00000000000E+00  0.45593999997E+02  0.45594000000E+02  0.51100000000E-03 0. -1.
         11   -1    0    0    0    0 -0.00000000000E+00 -0.00000000000E+00 -0.45593999997E+02  0.45594000000E+02  0.51100000000E-03 0.  1.
         23    2    1    2    0    0 -0.44408920985E-15 -0.35527136788E-14  0.00000000000E+00  0.91188000000E+02  0.91188000000E+02 0.  0.
    9900012    2    3    3    0    0 -0.15553055778E+01 -0.26879459786E+02  0.34039669211E+02  0.47787269432E+02  0.19999992650E+02 0.  0.
        -12    1    3    3    0    0  0.15553055778E+01  0.26879459786E+02 -0.34039669211E+02  0.43400730568E+02  0.00000000000E+00 0.  1.
         11    1    4    4    0    0  0.46825875182E+01 -0.11331605700E+02  0.24882565238E+02  0.27739393769E+02  0.51100000000E-03 0. -1.
        -11    1    4    4    0    0 -0.73509074552E+00  0.48544895731E+00  0.52035113728E+00  0.10231249491E+01  0.51100000000E-03 0.  1.
         12    1    4    4    0    0 -0.55028023505E+01 -0.16033303043E+02  0.86367528356E+01  0.19024750714E+02  0.00000000000E+00 0. -1.
</event>
<event>
 8    1  0.6493826E-011  0.9118800E+02  0.7816164E-02  0.1184000E+00
        -11   -1    0    0    0    0  0.00000000000E+00  0.00000000000E+00  0.45593999997E+02  0.45594000000E+02  0.51100000000E-03 0. -1.
         11   -1    0    0    0    0 -0.00000000000E+00 -0.00000000000E+00 -0.45593999997E+02  0.45594000000E+02  0.51100000000E-03 0.  1.
         23    2    1    2    0    0  0.00000000000E+00  0.00000000000E+00  0.00000000000E+00  0.91188000000E+02  0.91188000000E+02 0.  0.
    9900012    2    3    3    0    0 -0.22172776088E+02  0.61368893338E+01 -0.36801219481E+02  0.47787272294E+02  0.20000005697E+02 0.  0.
         12    1    3    3    0    0  0.22172776088E+02 -0.61368893338E+01  0.36801219481E+02  0.43400727706E+02  0.00000000000E+00 0. -1.
         11    1    4    4    0    0 -0.21756712209E+01 -0.20836179243E+01 -0.16278052146E+02  0.16554455317E+02  0.51100000000E-03 0. -1.
        -11    1    4    4    0    0 -0.70774538552E+01  0.24029288648E+01 -0.13471470651E+02  0.15406003439E+02  0.51100000000E-03 0.  1.
         12    1    4    4    0    0 -0.12919651012E+02  0.58175783933E+01 -0.70516966836E+01  0.15826813538E+02  0.00000000000E+00 0. -1.
</event>
<event>
 8    1  0.6019723E-011  0.9118800E+02  0.7816164E-02  0.1184000E+00
        -11   -1    0    0    0    0  0.00000000000E+00  0.00000000000E+00  0.45593999997E+02  0.45594000000E+02  0.51100000000E-03 0. -1.
         11   -1    0    0    0    0 -0.00000000000E+00 -0.00000000000E+00 -0.45593999997E+02  0.45594000000E+02  0.51100000000E-03 0.  1.
         23    2    1    2    0    0  0.00000000000E+00  0.17763568394E-14 -0.17763568394E-14  0.91188000000E+02  0.91188000000E+02 0.  0.
    9900012    2    3    3    0    0  0.40258680906E+02  0.10659404097E+02 -0.12216323400E+02  0.47787276027E+02  0.20000022716E+02 0.  0.
         12    1    3    3    0    0 -0.40258680906E+02 -0.10659404097E+02  0.12216323400E+02  0.43400723973E+02  0.00000000000E+00 0. -1.
         11    1    4    4    0    0  0.29138784061E+02  0.42017584016E+01 -0.16682221891E+01  0.29487395202E+02  0.51100000000E-03 0. -1.
        -11    1    4    4    0    0  0.56452428776E+01  0.63435765153E-01 -0.74114212724E+01  0.93167567738E+01  0.51100000000E-03 0.  1.
        -12    1    4    4    0    0  0.54746539670E+01  0.63942099299E+01 -0.31366799386E+01  0.89831240514E+01  0.00000000000E+00 0.  1.
</event>
<event>
 8    1  0.6019723E-011  0.9118800E+02  0.7816164E-02  0.1184000E+00
        -11   -1    0    0    0    0  0.00000000000E+00  0.00000000000E+00  0.45593999997E+02  0.45594000000E+02  0.51100000000E-03 0.  1.
         11   -1    0    0    0    0 -0.00000000000E+00 -0.00000000000E+00 -0.45593999997E+02  0.45594000000E+02  0.51100000000E-03 0. -1.
         23    2    1    2    0    0  0.71054273576E-14  0.17763568394E-14  0.00000000000E+00  0.91188000000E+02  0.91188000000E+02 0.  0.
    9900012    2    3    3    0    0 -0.39739328639E+02 -0.11594903556E+02 -0.13037139118E+02  0.47787273905E+02  0.20000013043E+02 0.  0.
         12    1    3    3    0    0  0.39739328639E+02  0.11594903556E+02  0.13037139118E+02  0.43400726095E+02  0.00000000000E+00 0. -1.
         11    1    4    4    0    0 -0.20076318883E+01  0.89860889475E+00  0.15069224492E+01  0.26662519149E+01  0.51100000000E-03 0. -1.
        -11    1    4    4    0    0 -0.19186162906E+02  0.18228168387E+01 -0.60396508083E+01  0.20196754453E+02  0.51100000000E-03 0.  1.
        -12    1    4    4    0    0 -0.18545533845E+02 -0.14316329289E+02 -0.85044107593E+01  0.24924267537E+02  0.00000000000E+00 0.  1.
</event>
<event>
 8    1  0.6019723E-011  0.9118800E+02  0.7816164E-02  0.1184000E+00
        -11   -1    0    0    0    0  0.00000000000E+00  0.00000000000E+00  0.45593999997E+02  0.45594000000E+02  0.51100000000E-03 0. -1.
         11   -1    0    0    0    0 -0.00000000000E+00 -0.00000000000E+00 -0.45593999997E+02  0.45594000000E+02  0.51100000000E-03 0.  1.
         23    2    1    2    0    0  0.00000000000E+00  0.00000000000E+00 -0.35527136788E-14  0.91188000000E+02  0.91188000000E+02 0.  0.
    9900012    2    3    3    0    0 -0.16160670021E+02  0.34985680744E+02 -0.19961419706E+02  0.47787269714E+02  0.19999993933E+02 0.  0.
         12    1    3    3    0    0  0.16160670021E+02 -0.34985680744E+02  0.19961419706E+02  0.43400730286E+02  0.00000000000E+00 0. -1.
         11    1    4    4    0    0 -0.19033583664E+01  0.81014644612E+00  0.22734202464E+01  0.30736867461E+01  0.51100000000E-03 0. -1.
        -11    1    4    4    0    0 -0.69760071170E+01  0.28469984681E+02 -0.14749196759E+02  0.32813770103E+02  0.51100000000E-03 0.  1.
        -12    1    4    4    0    0 -0.72813045375E+01  0.57055496169E+01 -0.74856431940E+01  0.11899812865E+02  0.00000000000E+00 0.  1.
</event>
<event>
 8    1  0.6019723E-011  0.9118800E+02  0.7816164E-02  0.1184000E+00
        -11   -1    0    0    0    0  0.00000000000E+00  0.00000000000E+00  0.45593999997E+02  0.45594000000E+02  0.51100000000E-03 0. -1.
         11   -1    0    0    0    0 -0.00000000000E+00 -0.00000000000E+00 -0.45593999997E+02  0.45594000000E+02  0.51100000000E-03 0.  1.
         23    2    1    2    0    0  0.00000000000E+00  0.00000000000E+00 -0.35527136788E-14  0.91188000000E+02  0.91188000000E+02 0.  0.
    9900012    2    3    3    0    0 -0.19984713705E+02  0.23030253092E+02  0.30884331335E+02  0.47787271188E+02  0.20000000655E+02 0.  0.
        -12    1    3    3    0    0  0.19984713705E+02 -0.23030253092E+02 -0.30884331335E+02  0.43400728812E+02  0.00000000000E+00 0.  1.
         11    1    4    4    0    0 -0.63383727000E+01  0.52417256562E+01  0.15633196732E+02  0.17664866166E+02  0.51100000000E-03 0. -1.
        -11    1    4    4    0    0 -0.43989029862E+01  0.98179847513E+01  0.22348867830E+00  0.10760721143E+02  0.51100000000E-03 0.  1.
        -12    1    4    4    0    0 -0.92474380190E+01  0.79705426849E+01  0.15027645925E+02  0.19361683880E+02  0.00000000000E+00 0.  1.
</event>
<event>
 8    1  0.6019723E-011  0.9118800E+02  0.7816164E-02  0.1184000E+00
        -11   -1    0    0    0    0  0.00000000000E+00  0.00000000000E+00  0.45593999997E+02  0.45594000000E+02  0.51100000000E-03 0. -1.
         11   -1    0    0    0    0 -0.00000000000E+00 -0.00000000000E+00 -0.45593999997E+02  0.45594000000E+02  0.51100000000E-03 0.  1.
         23    2    1    2    0    0  0.35527136788E-14  0.35527136788E-14  0.35527136788E-14  0.91188000000E+02  0.91188000000E+02 0.  0.
    9900012    2    3    3    0    0 -0.24992004433E+02 -0.19904610303E+02 -0.29373961862E+02  0.47787269218E+02  0.19999991673E+02 0.  0.
         12    1    3    3    0    0  0.24992004433E+02  0.19904610303E+02  0.29373961862E+02  0.43400730782E+02  0.00000000000E+00 0. -1.
         11    1    4    4    0    0  0.78970566370E+00 -0.58728423911E+00  0.10725111976E+00  0.98997013924E+00  0.51100000000E-03 0. -1.
        -11    1    4    4    0    0  0.57113398201E+00  0.15169579811E+01 -0.49265376682E+01  0.51863406367E+01  0.51100000000E-03 0.  1.
        -12    1    4    4    0    0 -0.26352844079E+02 -0.20834284045E+02 -0.24554675314E+02  0.41610958442E+02  0.00000000000E+00 0.  1.
</event>
<event>
 8    1  0.6019723E-011  0.9118800E+02  0.7816164E-02  0.1184000E+00
        -11   -1    0    0    0    0  0.00000000000E+00  0.00000000000E+00  0.45593999997E+02  0.45594000000E+02  0.51100000000E-03 0. -1.
         11   -1    0    0    0    0 -0.00000000000E+00 -0.00000000000E+00 -0.45593999997E+02  0.45594000000E+02  0.51100000000E-03 0.  1.
         23    2    1    2    0    0  0.00000000000E+00  0.17763568394E-14  0.17763568394E-14  0.91188000000E+02  0.91188000000E+02 0.  0.
    9900012    2    3    3    0    0 -0.41204833857E+02  0.10605027037E+02  0.85625015449E+01  0.47787293043E+02  0.20000100300E+02 0.  0.
        -12    1    3    3    0    0  0.41204833857E+02 -0.10605027037E+02 -0.85625015449E+01  0.43400706957E+02  0.00000000000E+00 0.  1.
         11    1    4    4    0    0 -0.23596386048E+02  0.14135770026E+02  0.10783851145E+02  0.29544895913E+02  0.51100000000E-03 0. -1.
        -11    1    4    4    0    0 -0.11458610466E+02 -0.29076929832E+01 -0.52905589415E+00  0.11833610299E+02  0.51100000000E-03 0.  1.
         12    1    4    4    0    0 -0.61498373431E+01 -0.62305000565E+00 -0.16922937060E+01  0.64087868308E+01  0.00000000000E+00 0. -1.
</event>
<event>
 8    1  0.6019723E-011  0.9118800E+02  0.7816164E-02  0.1184000E+00
        -11   -1    0    0    0    0  0.00000000000E+00  0.00000000000E+00  0.45593999997E+02  0.45594000000E+02  0.51100000000E-03 0. -1.
         11   -1    0    0    0    0 -0.00000000000E+00 -0.00000000000E+00 -0.45593999997E+02  0.45594000000E+02  0.51100000000E-03 0.  1.
         23    2    1    2    0    0 -0.17763568394E-14  0.88817841970E-15  0.00000000000E+00  0.91188000000E+02  0.91188000000E+02 0.  0.
    9900012    2    3    3    0    0  0.12015821832E+02 -0.73274612052E+01  0.41055469152E+02  0.47787271788E+02  0.20000003391E+02 0.  0.
        -12    1    3    3    0    0 -0.12015821832E+02  0.73274612052E+01 -0.41055469152E+02  0.43400728212E+02  0.00000000000E+00 0.  1.
         11    1    4    4    0    0  0.87406852775E+01  0.16810374207E+00  0.34553832986E+02  0.35642603893E+02  0.51100000000E-03 0. -1.
        -11    1    4    4    0    0  0.66473642705E+00 -0.47465746832E+01  0.68251781722E+01  0.83399582184E+01  0.51100000000E-03 0.  1.
         12    1    4    4    0    0  0.26104001270E+01 -0.27489902640E+01 -0.32354200595E+00  0.38047096768E+01  0.00000000000E+00 0. -1.
</event>
<event>
 8    1  0.6019723E-011  0.9118800E+02  0.7816164E-02  0.1184000E+00
        -11   -1    0    0    0    0  0.00000000000E+00  0.00000000000E+00  0.45593999997E+02  0.45594000000E+02  0.51100000000E-03 0. -1.
         11   -1    0    0    0    0 -0.00000000000E+00 -0.00000000000E+00 -0.45593999997E+02  0.45594000000E+02  0.51100000000E-03 0.  1.
         23    2    1    2    0    0  0.17763568394E-14  0.35527136788E-14  0.00000000000E+00  0.91188000000E+02  0.91188000000E+02 0.  0.
    9900012    2    3    3    0    0  0.15684320561E+02 -0.28597701725E+02 -0.28632093163E+02  0.47787271730E+02  0.20000003127E+02 0.  0.
         12    1    3    3    0    0 -0.15684320561E+02  0.28597701725E+02  0.28632093163E+02  0.43400728270E+02  0.00000000000E+00 0. -1.
         11    1    4    4    0    0  0.53088137477E+01 -0.67876959612E+01 -0.30196859238E+01  0.91309815030E+01  0.51100000000E-03 0. -1.
        -11    1    4    4    0    0  0.80448943553E+01 -0.13409977801E+01 -0.93686263257E+01  0.12421342912E+02  0.51100000000E-03 0.  1.
        -12    1    4    4    0    0  0.23306124579E+01 -0.20469007984E+02 -0.16243780914E+02  0.26234947316E+02  0.00000000000E+00 0.  1.
</event>
<event>
 8    1  0.6019723E-011  0.9118800E+02  0.7816164E-02  0.1184000E+00
        -11   -1    0    0    0    0  0.00000000000E+00  0.00000000000E+00  0.45593999997E+02  0.45594000000E+02  0.51100000000E-03 0. -1.
         11   -1    0    0    0    0 -0.00000000000E+00 -0.00000000000E+00 -0.45593999997E+02  0.45594000000E+02  0.51100000000E-03 0.  1.
         23    2    1    2    0    0  0.00000000000E+00  0.00000000000E+00  0.00000000000E+00  0.91188000000E+02  0.91188000000E+02 0.  0.
    9900012    2    3    3    0    0  0.81189000287E+01  0.28897704884E+02 -0.31346919996E+02  0.47787270992E+02  0.19999999759E+02 0.  0.
         12    1    3    3    0    0 -0.81189000287E+01 -0.28897704884E+02  0.31346919996E+02  0.43400729008E+02  0.00000000000E+00 0. -1.
         11    1    4    4    0    0 -0.12812641990E+01  0.38378121419E+01 -0.32996495574E+01  0.52209316647E+01  0.51100000000E-03 0. -1.
        -11    1    4    4    0    0 -0.34229363770E+01  0.14160314651E+02 -0.88890173712E+01  0.17065920266E+02  0.51100000000E-03 0.  1.
        -12    1    4    4    0    0  0.12823100605E+02  0.10899578091E+02 -0.19158253067E+02  0.25500419061E+02  0.00000000000E+00 0.  1.
</event>
<event>
 8    1  0.6019723E-011  0.9118800E+02  0.7816164E-02  0.1184000E+00
        -11   -1    0    0    0    0  0.00000000000E+00  0.00000000000E+00  0.45593999997E+02  0.45594000000E+02  0.51100000000E-03 0.  1.
         11   -1    0    0    0    0 -0.00000000000E+00 -0.00000000000E+00 -0.45593999997E+02  0.45594000000E+02  0.51100000000E-03 0. -1.
         23    2    1    2    0    0  0.71054273576E-14  0.00000000000E+00 -0.17763568394E-14  0.91188000000E+02  0.91188000000E+02 0.  0.
    9900012    2    3    3    0    0  0.37060605085E+02 -0.19040723094E+02 -0.12148507347E+02  0.47787264799E+02  0.19999971524E+02 0.  0.
         12    1    3    3    0    0 -0.37060605085E+02  0.19040723094E+02  0.12148507347E+02  0.43400735201E+02  0.00000000000E+00 0. -1.
         11    1    4    4    0    0  0.25843048858E+02 -0.85041209044E+01 -0.61930682643E+01  0.27902282011E+02  0.51100000000E-03 0. -1.
        -11    1    4    4    0    0 -0.13159963693E+01 -0.76141926817E+00  0.16676736760E+01  0.22567103263E+01  0.51100000000E-03 0.  1.
         12    1    4    4    0    0  0.12533552596E+02 -0.97751829217E+01 -0.76231127586E+01  0.17628272461E+02  0.00000000000E+00 0. -1.
</event>
<event>
 8    1  0.6019723E-011  0.9118800E+02  0.7816164E-02  0.1184000E+00
        -11   -1    0    0    0    0  0.00000000000E+00  0.00000000000E+00  0.45593999997E+02  0.45594000000E+02  0.51100000000E-03 0. -1.
         11   -1    0    0    0    0 -0.00000000000E+00 -0.00000000000E+00 -0.45593999997E+02  0.45594000000E+02  0.51100000000E-03 0.  1.
         23    2    1    2    0    0  0.00000000000E+00 -0.17763568394E-14  0.00000000000E+00  0.91188000000E+02  0.91188000000E+02 0.  0.
    9900012    2    3    3    0    0 -0.17764615684E+02 -0.15234370747E+02  0.36550724241E+02  0.47787273450E+02  0.20000010970E+02 0.  0.
        -12    1    3    3    0    0  0.17764615684E+02  0.15234370747E+02 -0.36550724241E+02  0.43400726550E+02  0.00000000000E+00 0.  1.
         11    1    4    4    0    0 -0.90791218976E+01 -0.15612583813E+02  0.27917515586E+02  0.33250126383E+02  0.51100000000E-03 0. -1.
        -11    1    4    4    0    0 -0.65106859311E+01  0.98026605295E-01  0.99079339936E+00  0.65863732304E+01  0.51100000000E-03 0.  1.
         12    1    4    4    0    0 -0.21748078553E+01  0.28018646011E+00  0.76424152562E+01  0.79507738371E+01  0.00000000000E+00 0. -1.
</event>
<event>
 8    1  0.6019723E-011  0.9118800E+02  0.7816164E-02  0.1184000E+00
        -11   -1    0    0    0    0  0.00000000000E+00  0.00000000000E+00  0.45593999997E+02  0.45594000000E+02  0.51100000000E-03 0. -1.
         11   -1    0    0    0    0 -0.00000000000E+00 -0.00000000000E+00 -0.45593999997E+02  0.45594000000E+02  0.51100000000E-03 0.  1.
         23    2    1    2    0    0  0.00000000000E+00  0.24980018054E-15  0.00000000000E+00  0.91188000000E+02  0.91188000000E+02 0.  0.
    9900012    2    3    3    0    0  0.33467070541E+02 -0.81761156301E-01  0.27632815798E+02  0.47787262628E+02  0.19999961628E+02 0.  0.
        -12    1    3    3    0    0 -0.33467070541E+02  0.81761156301E-01 -0.27632815798E+02  0.43400737372E+02  0.00000000000E+00 0.  1.
         11    1    4    4    0    0  0.13208525950E+02 -0.16122600326E+01  0.20362903116E+02  0.24325138514E+02  0.51100000000E-03 0. -1.
        -11    1    4    4    0    0  0.60109465298E+01  0.47806857710E+01  0.28938776391E+01  0.82073724587E+01  0.51100000000E-03 0.  1.
         12    1    4    4    0    0  0.14247598061E+02 -0.32501868946E+01  0.43760350427E+01  0.15254751655E+02  0.00000000000E+00 0. -1.
</event>
<event>
 8    1  0.6019723E-011  0.9118800E+02  0.7816164E-02  0.1184000E+00
        -11   -1    0    0    0    0  0.00000000000E+00  0.00000000000E+00  0.45593999997E+02  0.45594000000E+02  0.51100000000E-03 0. -1.
         11   -1    0    0    0    0 -0.00000000000E+00 -0.00000000000E+00 -0.45593999997E+02  0.45594000000E+02  0.51100000000E-03 0.  1.
         23    2    1    2    0    0  0.88817841970E-15  0.00000000000E+00  0.00000000000E+00  0.91188000000E+02  0.91188000000E+02 0.  0.
    9900012    2    3    3    0    0  0.13159973690E+01  0.32970337872E+02  0.28193052359E+02  0.47787271552E+02  0.20000002314E+02 0.  0.
        -12    1    3    3    0    0 -0.13159973690E+01 -0.32970337872E+02 -0.28193052359E+02  0.43400728448E+02  0.00000000000E+00 0.  1.
         11    1    4    4    0    0  0.66945715602E+01  0.20670140847E+02  0.12319622782E+02  0.24976891655E+02  0.51100000000E-03 0. -1.
        -11    1    4    4    0    0 -0.75918128889E+01  0.90020104097E+01  0.88098552021E+01  0.14706643509E+02  0.51100000000E-03 0.  1.
         12    1    4    4    0    0  0.22132386977E+01  0.32981866154E+01  0.70635743757E+01  0.81037363878E+01  0.00000000000E+00 0. -1.
</event>
<event>
 8    1  0.6019723E-011  0.9118800E+02  0.7816164E-02  0.1184000E+00
        -11   -1    0    0    0    0  0.00000000000E+00  0.00000000000E+00  0.45593999997E+02  0.45594000000E+02  0.51100000000E-03 0. -1.
         11   -1    0    0    0    0 -0.00000000000E+00 -0.00000000000E+00 -0.45593999997E+02  0.45594000000E+02  0.51100000000E-03 0.  1.
         23    2    1    2    0    0  0.00000000000E+00 -0.35527136788E-14 -0.71054273576E-14  0.91188000000E+02  0.91188000000E+02 0.  0.
    9900012    2    3    3    0    0  0.21512662397E+02 -0.17260477441E+02 -0.33509821968E+02  0.47787229347E+02  0.19999809884E+02 0.  0.
         12    1    3    3    0    0 -0.21512662397E+02  0.17260477441E+02  0.33509821968E+02  0.43400770653E+02  0.00000000000E+00 0. -1.
         11    1    4    4    0    0  0.11790432172E+02 -0.43608624362E+01 -0.35372561622E+01  0.13059234029E+02  0.51100000000E-03 0. -1.
        -11    1    4    4    0    0  0.69762933316E+01 -0.11809286038E+02 -0.19458773166E+02  0.23806968702E+02  0.51100000000E-03 0.  1.
         12    1    4    4    0    0  0.27459368934E+01 -0.10903289666E+01 -0.10513792640E+02  0.10921026616E+02  0.00000000000E+00 0. -1.
</event>
<event>
 8    1  0.6019723E-011  0.9118800E+02  0.7816164E-02  0.1184000E+00
        -11   -1    0    0    0    0  0.00000000000E+00  0.00000000000E+00  0.45593999997E+02  0.45594000000E+02  0.51100000000E-03 0. -1.
         11   -1    0    0    0    0 -0.00000000000E+00 -0.00000000000E+00 -0.45593999997E+02  0.45594000000E+02  0.51100000000E-03 0.  1.
         23    2    1    2    0    0 -0.44408920985E-15  0.88817841970E-15  0.00000000000E+00  0.91188000000E+02  0.91188000000E+02 0.  0.
    9900012    2    3    3    0    0 -0.15931296824E+01 -0.77338078062E+01 -0.42676380013E+02  0.47787271246E+02  0.20000000921E+02 0.  0.
         12    1    3    3    0    0  0.15931296824E+01  0.77338078062E+01  0.42676380013E+02  0.43400728754E+02  0.00000000000E+00 0. -1.
         11    1    4    4    0    0  0.30595943402E-01  0.30321986224E+01 -0.79914710126E+00  0.31358891798E+01  0.51100000000E-03 0. -1.
        -11    1    4    4    0    0  0.23709847586E+01 -0.11069692542E+02 -0.27841657651E+02  0.30055241850E+02  0.51100000000E-03 0.  1.
        -12    1    4    4    0    0 -0.39947103844E+01  0.30368611310E+00 -0.14035575261E+02  0.14596140216E+02  0.00000000000E+00 0.  1.
</event>
<event>
 8    1  0.6019723E-011  0.9118800E+02  0.7816164E-02  0.1184000E+00
        -11   -1    0    0    0    0  0.00000000000E+00  0.00000000000E+00  0.45593999997E+02  0.45594000000E+02  0.51100000000E-03 0. -1.
         11   -1    0    0    0    0 -0.00000000000E+00 -0.00000000000E+00 -0.45593999997E+02  0.45594000000E+02  0.51100000000E-03 0.  1.
         23    2    1    2    0    0 -0.26367796835E-15  0.00000000000E+00  0.00000000000E+00  0.91188000000E+02  0.91188000000E+02 0.  0.
    9900012    2    3    3    0    0  0.84438470488E-01  0.40335612667E+02  0.16020382274E+02  0.47787292318E+02  0.20000096995E+02 0.  0.
        -12    1    3    3    0    0 -0.84438470488E-01 -0.40335612667E+02 -0.16020382274E+02  0.43400707682E+02  0.00000000000E+00 0.  1.
         11    1    4    4    0    0 -0.98839118951E+00  0.33240277697E+02  0.10836709780E+02  0.34976095517E+02  0.51100000000E-03 0. -1.
        -11    1    4    4    0    0  0.35466757258E+01 -0.62928529693E+00  0.14726361737E+01  0.38914735320E+01  0.51100000000E-03 0.  1.
        -12    1    4    4    0    0 -0.24738460659E+01  0.77246202673E+01  0.37110363195E+01  0.89197232690E+01  0.00000000000E+00 0.  1.
</event>
<event>
 8    1  0.6019723E-011  0.9118800E+02  0.7816164E-02  0.1184000E+00
        -11   -1    0    0    0    0  0.00000000000E+00  0.00000000000E+00  0.45593999997E+02  0.45594000000E+02  0.51100000000E-03 0. -1.
         11   -1    0    0    0    0 -0.00000000000E+00 -0.00000000000E+00 -0.45593999997E+02  0.45594000000E+02  0.51100000000E-03 0.  1.
         23    2    1    2    0    0  0.00000000000E+00 -0.17763568394E-14  0.00000000000E+00  0.91188000000E+02  0.91188000000E+02 0.  0.
    9900012    2    3    3    0    0 -0.13335352939E+02  0.44771771664E+01  0.41057843328E+02  0.47787271295E+02  0.20000001141E+02 0.  0.
        -12    1    3    3    0    0  0.13335352939E+02 -0.44771771664E+01 -0.41057843328E+02  0.43400728705E+02  0.00000000000E+00 0.  1.
         11    1    4    4    0    0  0.12134557964E+01  0.47197608808E+01  0.98866306616E+01  0.11022435477E+02  0.51100000000E-03 0. -1.
        -11    1    4    4    0    0 -0.13269341005E+02 -0.33711321745E+01  0.30337171714E+02  0.33283388209E+02  0.51100000000E-03 0.  1.
        -12    1    4    4    0    0 -0.12794677302E+01  0.31285484600E+01  0.83404095314E+00  0.34814476085E+01  0.00000000000E+00 0.  1.
</event>
<event>
 8    1  0.7818759E-011  0.9118800E+02  0.7816164E-02  0.1184000E+00
        -11   -1    0    0    0    0  0.00000000000E+00  0.00000000000E+00  0.45593999997E+02  0.45594000000E+02  0.51100000000E-03 0. -1.
         11   -1    0    0    0    0 -0.00000000000E+00 -0.00000000000E+00 -0.45593999997E+02  0.45594000000E+02  0.51100000000E-03 0.  1.
         23    2    1    2    0    0 -0.17763568394E-14  0.00000000000E+00  0.00000000000E+00  0.91188000000E+02  0.91188000000E+02 0.  0.
    9900012    2    3    3    0    0 -0.47020657691E+01  0.21021231642E+02 -0.37677868767E+02  0.47787269625E+02  0.19999993528E+02 0.  0.
         12    1    3    3    0    0  0.47020657691E+01 -0.21021231642E+02  0.37677868767E+02  0.43400730375E+02  0.00000000000E+00 0. -1.
         11    1    4    4    0    0  0.31534680408E+01  0.23548607876E+01 -0.14215370455E+02  0.14750135167E+02  0.51100000000E-03 0.  1.
        -11    1    4    4    0    0 -0.93195995720E+01  0.14512509155E+02 -0.22791768722E+02  0.28582032466E+02  0.51100000000E-03 0. -1.
         12    1    4    4    0    0  0.14640657621E+01  0.41538616994E+01 -0.67072959039E+00  0.44551019917E+01  0.00000000000E+00 0. -1.
</event>
<event>
 8    1  0.6019723E-011  0.9118800E+02  0.7816164E-02  0.1184000E+00
        -11   -1    0    0    0    0  0.00000000000E+00  0.00000000000E+00  0.45593999997E+02  0.45594000000E+02  0.51100000000E-03 0. -1.
         11   -1    0    0    0    0 -0.00000000000E+00 -0.00000000000E+00 -0.45593999997E+02  0.45594000000E+02  0.51100000000E-03 0.  1.
         23    2    1    2    0    0  0.00000000000E+00  0.00000000000E+00  0.35527136788E-14  0.91188000000E+02  0.91188000000E+02 0.  0.
    9900012    2    3    3    0    0  0.37198419235E+02 -0.42172285205E+01 -0.21957135006E+02  0.47787272037E+02  0.20000004527E+02 0.  0.
         12    1    3    3    0    0 -0.37198419235E+02  0.42172285205E+01  0.21957135006E+02  0.43400727963E+02  0.00000000000E+00 0. -1.
         11    1    4    4    0    0  0.32766461334E+00 -0.46414342251E+01 -0.17033600006E+01  0.49549683468E+01  0.51100000000E-03 0. -1.
        -11    1    4    4    0    0  0.22960848078E+02  0.39550258935E+01 -0.11077478933E+02  0.25798319985E+02  0.51100000000E-03 0.  1.
         12    1    4    4    0    0  0.13909906544E+02 -0.35308201889E+01 -0.91762960730E+01  0.17033983706E+02  0.00000000000E+00 0. -1.
</event>
<event>
 8    1  0.7831785E-011  0.9118800E+02  0.7816164E-02  0.1184000E+00
        -11   -1    0    0    0    0  0.00000000000E+00  0.00000000000E+00  0.45593999997E+02  0.45594000000E+02  0.51100000000E-03 0. -1.
         11   -1    0    0    0    0 -0.00000000000E+00 -0.00000000000E+00 -0.45593999997E+02  0.45594000000E+02  0.51100000000E-03 0.  1.
         23    2    1    2    0    0  0.00000000000E+00  0.00000000000E+00  0.00000000000E+00  0.91188000000E+02  0.91188000000E+02 0.  0.
    9900012    2    3    3    0    0  0.28717376137E+02  0.13626397496E+02 -0.29550921857E+02  0.47787269781E+02  0.19999994240E+02 0.  0.
         12    1    3    3    0    0 -0.28717376137E+02 -0.13626397496E+02  0.29550921857E+02  0.43400730219E+02  0.00000000000E+00 0. -1.
         11    1    4    4    0    0  0.14009376217E+02  0.12754175923E+00 -0.15796626998E+02  0.21114268011E+02  0.51100000000E-03 0. -1.
        -11    1    4    4    0    0  0.62981377397E+01  0.36220139732E+01 -0.11355572852E+02  0.13480896086E+02  0.51100000000E-03 0.  1.
         12    1    4    4    0    0  0.84098621805E+01  0.98768417632E+01 -0.23987220075E+01  0.13192105684E+02  0.00000000000E+00 0. -1.
</event>
<event>
 8    1  0.6019723E-011  0.9118800E+02  0.7816164E-02  0.1184000E+00
        -11   -1    0    0    0    0  0.00000000000E+00  0.00000000000E+00  0.45593999997E+02  0.45594000000E+02  0.51100000000E-03 0. -1.
         11   -1    0    0    0    0 -0.00000000000E+00 -0.00000000000E+00 -0.45593999997E+02  0.45594000000E+02  0.51100000000E-03 0.  1.
         23    2    1    2    0    0  0.00000000000E+00 -0.88817841970E-15  0.00000000000E+00  0.91188000000E+02  0.91188000000E+02 0.  0.
    9900012    2    3    3    0    0  0.40976404365E+02 -0.52588577926E+01 -0.13300456479E+02  0.47787269101E+02  0.19999991141E+02 0.  0.
         12    1    3    3    0    0 -0.40976404365E+02  0.52588577926E+01  0.13300456479E+02  0.43400730899E+02  0.00000000000E+00 0. -1.
         11    1    4    4    0    0  0.24816747404E+01  0.17819136607E+01 -0.23821812060E+01  0.38741080742E+01  0.51100000000E-03 0. -1.
        -11    1    4    4    0    0  0.25201607940E+02  0.25319836925E+00  0.43664638072E-01  0.25202917669E+02  0.51100000000E-03 0.  1.
        -12    1    4    4    0    0  0.13293121685E+02 -0.72939698225E+01 -0.10961939911E+02  0.18710243358E+02  0.00000000000E+00 0.  1.
</event>
<event>
 8    1  0.6019723E-011  0.9118800E+02  0.7816164E-02  0.1184000E+00
        -11   -1    0    0    0    0  0.00000000000E+00  0.00000000000E+00  0.45593999997E+02  0.45594000000E+02  0.51100000000E-03 0. -1.
         11   -1    0    0    0    0 -0.00000000000E+00 -0.00000000000E+00 -0.45593999997E+02  0.45594000000E+02  0.51100000000E-03 0.  1.
         23    2    1    2    0    0  0.35527136788E-14  0.00000000000E+00  0.00000000000E+00  0.91188000000E+02  0.91188000000E+02 0.  0.
    9900012    2    3    3    0    0  0.31041874572E+02 -0.25542945067E+02 -0.16358025369E+02  0.47787251002E+02  0.19999908618E+02 0.  0.
         12    1    3    3    0    0 -0.31041874572E+02  0.25542945067E+02  0.16358025369E+02  0.43400748998E+02  0.00000000000E+00 0. -1.
         11    1    4    4    0    0  0.14994501492E+01 -0.42071605842E+01 -0.25415393958E+01  0.51388689118E+01  0.51100000000E-03 0. -1.
        -11    1    4    4    0    0  0.11447000550E+02 -0.16240314360E+02 -0.99659484681E+00  0.19894090420E+02  0.51100000000E-03 0.  1.
        -12    1    4    4    0    0  0.18095423873E+02 -0.50954701224E+01 -0.12819891126E+02  0.22754291670E+02  0.00000000000E+00 0.  1.
</event>
<event>
 8    1  0.6019723E-011  0.9118800E+02  0.7816164E-02  0.1184000E+00
        -11   -1    0    0    0    0  0.00000000000E+00  0.00000000000E+00  0.45593999997E+02  0.45594000000E+02  0.51100000000E-03 0.  1.
         11   -1    0    0    0    0 -0.00000000000E+00 -0.00000000000E+00 -0.45593999997E+02  0.45594000000E+02  0.51100000000E-03 0. -1.
         23    2    1    2    0    0  0.00000000000E+00  0.00000000000E+00  0.00000000000E+00  0.91188000000E+02  0.91188000000E+02 0.  0.
    9900012    2    3    3    0    0 -0.11397710610E+02 -0.36407980798E+02 -0.20692370206E+02  0.47787273535E+02  0.20000011355E+02 0.  0.
         12    1    3    3    0    0  0.11397710610E+02  0.36407980798E+02  0.20692370206E+02  0.43400726465E+02  0.00000000000E+00 0. -1.
         11    1    4    4    0    0 -0.49567974197E+01 -0.17167664230E+02 -0.17841012440E+02  0.25250747730E+02  0.51100000000E-03 0. -1.
        -11    1    4    4    0    0 -0.32155918714E+01 -0.11091895227E+02 -0.62567812250E+01  0.13134591062E+02  0.51100000000E-03 0.  1.
         12    1    4    4    0    0 -0.32253213192E+01 -0.81484213422E+01  0.34054234592E+01  0.94019347434E+01  0.00000000000E+00 0. -1.
</event>
<event>
 8    1  0.6019723E-011  0.9118800E+02  0.7816164E-02  0.1184000E+00
        -11   -1    0    0    0    0  0.00000000000E+00  0.00000000000E+00  0.45593999997E+02  0.45594000000E+02  0.51100000000E-03 0. -1.
         11   -1    0    0    0    0 -0.00000000000E+00 -0.00000000000E+00 -0.45593999997E+02  0.45594000000E+02  0.51100000000E-03 0.  1.
         23    2    1    2    0    0 -0.35527136788E-14  0.35527136788E-14 -0.35527136788E-14  0.91188000000E+02  0.91188000000E+02 0.  0.
    9900012    2    3    3    0    0 -0.28243755611E+02  0.18490522294E+02 -0.27276619712E+02  0.47787272718E+02  0.20000007630E+02 0.  0.
         12    1    3    3    0    0  0.28243755611E+02 -0.18490522294E+02  0.27276619712E+02  0.43400727282E+02  0.00000000000E+00 0. -1.
         11    1    4    4    0    0 -0.50114086727E+01  0.10568339167E+02 -0.29258045889E+01  0.12056713581E+02  0.51100000000E-03 0. -1.
        -11    1    4    4    0    0 -0.96924857393E+01  0.41849732998E+01 -0.46521677427E+01  0.11536938341E+02  0.51100000000E-03 0.  1.
         12    1    4    4    0    0 -0.13539861199E+02  0.37372098282E+01 -0.19698647380E+02  0.24193620795E+02  0.00000000000E+00 0. -1.
</event>
<event>
 8    1  0.6019723E-011  0.9118800E+02  0.7816164E-02  0.1184000E+00
        -11   -1    0    0    0    0  0.00000000000E+00  0.00000000000E+00  0.45593999997E+02  0.45594000000E+02  0.51100000000E-03 0. -1.
         11   -1    0    0    0    0 -0.00000000000E+00 -0.00000000000E+00 -0.45593999997E+02  0.45594000000E+02  0.51100000000E-03 0.  1.
         23    2    1    2    0    0  0.31086244690E-14  0.71054273576E-14 -0.35527136788E-14  0.91188000000E+02  0.91188000000E+02 0.  0.
    9900012    2    3    3    0    0  0.39333465966E+01  0.38971483980E+02 -0.18691592575E+02  0.47787269453E+02  0.19999992742E+02 0.  0.
         12    1    3    3    0    0 -0.39333465966E+01 -0.38971483980E+02  0.18691592575E+02  0.43400730547E+02  0.00000000000E+00 0. -1.
         11    1    4    4    0    0 -0.50946392418E+01  0.92615362191E+01 -0.46812939913E+01  0.11560532680E+02  0.51100000000E-03 0. -1.
        -11    1    4    4    0    0  0.79527229546E+01  0.18695921012E+02 -0.28605709155E+01  0.20517459178E+02  0.51100000000E-03 0.  1.
         12    1    4    4    0    0  0.10752628838E+01  0.11014026749E+02 -0.11149727668E+02  0.15709277595E+02  0.00000000000E+00 0. -1.
</event>
<event>
 8    1  0.6019723E-011  0.9118800E+02  0.7816164E-02  0.1184000E+00
        -11   -1    0    0    0    0  0.00000000000E+00  0.00000000000E+00  0.45593999997E+02  0.45594000000E+02  0.51100000000E-03 0. -1.
         11   -1    0    0    0    0 -0.00000000000E+00 -0.00000000000E+00 -0.45593999997E+02  0.45594000000E+02  0.51100000000E-03 0.  1.
         23    2    1    2    0    0  0.00000000000E+00  0.00000000000E+00  0.00000000000E+00  0.91188000000E+02  0.91188000000E+02 0.  0.
    9900012    2    3    3    0    0  0.32115347382E+02 -0.62427843140E+01  0.28517632150E+02  0.47787271471E+02  0.20000001943E+02 0.  0.
        -12    1    3    3    0    0 -0.32115347382E+02  0.62427843140E+01 -0.28517632150E+02  0.43400728529E+02  0.00000000000E+00 0.  1.
         11    1    4    4    0    0  0.15421766333E+02 -0.56756809161E+01  0.25189967642E+02  0.30076214868E+02  0.51100000000E-03 0. -1.
        -11    1    4    4    0    0  0.65400070421E+01 -0.18027333989E+01 -0.47034474298E+00  0.68002032511E+01  0.51100000000E-03 0.  1.
         12    1    4    4    0    0  0.10153574006E+02  0.12356300010E+01  0.37980092513E+01  0.10910853352E+02  0.00000000000E+00 0. -1.
</event>
<event>
 8    1  0.6019723E-011  0.9118800E+02  0.7816164E-02  0.1184000E+00
        -11   -1    0    0    0    0  0.00000000000E+00  0.00000000000E+00  0.45593999997E+02  0.45594000000E+02  0.51100000000E-03 0. -1.
         11   -1    0    0    0    0 -0.00000000000E+00 -0.00000000000E+00 -0.45593999997E+02  0.45594000000E+02  0.51100000000E-03 0.  1.
         23    2    1    2    0    0  0.88817841970E-15  0.35527136788E-14 -0.35527136788E-14  0.91188000000E+02  0.91188000000E+02 0.  0.
    9900012    2    3    3    0    0  0.67577742705E+01  0.31400649893E+02 -0.29188270887E+02  0.47787268621E+02  0.19999988951E+02 0.  0.
         12    1    3    3    0    0 -0.67577742705E+01 -0.31400649893E+02  0.29188270887E+02  0.43400731379E+02  0.00000000000E+00 0. -1.
         11    1    4    4    0    0  0.10138812622E+02  0.12678115123E+02 -0.57945597922E+01  0.17236793435E+02  0.51100000000E-03 0. -1.
        -11    1    4    4    0    0 -0.28303633876E+01  0.39233944409E+01 -0.59187871530E+01  0.76443457842E+01  0.51100000000E-03 0.  1.
         12    1    4    4    0    0 -0.55067496429E+00  0.14799140329E+02 -0.17474923942E+02  0.22906129402E+02  0.00000000000E+00 0. -1.
</event>
<event>
 8    1  0.6019723E-011  0.9118800E+02  0.7816164E-02  0.1184000E+00
        -11   -1    0    0    0    0  0.00000000000E+00  0.00000000000E+00  0.45593999997E+02  0.45594000000E+02  0.51100000000E-03 0. -1.
         11   -1    0    0    0    0 -0.00000000000E+00 -0.00000000000E+00 -0.45593999997E+02  0.45594000000E+02  0.51100000000E-03 0.  1.
         23    2    1    2    0    0 -0.44408920985E-15 -0.22204460493E-15  0.00000000000E+00  0.91188000000E+02  0.91188000000E+02 0.  0.
    9900012    2    3    3    0    0 -0.18793070425E+01 -0.10365367683E+01  0.43347629143E+02  0.47787272406E+02  0.20000006206E+02 0.  0.
        -12    1    3    3    0    0  0.18793070425E+01  0.10365367683E+01 -0.43347629143E+02  0.43400727594E+02  0.00000000000E+00 0.  1.
         11    1    4    4    0    0  0.38831144553E+01  0.61850235630E+01  0.20244743804E+02  0.21521680843E+02  0.51100000000E-03 0. -1.
        -11    1    4    4    0    0  0.35113936340E+00 -0.11739973555E+01 -0.35943392164E+00  0.12770127832E+01  0.51100000000E-03 0.  1.
         12    1    4    4    0    0 -0.61135608612E+01 -0.60475629758E+01  0.23462319260E+02  0.24988578780E+02  0.00000000000E+00 0. -1.
</event>
<event>
 8    1  0.6019723E-011  0.9118800E+02  0.7816164E-02  0.1184000E+00
        -11   -1    0    0    0    0  0.00000000000E+00  0.00000000000E+00  0.45593999997E+02  0.45594000000E+02  0.51100000000E-03 0. -1.
         11   -1    0    0    0    0 -0.00000000000E+00 -0.00000000000E+00 -0.45593999997E+02  0.45594000000E+02  0.51100000000E-03 0.  1.
         23    2    1    2    0    0  0.00000000000E+00  0.35527136788E-14  0.00000000000E+00  0.91188000000E+02  0.91188000000E+02 0.  0.
    9900012    2    3    3    0    0  0.20492076594E+02  0.25537778573E+02 -0.28487209113E+02  0.47787257833E+02  0.19999939763E+02 0.  0.
         12    1    3    3    0    0 -0.20492076594E+02 -0.25537778573E+02  0.28487209113E+02  0.43400742167E+02  0.00000000000E+00 0. -1.
         11    1    4    4    0    0  0.12417837070E+00  0.14820211785E+01 -0.40941206464E+01  0.43558731811E+01  0.51100000000E-03 0. -1.
        -11    1    4    4    0    0  0.23109878635E+01  0.71393613751E+01 -0.15352800075E+02  0.17088581455E+02  0.51100000000E-03 0.  1.
        -12    1    4    4    0    0  0.18056910360E+02  0.16916396020E+02 -0.90402883919E+01  0.26342803197E+02  0.00000000000E+00 0.  1.
</event>
<event>
 8    1  0.6019723E-011  0.9118800E+02  0.7816164E-02  0.1184000E+00
        -11   -1    0    0    0    0  0.00000000000E+00  0.00000000000E+00  0.45593999997E+02  0.45594000000E+02  0.51100000000E-03 0. -1.
         11   -1    0    0    0    0 -0.00000000000E+00 -0.00000000000E+00 -0.45593999997E+02  0.45594000000E+02  0.51100000000E-03 0.  1.
         23    2    1    2    0    0  0.00000000000E+00  0.13877787808E-16  0.00000000000E+00  0.91188000000E+02  0.91188000000E+02 0.  0.
    9900012    2    3    3    0    0  0.10441461643E+02 -0.12452799583E+00  0.42125809850E+02  0.47787268624E+02  0.19999988964E+02 0.  0.
        -12    1    3    3    0    0 -0.10441461643E+02  0.12452799583E+00 -0.42125809850E+02  0.43400731376E+02  0.00000000000E+00 0.  1.
         11    1    4    4    0    0 -0.30097375312E+01  0.28993936694E+01  0.29168280321E+01  0.50963604353E+01  0.51100000000E-03 0. -1.
        -11    1    4    4    0    0  0.46563838537E+01 -0.43712699753E+01  0.25942279930E+02  0.26716882304E+02  0.51100000000E-03 0.  1.
        -12    1    4    4    0    0  0.87948153209E+01  0.13473483101E+01  0.13266701887E+02  0.15974025885E+02  0.00000000000E+00 0.  1.
</event>
<event>
 8    1  0.6019723E-011  0.9118800E+02  0.7816164E-02  0.1184000E+00
        -11   -1    0    0    0    0  0.00000000000E+00  0.00000000000E+00  0.45593999997E+02  0.45594000000E+02  0.51100000000E-03 0. -1.
         11   -1    0    0    0    0 -0.00000000000E+00 -0.00000000000E+00 -0.45593999997E+02  0.45594000000E+02  0.51100000000E-03 0.  1.
         23    2    1    2    0    0  0.71054273576E-14  0.00000000000E+00 -0.88817841970E-15  0.91188000000E+02  0.91188000000E+02 0.  0.
    9900012    2    3    3    0    0 -0.41963271689E+02 -0.83948366221E+01  0.72272112983E+01  0.47787285307E+02  0.20000065027E+02 0.  0.
         12    1    3    3    0    0  0.41963271689E+02  0.83948366221E+01 -0.72272112983E+01  0.43400714693E+02  0.00000000000E+00 0. -1.
         11    1    4    4    0    0 -0.68722551425E+01  0.42888519756E+00  0.62696384500E+01  0.93123681098E+01  0.51100000000E-03 0. -1.
        -11    1    4    4    0    0 -0.13453107940E+02 -0.17203436102E+01 -0.57536170011E+01  0.14732610232E+02  0.51100000000E-03 0.  1.
        -12    1    4    4    0    0 -0.21637908606E+02 -0.71033782094E+01  0.67111898493E+01  0.23742306965E+02  0.00000000000E+00 0.  1.
</event>
<event>
 8    1  0.6019723E-011  0.9118800E+02  0.7816164E-02  0.1184000E+00
        -11   -1    0    0    0    0  0.00000000000E+00  0.00000000000E+00  0.45593999997E+02  0.45594000000E+02  0.51100000000E-03 0. -1.
         11   -1    0    0    0    0 -0.00000000000E+00 -0.00000000000E+00 -0.45593999997E+02  0.45594000000E+02  0.51100000000E-03 0.  1.
         23    2    1    2    0    0  0.00000000000E+00  0.00000000000E+00  0.00000000000E+00  0.91188000000E+02  0.91188000000E+02 0.  0.
    9900012    2    3    3    0    0 -0.32573832507E+01 -0.32458304127E+02  0.28626408611E+02  0.47787270485E+02  0.19999997451E+02 0.  0.
        -12    1    3    3    0    0  0.32573832507E+01  0.32458304127E+02 -0.28626408611E+02  0.43400729515E+02  0.00000000000E+00 0.  1.
         11    1    4    4    0    0  0.53318733165E-01 -0.19674231599E+02  0.17821990673E+02  0.26546215996E+02  0.51100000000E-03 0. -1.
        -11    1    4    4    0    0 -0.52704627591E+01 -0.17475831114E+01  0.79097990138E+01  0.96641991456E+01  0.51100000000E-03 0.  1.
        -12    1    4    4    0    0  0.19597607752E+01 -0.11036489417E+02  0.28946189242E+01  0.11576855344E+02  0.00000000000E+00 0.  1.
</event>
<event>
 8    1  0.6019723E-011  0.9118800E+02  0.7816164E-02  0.1184000E+00
        -11   -1    0    0    0    0  0.00000000000E+00  0.00000000000E+00  0.45593999997E+02  0.45594000000E+02  0.51100000000E-03 0. -1.
         11   -1    0    0    0    0 -0.00000000000E+00 -0.00000000000E+00 -0.45593999997E+02  0.45594000000E+02  0.51100000000E-03 0.  1.
         23    2    1    2    0    0  0.00000000000E+00  0.00000000000E+00  0.00000000000E+00  0.91188000000E+02  0.91188000000E+02 0.  0.
    9900012    2    3    3    0    0 -0.19820151023E+02  0.34825671073E+02  0.16672048603E+02  0.47787274697E+02  0.20000016651E+02 0.  0.
        -12    1    3    3    0    0  0.19820151023E+02 -0.34825671073E+02 -0.16672048603E+02  0.43400725303E+02  0.00000000000E+00 0.  1.
         11    1    4    4    0    0 -0.55129138953E+01 -0.10972052753E+01  0.34353356897E+01  0.65876862854E+01  0.51100000000E-03 0. -1.
        -11    1    4    4    0    0 -0.67319228682E+01  0.17492134634E+02  0.36844022866E+01  0.19101528212E+02  0.51100000000E-03 0.  1.
         12    1    4    4    0    0 -0.75753142599E+01  0.18430741714E+02  0.95523106269E+01  0.22098060199E+02  0.00000000000E+00 0. -1.
</event>
<event>
 8    1  0.6019723E-011  0.9118800E+02  0.7816164E-02  0.1184000E+00
        -11   -1    0    0    0    0  0.00000000000E+00  0.00000000000E+00  0.45593999997E+02  0.45594000000E+02  0.51100000000E-03 0. -1.
         11   -1    0    0    0    0 -0.00000000000E+00 -0.00000000000E+00 -0.45593999997E+02  0.45594000000E+02  0.51100000000E-03 0.  1.
         23    2    1    2    0    0  0.00000000000E+00  0.00000000000E+00  0.00000000000E+00  0.91188000000E+02  0.91188000000E+02 0.  0.
    9900012    2    3    3    0    0 -0.19003509854E+02 -0.30500629142E+02 -0.24335195413E+02  0.47787268432E+02  0.19999988091E+02 0.  0.
         12    1    3    3    0    0  0.19003509854E+02  0.30500629142E+02  0.24335195413E+02  0.43400731568E+02  0.00000000000E+00 0. -1.
         11    1    4    4    0    0 -0.10285680510E+02 -0.31465124576E+01 -0.60710222937E+01  0.12351237839E+02  0.51100000000E-03 0. -1.
        -11    1    4    4    0    0 -0.41811789035E+01 -0.14407929392E+02 -0.37480075483E+01  0.15463448750E+02  0.51100000000E-03 0.  1.
         12    1    4    4    0    0 -0.45366504401E+01 -0.12946187292E+02 -0.14516165571E+02  0.19972581844E+02  0.00000000000E+00 0. -1.
</event>
<event>
 8    1  0.6019723E-011  0.9118800E+02  0.7816164E-02  0.1184000E+00
        -11   -1    0    0    0    0  0.00000000000E+00  0.00000000000E+00  0.45593999997E+02  0.45594000000E+02  0.51100000000E-03 0. -1.
         11   -1    0    0    0    0 -0.00000000000E+00 -0.00000000000E+00 -0.45593999997E+02  0.45594000000E+02  0.51100000000E-03 0.  1.
         23    2    1    2    0    0  0.88817841970E-15 -0.35527136788E-14  0.00000000000E+00  0.91188000000E+02  0.91188000000E+02 0.  0.
    9900012    2    3    3    0    0  0.63804827450E+01 -0.10444172436E+02  0.41639308349E+02  0.47787270770E+02  0.19999998747E+02 0.  0.
        -12    1    3    3    0    0 -0.63804827450E+01  0.10444172436E+02 -0.41639308349E+02  0.43400729230E+02  0.00000000000E+00 0.  1.
         11    1    4    4    0    0  0.24771529679E+01 -0.13339616956E+02  0.20548202083E+02  0.24623368503E+02  0.51100000000E-03 0. -1.
        -11    1    4    4    0    0  0.15143093594E+01  0.53345296814E+01  0.16731569183E+02  0.17626563685E+02  0.51100000000E-03 0.  1.
        -12    1    4    4    0    0  0.23890204177E+01 -0.24390851618E+01  0.43595370828E+01  0.55373385808E+01  0.00000000000E+00 0.  1.
</event>
<event>
 8    1  0.6019723E-011  0.9118800E+02  0.7816164E-02  0.1184000E+00
        -11   -1    0    0    0    0  0.00000000000E+00  0.00000000000E+00  0.45593999997E+02  0.45594000000E+02  0.51100000000E-03 0. -1.
         11   -1    0    0    0    0 -0.00000000000E+00 -0.00000000000E+00 -0.45593999997E+02  0.45594000000E+02  0.51100000000E-03 0.  1.
         23    2    1    2    0    0  0.00000000000E+00 -0.35527136788E-14  0.71054273576E-14  0.91188000000E+02  0.91188000000E+02 0.  0.
    9900012    2    3    3    0    0 -0.15679204447E+02  0.23481267287E+02  0.32960817180E+02  0.47787276105E+02  0.20000023071E+02 0.  0.
        -12    1    3    3    0    0  0.15679204447E+02 -0.23481267287E+02 -0.32960817180E+02  0.43400723895E+02  0.00000000000E+00 0.  1.
         11    1    4    4    0    0  0.20734657076E+01  0.47758660981E+00 -0.62865681778E+00  0.22186839942E+01  0.51100000000E-03 0. -1.
        -11    1    4    4    0    0 -0.12002763284E+02  0.76409290080E+01  0.17939663762E+02  0.22897197617E+02  0.51100000000E-03 0.  1.
         12    1    4    4    0    0 -0.57499068703E+01  0.15362751669E+02  0.15649810236E+02  0.22671394493E+02  0.00000000000E+00 0. -1.
</event>
<event>
 8    1  0.6019723E-011  0.9118800E+02  0.7816164E-02  0.1184000E+00
        -11   -1    0    0    0    0  0.00000000000E+00  0.00000000000E+00  0.45593999997E+02  0.45594000000E+02  0.51100000000E-03 0. -1.
         11   -1    0    0    0    0 -0.00000000000E+00 -0.00000000000E+00 -0.45593999997E+02  0.45594000000E+02  0.51100000000E-03 0.  1.
         23    2    1    2    0    0  0.00000000000E+00  0.00000000000E+00  0.00000000000E+00  0.91188000000E+02  0.91188000000E+02 0.  0.
    9900012    2    3    3    0    0 -0.18560660322E+02 -0.37451417132E+02  0.11684020637E+02  0.47787273104E+02  0.20000009392E+02 0.  0.
        -12    1    3    3    0    0  0.18560660322E+02  0.37451417132E+02 -0.11684020637E+02  0.43400726896E+02  0.00000000000E+00 0.  1.
         11    1    4    4    0    0 -0.71740944824E+01 -0.21433627536E+02 -0.12259848879E+01  0.22635614863E+02  0.51100000000E-03 0. -1.
        -11    1    4    4    0    0 -0.53815520942E+01 -0.79310308284E+01  0.11516706226E+02  0.14983219798E+02  0.51100000000E-03 0.  1.
        -12    1    4    4    0    0 -0.60050137457E+01 -0.80867587679E+01  0.13932992991E+01  0.10168438444E+02  0.00000000000E+00 0.  1.
</event>
<event>
 8    1  0.6019723E-011  0.9118800E+02  0.7816164E-02  0.1184000E+00
        -11   -1    0    0    0    0  0.00000000000E+00  0.00000000000E+00  0.45593999997E+02  0.45594000000E+02  0.51100000000E-03 0. -1.
         11   -1    0    0    0    0 -0.00000000000E+00 -0.00000000000E+00 -0.45593999997E+02  0.45594000000E+02  0.51100000000E-03 0.  1.
         23    2    1    2    0    0 -0.35527136788E-14 -0.17763568394E-14 -0.35527136788E-14  0.91188000000E+02  0.91188000000E+02 0.  0.
    9900012    2    3    3    0    0  0.26777083451E+02  0.12397356375E+02 -0.31826352538E+02  0.47787270063E+02  0.19999995524E+02 0.  0.
         12    1    3    3    0    0 -0.26777083451E+02 -0.12397356375E+02  0.31826352538E+02  0.43400729937E+02  0.00000000000E+00 0. -1.
         11    1    4    4    0    0  0.58793180008E+00 -0.76620720163E+00 -0.23658342837E+00  0.99433860283E+00  0.51100000000E-03 0. -1.
        -11    1    4    4    0    0  0.93241009323E+01  0.61097990724E+01 -0.10460850422E+01  0.11196552910E+02  0.51100000000E-03 0.  1.
        -12    1    4    4    0    0  0.16865050719E+02  0.70537645042E+01 -0.30543684067E+02  0.35596378549E+02  0.00000000000E+00 0.  1.
</event>
<event>
 8    1  0.6019723E-011  0.9118800E+02  0.7816164E-02  0.1184000E+00
        -11   -1    0    0    0    0  0.00000000000E+00  0.00000000000E+00  0.45593999997E+02  0.45594000000E+02  0.51100000000E-03 0. -1.
         11   -1    0    0    0    0 -0.00000000000E+00 -0.00000000000E+00 -0.45593999997E+02  0.45594000000E+02  0.51100000000E-03 0.  1.
         23    2    1    2    0    0  0.00000000000E+00  0.00000000000E+00 -0.35527136788E-14  0.91188000000E+02  0.91188000000E+02 0.  0.
    9900012    2    3    3    0    0  0.17112773986E+02  0.27666778882E+02  0.28728479966E+02  0.47787271338E+02  0.20000001339E+02 0.  0.
        -12    1    3    3    0    0 -0.17112773986E+02 -0.27666778882E+02 -0.28728479966E+02  0.43400728662E+02  0.00000000000E+00 0.  1.
         11    1    4    4    0    0  0.16697398998E+02  0.12302131650E+02  0.20584773730E+02  0.29221199260E+02  0.51100000000E-03 0. -1.
        -11    1    4    4    0    0 -0.23285252215E+01  0.48167225406E+01  0.76542540829E+00  0.54045094187E+01  0.51100000000E-03 0.  1.
         12    1    4    4    0    0  0.27439002099E+01  0.10547924691E+02  0.73782808277E+01  0.13161562659E+02  0.00000000000E+00 0. -1.
</event>
<event>
 8    1  0.6019723E-011  0.9118800E+02  0.7816164E-02  0.1184000E+00
        -11   -1    0    0    0    0  0.00000000000E+00  0.00000000000E+00  0.45593999997E+02  0.45594000000E+02  0.51100000000E-03 0. -1.
         11   -1    0    0    0    0 -0.00000000000E+00 -0.00000000000E+00 -0.45593999997E+02  0.45594000000E+02  0.51100000000E-03 0.  1.
         23    2    1    2    0    0  0.71054273576E-14 -0.88817841970E-15 -0.22204460493E-15  0.91188000000E+02  0.91188000000E+02 0.  0.
    9900012    2    3    3    0    0 -0.43182958497E+02 -0.41926645549E+01 -0.11299808394E+01  0.47787271926E+02  0.20000004021E+02 0.  0.
        -12    1    3    3    0    0  0.43182958497E+02  0.41926645549E+01  0.11299808394E+01  0.43400728074E+02  0.00000000000E+00 0.  1.
         11    1    4    4    0    0 -0.14116766312E+02 -0.93564065455E+01 -0.40936595901E+01  0.17423647255E+02  0.51100000000E-03 0. -1.
        -11    1    4    4    0    0 -0.17413778918E+02  0.49650957286E+01 -0.77542666663E+00  0.18124380226E+02  0.51100000000E-03 0.  1.
         12    1    4    4    0    0 -0.11652413267E+02  0.19864626189E+00  0.37391054174E+01  0.12239244446E+02  0.00000000000E+00 0. -1.
</event>
<event>
 8    1  0.6019723E-011  0.9118800E+02  0.7816164E-02  0.1184000E+00
        -11   -1    0    0    0    0  0.00000000000E+00  0.00000000000E+00  0.45593999997E+02  0.45594000000E+02  0.51100000000E-03 0. -1.
         11   -1    0    0    0    0 -0.00000000000E+00 -0.00000000000E+00 -0.45593999997E+02  0.45594000000E+02  0.51100000000E-03 0.  1.
         23    2    1    2    0    0 -0.35527136788E-14  0.00000000000E+00  0.00000000000E+00  0.91188000000E+02  0.91188000000E+02 0.  0.
    9900012    2    3    3    0    0  0.25909329032E+02 -0.29356354284E+02 -0.18722562724E+02  0.47787271635E+02  0.20000002690E+02 0.  0.
         12    1    3    3    0    0 -0.25909329032E+02  0.29356354284E+02  0.18722562724E+02  0.43400728365E+02  0.00000000000E+00 0. -1.
         11    1    4    4    0    0  0.10699015590E+02 -0.16384400755E+02 -0.30186163366E+01  0.19799736552E+02  0.51100000000E-03 0. -1.
        -11    1    4    4    0    0  0.25366280683E+01 -0.63132339840E+01 -0.10970171845E+02  0.12908759656E+02  0.51100000000E-03 0.  1.
         12    1    4    4    0    0  0.12673685374E+02 -0.66587195447E+01 -0.47337745419E+01  0.15078775426E+02  0.00000000000E+00 0. -1.
</event>
<event>
 8    1  0.6019723E-011  0.9118800E+02  0.7816164E-02  0.1184000E+00
        -11   -1    0    0    0    0  0.00000000000E+00  0.00000000000E+00  0.45593999997E+02  0.45594000000E+02  0.51100000000E-03 0. -1.
         11   -1    0    0    0    0 -0.00000000000E+00 -0.00000000000E+00 -0.45593999997E+02  0.45594000000E+02  0.51100000000E-03 0.  1.
         23    2    1    2    0    0  0.00000000000E+00  0.17763568394E-14  0.00000000000E+00  0.91188000000E+02  0.91188000000E+02 0.  0.
    9900012    2    3    3    0    0 -0.82247080892E+01 -0.13890778982E+02  0.40286766624E+02  0.47787272714E+02  0.20000007614E+02 0.  0.
        -12    1    3    3    0    0  0.82247080892E+01  0.13890778982E+02 -0.40286766624E+02  0.43400727286E+02  0.00000000000E+00 0.  1.
         11    1    4    4    0    0  0.43239439340E+01 -0.81217001729E+01  0.21958210340E+02  0.23808013492E+02  0.51100000000E-03 0. -1.
        -11    1    4    4    0    0 -0.51742472051E+01  0.92804492936E+00  0.44009236668E+01  0.68558173045E+01  0.51100000000E-03 0.  1.
         12    1    4    4    0    0 -0.73744048180E+01 -0.66971237381E+01  0.13927632618E+02  0.17123441918E+02  0.00000000000E+00 0. -1.
</event>
<event>
 8    1  0.6019723E-011  0.9118800E+02  0.7816164E-02  0.1184000E+00
        -11   -1    0    0    0    0  0.00000000000E+00  0.00000000000E+00  0.45593999997E+02  0.45594000000E+02  0.51100000000E-03 0. -1.
         11   -1    0    0    0    0 -0.00000000000E+00 -0.00000000000E+00 -0.45593999997E+02  0.45594000000E+02  0.51100000000E-03 0.  1.
         23    2    1    2    0    0  0.00000000000E+00  0.00000000000E+00  0.00000000000E+00  0.91188000000E+02  0.91188000000E+02 0.  0.
    9900012    2    3    3    0    0 -0.94594465889E+01 -0.31652285106E+02  0.28147378770E+02  0.47787271736E+02  0.20000003153E+02 0.  0.
        -12    1    3    3    0    0  0.94594465889E+01  0.31652285106E+02 -0.28147378770E+02  0.43400728264E+02  0.00000000000E+00 0.  1.
         11    1    4    4    0    0 -0.68344903260E+01 -0.65665880429E+01  0.15038680474E+01  0.95964553824E+01  0.51100000000E-03 0. -1.
        -11    1    4    4    0    0 -0.39927898718E+01 -0.14286281036E+02  0.21576309796E+02  0.26183531875E+02  0.51100000000E-03 0.  1.
        -12    1    4    4    0    0  0.13678336089E+01 -0.10799416027E+02  0.50672009271E+01  0.12007284478E+02  0.00000000000E+00 0.  1.
</event>
<event>
 8    1  0.6019723E-011  0.9118800E+02  0.7816164E-02  0.1184000E+00
        -11   -1    0    0    0    0  0.00000000000E+00  0.00000000000E+00  0.45593999997E+02  0.45594000000E+02  0.51100000000E-03 0. -1.
         11   -1    0    0    0    0 -0.00000000000E+00 -0.00000000000E+00 -0.45593999997E+02  0.45594000000E+02  0.51100000000E-03 0.  1.
         23    2    1    2    0    0  0.00000000000E+00 -0.17763568394E-14  0.00000000000E+00  0.91188000000E+02  0.91188000000E+02 0.  0.
    9900012    2    3    3    0    0  0.22821760458E+02  0.12686421749E+02  0.34667643955E+02  0.47787267465E+02  0.19999983682E+02 0.  0.
        -12    1    3    3    0    0 -0.22821760458E+02 -0.12686421749E+02 -0.34667643955E+02  0.43400732535E+02  0.00000000000E+00 0.  1.
         11    1    4    4    0    0  0.17023248311E+02  0.77397973135E+01  0.16091152089E+02  0.24670237561E+02  0.51100000000E-03 0. -1.
        -11    1    4    4    0    0 -0.23030648464E+01  0.39011316291E+01  0.27306820076E+01  0.52895708864E+01  0.51100000000E-03 0.  1.
         12    1    4    4    0    0  0.81015769928E+01  0.10454928066E+01  0.15845809858E+02  0.17827459018E+02  0.00000000000E+00 0. -1.
</event>
<event>
 8    1  0.6019723E-011  0.9118800E+02  0.7816164E-02  0.1184000E+00
        -11   -1    0    0    0    0  0.00000000000E+00  0.00000000000E+00  0.45593999997E+02  0.45594000000E+02  0.51100000000E-03 0. -1.
         11   -1    0    0    0    0 -0.00000000000E+00 -0.00000000000E+00 -0.45593999997E+02  0.45594000000E+02  0.51100000000E-03 0.  1.
         23    2    1    2    0    0  0.00000000000E+00  0.00000000000E+00  0.00000000000E+00  0.91188000000E+02  0.91188000000E+02 0.  0.
    9900012    2    3    3    0    0 -0.36236257751E+01  0.18458985326E+02 -0.39112133033E+02  0.47787265520E+02  0.19999974813E+02 0.  0.
         12    1    3    3    0    0  0.36236257751E+01 -0.18458985326E+02  0.39112133033E+02  0.43400734480E+02  0.00000000000E+00 0. -1.
         11    1    4    4    0    0 -0.56267189545E+01  0.14808229585E+02 -0.28606886106E+02  0.32700115636E+02  0.51100000000E-03 0. -1.
        -11    1    4    4    0    0  0.47900311187E+01 -0.59723615808E+00 -0.81837145487E+01  0.95012774521E+01  0.51100000000E-03 0.  1.
         12    1    4    4    0    0 -0.27869379393E+01  0.42479918989E+01 -0.23215323779E+01  0.55858724324E+01  0.00000000000E+00 0. -1.
</event>
<event>
 8    1  0.6019723E-011  0.9118800E+02  0.7816164E-02  0.1184000E+00
        -11   -1    0    0    0    0  0.00000000000E+00  0.00000000000E+00  0.45593999997E+02  0.45594000000E+02  0.51100000000E-03 0. -1.
         11   -1    0    0    0    0 -0.00000000000E+00 -0.00000000000E+00 -0.45593999997E+02  0.45594000000E+02  0.51100000000E-03 0.  1.
         23    2    1    2    0    0  0.71054273576E-14 -0.35527136788E-14  0.00000000000E+00  0.91188000000E+02  0.91188000000E+02 0.  0.
    9900012    2    3    3    0    0  0.29753926144E+02 -0.20453240793E+02  0.24083025375E+02  0.47787270845E+02  0.19999999093E+02 0.  0.
        -12    1    3    3    0    0 -0.29753926144E+02  0.20453240793E+02 -0.24083025375E+02  0.43400729155E+02  0.00000000000E+00 0.  1.
         11    1    4    4    0    0  0.13534079165E+02 -0.11185024739E+02  0.11537725962E+02  0.21009407367E+02  0.51100000000E-03 0. -1.
        -11    1    4    4    0    0  0.75323911664E+01  0.10322830631E+01 -0.10040156599E+01  0.76688051685E+01  0.51100000000E-03 0.  1.
        -12    1    4    4    0    0  0.86874558126E+01 -0.10300499118E+02  0.13549315073E+02  0.19109058310E+02  0.00000000000E+00 0.  1.
</event>
<event>
 8    1  0.6019723E-011  0.9118800E+02  0.7816164E-02  0.1184000E+00
        -11   -1    0    0    0    0  0.00000000000E+00  0.00000000000E+00  0.45593999997E+02  0.45594000000E+02  0.51100000000E-03 0. -1.
         11   -1    0    0    0    0 -0.00000000000E+00 -0.00000000000E+00 -0.45593999997E+02  0.45594000000E+02  0.51100000000E-03 0.  1.
         23    2    1    2    0    0 -0.17763568394E-14  0.00000000000E+00  0.35527136788E-14  0.91188000000E+02  0.91188000000E+02 0.  0.
    9900012    2    3    3    0    0 -0.12865882112E+02 -0.29569798472E+02 -0.29046876824E+02  0.47787251650E+02  0.19999911571E+02 0.  0.
         12    1    3    3    0    0  0.12865882112E+02  0.29569798472E+02  0.29046876824E+02  0.43400748350E+02  0.00000000000E+00 0. -1.
         11    1    4    4    0    0 -0.85653952160E+01 -0.25320694074E+02 -0.27658138118E+02  0.38463959079E+02  0.51100000000E-03 0.  1.
        -11    1    4    4    0    0 -0.12409655482E+01  0.18471389427E+01  0.42464452558E+00  0.22654449894E+01  0.51100000000E-03 0. -1.
        -12    1    4    4    0    0 -0.30595213475E+01 -0.60962433403E+01 -0.18133832316E+01  0.70578475816E+01  0.00000000000E+00 0.  1.
</event>
<event>
 8    1  0.6019723E-011  0.9118800E+02  0.7816164E-02  0.1184000E+00
        -11   -1    0    0    0    0  0.00000000000E+00  0.00000000000E+00  0.45593999997E+02  0.45594000000E+02  0.51100000000E-03 0. -1.
         11   -1    0    0    0    0 -0.00000000000E+00 -0.00000000000E+00 -0.45593999997E+02  0.45594000000E+02  0.51100000000E-03 0.  1.
         23    2    1    2    0    0  0.00000000000E+00  0.00000000000E+00  0.00000000000E+00  0.91188000000E+02  0.91188000000E+02 0.  0.
    9900012    2    3    3    0    0 -0.29067672616E+02 -0.31303544273E+02  0.76669777330E+01  0.47787262415E+02  0.19999960655E+02 0.  0.
        -12    1    3    3    0    0  0.29067672616E+02  0.31303544273E+02 -0.76669777330E+01  0.43400737585E+02  0.00000000000E+00 0.  1.
         11    1    4    4    0    0 -0.27208866624E+02 -0.23794157812E+02  0.44850517863E+01  0.36422521312E+02  0.51100000000E-03 0. -1.
        -11    1    4    4    0    0 -0.10222064926E+00 -0.26415423965E+01 -0.25286019418E+01  0.36581447941E+01  0.51100000000E-03 0.  1.
         12    1    4    4    0    0 -0.17565853427E+01 -0.48678440647E+01  0.57105278884E+01  0.77065963089E+01  0.00000000000E+00 0. -1.
</event>
<event>
 8    1  0.6019723E-011  0.9118800E+02  0.7816164E-02  0.1184000E+00
        -11   -1    0    0    0    0  0.00000000000E+00  0.00000000000E+00  0.45593999997E+02  0.45594000000E+02  0.51100000000E-03 0. -1.
         11   -1    0    0    0    0 -0.00000000000E+00 -0.00000000000E+00 -0.45593999997E+02  0.45594000000E+02  0.51100000000E-03 0.  1.
         23    2    1    2    0    0  0.00000000000E+00  0.00000000000E+00  0.00000000000E+00  0.91188000000E+02  0.91188000000E+02 0.  0.
    9900012    2    3    3    0    0 -0.27159842723E+02  0.91526386620E+01 -0.32591309153E+02  0.47787293974E+02  0.20000104547E+02 0.  0.
         12    1    3    3    0    0  0.27159842723E+02 -0.91526386620E+01  0.32591309153E+02  0.43400706026E+02  0.00000000000E+00 0. -1.
         11    1    4    4    0    0 -0.85217626894E+01  0.10648012238E+02 -0.54242682421E+01  0.14677305276E+02  0.51100000000E-03 0. -1.
        -11    1    4    4    0    0 -0.99787999281E+01 -0.21473087070E+01 -0.13660673839E+02  0.17052899832E+02  0.51100000000E-03 0.  1.
         12    1    4    4    0    0 -0.86592801051E+01  0.65193513098E+00 -0.13506367072E+02  0.16057088866E+02  0.00000000000E+00 0. -1.
</event>
<event>
 8    1  0.6519581E-011  0.9118800E+02  0.7816164E-02  0.1184000E+00
        -11   -1    0    0    0    0  0.00000000000E+00  0.00000000000E+00  0.45593999997E+02  0.45594000000E+02  0.51100000000E-03 0. -1.
         11   -1    0    0    0    0 -0.00000000000E+00 -0.00000000000E+00 -0.45593999997E+02  0.45594000000E+02  0.51100000000E-03 0.  1.
         23    2    1    2    0    0  0.00000000000E+00  0.00000000000E+00  0.00000000000E+00  0.91188000000E+02  0.91188000000E+02 0.  0.
    9900012    2    3    3    0    0  0.19814161587E+02  0.44812643074E+01 -0.38352837945E+02  0.47787275264E+02  0.20000019239E+02 0.  0.
         12    1    3    3    0    0 -0.19814161587E+02 -0.44812643074E+01  0.38352837945E+02  0.43400724736E+02  0.00000000000E+00 0. -1.
         11    1    4    4    0    0  0.28569913977E+01 -0.10961851847E+01  0.16711569880E+01  0.34866585358E+01  0.51100000000E-03 0. -1.
        -11    1    4    4    0    0  0.60129416687E+01  0.53381511746E+01 -0.16583028918E+02  0.18429546219E+02  0.51100000000E-03 0.  1.
         12    1    4    4    0    0  0.10944228521E+02  0.23929831752E+00 -0.23440966015E+02  0.25871070509E+02  0.00000000000E+00 0. -1.
</event>
<event>
 8    1  0.6019723E-011  0.9118800E+02  0.7816164E-02  0.1184000E+00
        -11   -1    0    0    0    0  0.00000000000E+00  0.00000000000E+00  0.45593999997E+02  0.45594000000E+02  0.51100000000E-03 0. -1.
         11   -1    0    0    0    0 -0.00000000000E+00 -0.00000000000E+00 -0.45593999997E+02  0.45594000000E+02  0.51100000000E-03 0.  1.
         23    2    1    2    0    0 -0.44408920985E-15  0.00000000000E+00  0.00000000000E+00  0.91188000000E+02  0.91188000000E+02 0.  0.
    9900012    2    3    3    0    0  0.34216170296E+01 -0.13944004066E+02  0.40957057862E+02  0.47787270730E+02  0.19999998565E+02 0.  0.
        -12    1    3    3    0    0 -0.34216170296E+01  0.13944004066E+02 -0.40957057862E+02  0.43400729270E+02  0.00000000000E+00 0.  1.
         11    1    4    4    0    0  0.70279609962E+01 -0.55423271164E+01  0.31587316644E+02  0.32830903105E+02  0.51100000000E-03 0. -1.
        -11    1    4    4    0    0 -0.57563861639E+01 -0.69834939380E+01  0.68201819274E+01  0.11332257102E+02  0.51100000000E-03 0.  1.
        -12    1    4    4    0    0  0.21500421974E+01 -0.14181830111E+01  0.25495592903E+01  0.36241105224E+01  0.00000000000E+00 0.  1.
</event>
<event>
 8    1  0.6019723E-011  0.9118800E+02  0.7816164E-02  0.1184000E+00
        -11   -1    0    0    0    0  0.00000000000E+00  0.00000000000E+00  0.45593999997E+02  0.45594000000E+02  0.51100000000E-03 0. -1.
         11   -1    0    0    0    0 -0.00000000000E+00 -0.00000000000E+00 -0.45593999997E+02  0.45594000000E+02  0.51100000000E-03 0.  1.
         23    2    1    2    0    0  0.00000000000E+00  0.00000000000E+00  0.00000000000E+00  0.91188000000E+02  0.91188000000E+02 0.  0.
    9900012    2    3    3    0    0 -0.29082713863E+02  0.12179650460E+02 -0.29824128150E+02  0.47787230988E+02  0.19999817365E+02 0.  0.
         12    1    3    3    0    0  0.29082713863E+02 -0.12179650460E+02  0.29824128150E+02  0.43400769012E+02  0.00000000000E+00 0. -1.
         11    1    4    4    0    0 -0.55436378915E+01  0.70856813198E+01 -0.87978394241E+01  0.12583353275E+02  0.51100000000E-03 0. -1.
        -11    1    4    4    0    0 -0.86826215247E+01 -0.45701676966E+01 -0.39019056498E+01  0.10559318978E+02  0.51100000000E-03 0.  1.
        -12    1    4    4    0    0 -0.14856454447E+02  0.96641368366E+01 -0.17124383076E+02  0.24644558735E+02  0.00000000000E+00 0.  1.
</event>
<event>
 8    1  0.6019723E-011  0.9118800E+02  0.7816164E-02  0.1184000E+00
        -11   -1    0    0    0    0  0.00000000000E+00  0.00000000000E+00  0.45593999997E+02  0.45594000000E+02  0.51100000000E-03 0. -1.
         11   -1    0    0    0    0 -0.00000000000E+00 -0.00000000000E+00 -0.45593999997E+02  0.45594000000E+02  0.51100000000E-03 0.  1.
         23    2    1    2    0    0  0.35527136788E-14 -0.17763568394E-14  0.00000000000E+00  0.91188000000E+02  0.91188000000E+02 0.  0.
    9900012    2    3    3    0    0  0.31443984765E+02 -0.92911861378E+01 -0.28435419996E+02  0.47787269268E+02  0.19999991901E+02 0.  0.
         12    1    3    3    0    0 -0.31443984765E+02  0.92911861378E+01  0.28435419996E+02  0.43400730732E+02  0.00000000000E+00 0. -1.
         11    1    4    4    0    0  0.37653306619E+01  0.24883281684E+00 -0.93904488278E+01  0.10120284690E+02  0.51100000000E-03 0. -1.
        -11    1    4    4    0    0  0.81964636934E+01 -0.99996563850E+01 -0.63095405372E+01  0.14386988808E+02  0.51100000000E-03 0.  1.
        -12    1    4    4    0    0  0.19482190409E+02  0.45963743041E+00 -0.12735430631E+02  0.23279995770E+02  0.00000000000E+00 0.  1.
</event>
<event>
 8    1  0.6019723E-011  0.9118800E+02  0.7816164E-02  0.1184000E+00
        -11   -1    0    0    0    0  0.00000000000E+00  0.00000000000E+00  0.45593999997E+02  0.45594000000E+02  0.51100000000E-03 0. -1.
         11   -1    0    0    0    0 -0.00000000000E+00 -0.00000000000E+00 -0.45593999997E+02  0.45594000000E+02  0.51100000000E-03 0.  1.
         23    2    1    2    0    0 -0.88817841970E-15  0.00000000000E+00  0.00000000000E+00  0.91188000000E+02  0.91188000000E+02 0.  0.
    9900012    2    3    3    0    0  0.57492016044E+01  0.28482379086E+02 -0.32238552266E+02  0.47787268558E+02  0.19999988663E+02 0.  0.
         12    1    3    3    0    0 -0.57492016044E+01 -0.28482379086E+02  0.32238552266E+02  0.43400731442E+02  0.00000000000E+00 0. -1.
         11    1    4    4    0    0  0.34580357434E+00  0.21393984512E+02 -0.17387192929E+02  0.27570575467E+02  0.51100000000E-03 0.  1.
        -11    1    4    4    0    0  0.44776516919E+01  0.95786593551E+00 -0.52833202745E+00  0.46093390868E+01  0.51100000000E-03 0. -1.
         12    1    4    4    0    0  0.92574633811E+00  0.61305286385E+01 -0.14323027310E+02  0.15607354004E+02  0.00000000000E+00 0. -1.
</event>
<event>
 8    1  0.6019723E-011  0.9118800E+02  0.7816164E-02  0.1184000E+00
        -11   -1    0    0    0    0  0.00000000000E+00  0.00000000000E+00  0.45593999997E+02  0.45594000000E+02  0.51100000000E-03 0. -1.
         11   -1    0    0    0    0 -0.00000000000E+00 -0.00000000000E+00 -0.45593999997E+02  0.45594000000E+02  0.51100000000E-03 0.  1.
         23    2    1    2    0    0  0.00000000000E+00  0.00000000000E+00  0.35527136788E-14  0.91188000000E+02  0.91188000000E+02 0.  0.
    9900012    2    3    3    0    0 -0.25530774010E+02  0.27692162693E+02  0.21562623345E+02  0.47787273950E+02  0.20000013246E+02 0.  0.
        -12    1    3    3    0    0  0.25530774010E+02 -0.27692162693E+02 -0.21562623345E+02  0.43400726050E+02  0.00000000000E+00 0.  1.
         11    1    4    4    0    0 -0.16532962353E+02  0.23013216164E+02  0.11407966996E+02  0.30546500186E+02  0.51100000000E-03 0. -1.
        -11    1    4    4    0    0  0.85490818325E+00 -0.18836874532E+01  0.11478673088E+01  0.23657442894E+01  0.51100000000E-03 0.  1.
         12    1    4    4    0    0 -0.98527198406E+01  0.65626339820E+01  0.90067890405E+01  0.14875029474E+02  0.00000000000E+00 0. -1.
</event>
<event>
 8    1  0.6668784E-011  0.9118800E+02  0.7816164E-02  0.1184000E+00
        -11   -1    0    0    0    0  0.00000000000E+00  0.00000000000E+00  0.45593999997E+02  0.45594000000E+02  0.51100000000E-03 0. -1.
         11   -1    0    0    0    0 -0.00000000000E+00 -0.00000000000E+00 -0.45593999997E+02  0.45594000000E+02  0.51100000000E-03 0.  1.
         23    2    1    2    0    0  0.00000000000E+00  0.00000000000E+00  0.00000000000E+00  0.91188000000E+02  0.91188000000E+02 0.  0.
    9900012    2    3    3    0    0  0.10306396290E+02  0.11434737961E+02 -0.40578912553E+02  0.47787272117E+02  0.20000004892E+02 0.  0.
         12    1    3    3    0    0 -0.10306396290E+02 -0.11434737961E+02  0.40578912553E+02  0.43400727883E+02  0.00000000000E+00 0. -1.
         11    1    4    4    0    0 -0.35776365197E+01 -0.21859399290E+01 -0.36179051004E+01  0.55377842155E+01  0.51100000000E-03 0. -1.
        -11    1    4    4    0    0  0.65610822999E+01  0.10028173528E+02 -0.18188518829E+02  0.21781512406E+02  0.51100000000E-03 0.  1.
         12    1    4    4    0    0  0.73229505098E+01  0.35925043623E+01 -0.18772488624E+02  0.20467975496E+02  0.00000000000E+00 0. -1.
</event>
<event>
 8    1  0.6019723E-011  0.9118800E+02  0.7816164E-02  0.1184000E+00
        -11   -1    0    0    0    0  0.00000000000E+00  0.00000000000E+00  0.45593999997E+02  0.45594000000E+02  0.51100000000E-03 0. -1.
         11   -1    0    0    0    0 -0.00000000000E+00 -0.00000000000E+00 -0.45593999997E+02  0.45594000000E+02  0.51100000000E-03 0.  1.
         23    2    1    2    0    0  0.35527136788E-14  0.00000000000E+00  0.00000000000E+00  0.91188000000E+02  0.91188000000E+02 0.  0.
    9900012    2    3    3    0    0 -0.29604842989E+02  0.23140060582E+02  0.21718975222E+02  0.47787274006E+02  0.20000013502E+02 0.  0.
        -12    1    3    3    0    0  0.29604842989E+02 -0.23140060582E+02 -0.21718975222E+02  0.43400725994E+02  0.00000000000E+00 0.  1.
         11    1    4    4    0    0 -0.25119806700E+02  0.21396569121E+02  0.18156570751E+02  0.37662699325E+02  0.51100000000E-03 0. -1.
        -11    1    4    4    0    0 -0.45260995536E+00 -0.30133248289E+01  0.23448186996E+00  0.30561355180E+01  0.51100000000E-03 0.  1.
        -12    1    4    4    0    0 -0.40324263345E+01  0.47568162899E+01  0.33279226011E+01  0.70684391628E+01  0.00000000000E+00 0.  1.
</event>
<event>
 8    1  0.6019723E-011  0.9118800E+02  0.7816164E-02  0.1184000E+00
        -11   -1    0    0    0    0  0.00000000000E+00  0.00000000000E+00  0.45593999997E+02  0.45594000000E+02  0.51100000000E-03 0.  1.
         11   -1    0    0    0    0 -0.00000000000E+00 -0.00000000000E+00 -0.45593999997E+02  0.45594000000E+02  0.51100000000E-03 0. -1.
         23    2    1    2    0    0 -0.17763568394E-14 -0.71054273576E-14 -0.17763568394E-14  0.91188000000E+02  0.91188000000E+02 0.  0.
    9900012    2    3    3    0    0 -0.12755771940E+02  0.40036272682E+02  0.10863264865E+02  0.47787269919E+02  0.19999994867E+02 0.  0.
        -12    1    3    3    0    0  0.12755771940E+02 -0.40036272682E+02 -0.10863264865E+02  0.43400730081E+02  0.00000000000E+00 0.  1.
         11    1    4    4    0    0 -0.24270725295E+01  0.26233426727E+02  0.37276736052E+01  0.26607873077E+02  0.51100000000E-03 0. -1.
        -11    1    4    4    0    0 -0.13180870115E+01  0.55835990386E+00  0.47780455705E+01  0.49878691730E+01  0.51100000000E-03 0.  1.
        -12    1    4    4    0    0 -0.90106123993E+01  0.13244486051E+02  0.23575456897E+01  0.16191527669E+02  0.00000000000E+00 0.  1.
</event>
<event>
 8    1  0.6019723E-011  0.9118800E+02  0.7816164E-02  0.1184000E+00
        -11   -1    0    0    0    0  0.00000000000E+00  0.00000000000E+00  0.45593999997E+02  0.45594000000E+02  0.51100000000E-03 0. -1.
         11   -1    0    0    0    0 -0.00000000000E+00 -0.00000000000E+00 -0.45593999997E+02  0.45594000000E+02  0.51100000000E-03 0.  1.
         23    2    1    2    0    0  0.00000000000E+00 -0.17763568394E-14 -0.71054273576E-14  0.91188000000E+02  0.91188000000E+02 0.  0.
    9900012    2    3    3    0    0  0.77011522497E+01  0.10798498442E+02  0.41324418994E+02  0.47787275124E+02  0.20000018600E+02 0.  0.
        -12    1    3    3    0    0 -0.77011522497E+01 -0.10798498442E+02 -0.41324418994E+02  0.43400724876E+02  0.00000000000E+00 0.  1.
         11    1    4    4    0    0  0.83145519875E+01  0.87137088093E+00  0.13355581053E+02  0.15756351338E+02  0.51100000000E-03 0.  1.
        -11    1    4    4    0    0  0.23039762693E+01 -0.10563224167E+01  0.12957606254E+02  0.13203169460E+02  0.51100000000E-03 0. -1.
         12    1    4    4    0    0 -0.29173760071E+01  0.10983449978E+02  0.15011231686E+02  0.18827754325E+02  0.00000000000E+00 0. -1.
</event>
<event>
 8    1  0.6019723E-011  0.9118800E+02  0.7816164E-02  0.1184000E+00
        -11   -1    0    0    0    0  0.00000000000E+00  0.00000000000E+00  0.45593999997E+02  0.45594000000E+02  0.51100000000E-03 0. -1.
         11   -1    0    0    0    0 -0.00000000000E+00 -0.00000000000E+00 -0.45593999997E+02  0.45594000000E+02  0.51100000000E-03 0.  1.
         23    2    1    2    0    0  0.00000000000E+00  0.22204460493E-15  0.71054273576E-14  0.91188000000E+02  0.91188000000E+02 0.  0.
    9900012    2    3    3    0    0  0.17542400504E+02  0.87166796440E+00  0.39687874985E+02  0.47787273724E+02  0.20000012215E+02 0.  0.
        -12    1    3    3    0    0 -0.17542400504E+02 -0.87166796440E+00 -0.39687874985E+02  0.43400726276E+02  0.00000000000E+00 0.  1.
         11    1    4    4    0    0 -0.11438503025E+01 -0.21591516586E+01  0.14599645955E+01  0.28463707208E+01  0.51100000000E-03 0. -1.
        -11    1    4    4    0    0  0.19828743841E+02  0.43310842912E+01  0.28083975813E+02  0.34650354561E+02  0.51100000000E-03 0.  1.
         12    1    4    4    0    0 -0.11424930348E+01 -0.13002646682E+01  0.10143934576E+02  0.10290548442E+02  0.00000000000E+00 0. -1.
</event>
<event>
 8    1  0.6019723E-011  0.9118800E+02  0.7816164E-02  0.1184000E+00
        -11   -1    0    0    0    0  0.00000000000E+00  0.00000000000E+00  0.45593999997E+02  0.45594000000E+02  0.51100000000E-03 0. -1.
         11   -1    0    0    0    0 -0.00000000000E+00 -0.00000000000E+00 -0.45593999997E+02  0.45594000000E+02  0.51100000000E-03 0.  1.
         23    2    1    2    0    0 -0.17763568394E-14  0.22204460493E-14 -0.71054273576E-14  0.91188000000E+02  0.91188000000E+02 0.  0.
    9900012    2    3    3    0    0 -0.91219979608E+01  0.32830843205E+01 -0.42304066424E+02  0.47787268146E+02  0.19999986785E+02 0.  0.
         12    1    3    3    0    0  0.91219979608E+01 -0.32830843205E+01  0.42304066424E+02  0.43400731854E+02  0.00000000000E+00 0. -1.
         11    1    4    4    0    0 -0.68286958870E+01 -0.72304430066E+01 -0.12324244756E+02  0.15836584311E+02  0.51100000000E-03 0. -1.
        -11    1    4    4    0    0 -0.14746148289E+01  0.68907840003E+01 -0.22843525085E+02  0.23905732191E+02  0.51100000000E-03 0.  1.
         12    1    4    4    0    0 -0.81868724489E+00  0.36227433269E+01 -0.71362965832E+01  0.80449516431E+01  0.00000000000E+00 0. -1.
</event>
<event>
 8    1  0.6019723E-011  0.9118800E+02  0.7816164E-02  0.1184000E+00
        -11   -1    0    0    0    0  0.00000000000E+00  0.00000000000E+00  0.45593999997E+02  0.45594000000E+02  0.51100000000E-03 0. -1.
         11   -1    0    0    0    0 -0.00000000000E+00 -0.00000000000E+00 -0.45593999997E+02  0.45594000000E+02  0.51100000000E-03 0.  1.
         23    2    1    2    0    0  0.00000000000E+00  0.17763568394E-14  0.00000000000E+00  0.91188000000E+02  0.91188000000E+02 0.  0.
    9900012    2    3    3    0    0 -0.34093456854E+01 -0.77082023559E+01  0.42574444780E+02  0.47787269938E+02  0.19999994957E+02 0.  0.
        -12    1    3    3    0    0  0.34093456854E+01  0.77082023559E+01 -0.42574444780E+02  0.43400730062E+02  0.00000000000E+00 0.  1.
         11    1    4    4    0    0 -0.34671084666E+01  0.29562849438E+01  0.32258470198E+02  0.32578664208E+02  0.51100000000E-03 0. -1.
        -11    1    4    4    0    0  0.12604731429E+01 -0.41797585431E+01  0.26970624397E+01  0.51316001488E+01  0.51100000000E-03 0.  1.
         12    1    4    4    0    0 -0.12027103617E+01 -0.64847287567E+01  0.76189121419E+01  0.10077005581E+02  0.00000000000E+00 0. -1.
</event>
<event>
 8    1  0.6019723E-011  0.9118800E+02  0.7816164E-02  0.1184000E+00
        -11   -1    0    0    0    0  0.00000000000E+00  0.00000000000E+00  0.45593999997E+02  0.45594000000E+02  0.51100000000E-03 0. -1.
         11   -1    0    0    0    0 -0.00000000000E+00 -0.00000000000E+00 -0.45593999997E+02  0.45594000000E+02  0.51100000000E-03 0.  1.
         23    2    1    2    0    0  0.66613381478E-15  0.00000000000E+00 -0.35527136788E-14  0.91188000000E+02  0.91188000000E+02 0.  0.
    9900012    2    3    3    0    0  0.24241722903E+00 -0.39316553587E+02  0.18378643708E+02  0.47787254653E+02  0.19999925267E+02 0.  0.
        -12    1    3    3    0    0 -0.24241722903E+00  0.39316553587E+02 -0.18378643708E+02  0.43400745347E+02  0.00000000000E+00 0.  1.
         11    1    4    4    0    0  0.16397782867E+01 -0.22341657413E+01  0.11290866433E+01  0.29925250706E+01  0.51100000000E-03 0. -1.
        -11    1    4    4    0    0  0.35120118255E+01 -0.30383509974E-01 -0.25807651889E+00  0.35216124106E+01  0.51100000000E-03 0.  1.
        -12    1    4    4    0    0 -0.49093728831E+01 -0.37052004336E+02  0.17507633584E+02  0.41273117172E+02  0.00000000000E+00 0.  1.
</event>
<event>
 8    1  0.6019723E-011  0.9118800E+02  0.7816164E-02  0.1184000E+00
        -11   -1    0    0    0    0  0.00000000000E+00  0.00000000000E+00  0.45593999997E+02  0.45594000000E+02  0.51100000000E-03 0.  1.
         11   -1    0    0    0    0 -0.00000000000E+00 -0.00000000000E+00 -0.45593999997E+02  0.45594000000E+02  0.51100000000E-03 0. -1.
         23    2    1    2    0    0  0.00000000000E+00  0.71054273576E-14 -0.35527136788E-14  0.91188000000E+02  0.91188000000E+02 0.  0.
    9900012    2    3    3    0    0 -0.46182302504E+01 -0.38550763041E+02  0.19394173823E+02  0.47787270053E+02  0.19999995480E+02 0.  0.
        -12    1    3    3    0    0  0.46182302504E+01  0.38550763041E+02 -0.19394173823E+02  0.43400729947E+02  0.00000000000E+00 0.  1.
         11    1    4    4    0    0  0.53802782871E+01 -0.14147909624E+02  0.28446267651E+01  0.15401384447E+02  0.51100000000E-03 0. -1.
        -11    1    4    4    0    0 -0.25727073332E+01 -0.14602053114E+01  0.46100109122E+01  0.54775198261E+01  0.51100000000E-03 0.  1.
         12    1    4    4    0    0 -0.74258012043E+01 -0.22942648105E+02  0.11939536145E+02  0.26908365780E+02  0.00000000000E+00 0. -1.
</event>
<event>
 8    1  0.6019723E-011  0.9118800E+02  0.7816164E-02  0.1184000E+00
        -11   -1    0    0    0    0  0.00000000000E+00  0.00000000000E+00  0.45593999997E+02  0.45594000000E+02  0.51100000000E-03 0. -1.
         11   -1    0    0    0    0 -0.00000000000E+00 -0.00000000000E+00 -0.45593999997E+02  0.45594000000E+02  0.51100000000E-03 0.  1.
         23    2    1    2    0    0  0.00000000000E+00  0.00000000000E+00 -0.71054273576E-14  0.91188000000E+02  0.91188000000E+02 0.  0.
    9900012    2    3    3    0    0 -0.29972215315E+01 -0.13904403182E+02  0.41003746516E+02  0.47787274279E+02  0.20000014746E+02 0.  0.
        -12    1    3    3    0    0  0.29972215315E+01  0.13904403182E+02 -0.41003746516E+02  0.43400725721E+02  0.00000000000E+00 0.  1.
         11    1    4    4    0    0 -0.38932518427E+01 -0.17157581174E+02  0.28713055952E+02  0.33674613347E+02  0.51100000000E-03 0. -1.
        -11    1    4    4    0    0  0.74953357063E-01  0.21329185577E+01  0.12523753492E+02  0.12704304836E+02  0.51100000000E-03 0.  1.
         12    1    4    4    0    0  0.82107695416E+00  0.11202594342E+01 -0.23306292809E+00  0.14083560960E+01  0.00000000000E+00 0. -1.
</event>
<event>
 8    1  0.6019723E-011  0.9118800E+02  0.7816164E-02  0.1184000E+00
        -11   -1    0    0    0    0  0.00000000000E+00  0.00000000000E+00  0.45593999997E+02  0.45594000000E+02  0.51100000000E-03 0. -1.
         11   -1    0    0    0    0 -0.00000000000E+00 -0.00000000000E+00 -0.45593999997E+02  0.45594000000E+02  0.51100000000E-03 0.  1.
         23    2    1    2    0    0  0.00000000000E+00  0.00000000000E+00 -0.35527136788E-14  0.91188000000E+02  0.91188000000E+02 0.  0.
    9900012    2    3    3    0    0  0.25408813152E+02 -0.29747890984E+02  0.18790376425E+02  0.47787273624E+02  0.20000011761E+02 0.  0.
        -12    1    3    3    0    0 -0.25408813152E+02  0.29747890984E+02 -0.18790376425E+02  0.43400726376E+02  0.00000000000E+00 0.  1.
         11    1    4    4    0    0  0.21765780806E+02 -0.28640286197E+02  0.19040743543E+02  0.40700922870E+02  0.51100000000E-03 0. -1.
        -11    1    4    4    0    0  0.22091656006E+01  0.10552716612E+01  0.23636015556E+01  0.34030315169E+01  0.51100000000E-03 0.  1.
         12    1    4    4    0    0  0.14338667456E+01 -0.21628764483E+01 -0.26139686739E+01  0.36833192372E+01  0.00000000000E+00 0. -1.
</event>
<event>
 8    1  0.6019723E-011  0.9118800E+02  0.7816164E-02  0.1184000E+00
        -11   -1    0    0    0    0  0.00000000000E+00  0.00000000000E+00  0.45593999997E+02  0.45594000000E+02  0.51100000000E-03 0. -1.
         11   -1    0    0    0    0 -0.00000000000E+00 -0.00000000000E+00 -0.45593999997E+02  0.45594000000E+02  0.51100000000E-03 0.  1.
         23    2    1    2    0    0  0.00000000000E+00 -0.35527136788E-14  0.00000000000E+00  0.91188000000E+02  0.91188000000E+02 0.  0.
    9900012    2    3    3    0    0  0.12939410834E+02  0.30370748105E+02 -0.28174658554E+02  0.47787284824E+02  0.20000062825E+02 0.  0.
         12    1    3    3    0    0 -0.12939410834E+02 -0.30370748105E+02  0.28174658554E+02  0.43400715176E+02  0.00000000000E+00 0. -1.
         11    1    4    4    0    0  0.14767963049E+02  0.15060543874E+02 -0.22861456652E+02  0.31105609059E+02  0.51100000000E-03 0. -1.
        -11    1    4    4    0    0 -0.19766548988E+01  0.86019641525E+01 -0.45459648484E+01  0.99280787937E+01  0.51100000000E-03 0.  1.
         12    1    4    4    0    0  0.14810268389E+00  0.67082400785E+01 -0.76723705370E+00  0.67535969714E+01  0.00000000000E+00 0. -1.
</event>
<event>
 8    1  0.6445852E-011  0.9118800E+02  0.7816164E-02  0.1184000E+00
        -11   -1    0    0    0    0  0.00000000000E+00  0.00000000000E+00  0.45593999997E+02  0.45594000000E+02  0.51100000000E-03 0. -1.
         11   -1    0    0    0    0 -0.00000000000E+00 -0.00000000000E+00 -0.45593999997E+02  0.45594000000E+02  0.51100000000E-03 0.  1.
         23    2    1    2    0    0  0.00000000000E+00  0.00000000000E+00  0.00000000000E+00  0.91188000000E+02  0.91188000000E+02 0.  0.
    9900012    2    3    3    0    0 -0.17302234229E+02  0.17540519001E+02 -0.35729343085E+02  0.47787273354E+02  0.20000010528E+02 0.  0.
         12    1    3    3    0    0  0.17302234229E+02 -0.17540519001E+02  0.35729343085E+02  0.43400726646E+02  0.00000000000E+00 0. -1.
         11    1    4    4    0    0 -0.10067887469E+02  0.47489858630E+01 -0.26054408944E+02  0.28332798141E+02  0.51100000000E-03 0. -1.
        -11    1    4    4    0    0 -0.43986087526E+01  0.59462935348E+01 -0.95042691854E+01  0.12043143226E+02  0.51100000000E-03 0.  1.
         12    1    4    4    0    0 -0.28357380081E+01  0.68452396037E+01 -0.17066495525E+00  0.74113319861E+01  0.00000000000E+00 0. -1.
</event>
<event>
 8    1  0.6019723E-011  0.9118800E+02  0.7816164E-02  0.1184000E+00
        -11   -1    0    0    0    0  0.00000000000E+00  0.00000000000E+00  0.45593999997E+02  0.45594000000E+02  0.51100000000E-03 0.  1.
         11   -1    0    0    0    0 -0.00000000000E+00 -0.00000000000E+00 -0.45593999997E+02  0.45594000000E+02  0.51100000000E-03 0. -1.
         23    2    1    2    0    0  0.00000000000E+00 -0.71054273576E-14  0.00000000000E+00  0.91188000000E+02  0.91188000000E+02 0.  0.
    9900012    2    3    3    0    0  0.17235829863E+02 -0.39144285604E+02  0.73668824969E+01  0.47787310095E+02  0.20000178048E+02 0.  0.
        -12    1    3    3    0    0 -0.17235829863E+02  0.39144285604E+02 -0.73668824969E+01  0.43400689905E+02  0.00000000000E+00 0.  1.
         11    1    4    4    0    0  0.66521400476E+01 -0.16449655769E+02  0.50578808552E-01  0.17743863745E+02  0.51100000000E-03 0. -1.
        -11    1    4    4    0    0  0.13537984355E+02 -0.13005255609E+02  0.65586128106E+01  0.19885399069E+02  0.51100000000E-03 0.  1.
        -12    1    4    4    0    0 -0.29542945400E+01 -0.96893742250E+01  0.75769087770E+00  0.10158047281E+02  0.00000000000E+00 0.  1.
</event>
<event>
 8    1  0.6019723E-011  0.9118800E+02  0.7816164E-02  0.1184000E+00
        -11   -1    0    0    0    0  0.00000000000E+00  0.00000000000E+00  0.45593999997E+02  0.45594000000E+02  0.51100000000E-03 0. -1.
         11   -1    0    0    0    0 -0.00000000000E+00 -0.00000000000E+00 -0.45593999997E+02  0.45594000000E+02  0.51100000000E-03 0.  1.
         23    2    1    2    0    0  0.00000000000E+00  0.00000000000E+00  0.00000000000E+00  0.91188000000E+02  0.91188000000E+02 0.  0.
    9900012    2    3    3    0    0 -0.39849490690E+01 -0.58500634215E+01 -0.42819622695E+02  0.47787272485E+02  0.20000006567E+02 0.  0.
         12    1    3    3    0    0  0.39849490690E+01  0.58500634215E+01  0.42819622695E+02  0.43400727515E+02  0.00000000000E+00 0. -1.
         11    1    4    4    0    0 -0.10826699675E+01 -0.73054403360E+01 -0.73977289903E+01  0.10453134804E+02  0.51100000000E-03 0. -1.
        -11    1    4    4    0    0  0.39667401411E+01  0.13602876532E+01 -0.76369341280E+01  0.87125296546E+01  0.51100000000E-03 0.  1.
        -12    1    4    4    0    0 -0.68690192426E+01  0.95089261282E-01 -0.27784959577E+02  0.28621608026E+02  0.00000000000E+00 0.  1.
</event>
<event>
 8    1  0.6019723E-011  0.9118800E+02  0.7816164E-02  0.1184000E+00
        -11   -1    0    0    0    0  0.00000000000E+00  0.00000000000E+00  0.45593999997E+02  0.45594000000E+02  0.51100000000E-03 0.  1.
         11   -1    0    0    0    0 -0.00000000000E+00 -0.00000000000E+00 -0.45593999997E+02  0.45594000000E+02  0.51100000000E-03 0. -1.
         23    2    1    2    0    0 -0.71054273576E-14  0.00000000000E+00  0.88817841970E-15  0.91188000000E+02  0.91188000000E+02 0.  0.
    9900012    2    3    3    0    0  0.35333069496E+02  0.24844533682E+02 -0.42367412504E+01  0.47787232377E+02  0.19999823698E+02 0.  0.
         12    1    3    3    0    0 -0.35333069496E+02 -0.24844533682E+02  0.42367412504E+01  0.43400767623E+02  0.00000000000E+00 0. -1.
         11    1    4    4    0    0  0.28454207742E+02  0.12028625918E+02 -0.73820436226E+01  0.31761995340E+02  0.51100000000E-03 0.  1.
        -11    1    4    4    0    0  0.16161497238E+01  0.88790617606E+01  0.27774678341E+01  0.94426694058E+01  0.51100000000E-03 0. -1.
        -12    1    4    4    0    0  0.52627120304E+01  0.39368460030E+01  0.36783453814E+00  0.65825676308E+01  0.00000000000E+00 0.  1.
</event>
<event>
 8    1  0.6019723E-011  0.9118800E+02  0.7816164E-02  0.1184000E+00
        -11   -1    0    0    0    0  0.00000000000E+00  0.00000000000E+00  0.45593999997E+02  0.45594000000E+02  0.51100000000E-03 0. -1.
         11   -1    0    0    0    0 -0.00000000000E+00 -0.00000000000E+00 -0.45593999997E+02  0.45594000000E+02  0.51100000000E-03 0.  1.
         23    2    1    2    0    0 -0.35527136788E-14  0.35527136788E-14  0.00000000000E+00  0.91188000000E+02  0.91188000000E+02 0.  0.
    9900012    2    3    3    0    0 -0.25147506183E+02 -0.31224667580E+02  0.16620660424E+02  0.47787270909E+02  0.19999999383E+02 0.  0.
        -12    1    3    3    0    0  0.25147506183E+02  0.31224667580E+02 -0.16620660424E+02  0.43400729091E+02  0.00000000000E+00 0.  1.
         11    1    4    4    0    0 -0.89406949150E+00 -0.11557981658E+02  0.98335745643E+01  0.15201496283E+02  0.51100000000E-03 0. -1.
        -11    1    4    4    0    0 -0.23017353857E+02 -0.16335417499E+02  0.52253682160E+01  0.28704510390E+02  0.51100000000E-03 0.  1.
        -12    1    4    4    0    0 -0.12360828339E+01 -0.33312684224E+01  0.15617176433E+01  0.38812642363E+01  0.00000000000E+00 0.  1.
</event>
<event>
 8    1  0.6019723E-011  0.9118800E+02  0.7816164E-02  0.1184000E+00
        -11   -1    0    0    0    0  0.00000000000E+00  0.00000000000E+00  0.45593999997E+02  0.45594000000E+02  0.51100000000E-03 0. -1.
         11   -1    0    0    0    0 -0.00000000000E+00 -0.00000000000E+00 -0.45593999997E+02  0.45594000000E+02  0.51100000000E-03 0.  1.
         23    2    1    2    0    0  0.00000000000E+00 -0.17763568394E-14  0.00000000000E+00  0.91188000000E+02  0.91188000000E+02 0.  0.
    9900012    2    3    3    0    0 -0.20476360262E+02 -0.15120820290E+02 -0.35152562612E+02  0.47787271964E+02  0.20000004194E+02 0.  0.
         12    1    3    3    0    0  0.20476360262E+02  0.15120820290E+02  0.35152562612E+02  0.43400728036E+02  0.00000000000E+00 0. -1.
         11    1    4    4    0    0 -0.18475614906E+02 -0.51526454141E+01 -0.16922352172E+02  0.25578586830E+02  0.51100000000E-03 0. -1.
        -11    1    4    4    0    0  0.27456886837E+01 -0.27444692621E+01 -0.73576283167E+01  0.83189910798E+01  0.51100000000E-03 0.  1.
         12    1    4    4    0    0 -0.47464340397E+01 -0.72237056142E+01 -0.10872582124E+02  0.13889694055E+02  0.00000000000E+00 0. -1.
</event>
<event>
 8    1  0.6019723E-011  0.9118800E+02  0.7816164E-02  0.1184000E+00
        -11   -1    0    0    0    0  0.00000000000E+00  0.00000000000E+00  0.45593999997E+02  0.45594000000E+02  0.51100000000E-03 0. -1.
         11   -1    0    0    0    0 -0.00000000000E+00 -0.00000000000E+00 -0.45593999997E+02  0.45594000000E+02  0.51100000000E-03 0.  1.
         23    2    1    2    0    0  0.00000000000E+00  0.00000000000E+00  0.00000000000E+00  0.91188000000E+02  0.91188000000E+02 0.  0.
    9900012    2    3    3    0    0 -0.23748180298E+02  0.23216903295E+02 -0.27939633022E+02  0.47787265450E+02  0.19999974493E+02 0.  0.
         12    1    3    3    0    0  0.23748180298E+02 -0.23216903295E+02  0.27939633022E+02  0.43400734550E+02  0.00000000000E+00 0. -1.
         11    1    4    4    0    0  0.50344165205E+00  0.91255185146E+01 -0.36209533170E+01  0.98305566904E+01  0.51100000000E-03 0. -1.
        -11    1    4    4    0    0 -0.16429613478E+02  0.89654648458E+01 -0.11087610646E+02  0.21754237956E+02  0.51100000000E-03 0.  1.
        -12    1    4    4    0    0 -0.78220084724E+01  0.51259199344E+01 -0.13231069058E+02  0.16202470804E+02  0.00000000000E+00 0.  1.
</event>
<event>
 8    1  0.6019723E-011  0.9118800E+02  0.7816164E-02  0.1184000E+00
        -11   -1    0    0    0    0  0.00000000000E+00  0.00000000000E+00  0.45593999997E+02  0.45594000000E+02  0.51100000000E-03 0. -1.
         11   -1    0    0    0    0 -0.00000000000E+00 -0.00000000000E+00 -0.45593999997E+02  0.45594000000E+02  0.51100000000E-03 0.  1.
         23    2    1    2    0    0  0.00000000000E+00 -0.35527136788E-14  0.00000000000E+00  0.91188000000E+02  0.91188000000E+02 0.  0.
    9900012    2    3    3    0    0 -0.24807227231E+02  0.30967689146E+02 -0.17584842304E+02  0.47787274513E+02  0.20000015814E+02 0.  0.
         12    1    3    3    0    0  0.24807227231E+02 -0.30967689146E+02  0.17584842304E+02  0.43400725487E+02  0.00000000000E+00 0. -1.
         11    1    4    4    0    0  0.18794075117E+01  0.56849210667E+01 -0.12735773137E+01  0.61214785440E+01  0.51100000000E-03 0. -1.
        -11    1    4    4    0    0 -0.24741278390E+02  0.26310046396E+02 -0.15017342127E+02  0.39113552160E+02  0.51100000000E-03 0.  1.
        -12    1    4    4    0    0 -0.19453563536E+01 -0.10272783172E+01 -0.12939228642E+01  0.25522438092E+01  0.00000000000E+00 0.  1.
</event>
<event>
 8    1  0.6019723E-011  0.9118800E+02  0.7816164E-02  0.1184000E+00
        -11   -1    0    0    0    0  0.00000000000E+00  0.00000000000E+00  0.45593999997E+02  0.45594000000E+02  0.51100000000E-03 0. -1.
         11   -1    0    0    0    0 -0.00000000000E+00 -0.00000000000E+00 -0.45593999997E+02  0.45594000000E+02  0.51100000000E-03 0.  1.
         23    2    1    2    0    0 -0.17763568394E-14 -0.17763568394E-14  0.00000000000E+00  0.91188000000E+02  0.91188000000E+02 0.  0.
    9900012    2    3    3    0    0 -0.15801936547E+02 -0.10898413750E+02  0.38924886052E+02  0.47787269879E+02  0.19999994686E+02 0.  0.
        -12    1    3    3    0    0  0.15801936547E+02  0.10898413750E+02 -0.38924886052E+02  0.43400730121E+02  0.00000000000E+00 0.  1.
         11    1    4    4    0    0  0.20377208093E+01 -0.95264286700E+00  0.13140938003E+02  0.13332069847E+02  0.51100000000E-03 0. -1.
        -11    1    4    4    0    0 -0.33852976612E+00 -0.13445098429E+01  0.78186105115E+01  0.79405906400E+01  0.51100000000E-03 0.  1.
         12    1    4    4    0    0 -0.17501127590E+02 -0.86012610396E+01  0.17965337537E+02  0.26514609392E+02  0.00000000000E+00 0. -1.
</event>
<event>
 8    1  0.6019723E-011  0.9118800E+02  0.7816164E-02  0.1184000E+00
        -11   -1    0    0    0    0  0.00000000000E+00  0.00000000000E+00  0.45593999997E+02  0.45594000000E+02  0.51100000000E-03 0. -1.
         11   -1    0    0    0    0 -0.00000000000E+00 -0.00000000000E+00 -0.45593999997E+02  0.45594000000E+02  0.51100000000E-03 0.  1.
         23    2    1    2    0    0 -0.35527136788E-14 -0.71054273576E-14  0.00000000000E+00  0.91188000000E+02  0.91188000000E+02 0.  0.
    9900012    2    3    3    0    0 -0.20869733866E+02 -0.22058309791E+02  0.31008159912E+02  0.47787299503E+02  0.20000129754E+02 0.  0.
        -12    1    3    3    0    0  0.20869733866E+02  0.22058309791E+02 -0.31008159912E+02  0.43400700497E+02  0.00000000000E+00 0.  1.
         11    1    4    4    0    0 -0.75601184044E+01 -0.20489498864E+02  0.18493851478E+02  0.28618132307E+02  0.51100000000E-03 0. -1.
        -11    1    4    4    0    0 -0.12387735127E+02 -0.10007472732E+01  0.12997754469E+02  0.17983300537E+02  0.51100000000E-03 0.  1.
        -12    1    4    4    0    0 -0.92188033404E+00 -0.56806365365E+00 -0.48344603508E+00  0.11858666593E+01  0.00000000000E+00 0.  1.
</event>
<event>
 8    1  0.6019723E-011  0.9118800E+02  0.7816164E-02  0.1184000E+00
        -11   -1    0    0    0    0  0.00000000000E+00  0.00000000000E+00  0.45593999997E+02  0.45594000000E+02  0.51100000000E-03 0. -1.
         11   -1    0    0    0    0 -0.00000000000E+00 -0.00000000000E+00 -0.45593999997E+02  0.45594000000E+02  0.51100000000E-03 0.  1.
         23    2    1    2    0    0  0.17763568394E-14  0.00000000000E+00  0.00000000000E+00  0.91188000000E+02  0.91188000000E+02 0.  0.
    9900012    2    3    3    0    0  0.12171595521E+02 -0.27124312697E+02 -0.31618736381E+02  0.47787302227E+02  0.20000142174E+02 0.  0.
         12    1    3    3    0    0 -0.12171595521E+02  0.27124312697E+02  0.31618736381E+02  0.43400697773E+02  0.00000000000E+00 0. -1.
         11    1    4    4    0    0  0.10595208841E+02 -0.15612547900E+02 -0.10472461402E+02  0.21579679108E+02  0.51100000000E-03 0. -1.
        -11    1    4    4    0    0  0.33185887726E+01 -0.77348085862E+01 -0.55875802649E+01  0.10102541699E+02  0.51100000000E-03 0.  1.
         12    1    4    4    0    0 -0.17422020923E+01 -0.37769562112E+01 -0.15558694714E+02  0.16105081420E+02  0.00000000000E+00 0. -1.
</event>
<event>
 8    1  0.6019723E-011  0.9118800E+02  0.7816164E-02  0.1184000E+00
        -11   -1    0    0    0    0  0.00000000000E+00  0.00000000000E+00  0.45593999997E+02  0.45594000000E+02  0.51100000000E-03 0. -1.
         11   -1    0    0    0    0 -0.00000000000E+00 -0.00000000000E+00 -0.45593999997E+02  0.45594000000E+02  0.51100000000E-03 0.  1.
         23    2    1    2    0    0 -0.88817841970E-15  0.00000000000E+00  0.00000000000E+00  0.91188000000E+02  0.91188000000E+02 0.  0.
    9900012    2    3    3    0    0 -0.78379741336E+01 -0.22136298459E+02  0.36498956863E+02  0.47787269591E+02  0.19999993371E+02 0.  0.
        -12    1    3    3    0    0  0.78379741336E+01  0.22136298459E+02 -0.36498956863E+02  0.43400730409E+02  0.00000000000E+00 0.  1.
         11    1    4    4    0    0  0.16831737992E+01 -0.12145072614E+02  0.10864005952E+02  0.16381773055E+02  0.51100000000E-03 0. -1.
        -11    1    4    4    0    0 -0.80862269236E+01 -0.13426707154E+01  0.18006381454E+02  0.19784327227E+02  0.51100000000E-03 0.  1.
        -12    1    4    4    0    0 -0.14349210091E+01 -0.86485551298E+01  0.76285694567E+01  0.11621169308E+02  0.00000000000E+00 0.  1.
</event>
<event>
 8    1  0.6019723E-011  0.9118800E+02  0.7816164E-02  0.1184000E+00
        -11   -1    0    0    0    0  0.00000000000E+00  0.00000000000E+00  0.45593999997E+02  0.45594000000E+02  0.51100000000E-03 0.  1.
         11   -1    0    0    0    0 -0.00000000000E+00 -0.00000000000E+00 -0.45593999997E+02  0.45594000000E+02  0.51100000000E-03 0. -1.
         23    2    1    2    0    0  0.00000000000E+00  0.00000000000E+00  0.00000000000E+00  0.91188000000E+02  0.91188000000E+02 0.  0.
    9900012    2    3    3    0    0  0.32929927848E+02 -0.27956010559E+02 -0.42076822342E+01  0.47787271155E+02  0.20000000505E+02 0.  0.
         12    1    3    3    0    0 -0.32929927848E+02  0.27956010559E+02  0.42076822342E+01  0.43400728845E+02  0.00000000000E+00 0. -1.
         11    1    4    4    0    0  0.11660681426E+02 -0.16230379966E+01 -0.59595484684E+01  0.13195528101E+02  0.51100000000E-03 0. -1.
        -11    1    4    4    0    0  0.60265375843E+01 -0.12453682777E+02 -0.56687096269E+00  0.13846830428E+02  0.51100000000E-03 0.  1.
         12    1    4    4    0    0  0.15242708838E+02 -0.13879289786E+02  0.23187371968E+01  0.20744912626E+02  0.00000000000E+00 0. -1.
</event>
<event>
 8    1  0.6019723E-011  0.9118800E+02  0.7816164E-02  0.1184000E+00
        -11   -1    0    0    0    0  0.00000000000E+00  0.00000000000E+00  0.45593999997E+02  0.45594000000E+02  0.51100000000E-03 0. -1.
         11   -1    0    0    0    0 -0.00000000000E+00 -0.00000000000E+00 -0.45593999997E+02  0.45594000000E+02  0.51100000000E-03 0.  1.
         23    2    1    2    0    0  0.00000000000E+00  0.00000000000E+00  0.00000000000E+00  0.91188000000E+02  0.91188000000E+02 0.  0.
    9900012    2    3    3    0    0  0.16317553240E+02 -0.22065663765E+02  0.33622421437E+02  0.47787270923E+02  0.19999999448E+02 0.  0.
        -12    1    3    3    0    0 -0.16317553240E+02  0.22065663765E+02 -0.33622421437E+02  0.43400729077E+02  0.00000000000E+00 0.  1.
         11    1    4    4    0    0  0.12531082686E+02 -0.98995364070E+01  0.24172215849E+02  0.28971104116E+02  0.51100000000E-03 0. -1.
        -11    1    4    4    0    0  0.36122612543E+01  0.46022409237E+00  0.22348030446E+01  0.42725381793E+01  0.51100000000E-03 0.  1.
         12    1    4    4    0    0  0.17420929966E+00 -0.12626351450E+02  0.72154025427E+01  0.14543628628E+02  0.00000000000E+00 0. -1.
</event>
<event>
 8    1  0.6019723E-011  0.9118800E+02  0.7816164E-02  0.1184000E+00
        -11   -1    0    0    0    0  0.00000000000E+00  0.00000000000E+00  0.45593999997E+02  0.45594000000E+02  0.51100000000E-03 0. -1.
         11   -1    0    0    0    0 -0.00000000000E+00 -0.00000000000E+00 -0.45593999997E+02  0.45594000000E+02  0.51100000000E-03 0.  1.
         23    2    1    2    0    0 -0.35527136788E-14  0.00000000000E+00  0.00000000000E+00  0.91188000000E+02  0.91188000000E+02 0.  0.
    9900012    2    3    3    0    0 -0.16679498095E+02 -0.81442107871E+01 -0.39231230736E+02  0.47787270846E+02  0.19999999096E+02 0.  0.
         12    1    3    3    0    0  0.16679498095E+02  0.81442107871E+01  0.39231230736E+02  0.43400729154E+02  0.00000000000E+00 0. -1.
         11    1    4    4    0    0  0.32557794227E+00  0.11469433056E+01  0.15251727840E+01  0.19358802196E+01  0.51100000000E-03 0. -1.
        -11    1    4    4    0    0  0.63165159423E+00  0.47621783364E+00 -0.22752411887E+01  0.24088357954E+01  0.51100000000E-03 0.  1.
         12    1    4    4    0    0 -0.17636727631E+02 -0.97673719264E+01 -0.38481162331E+02  0.43442554831E+02  0.00000000000E+00 0. -1.
</event>
<event>
 8    1  0.6019723E-011  0.9118800E+02  0.7816164E-02  0.1184000E+00
        -11   -1    0    0    0    0  0.00000000000E+00  0.00000000000E+00  0.45593999997E+02  0.45594000000E+02  0.51100000000E-03 0. -1.
         11   -1    0    0    0    0 -0.00000000000E+00 -0.00000000000E+00 -0.45593999997E+02  0.45594000000E+02  0.51100000000E-03 0.  1.
         23    2    1    2    0    0  0.00000000000E+00  0.00000000000E+00 -0.35527136788E-14  0.91188000000E+02  0.91188000000E+02 0.  0.
    9900012    2    3    3    0    0  0.29950116446E+02  0.82827568404E+01  0.30298676660E+02  0.47787270243E+02  0.19999996348E+02 0.  0.
        -12    1    3    3    0    0 -0.29950116446E+02 -0.82827568404E+01 -0.30298676660E+02  0.43400729757E+02  0.00000000000E+00 0.  1.
         11    1    4    4    0    0  0.14149405856E+02  0.11410235832E+02  0.22695230879E+02  0.29077012789E+02  0.51100000000E-03 0. -1.
        -11    1    4    4    0    0  0.11706871016E+02 -0.14498055500E+01  0.26913085050E+01  0.12099417624E+02  0.51100000000E-03 0.  1.
        -12    1    4    4    0    0  0.40938395744E+01 -0.16776734418E+01  0.49121372769E+01  0.66108398306E+01  0.00000000000E+00 0.  1.
</event>
<event>
 8    1  0.6019723E-011  0.9118800E+02  0.7816164E-02  0.1184000E+00
        -11   -1    0    0    0    0  0.00000000000E+00  0.00000000000E+00  0.45593999997E+02  0.45594000000E+02  0.51100000000E-03 0.  1.
         11   -1    0    0    0    0 -0.00000000000E+00 -0.00000000000E+00 -0.45593999997E+02  0.45594000000E+02  0.51100000000E-03 0. -1.
         23    2    1    2    0    0 -0.71054273576E-14  0.00000000000E+00  0.00000000000E+00  0.91188000000E+02  0.91188000000E+02 0.  0.
    9900012    2    3    3    0    0  0.33233915731E+02 -0.16918174241E+02 -0.22201470195E+02  0.47787273586E+02  0.20000011588E+02 0.  0.
         12    1    3    3    0    0 -0.33233915731E+02  0.16918174241E+02  0.22201470195E+02  0.43400726414E+02  0.00000000000E+00 0. -1.
         11    1    4    4    0    0  0.11521241455E+02 -0.32023903849E+01 -0.15740074713E+02  0.19767252239E+02  0.51100000000E-03 0. -1.
        -11    1    4    4    0    0  0.15671570559E+02 -0.46867159951E+01 -0.46583849484E+01  0.17007762381E+02  0.51100000000E-03 0.  1.
         12    1    4    4    0    0  0.60411037172E+01 -0.90290678610E+01 -0.18030105331E+01  0.11012258966E+02  0.00000000000E+00 0. -1.
</event>
<event>
 8    1  0.6019723E-011  0.9118800E+02  0.7816164E-02  0.1184000E+00
        -11   -1    0    0    0    0  0.00000000000E+00  0.00000000000E+00  0.45593999997E+02  0.45594000000E+02  0.51100000000E-03 0. -1.
         11   -1    0    0    0    0 -0.00000000000E+00 -0.00000000000E+00 -0.45593999997E+02  0.45594000000E+02  0.51100000000E-03 0.  1.
         23    2    1    2    0    0 -0.88817841970E-15  0.00000000000E+00 -0.71054273576E-14  0.91188000000E+02  0.91188000000E+02 0.  0.
    9900012    2    3    3    0    0  0.78032561213E+01  0.17725091665E+02 -0.38840103962E+02  0.47787270093E+02  0.19999995662E+02 0.  0.
         12    1    3    3    0    0 -0.78032561213E+01 -0.17725091665E+02  0.38840103962E+02  0.43400729907E+02  0.00000000000E+00 0. -1.
         11    1    4    4    0    0  0.10842054397E+02  0.38384408393E+01 -0.16230141172E+02  0.19892241059E+02  0.51100000000E-03 0. -1.
        -11    1    4    4    0    0 -0.51799159719E+00 -0.28040341344E+00 -0.55311016735E+01  0.55623760528E+01  0.51100000000E-03 0.  1.
         12    1    4    4    0    0 -0.25208066783E+01  0.14167054240E+02 -0.17078861117E+02  0.22332652982E+02  0.00000000000E+00 0. -1.
</event>
<event>
 8    1  0.6019723E-011  0.9118800E+02  0.7816164E-02  0.1184000E+00
        -11   -1    0    0    0    0  0.00000000000E+00  0.00000000000E+00  0.45593999997E+02  0.45594000000E+02  0.51100000000E-03 0. -1.
         11   -1    0    0    0    0 -0.00000000000E+00 -0.00000000000E+00 -0.45593999997E+02  0.45594000000E+02  0.51100000000E-03 0.  1.
         23    2    1    2    0    0  0.00000000000E+00 -0.35527136788E-14  0.00000000000E+00  0.91188000000E+02  0.91188000000E+02 0.  0.
    9900012    2    3    3    0    0  0.17611497283E+02 -0.19353665127E+02  0.34625051655E+02  0.47787269678E+02  0.19999993768E+02 0.  0.
        -12    1    3    3    0    0 -0.17611497283E+02  0.19353665127E+02 -0.34625051655E+02  0.43400730322E+02  0.00000000000E+00 0.  1.
         11    1    4    4    0    0  0.13813261374E+02 -0.93855606825E+01  0.31276975656E+02  0.35456228586E+02  0.51100000000E-03 0. -1.
        -11    1    4    4    0    0  0.43932255848E+01 -0.10107676823E+02  0.37002112631E+01  0.11625709675E+02  0.51100000000E-03 0.  1.
         12    1    4    4    0    0 -0.59498967568E+00  0.13957237824E+00 -0.35213526387E+00  0.70533141642E+00  0.00000000000E+00 0. -1.
</event>
<event>
 8    1  0.6019723E-011  0.9118800E+02  0.7816164E-02  0.1184000E+00
        -11   -1    0    0    0    0  0.00000000000E+00  0.00000000000E+00  0.45593999997E+02  0.45594000000E+02  0.51100000000E-03 0. -1.
         11   -1    0    0    0    0 -0.00000000000E+00 -0.00000000000E+00 -0.45593999997E+02  0.45594000000E+02  0.51100000000E-03 0.  1.
         23    2    1    2    0    0  0.00000000000E+00 -0.35527136788E-14  0.00000000000E+00  0.91188000000E+02  0.91188000000E+02 0.  0.
    9900012    2    3    3    0    0 -0.26490195721E+02 -0.23532111397E+02  0.25062575029E+02  0.47787269554E+02  0.19999993204E+02 0.  0.
        -12    1    3    3    0    0  0.26490195721E+02  0.23532111397E+02 -0.25062575029E+02  0.43400730446E+02  0.00000000000E+00 0.  1.
         11    1    4    4    0    0 -0.28854721148E+02 -0.20394726241E+02  0.21321115702E+02  0.41268992792E+02  0.51100000000E-03 0. -1.
        -11    1    4    4    0    0  0.95618167281E+00 -0.36179883358E+01  0.32341338555E+01  0.49460838090E+01  0.51100000000E-03 0.  1.
         12    1    4    4    0    0  0.14083437546E+01  0.48060317982E+00  0.50732547208E+00  0.15721929532E+01  0.00000000000E+00 0. -1.
</event>
<event>
 8    1  0.6019723E-011  0.9118800E+02  0.7816164E-02  0.1184000E+00
        -11   -1    0    0    0    0  0.00000000000E+00  0.00000000000E+00  0.45593999997E+02  0.45594000000E+02  0.51100000000E-03 0.  1.
         11   -1    0    0    0    0 -0.00000000000E+00 -0.00000000000E+00 -0.45593999997E+02  0.45594000000E+02  0.51100000000E-03 0. -1.
         23    2    1    2    0    0  0.00000000000E+00 -0.22204460493E-15  0.00000000000E+00  0.91188000000E+02  0.91188000000E+02 0.  0.
    9900012    2    3    3    0    0 -0.42435934422E+02 -0.10636687375E+01 -0.90378712432E+01  0.47787273761E+02  0.20000012386E+02 0.  0.
         12    1    3    3    0    0  0.42435934422E+02  0.10636687375E+01  0.90378712432E+01  0.43400726239E+02  0.00000000000E+00 0. -1.
         11    1    4    4    0    0 -0.16979580779E+02 -0.30836649116E+00 -0.76473024484E+01  0.18624781565E+02  0.51100000000E-03 0. -1.
        -11    1    4    4    0    0 -0.50700769761E+01  0.42871585656E+01  0.36340438299E+01  0.75691270256E+01  0.51100000000E-03 0.  1.
        -12    1    4    4    0    0 -0.20386276667E+02 -0.50424608119E+01 -0.50246126247E+01  0.21593365171E+02  0.00000000000E+00 0.  1.
</event>
<event>
 8    1  0.6019723E-011  0.9118800E+02  0.7816164E-02  0.1184000E+00
        -11   -1    0    0    0    0  0.00000000000E+00  0.00000000000E+00  0.45593999997E+02  0.45594000000E+02  0.51100000000E-03 0. -1.
         11   -1    0    0    0    0 -0.00000000000E+00 -0.00000000000E+00 -0.45593999997E+02  0.45594000000E+02  0.51100000000E-03 0.  1.
         23    2    1    2    0    0  0.00000000000E+00  0.71054273576E-14  0.00000000000E+00  0.91188000000E+02  0.91188000000E+02 0.  0.
    9900012    2    3    3    0    0  0.84521481856E+01 -0.26292487337E+02 -0.33479712413E+02  0.47787252972E+02  0.19999917600E+02 0.  0.
         12    1    3    3    0    0 -0.84521481856E+01  0.26292487337E+02  0.33479712413E+02  0.43400747028E+02  0.00000000000E+00 0. -1.
         11    1    4    4    0    0 -0.45020211331E+01 -0.69063734312E+01 -0.49118705437E+01  0.95964921067E+01  0.51100000000E-03 0. -1.
        -11    1    4    4    0    0  0.11981868415E+02 -0.94726698244E+01 -0.19008953311E+02  0.24385178912E+02  0.51100000000E-03 0.  1.
        -12    1    4    4    0    0  0.97230090357E+00 -0.99134440813E+01 -0.95588885590E+01  0.13805581954E+02  0.00000000000E+00 0.  1.
</event>
<event>
 8    1  0.6019723E-011  0.9118800E+02  0.7816164E-02  0.1184000E+00
        -11   -1    0    0    0    0  0.00000000000E+00  0.00000000000E+00  0.45593999997E+02  0.45594000000E+02  0.51100000000E-03 0. -1.
         11   -1    0    0    0    0 -0.00000000000E+00 -0.00000000000E+00 -0.45593999997E+02  0.45594000000E+02  0.51100000000E-03 0.  1.
         23    2    1    2    0    0  0.88817841970E-15  0.00000000000E+00  0.00000000000E+00  0.91188000000E+02  0.91188000000E+02 0.  0.
    9900012    2    3    3    0    0  0.71019401376E+01 -0.36243938479E+02  0.22793928293E+02  0.47787265015E+02  0.19999972511E+02 0.  0.
        -12    1    3    3    0    0 -0.71019401376E+01  0.36243938479E+02 -0.22793928293E+02  0.43400734985E+02  0.00000000000E+00 0.  1.
         11    1    4    4    0    0 -0.13162114754E+01 -0.86790513541E+01  0.54453826388E+01  0.10330079254E+02  0.51100000000E-03 0. -1.
        -11    1    4    4    0    0 -0.26095955254E+01 -0.15379455223E+02  0.13377061197E+02  0.20549535233E+02  0.51100000000E-03 0.  1.
        -12    1    4    4    0    0  0.11027747138E+02 -0.12185431902E+02  0.39714844570E+01  0.16907650528E+02  0.00000000000E+00 0.  1.
</event>
<event>
 8    1  0.6019723E-011  0.9118800E+02  0.7816164E-02  0.1184000E+00
        -11   -1    0    0    0    0  0.00000000000E+00  0.00000000000E+00  0.45593999997E+02  0.45594000000E+02  0.51100000000E-03 0. -1.
         11   -1    0    0    0    0 -0.00000000000E+00 -0.00000000000E+00 -0.45593999997E+02  0.45594000000E+02  0.51100000000E-03 0.  1.
         23    2    1    2    0    0  0.17763568394E-14  0.71054273576E-14  0.00000000000E+00  0.91188000000E+02  0.91188000000E+02 0.  0.
    9900012    2    3    3    0    0 -0.87545159531E+01  0.36107155911E+02  0.22433335113E+02  0.47787276713E+02  0.20000025844E+02 0.  0.
        -12    1    3    3    0    0  0.87545159531E+01 -0.36107155911E+02 -0.22433335113E+02  0.43400723287E+02  0.00000000000E+00 0.  1.
         11    1    4    4    0    0 -0.30651640763E+01  0.33115666063E+02  0.12413390065E+02  0.35498377749E+02  0.51100000000E-03 0. -1.
        -11    1    4    4    0    0 -0.16307639408E+01 -0.13474937458E+00  0.10059779157E+01  0.19208176000E+01  0.51100000000E-03 0.  1.
         12    1    4    4    0    0 -0.40585879359E+01  0.31262392226E+01  0.90139671318E+01  0.10368081364E+02  0.00000000000E+00 0. -1.
</event>
<event>
 8    1  0.6019723E-011  0.9118800E+02  0.7816164E-02  0.1184000E+00
        -11   -1    0    0    0    0  0.00000000000E+00  0.00000000000E+00  0.45593999997E+02  0.45594000000E+02  0.51100000000E-03 0. -1.
         11   -1    0    0    0    0 -0.00000000000E+00 -0.00000000000E+00 -0.45593999997E+02  0.45594000000E+02  0.51100000000E-03 0.  1.
         23    2    1    2    0    0  0.00000000000E+00 -0.44408920985E-15  0.00000000000E+00  0.91188000000E+02  0.91188000000E+02 0.  0.
    9900012    2    3    3    0    0  0.39790488823E+02  0.39985169969E+01  0.16862755458E+02  0.47787266589E+02  0.19999979687E+02 0.  0.
        -12    1    3    3    0    0 -0.39790488823E+02 -0.39985169969E+01 -0.16862755458E+02  0.43400733411E+02  0.00000000000E+00 0.  1.
         11    1    4    4    0    0  0.14446780633E+02  0.77081633762E+01  0.88890807106E+01  0.18631720517E+02  0.51100000000E-03 0. -1.
        -11    1    4    4    0    0  0.17928572220E+02 -0.69986526943E+01  0.25897739985E+01  0.19419623349E+02  0.51100000000E-03 0.  1.
        -12    1    4    4    0    0  0.74151359707E+01  0.32890063151E+01  0.53839007489E+01  0.97359227235E+01  0.00000000000E+00 0.  1.
</event>
<event>
 8    1  0.6019723E-011  0.9118800E+02  0.7816164E-02  0.1184000E+00
        -11   -1    0    0    0    0  0.00000000000E+00  0.00000000000E+00  0.45593999997E+02  0.45594000000E+02  0.51100000000E-03 0. -1.
         11   -1    0    0    0    0 -0.00000000000E+00 -0.00000000000E+00 -0.45593999997E+02  0.45594000000E+02  0.51100000000E-03 0.  1.
         23    2    1    2    0    0  0.35527136788E-14  0.00000000000E+00 -0.17763568394E-14  0.91188000000E+02  0.91188000000E+02 0.  0.
    9900012    2    3    3    0    0 -0.30217690931E+02 -0.27918092013E+02  0.13823695933E+02  0.47787271019E+02  0.19999999883E+02 0.  0.
        -12    1    3    3    0    0  0.30217690931E+02  0.27918092013E+02 -0.13823695933E+02  0.43400728981E+02  0.00000000000E+00 0.  1.
         11    1    4    4    0    0 -0.26748475683E+01 -0.98508302579E+01  0.14950195571E+01  0.10316431070E+02  0.51100000000E-03 0. -1.
        -11    1    4    4    0    0 -0.28666965605E+02 -0.16682270761E+02  0.12914662769E+02  0.35593280117E+02  0.51100000000E-03 0.  1.
        -12    1    4    4    0    0  0.11241222427E+01 -0.13849909943E+01 -0.58598639335E+00  0.18775598323E+01  0.00000000000E+00 0.  1.
</event>
<event>
 8    1  0.6019723E-011  0.9118800E+02  0.7816164E-02  0.1184000E+00
        -11   -1    0    0    0    0  0.00000000000E+00  0.00000000000E+00  0.45593999997E+02  0.45594000000E+02  0.51100000000E-03 0.  1.
         11   -1    0    0    0    0 -0.00000000000E+00 -0.00000000000E+00 -0.45593999997E+02  0.45594000000E+02  0.51100000000E-03 0. -1.
         23    2    1    2    0    0  0.00000000000E+00  0.00000000000E+00  0.00000000000E+00  0.91188000000E+02  0.91188000000E+02 0.  0.
    9900012    2    3    3    0    0 -0.41353352971E+02  0.13139451389E+02 -0.93711216844E+00  0.47787272311E+02  0.20000005773E+02 0.  0.
        -12    1    3    3    0    0  0.41353352971E+02 -0.13139451389E+02  0.93711216844E+00  0.43400727689E+02  0.00000000000E+00 0.  1.
         11    1    4    4    0    0 -0.18556754530E+02  0.41515586253E+01  0.98719982860E+00  0.19041090869E+02  0.51100000000E-03 0. -1.
        -11    1    4    4    0    0  0.16154299703E+01  0.24407503201E+01 -0.18664424340E+01  0.34713806669E+01  0.51100000000E-03 0.  1.
        -12    1    4    4    0    0 -0.24412028411E+02  0.65471424433E+01 -0.57869563048E-01  0.25274800775E+02  0.00000000000E+00 0.  1.
</event>
<event>
 8    1  0.6019723E-011  0.9118800E+02  0.7816164E-02  0.1184000E+00
        -11   -1    0    0    0    0  0.00000000000E+00  0.00000000000E+00  0.45593999997E+02  0.45594000000E+02  0.51100000000E-03 0. -1.
         11   -1    0    0    0    0 -0.00000000000E+00 -0.00000000000E+00 -0.45593999997E+02  0.45594000000E+02  0.51100000000E-03 0.  1.
         23    2    1    2    0    0  0.00000000000E+00  0.00000000000E+00  0.00000000000E+00  0.91188000000E+02  0.91188000000E+02 0.  0.
    9900012    2    3    3    0    0  0.64424340934E+01 -0.16015409765E+02  0.39819913654E+02  0.47787264633E+02  0.19999970766E+02 0.  0.
        -12    1    3    3    0    0 -0.64424340934E+01  0.16015409765E+02 -0.39819913654E+02  0.43400735367E+02  0.00000000000E+00 0.  1.
         11    1    4    4    0    0 -0.15454161654E-01 -0.69953946716E+01  0.21590238115E+02  0.22695245484E+02  0.51100000000E-03 0. -1.
        -11    1    4    4    0    0  0.75469332967E+01  0.58837689659E+00  0.78011976491E+01  0.10870192021E+02  0.51100000000E-03 0.  1.
        -12    1    4    4    0    0 -0.10890450417E+01 -0.96083919904E+01  0.10428477890E+02  0.14221827127E+02  0.00000000000E+00 0.  1.
</event>
<event>
 8    1  0.6019723E-011  0.9118800E+02  0.7816164E-02  0.1184000E+00
        -11   -1    0    0    0    0  0.00000000000E+00  0.00000000000E+00  0.45593999997E+02  0.45594000000E+02  0.51100000000E-03 0. -1.
         11   -1    0    0    0    0 -0.00000000000E+00 -0.00000000000E+00 -0.45593999997E+02  0.45594000000E+02  0.51100000000E-03 0.  1.
         23    2    1    2    0    0  0.00000000000E+00  0.00000000000E+00  0.00000000000E+00  0.91188000000E+02  0.91188000000E+02 0.  0.
    9900012    2    3    3    0    0  0.11344330985E+02 -0.20478633262E+02  0.36545248158E+02  0.47787269261E+02  0.19999991868E+02 0.  0.
        -12    1    3    3    0    0 -0.11344330985E+02  0.20478633262E+02 -0.36545248158E+02  0.43400730739E+02  0.00000000000E+00 0.  1.
         11    1    4    4    0    0 -0.27841888754E+01 -0.51957243592E+01  0.53779511924E+01  0.79793244450E+01  0.51100000000E-03 0. -1.
        -11    1    4    4    0    0  0.79034614218E+01  0.37726765049E-01  0.13228486211E+02  0.15409703873E+02  0.51100000000E-03 0.  1.
        -12    1    4    4    0    0  0.62250584386E+01 -0.15320635668E+02  0.17938810754E+02  0.24398240943E+02  0.00000000000E+00 0.  1.
</event>
<event>
 8    1  0.6019723E-011  0.9118800E+02  0.7816164E-02  0.1184000E+00
        -11   -1    0    0    0    0  0.00000000000E+00  0.00000000000E+00  0.45593999997E+02  0.45594000000E+02  0.51100000000E-03 0. -1.
         11   -1    0    0    0    0 -0.00000000000E+00 -0.00000000000E+00 -0.45593999997E+02  0.45594000000E+02  0.51100000000E-03 0.  1.
         23    2    1    2    0    0  0.00000000000E+00  0.00000000000E+00  0.00000000000E+00  0.91188000000E+02  0.91188000000E+02 0.  0.
    9900012    2    3    3    0    0  0.11744643889E+02  0.81151535823E+01 -0.40985740385E+02  0.47787270828E+02  0.19999999012E+02 0.  0.
         12    1    3    3    0    0 -0.11744643889E+02 -0.81151535823E+01  0.40985740385E+02  0.43400729172E+02  0.00000000000E+00 0. -1.
         11    1    4    4    0    0 -0.81794739406E+00  0.32324760667E+01  0.35470474722E+00  0.33531709142E+01  0.51100000000E-03 0. -1.
        -11    1    4    4    0    0  0.67007279658E+01  0.65576016243E+01 -0.31430648709E+02  0.32799200796E+02  0.51100000000E-03 0.  1.
        -12    1    4    4    0    0  0.58618633169E+01 -0.16749241087E+01 -0.99097964236E+01  0.11634899117E+02  0.00000000000E+00 0.  1.
</event>
<event>
 8    1  0.6019723E-011  0.9118800E+02  0.7816164E-02  0.1184000E+00
        -11   -1    0    0    0    0  0.00000000000E+00  0.00000000000E+00  0.45593999997E+02  0.45594000000E+02  0.51100000000E-03 0. -1.
         11   -1    0    0    0    0 -0.00000000000E+00 -0.00000000000E+00 -0.45593999997E+02  0.45594000000E+02  0.51100000000E-03 0.  1.
         23    2    1    2    0    0 -0.35527136788E-14 -0.71054273576E-14 -0.88817841970E-15  0.91188000000E+02  0.91188000000E+02 0.  0.
    9900012    2    3    3    0    0 -0.27223658273E+02 -0.33028189365E+02  0.71856205480E+01  0.47787285661E+02  0.20000066641E+02 0.  0.
         12    1    3    3    0    0  0.27223658273E+02  0.33028189365E+02 -0.71856205480E+01  0.43400714339E+02  0.00000000000E+00 0. -1.
         11    1    4    4    0    0 -0.74749028280E+01 -0.97916256751E+01 -0.60335162685E+01  0.13716902875E+02  0.51100000000E-03 0. -1.
        -11    1    4    4    0    0 -0.82482984569E+01 -0.15317135031E+02  0.81973845600E+01  0.19231384945E+02  0.51100000000E-03 0.  1.
         12    1    4    4    0    0 -0.11500456988E+02 -0.79194286589E+01  0.50217522565E+01  0.14838997841E+02  0.00000000000E+00 0. -1.
</event>
<event>
 8    1  0.6019723E-011  0.9118800E+02  0.7816164E-02  0.1184000E+00
        -11   -1    0    0    0    0  0.00000000000E+00  0.00000000000E+00  0.45593999997E+02  0.45594000000E+02  0.51100000000E-03 0. -1.
         11   -1    0    0    0    0 -0.00000000000E+00 -0.00000000000E+00 -0.45593999997E+02  0.45594000000E+02  0.51100000000E-03 0.  1.
         23    2    1    2    0    0  0.00000000000E+00  0.35527136788E-14  0.17763568394E-14  0.91188000000E+02  0.91188000000E+02 0.  0.
    9900012    2    3    3    0    0  0.33686769887E+02  0.25143081978E+02  0.10800473217E+02  0.47787271221E+02  0.20000000807E+02 0.  0.
        -12    1    3    3    0    0 -0.33686769887E+02 -0.25143081978E+02 -0.10800473217E+02  0.43400728779E+02  0.00000000000E+00 0.  1.
         11    1    4    4    0    0  0.11100451705E+02  0.11880769334E+02 -0.43130704196E+01  0.16821869240E+02  0.51100000000E-03 0. -1.
        -11    1    4    4    0    0  0.10677135521E+02  0.68561809468E+01  0.11102001274E+02  0.16860097053E+02  0.51100000000E-03 0.  1.
         12    1    4    4    0    0  0.11909182661E+02  0.64061316975E+01  0.40115423633E+01  0.14105304928E+02  0.00000000000E+00 0. -1.
</event>
<event>
 8    1  0.6019723E-011  0.9118800E+02  0.7816164E-02  0.1184000E+00
        -11   -1    0    0    0    0  0.00000000000E+00  0.00000000000E+00  0.45593999997E+02  0.45594000000E+02  0.51100000000E-03 0.  1.
         11   -1    0    0    0    0 -0.00000000000E+00 -0.00000000000E+00 -0.45593999997E+02  0.45594000000E+02  0.51100000000E-03 0. -1.
         23    2    1    2    0    0  0.00000000000E+00  0.00000000000E+00  0.00000000000E+00  0.91188000000E+02  0.91188000000E+02 0.  0.
    9900012    2    3    3    0    0  0.39368496127E+02  0.69797696666E+01  0.16882750084E+02  0.47787275095E+02  0.20000018468E+02 0.  0.
         12    1    3    3    0    0 -0.39368496127E+02 -0.69797696666E+01 -0.16882750084E+02  0.43400724905E+02  0.00000000000E+00 0. -1.
         11    1    4    4    0    0  0.10331487678E+01 -0.18105081645E+01 -0.12106597798E+01  0.24106085443E+01  0.51100000000E-03 0. -1.
        -11    1    4    4    0    0  0.31837230675E+02  0.22186919433E+01  0.16733628410E+02  0.36035346135E+02  0.51100000000E-03 0.  1.
        -12    1    4    4    0    0  0.64981166835E+01  0.65715858878E+01  0.13597814537E+01  0.93413204160E+01  0.00000000000E+00 0.  1.
</event>
<event>
 8    1  0.6019723E-011  0.9118800E+02  0.7816164E-02  0.1184000E+00
        -11   -1    0    0    0    0  0.00000000000E+00  0.00000000000E+00  0.45593999997E+02  0.45594000000E+02  0.51100000000E-03 0. -1.
         11   -1    0    0    0    0 -0.00000000000E+00 -0.00000000000E+00 -0.45593999997E+02  0.45594000000E+02  0.51100000000E-03 0.  1.
         23    2    1    2    0    0  0.00000000000E+00  0.00000000000E+00  0.00000000000E+00  0.91188000000E+02  0.91188000000E+02 0.  0.
    9900012    2    3    3    0    0 -0.13015283308E+02 -0.22264960954E+01  0.41343300187E+02  0.47787270112E+02  0.19999995750E+02 0.  0.
        -12    1    3    3    0    0  0.13015283308E+02  0.22264960954E+01 -0.41343300187E+02  0.43400729888E+02  0.00000000000E+00 0.  1.
         11    1    4    4    0    0  0.47881398135E+00 -0.22992555442E+01  0.27415379163E+02  0.27515792807E+02  0.51100000000E-03 0. -1.
        -11    1    4    4    0    0 -0.49655113010E+01 -0.30525921789E+00  0.15040890361E+01  0.51972848450E+01  0.51100000000E-03 0.  1.
         12    1    4    4    0    0 -0.85285859886E+01  0.37801866670E+00  0.12423831988E+02  0.15074192461E+02  0.00000000000E+00 0. -1.
</event>
<event>
 8    1  0.6019723E-011  0.9118800E+02  0.7816164E-02  0.1184000E+00
        -11   -1    0    0    0    0  0.00000000000E+00  0.00000000000E+00  0.45593999997E+02  0.45594000000E+02  0.51100000000E-03 0.  1.
         11   -1    0    0    0    0 -0.00000000000E+00 -0.00000000000E+00 -0.45593999997E+02  0.45594000000E+02  0.51100000000E-03 0. -1.
         23    2    1    2    0    0 -0.71054273576E-14  0.00000000000E+00  0.00000000000E+00  0.91188000000E+02  0.91188000000E+02 0.  0.
    9900012    2    3    3    0    0 -0.40488147785E+02 -0.14971093314E+02  0.44943546757E+01  0.47787274545E+02  0.20000015960E+02 0.  0.
         12    1    3    3    0    0  0.40488147785E+02  0.14971093314E+02 -0.44943546757E+01  0.43400725455E+02  0.00000000000E+00 0. -1.
         11    1    4    4    0    0 -0.21187954542E+02 -0.13832160159E+02  0.47322979218E+01  0.25742041803E+02  0.51100000000E-03 0.  1.
        -11    1    4    4    0    0 -0.39810042060E+01 -0.29697357303E+00 -0.46040581445E+01  0.60937623394E+01  0.51100000000E-03 0. -1.
         12    1    4    4    0    0 -0.15319189037E+02 -0.84195958264E+00  0.43661148983E+01  0.15951470402E+02  0.00000000000E+00 0. -1.
</event>
<event>
 8    1  0.6019723E-011  0.9118800E+02  0.7816164E-02  0.1184000E+00
        -11   -1    0    0    0    0  0.00000000000E+00  0.00000000000E+00  0.45593999997E+02  0.45594000000E+02  0.51100000000E-03 0. -1.
         11   -1    0    0    0    0 -0.00000000000E+00 -0.00000000000E+00 -0.45593999997E+02  0.45594000000E+02  0.51100000000E-03 0.  1.
         23    2    1    2    0    0  0.00000000000E+00 -0.17763568394E-14  0.00000000000E+00  0.91188000000E+02  0.91188000000E+02 0.  0.
    9900012    2    3    3    0    0  0.96263783170E+01  0.86301843789E+01  0.41430366357E+02  0.47787279978E+02  0.20000040733E+02 0.  0.
        -12    1    3    3    0    0 -0.96263783170E+01 -0.86301843789E+01 -0.41430366357E+02  0.43400720022E+02  0.00000000000E+00 0.  1.
         11    1    4    4    0    0  0.29702300818E+01 -0.18227509403E+01  0.27152800698E+02  0.27375523260E+02  0.51100000000E-03 0. -1.
        -11    1    4    4    0    0  0.76844639809E+01  0.97587722449E+01  0.14560951466E+02  0.19139120415E+02  0.51100000000E-03 0.  1.
         12    1    4    4    0    0 -0.10283157457E+01  0.69416307430E+00 -0.28338580650E+00  0.12726363039E+01  0.00000000000E+00 0. -1.
</event>
<event>
 8    1  0.6019723E-011  0.9118800E+02  0.7816164E-02  0.1184000E+00
        -11   -1    0    0    0    0  0.00000000000E+00  0.00000000000E+00  0.45593999997E+02  0.45594000000E+02  0.51100000000E-03 0. -1.
         11   -1    0    0    0    0 -0.00000000000E+00 -0.00000000000E+00 -0.45593999997E+02  0.45594000000E+02  0.51100000000E-03 0.  1.
         23    2    1    2    0    0  0.00000000000E+00 -0.35527136788E-14  0.00000000000E+00  0.91188000000E+02  0.91188000000E+02 0.  0.
    9900012    2    3    3    0    0 -0.85371047517E+01 -0.18089768361E+02  0.38516248870E+02  0.47787270699E+02  0.19999998424E+02 0.  0.
        -12    1    3    3    0    0  0.85371047517E+01  0.18089768361E+02 -0.38516248870E+02  0.43400729301E+02  0.00000000000E+00 0.  1.
         11    1    4    4    0    0 -0.77371204517E+00 -0.80268916143E+00  0.32130170545E+01  0.34009438502E+01  0.51100000000E-03 0. -1.
        -11    1    4    4    0    0 -0.87924916822E+01  0.69823763799E+00  0.13128937890E+02  0.15816588006E+02  0.51100000000E-03 0.  1.
        -12    1    4    4    0    0  0.10290989756E+01 -0.17985316837E+02  0.22174293925E+02  0.28569738842E+02  0.00000000000E+00 0.  1.
</event>
<event>
 8    1  0.6019723E-011  0.9118800E+02  0.7816164E-02  0.1184000E+00
        -11   -1    0    0    0    0  0.00000000000E+00  0.00000000000E+00  0.45593999997E+02  0.45594000000E+02  0.51100000000E-03 0.  1.
         11   -1    0    0    0    0 -0.00000000000E+00 -0.00000000000E+00 -0.45593999997E+02  0.45594000000E+02  0.51100000000E-03 0. -1.
         23    2    1    2    0    0 -0.71054273576E-14 -0.35527136788E-14  0.00000000000E+00  0.91188000000E+02  0.91188000000E+02 0.  0.
    9900012    2    3    3    0    0 -0.37348278958E+02 -0.19322577529E+02 -0.10740886571E+02  0.47787278948E+02  0.20000036036E+02 0.  0.
        -12    1    3    3    0    0  0.37348278958E+02  0.19322577529E+02  0.10740886571E+02  0.43400721052E+02  0.00000000000E+00 0.  1.
         11    1    4    4    0    0 -0.80178032057E+01  0.12782414251E+01  0.14618756838E+01  0.82496151524E+01  0.51100000000E-03 0.  1.
        -11    1    4    4    0    0 -0.29195430130E+02 -0.18148234742E+02 -0.13284269882E+02  0.36853811083E+02  0.51100000000E-03 0. -1.
        -12    1    4    4    0    0 -0.13504562202E+00 -0.24525842118E+01  0.10815076274E+01  0.26838527128E+01  0.00000000000E+00 0.  1.
</event>
<event>
 8    1  0.6019723E-011  0.9118800E+02  0.7816164E-02  0.1184000E+00
        -11   -1    0    0    0    0  0.00000000000E+00  0.00000000000E+00  0.45593999997E+02  0.45594000000E+02  0.51100000000E-03 0. -1.
         11   -1    0    0    0    0 -0.00000000000E+00 -0.00000000000E+00 -0.45593999997E+02  0.45594000000E+02  0.51100000000E-03 0.  1.
         23    2    1    2    0    0 -0.44408920985E-15 -0.17763568394E-14  0.00000000000E+00  0.91188000000E+02  0.91188000000E+02 0.  0.
    9900012    2    3    3    0    0 -0.27476438653E+01  0.13838181929E+02  0.41043616414E+02  0.47787271040E+02  0.19999999980E+02 0.  0.
        -12    1    3    3    0    0  0.27476438653E+01 -0.13838181929E+02 -0.41043616414E+02  0.43400728960E+02  0.00000000000E+00 0.  1.
         11    1    4    4    0    0  0.40489294667E+01  0.49249651129E+01  0.93776798466E+01  0.11339752676E+02  0.51100000000E-03 0. -1.
        -11    1    4    4    0    0 -0.91404915840E+01  0.61528911432E+01  0.30817741751E+02  0.32728273140E+02  0.51100000000E-03 0.  1.
        -12    1    4    4    0    0  0.23439182520E+01  0.27603256727E+01  0.84819481661E+00  0.37192452243E+01  0.00000000000E+00 0.  1.
</event>
<event>
 8    1  0.6019723E-011  0.9118800E+02  0.7816164E-02  0.1184000E+00
        -11   -1    0    0    0    0  0.00000000000E+00  0.00000000000E+00  0.45593999997E+02  0.45594000000E+02  0.51100000000E-03 0. -1.
         11   -1    0    0    0    0 -0.00000000000E+00 -0.00000000000E+00 -0.45593999997E+02  0.45594000000E+02  0.51100000000E-03 0.  1.
         23    2    1    2    0    0  0.00000000000E+00  0.00000000000E+00  0.00000000000E+00  0.91188000000E+02  0.91188000000E+02 0.  0.
    9900012    2    3    3    0    0  0.39538680469E+02 -0.12594068213E+02  0.12716346251E+02  0.47787271096E+02  0.20000000236E+02 0.  0.
        -12    1    3    3    0    0 -0.39538680469E+02  0.12594068213E+02 -0.12716346251E+02  0.43400728904E+02  0.00000000000E+00 0.  1.
         11    1    4    4    0    0  0.22785846732E+02 -0.13777280917E+01  0.64190861704E+01  0.23712815385E+02  0.51100000000E-03 0. -1.
        -11    1    4    4    0    0  0.14719685916E+02 -0.13046305512E+02  0.75466741605E+01  0.21067214626E+02  0.51100000000E-03 0.  1.
        -12    1    4    4    0    0  0.20331478221E+01  0.18299653910E+01 -0.12494140794E+01  0.30072410846E+01  0.00000000000E+00 0.  1.
</event>
<event>
 8    1  0.6019723E-011  0.9118800E+02  0.7816164E-02  0.1184000E+00
        -11   -1    0    0    0    0  0.00000000000E+00  0.00000000000E+00  0.45593999997E+02  0.45594000000E+02  0.51100000000E-03 0. -1.
         11   -1    0    0    0    0 -0.00000000000E+00 -0.00000000000E+00 -0.45593999997E+02  0.45594000000E+02  0.51100000000E-03 0.  1.
         23    2    1    2    0    0  0.00000000000E+00 -0.35527136788E-14  0.35527136788E-14  0.91188000000E+02  0.91188000000E+02 0.  0.
    9900012    2    3    3    0    0  0.86526294121E+01 -0.28196056340E+02 -0.31839237566E+02  0.47787278374E+02  0.20000033417E+02 0.  0.
         12    1    3    3    0    0 -0.86526294121E+01  0.28196056340E+02  0.31839237566E+02  0.43400721626E+02  0.00000000000E+00 0. -1.
         11    1    4    4    0    0  0.11000512883E+02 -0.98396422146E+01 -0.11353536261E+02  0.18620758000E+02  0.51100000000E-03 0. -1.
        -11    1    4    4    0    0  0.24748269770E+01 -0.34493498020E+01 -0.82823474507E+01  0.93069899634E+01  0.51100000000E-03 0.  1.
         12    1    4    4    0    0 -0.48227104483E+01 -0.14907064324E+02 -0.12203353855E+02  0.19859530410E+02  0.00000000000E+00 0. -1.
</event>
<event>
 8    1  0.6019723E-011  0.9118800E+02  0.7816164E-02  0.1184000E+00
        -11   -1    0    0    0    0  0.00000000000E+00  0.00000000000E+00  0.45593999997E+02  0.45594000000E+02  0.51100000000E-03 0. -1.
         11   -1    0    0    0    0 -0.00000000000E+00 -0.00000000000E+00 -0.45593999997E+02  0.45594000000E+02  0.51100000000E-03 0.  1.
         23    2    1    2    0    0  0.00000000000E+00  0.00000000000E+00  0.00000000000E+00  0.91188000000E+02  0.91188000000E+02 0.  0.
    9900012    2    3    3    0    0  0.19821228504E+02 -0.12519098417E+02  0.36524161151E+02  0.47787271062E+02  0.20000000079E+02 0.  0.
        -12    1    3    3    0    0 -0.19821228504E+02  0.12519098417E+02 -0.36524161151E+02  0.43400728938E+02  0.00000000000E+00 0.  1.
         11    1    4    4    0    0  0.18431749212E+02 -0.64835615802E+01  0.34193608640E+02  0.39382341498E+02  0.51100000000E-03 0. -1.
        -11    1    4    4    0    0 -0.85533210300E+00 -0.82417104098E+00 -0.12269187391E+01  0.17076828642E+01  0.51100000000E-03 0.  1.
         12    1    4    4    0    0  0.22448113954E+01 -0.52113657959E+01  0.35574712498E+01  0.66972466994E+01  0.00000000000E+00 0. -1.
</event>
<event>
 8    1  0.6019723E-011  0.9118800E+02  0.7816164E-02  0.1184000E+00
        -11   -1    0    0    0    0  0.00000000000E+00  0.00000000000E+00  0.45593999997E+02  0.45594000000E+02  0.51100000000E-03 0.  1.
         11   -1    0    0    0    0 -0.00000000000E+00 -0.00000000000E+00 -0.45593999997E+02  0.45594000000E+02  0.51100000000E-03 0. -1.
         23    2    1    2    0    0  0.00000000000E+00  0.00000000000E+00  0.35527136788E-14  0.91188000000E+02  0.91188000000E+02 0.  0.
    9900012    2    3    3    0    0  0.19787889936E+02  0.36345897415E+02  0.13078154444E+02  0.47787274537E+02  0.20000015926E+02 0.  0.
        -12    1    3    3    0    0 -0.19787889936E+02 -0.36345897415E+02 -0.13078154444E+02  0.43400725463E+02  0.00000000000E+00 0.  1.
         11    1    4    4    0    0  0.14965971787E+02  0.28577725725E+02  0.18326781737E+02  0.37101720287E+02  0.51100000000E-03 0. -1.
        -11    1    4    4    0    0  0.43022197356E+00  0.90365984468E-01 -0.42137312388E+00  0.60894378093E+00  0.51100000000E-03 0.  1.
         12    1    4    4    0    0  0.43916961755E+01  0.76778057052E+01 -0.48272541689E+01  0.10076610470E+02  0.00000000000E+00 0. -1.
</event>
<event>
 8    1  0.6019723E-011  0.9118800E+02  0.7816164E-02  0.1184000E+00
        -11   -1    0    0    0    0  0.00000000000E+00  0.00000000000E+00  0.45593999997E+02  0.45594000000E+02  0.51100000000E-03 0.  1.
         11   -1    0    0    0    0 -0.00000000000E+00 -0.00000000000E+00 -0.45593999997E+02  0.45594000000E+02  0.51100000000E-03 0. -1.
         23    2    1    2    0    0  0.00000000000E+00  0.00000000000E+00  0.00000000000E+00  0.91188000000E+02  0.91188000000E+02 0.  0.
    9900012    2    3    3    0    0  0.37756476594E+02  0.17334015474E+02 -0.12554014178E+02  0.47787275476E+02  0.20000020204E+02 0.  0.
         12    1    3    3    0    0 -0.37756476594E+02 -0.17334015474E+02  0.12554014178E+02  0.43400724524E+02  0.00000000000E+00 0. -1.
         11    1    4    4    0    0  0.26712669284E+01  0.35760204530E+01  0.36173442079E+01  0.57453258100E+01  0.51100000000E-03 0. -1.
        -11    1    4    4    0    0  0.28624152825E+02  0.10957518251E+02 -0.88912419138E+01  0.31913375161E+02  0.51100000000E-03 0.  1.
        -12    1    4    4    0    0  0.64610568412E+01  0.28004767693E+01 -0.72801164723E+01  0.10128574504E+02  0.00000000000E+00 0.  1.
</event>
<event>
 8    1  0.6019723E-011  0.9118800E+02  0.7816164E-02  0.1184000E+00
        -11   -1    0    0    0    0  0.00000000000E+00  0.00000000000E+00  0.45593999997E+02  0.45594000000E+02  0.51100000000E-03 0. -1.
         11   -1    0    0    0    0 -0.00000000000E+00 -0.00000000000E+00 -0.45593999997E+02  0.45594000000E+02  0.51100000000E-03 0.  1.
         23    2    1    2    0    0  0.44408920985E-15  0.00000000000E+00  0.00000000000E+00  0.91188000000E+02  0.91188000000E+02 0.  0.
    9900012    2    3    3    0    0 -0.17496099923E+01  0.28866174049E+02  0.32362106992E+02  0.47787272951E+02  0.20000008694E+02 0.  0.
        -12    1    3    3    0    0  0.17496099923E+01 -0.28866174049E+02 -0.32362106992E+02  0.43400727049E+02  0.00000000000E+00 0.  1.
         11    1    4    4    0    0  0.17044350368E+01  0.94054508119E+01  0.70401655299E+01  0.11871458829E+02  0.51100000000E-03 0. -1.
        -11    1    4    4    0    0 -0.76773095418E+01  0.19479221888E+02  0.22974749468E+02  0.31084084039E+02  0.51100000000E-03 0.  1.
        -12    1    4    4    0    0  0.42232645127E+01 -0.18498650009E-01  0.23471919940E+01  0.48317300836E+01  0.00000000000E+00 0.  1.
</event>
<event>
 8    1  0.6019723E-011  0.9118800E+02  0.7816164E-02  0.1184000E+00
        -11   -1    0    0    0    0  0.00000000000E+00  0.00000000000E+00  0.45593999997E+02  0.45594000000E+02  0.51100000000E-03 0. -1.
         11   -1    0    0    0    0 -0.00000000000E+00 -0.00000000000E+00 -0.45593999997E+02  0.45594000000E+02  0.51100000000E-03 0.  1.
         23    2    1    2    0    0 -0.44408920985E-15  0.17763568394E-14  0.00000000000E+00  0.91188000000E+02  0.91188000000E+02 0.  0.
    9900012    2    3    3    0    0  0.17137784643E+01 -0.13382927206E+02  0.41250238183E+02  0.47787286557E+02  0.20000070728E+02 0.  0.
        -12    1    3    3    0    0 -0.17137784643E+01  0.13382927206E+02 -0.41250238183E+02  0.43400713443E+02  0.00000000000E+00 0.  1.
         11    1    4    4    0    0 -0.50844168710E+01 -0.85971400820E+01  0.31114730484E+02  0.32678564318E+02  0.51100000000E-03 0. -1.
        -11    1    4    4    0    0  0.52420781486E+01 -0.66299485261E+00  0.91915653072E+01  0.10602066711E+02  0.51100000000E-03 0.  1.
         12    1    4    4    0    0  0.15561171866E+01 -0.41227922714E+01  0.94394239134E+00  0.45066555282E+01  0.00000000000E+00 0. -1.
</event>
<event>
 8    1  0.6019723E-011  0.9118800E+02  0.7816164E-02  0.1184000E+00
        -11   -1    0    0    0    0  0.00000000000E+00  0.00000000000E+00  0.45593999997E+02  0.45594000000E+02  0.51100000000E-03 0. -1.
         11   -1    0    0    0    0 -0.00000000000E+00 -0.00000000000E+00 -0.45593999997E+02  0.45594000000E+02  0.51100000000E-03 0.  1.
         23    2    1    2    0    0  0.00000000000E+00 -0.71054273576E-14  0.00000000000E+00  0.91188000000E+02  0.91188000000E+02 0.  0.
    9900012    2    3    3    0    0  0.18448183171E+02 -0.37698314097E+02 -0.11051012593E+02  0.47787271579E+02  0.20000002439E+02 0.  0.
         12    1    3    3    0    0 -0.18448183171E+02  0.37698314097E+02  0.11051012593E+02  0.43400728421E+02  0.00000000000E+00 0. -1.
         11    1    4    4    0    0 -0.34615181963E+01 -0.71891062123E+01  0.11649056033E+01  0.80636444416E+01  0.51100000000E-03 0. -1.
        -11    1    4    4    0    0  0.20513542089E+02 -0.28004299913E+02 -0.10079280548E+02  0.36147449693E+02  0.51100000000E-03 0.  1.
         12    1    4    4    0    0  0.13961592786E+01 -0.25049079724E+01 -0.21366376478E+01  0.35761774451E+01  0.00000000000E+00 0. -1.
</event>
<event>
 8    1  0.6019723E-011  0.9118800E+02  0.7816164E-02  0.1184000E+00
        -11   -1    0    0    0    0  0.00000000000E+00  0.00000000000E+00  0.45593999997E+02  0.45594000000E+02  0.51100000000E-03 0. -1.
         11   -1    0    0    0    0 -0.00000000000E+00 -0.00000000000E+00 -0.45593999997E+02  0.45594000000E+02  0.51100000000E-03 0.  1.
         23    2    1    2    0    0  0.00000000000E+00  0.88817841970E-15  0.00000000000E+00  0.91188000000E+02  0.91188000000E+02 0.  0.
    9900012    2    3    3    0    0 -0.23578299278E+02 -0.52711490136E+01 -0.36054155398E+02  0.47787270395E+02  0.19999997040E+02 0.  0.
         12    1    3    3    0    0  0.23578299278E+02  0.52711490136E+01  0.36054155398E+02  0.43400729605E+02  0.00000000000E+00 0. -1.
         11    1    4    4    0    0 -0.47750568372E+01  0.44847804371E+01 -0.63327330559E+01  0.91114176497E+01  0.51100000000E-03 0. -1.
        -11    1    4    4    0    0 -0.19029231946E+02 -0.11729838051E+02 -0.28874012378E+02  0.36515878193E+02  0.51100000000E-03 0.  1.
        -12    1    4    4    0    0  0.22598950447E+00  0.19739086008E+01 -0.84740996421E+00  0.21599745526E+01  0.00000000000E+00 0.  1.
</event>
<event>
 8    1  0.6019723E-011  0.9118800E+02  0.7816164E-02  0.1184000E+00
        -11   -1    0    0    0    0  0.00000000000E+00  0.00000000000E+00  0.45593999997E+02  0.45594000000E+02  0.51100000000E-03 0.  1.
         11   -1    0    0    0    0 -0.00000000000E+00 -0.00000000000E+00 -0.45593999997E+02  0.45594000000E+02  0.51100000000E-03 0. -1.
         23    2    1    2    0    0  0.00000000000E+00  0.00000000000E+00  0.00000000000E+00  0.91188000000E+02  0.91188000000E+02 0.  0.
    9900012    2    3    3    0    0  0.19298293690E+02  0.33855456260E+02 -0.19105163076E+02  0.47787270581E+02  0.19999997889E+02 0.  0.
        -12    1    3    3    0    0 -0.19298293690E+02 -0.33855456260E+02  0.19105163076E+02  0.43400729419E+02  0.00000000000E+00 0.  1.
         11    1    4    4    0    0  0.19323859642E+02  0.18391226376E+02 -0.18195168251E+02  0.32291065436E+02  0.51100000000E-03 0. -1.
        -11    1    4    4    0    0 -0.14607592281E-01  0.59847624948E+01 -0.54809807075E+00  0.60098258925E+01  0.51100000000E-03 0.  1.
         12    1    4    4    0    0 -0.10958359740E-01  0.94794673890E+01 -0.36189675436E+00  0.94863792527E+01  0.00000000000E+00 0. -1.
</event>
<event>
 8    1  0.6019723E-011  0.9118800E+02  0.7816164E-02  0.1184000E+00
        -11   -1    0    0    0    0  0.00000000000E+00  0.00000000000E+00  0.45593999997E+02  0.45594000000E+02  0.51100000000E-03 0. -1.
         11   -1    0    0    0    0 -0.00000000000E+00 -0.00000000000E+00 -0.45593999997E+02  0.45594000000E+02  0.51100000000E-03 0.  1.
         23    2    1    2    0    0  0.35527136788E-14  0.00000000000E+00  0.35527136788E-14  0.91188000000E+02  0.91188000000E+02 0.  0.
    9900012    2    3    3    0    0 -0.27986479602E+02  0.88496462252E+01 -0.31969742278E+02  0.47787266133E+02  0.19999977608E+02 0.  0.
         12    1    3    3    0    0  0.27986479602E+02 -0.88496462252E+01  0.31969742278E+02  0.43400733867E+02  0.00000000000E+00 0. -1.
         11    1    4    4    0    0 -0.36324684153E+01  0.75003665661E+01 -0.15981805538E+02  0.18024107022E+02  0.51100000000E-03 0. -1.
        -11    1    4    4    0    0 -0.18068337497E+02  0.33996512669E+01 -0.12941448335E+02  0.22483405745E+02  0.51100000000E-03 0.  1.
         12    1    4    4    0    0 -0.62856736904E+01 -0.20503716078E+01 -0.30464884042E+01  0.72797533659E+01  0.00000000000E+00 0. -1.
</event>
<event>
 8    1  0.6019723E-011  0.9118800E+02  0.7816164E-02  0.1184000E+00
        -11   -1    0    0    0    0  0.00000000000E+00  0.00000000000E+00  0.45593999997E+02  0.45594000000E+02  0.51100000000E-03 0. -1.
         11   -1    0    0    0    0 -0.00000000000E+00 -0.00000000000E+00 -0.45593999997E+02  0.45594000000E+02  0.51100000000E-03 0.  1.
         23    2    1    2    0    0  0.17763568394E-14 -0.35527136788E-14  0.35527136788E-14  0.91188000000E+02  0.91188000000E+02 0.  0.
    9900012    2    3    3    0    0  0.13706092283E+02 -0.28975866110E+02  0.29260302724E+02  0.47787273070E+02  0.20000009237E+02 0.  0.
        -12    1    3    3    0    0 -0.13706092283E+02  0.28975866110E+02 -0.29260302724E+02  0.43400726930E+02  0.00000000000E+00 0.  1.
         11    1    4    4    0    0  0.42555610034E+01 -0.46853504491E+01  0.29802605010E+01  0.69960175243E+01  0.51100000000E-03 0. -1.
        -11    1    4    4    0    0  0.82340163081E+01 -0.20288210154E+02  0.10161010218E+02  0.24138281312E+02  0.51100000000E-03 0.  1.
        -12    1    4    4    0    0  0.12165149711E+01 -0.40023055073E+01  0.16119032005E+02  0.16652974234E+02  0.00000000000E+00 0.  1.
</event>
<event>
 8    1  0.6019723E-011  0.9118800E+02  0.7816164E-02  0.1184000E+00
        -11   -1    0    0    0    0  0.00000000000E+00  0.00000000000E+00  0.45593999997E+02  0.45594000000E+02  0.51100000000E-03 0. -1.
         11   -1    0    0    0    0 -0.00000000000E+00 -0.00000000000E+00 -0.45593999997E+02  0.45594000000E+02  0.51100000000E-03 0.  1.
         23    2    1    2    0    0  0.00000000000E+00  0.00000000000E+00 -0.71054273576E-14  0.91188000000E+02  0.91188000000E+02 0.  0.
    9900012    2    3    3    0    0 -0.24094516006E+02  0.10279674553E+02  0.34603552015E+02  0.47787271636E+02  0.20000002697E+02 0.  0.
        -12    1    3    3    0    0  0.24094516006E+02 -0.10279674553E+02 -0.34603552015E+02  0.43400728364E+02  0.00000000000E+00 0.  1.
         11    1    4    4    0    0 -0.70568119093E+01  0.50300720907E+00  0.14652471873E+02  0.16271033858E+02  0.51100000000E-03 0. -1.
        -11    1    4    4    0    0 -0.20804933371E+01  0.83750462905E+01  0.37120460981E+01  0.93941013082E+01  0.51100000000E-03 0.  1.
        -12    1    4    4    0    0 -0.14957210759E+02  0.14016210531E+01  0.16239034045E+02  0.22122136469E+02  0.00000000000E+00 0.  1.
</event>
<event>
 8    1  0.6019723E-011  0.9118800E+02  0.7816164E-02  0.1184000E+00
        -11   -1    0    0    0    0  0.00000000000E+00  0.00000000000E+00  0.45593999997E+02  0.45594000000E+02  0.51100000000E-03 0. -1.
         11   -1    0    0    0    0 -0.00000000000E+00 -0.00000000000E+00 -0.45593999997E+02  0.45594000000E+02  0.51100000000E-03 0.  1.
         23    2    1    2    0    0 -0.35527136788E-14  0.17763568394E-14  0.71054273576E-14  0.91188000000E+02  0.91188000000E+02 0.  0.
    9900012    2    3    3    0    0  0.17448361757E+02 -0.55887728683E+01 -0.39343915877E+02  0.47787269284E+02  0.19999991974E+02 0.  0.
         12    1    3    3    0    0 -0.17448361757E+02  0.55887728683E+01  0.39343915877E+02  0.43400730716E+02  0.00000000000E+00 0. -1.
         11    1    4    4    0    0  0.26187088063E+01  0.45405083100E+01 -0.98205775058E+01  0.11131827987E+02  0.51100000000E-03 0. -1.
        -11    1    4    4    0    0  0.14172664093E+02 -0.59008140803E+01 -0.14805281919E+02  0.21327925058E+02  0.51100000000E-03 0.  1.
         12    1    4    4    0    0  0.65698885736E+00 -0.42284670980E+01 -0.14718056451E+02  0.15327516239E+02  0.00000000000E+00 0. -1.
</event>
<event>
 8    1  0.6019723E-011  0.9118800E+02  0.7816164E-02  0.1184000E+00
        -11   -1    0    0    0    0  0.00000000000E+00  0.00000000000E+00  0.45593999997E+02  0.45594000000E+02  0.51100000000E-03 0. -1.
         11   -1    0    0    0    0 -0.00000000000E+00 -0.00000000000E+00 -0.45593999997E+02  0.45594000000E+02  0.51100000000E-03 0.  1.
         23    2    1    2    0    0  0.00000000000E+00 -0.17763568394E-14  0.00000000000E+00  0.91188000000E+02  0.91188000000E+02 0.  0.
    9900012    2    3    3    0    0 -0.36763751223E+02 -0.10542185862E+02 -0.20516173295E+02  0.47787257456E+02  0.19999938043E+02 0.  0.
         12    1    3    3    0    0  0.36763751223E+02  0.10542185862E+02  0.20516173295E+02  0.43400742544E+02  0.00000000000E+00 0. -1.
         11    1    4    4    0    0 -0.27082938965E+02 -0.89525694127E+00 -0.14262469247E+02  0.30621970826E+02  0.51100000000E-03 0. -1.
        -11    1    4    4    0    0 -0.53365271547E+01 -0.14218923624E+01 -0.55614533738E+01  0.78377333364E+01  0.51100000000E-03 0.  1.
         12    1    4    4    0    0 -0.43442851034E+01 -0.82250365582E+01 -0.69225067425E+00  0.93275532933E+01  0.00000000000E+00 0. -1.
</event>
<event>
 8    1  0.6019723E-011  0.9118800E+02  0.7816164E-02  0.1184000E+00
        -11   -1    0    0    0    0  0.00000000000E+00  0.00000000000E+00  0.45593999997E+02  0.45594000000E+02  0.51100000000E-03 0. -1.
         11   -1    0    0    0    0 -0.00000000000E+00 -0.00000000000E+00 -0.45593999997E+02  0.45594000000E+02  0.51100000000E-03 0.  1.
         23    2    1    2    0    0  0.00000000000E+00  0.00000000000E+00  0.00000000000E+00  0.91188000000E+02  0.91188000000E+02 0.  0.
    9900012    2    3    3    0    0  0.18013093246E+02 -0.17025464414E+02 -0.35627034954E+02  0.47787267444E+02  0.19999983585E+02 0.  0.
         12    1    3    3    0    0 -0.18013093246E+02  0.17025464414E+02  0.35627034954E+02  0.43400732556E+02  0.00000000000E+00 0. -1.
         11    1    4    4    0    0  0.15399027228E+02 -0.77641997449E+01 -0.24480070807E+02  0.29944727486E+02  0.51100000000E-03 0. -1.
        -11    1    4    4    0    0  0.11963602131E+00 -0.15252694334E+01  0.19192467177E+01  0.24544383974E+01  0.51100000000E-03 0.  1.
        -12    1    4    4    0    0  0.24944299970E+01 -0.77359952357E+01 -0.13066210864E+02  0.15388101561E+02  0.00000000000E+00 0.  1.
</event>
<event>
 8    1  0.6019723E-011  0.9118800E+02  0.7816164E-02  0.1184000E+00
        -11   -1    0    0    0    0  0.00000000000E+00  0.00000000000E+00  0.45593999997E+02  0.45594000000E+02  0.51100000000E-03 0. -1.
         11   -1    0    0    0    0 -0.00000000000E+00 -0.00000000000E+00 -0.45593999997E+02  0.45594000000E+02  0.51100000000E-03 0.  1.
         23    2    1    2    0    0  0.00000000000E+00  0.00000000000E+00  0.00000000000E+00  0.91188000000E+02  0.91188000000E+02 0.  0.
    9900012    2    3    3    0    0  0.78762595449E+01 -0.16013821367E+02  0.39561921347E+02  0.47787267750E+02  0.19999984979E+02 0.  0.
        -12    1    3    3    0    0 -0.78762595449E+01  0.16013821367E+02 -0.39561921347E+02  0.43400732250E+02  0.00000000000E+00 0.  1.
         11    1    4    4    0    0  0.67953969110E+01 -0.17896572246E+02  0.29809156997E+02  0.35426692740E+02  0.51100000000E-03 0. -1.
        -11    1    4    4    0    0  0.33870993814E+01  0.23281163823E+01  0.89999757157E+01  0.98940452422E+01  0.51100000000E-03 0.  1.
        -12    1    4    4    0    0 -0.23062367475E+01 -0.44536550280E+00  0.75278863367E+00  0.24665297675E+01  0.00000000000E+00 0.  1.
</event>
<event>
 8    1  0.6019723E-011  0.9118800E+02  0.7816164E-02  0.1184000E+00
        -11   -1    0    0    0    0  0.00000000000E+00  0.00000000000E+00  0.45593999997E+02  0.45594000000E+02  0.51100000000E-03 0.  1.
         11   -1    0    0    0    0 -0.00000000000E+00 -0.00000000000E+00 -0.45593999997E+02  0.45594000000E+02  0.51100000000E-03 0. -1.
         23    2    1    2    0    0  0.71054273576E-14  0.17763568394E-14  0.00000000000E+00  0.91188000000E+02  0.91188000000E+02 0.  0.
    9900012    2    3    3    0    0 -0.40547783374E+02 -0.10199880673E+02  0.11638853948E+02  0.47787271624E+02  0.20000002644E+02 0.  0.
        -12    1    3    3    0    0  0.40547783374E+02  0.10199880673E+02 -0.11638853948E+02  0.43400728376E+02  0.00000000000E+00 0.  1.
         11    1    4    4    0    0 -0.29817574281E+02 -0.80119764713E+01  0.14826056368E+02  0.34250422635E+02  0.51100000000E-03 0. -1.
        -11    1    4    4    0    0 -0.70111241177E+01  0.52258766153E+00 -0.49611727465E+01  0.86047774253E+01  0.51100000000E-03 0.  1.
         12    1    4    4    0    0 -0.37190849762E+01 -0.27104918629E+01  0.17739703259E+01  0.49320715644E+01  0.00000000000E+00 0. -1.
</event>
<event>
 8    1  0.6019723E-011  0.9118800E+02  0.7816164E-02  0.1184000E+00
        -11   -1    0    0    0    0  0.00000000000E+00  0.00000000000E+00  0.45593999997E+02  0.45594000000E+02  0.51100000000E-03 0. -1.
         11   -1    0    0    0    0 -0.00000000000E+00 -0.00000000000E+00 -0.45593999997E+02  0.45594000000E+02  0.51100000000E-03 0.  1.
         23    2    1    2    0    0 -0.35527136788E-14  0.17763568394E-14  0.00000000000E+00  0.91188000000E+02  0.91188000000E+02 0.  0.
    9900012    2    3    3    0    0 -0.23160583067E+02 -0.12119500876E+02  0.34645755313E+02  0.47787271081E+02  0.20000000167E+02 0.  0.
        -12    1    3    3    0    0  0.23160583067E+02  0.12119500876E+02 -0.34645755313E+02  0.43400728919E+02  0.00000000000E+00 0.  1.
         11    1    4    4    0    0 -0.85337596175E+00 -0.18637648560E+01 -0.10670459861E+01  0.23109429609E+01  0.51100000000E-03 0.  1.
        -11    1    4    4    0    0 -0.21636079933E+02 -0.12011329413E+02  0.35883392435E+02  0.43589102331E+02  0.51100000000E-03 0. -1.
         12    1    4    4    0    0 -0.67112717260E+00  0.17555933931E+01 -0.17059113602E+00  0.18872257892E+01  0.00000000000E+00 0. -1.
</event>
<event>
 8    1  0.6019723E-011  0.9118800E+02  0.7816164E-02  0.1184000E+00
        -11   -1    0    0    0    0  0.00000000000E+00  0.00000000000E+00  0.45593999997E+02  0.45594000000E+02  0.51100000000E-03 0. -1.
         11   -1    0    0    0    0 -0.00000000000E+00 -0.00000000000E+00 -0.45593999997E+02  0.45594000000E+02  0.51100000000E-03 0.  1.
         23    2    1    2    0    0  0.13322676296E-14  0.00000000000E+00 -0.35527136788E-14  0.91188000000E+02  0.91188000000E+02 0.  0.
    9900012    2    3    3    0    0 -0.31747259381E+01  0.36926603263E+02  0.22582488361E+02  0.47787289246E+02  0.20000082989E+02 0.  0.
        -12    1    3    3    0    0  0.31747259381E+01 -0.36926603263E+02 -0.22582488361E+02  0.43400710754E+02  0.00000000000E+00 0.  1.
         11    1    4    4    0    0 -0.43464983017E+01  0.18107744385E+02  0.88583402877E+01  0.20621654810E+02  0.51100000000E-03 0. -1.
        -11    1    4    4    0    0  0.59802799349E+01  0.29794960806E+01  0.23554589917E+01  0.70844429786E+01  0.51100000000E-03 0.  1.
        -12    1    4    4    0    0 -0.48085075713E+01  0.15839362798E+02  0.11368689082E+02  0.20081191457E+02  0.00000000000E+00 0.  1.
</event>
<event>
 8    1  0.6019723E-011  0.9118800E+02  0.7816164E-02  0.1184000E+00
        -11   -1    0    0    0    0  0.00000000000E+00  0.00000000000E+00  0.45593999997E+02  0.45594000000E+02  0.51100000000E-03 0.  1.
         11   -1    0    0    0    0 -0.00000000000E+00 -0.00000000000E+00 -0.45593999997E+02  0.45594000000E+02  0.51100000000E-03 0. -1.
         23    2    1    2    0    0  0.00000000000E+00  0.00000000000E+00 -0.13322676296E-14  0.91188000000E+02  0.91188000000E+02 0.  0.
    9900012    2    3    3    0    0 -0.13472836379E+02  0.41207785288E+02  0.20057277529E+01  0.47787287653E+02  0.20000075723E+02 0.  0.
         12    1    3    3    0    0  0.13472836379E+02 -0.41207785288E+02 -0.20057277529E+01  0.43400712347E+02  0.00000000000E+00 0. -1.
         11    1    4    4    0    0 -0.41773983329E+01  0.69354850917E+01  0.46639548495E+01  0.93436655221E+01  0.51100000000E-03 0. -1.
        -11    1    4    4    0    0 -0.33337951755E+01  0.20257528973E+02 -0.83796797554E+01  0.22174325320E+02  0.51100000000E-03 0.  1.
        -12    1    4    4    0    0 -0.59616428709E+01  0.14014771224E+02  0.57214526589E+01  0.16269296810E+02  0.00000000000E+00 0.  1.
</event>
<event>
 8    1  0.6019723E-011  0.9118800E+02  0.7816164E-02  0.1184000E+00
        -11   -1    0    0    0    0  0.00000000000E+00  0.00000000000E+00  0.45593999997E+02  0.45594000000E+02  0.51100000000E-03 0.  1.
         11   -1    0    0    0    0 -0.00000000000E+00 -0.00000000000E+00 -0.45593999997E+02  0.45594000000E+02  0.51100000000E-03 0. -1.
         23    2    1    2    0    0  0.00000000000E+00  0.00000000000E+00  0.00000000000E+00  0.91188000000E+02  0.91188000000E+02 0.  0.
    9900012    2    3    3    0    0 -0.80207381553E+01 -0.30480191217E+02  0.29837038893E+02  0.47787272044E+02  0.20000004558E+02 0.  0.
        -12    1    3    3    0    0  0.80207381553E+01  0.30480191217E+02 -0.29837038893E+02  0.43400727956E+02  0.00000000000E+00 0.  1.
         11    1    4    4    0    0 -0.14123107149E+02 -0.23623075786E+02  0.21092165384E+02  0.34675514502E+02  0.51100000000E-03 0. -1.
        -11    1    4    4    0    0  0.39289862594E+01 -0.23686012158E+01  0.28954971746E+01  0.54250445985E+01  0.51100000000E-03 0.  1.
         12    1    4    4    0    0  0.21733827346E+01 -0.44885142149E+01  0.58493763345E+01  0.76867129432E+01  0.00000000000E+00 0. -1.
</event>
<event>
 8    1  0.6791190E-011  0.9118800E+02  0.7816164E-02  0.1184000E+00
        -11   -1    0    0    0    0  0.00000000000E+00  0.00000000000E+00  0.45593999997E+02  0.45594000000E+02  0.51100000000E-03 0. -1.
         11   -1    0    0    0    0 -0.00000000000E+00 -0.00000000000E+00 -0.45593999997E+02  0.45594000000E+02  0.51100000000E-03 0.  1.
         23    2    1    2    0    0 -0.35527136788E-14  0.00000000000E+00  0.35527136788E-14  0.91188000000E+02  0.91188000000E+02 0.  0.
    9900012    2    3    3    0    0  0.22910138241E+02 -0.21511031069E+02 -0.29933664572E+02  0.47787272281E+02  0.20000005636E+02 0.  0.
         12    1    3    3    0    0 -0.22910138241E+02  0.21511031069E+02  0.29933664572E+02  0.43400727719E+02  0.00000000000E+00 0. -1.
         11    1    4    4    0    0 -0.49791977958E+00  0.34701135205E+00  0.16484504579E+00  0.62889994084E+00  0.51100000000E-03 0. -1.
        -11    1    4    4    0    0  0.18283985111E+01  0.38169586209E+00  0.18648140922E+01  0.26393682400E+01  0.51100000000E-03 0.  1.
        -12    1    4    4    0    0  0.21579659509E+02 -0.22239738283E+02 -0.31963323710E+02  0.44519004100E+02  0.00000000000E+00 0.  1.
</event>
<event>
 8    1  0.6019723E-011  0.9118800E+02  0.7816164E-02  0.1184000E+00
        -11   -1    0    0    0    0  0.00000000000E+00  0.00000000000E+00  0.45593999997E+02  0.45594000000E+02  0.51100000000E-03 0. -1.
         11   -1    0    0    0    0 -0.00000000000E+00 -0.00000000000E+00 -0.45593999997E+02  0.45594000000E+02  0.51100000000E-03 0.  1.
         23    2    1    2    0    0  0.00000000000E+00  0.00000000000E+00  0.00000000000E+00  0.91188000000E+02  0.91188000000E+02 0.  0.
    9900012    2    3    3    0    0 -0.23194288044E+02  0.16545970503E+02  0.32739566763E+02  0.47787269942E+02  0.19999994973E+02 0.  0.
        -12    1    3    3    0    0  0.23194288044E+02 -0.16545970503E+02 -0.32739566763E+02  0.43400730058E+02  0.00000000000E+00 0.  1.
         11    1    4    4    0    0 -0.86320096971E+01  0.11459553859E+02  0.68211774273E+01  0.15885887693E+02  0.51100000000E-03 0. -1.
        -11    1    4    4    0    0 -0.65427083536E+01 -0.25329837971E+01  0.13879476518E+02  0.15551942264E+02  0.51100000000E-03 0.  1.
        -12    1    4    4    0    0 -0.80195699930E+01  0.76194004410E+01  0.12038912818E+02  0.16349439984E+02  0.00000000000E+00 0.  1.
</event>
<event>
 8    1  0.6019723E-011  0.9118800E+02  0.7816164E-02  0.1184000E+00
        -11   -1    0    0    0    0  0.00000000000E+00  0.00000000000E+00  0.45593999997E+02  0.45594000000E+02  0.51100000000E-03 0.  1.
         11   -1    0    0    0    0 -0.00000000000E+00 -0.00000000000E+00 -0.45593999997E+02  0.45594000000E+02  0.51100000000E-03 0. -1.
         23    2    1    2    0    0 -0.44408920985E-15  0.00000000000E+00  0.00000000000E+00  0.91188000000E+02  0.91188000000E+02 0.  0.
    9900012    2    3    3    0    0 -0.18120815701E+01  0.33358243048E+02  0.27705064265E+02  0.47787232671E+02  0.19999825038E+02 0.  0.
        -12    1    3    3    0    0  0.18120815701E+01 -0.33358243048E+02 -0.27705064265E+02  0.43400767329E+02  0.00000000000E+00 0.  1.
         11    1    4    4    0    0 -0.25416192036E+01  0.29082486959E+02  0.17201257444E+02  0.33884128052E+02  0.51100000000E-03 0. -1.
        -11    1    4    4    0    0  0.42494748306E+01  0.12168273328E+01  0.45980409196E+01  0.63781412381E+01  0.51100000000E-03 0.  1.
         12    1    4    4    0    0 -0.35199371971E+01  0.30589287554E+01  0.59057659010E+01  0.75249633806E+01  0.00000000000E+00 0. -1.
</event>
<event>
 8    1  0.6019723E-011  0.9118800E+02  0.7816164E-02  0.1184000E+00
        -11   -1    0    0    0    0  0.00000000000E+00  0.00000000000E+00  0.45593999997E+02  0.45594000000E+02  0.51100000000E-03 0. -1.
         11   -1    0    0    0    0 -0.00000000000E+00 -0.00000000000E+00 -0.45593999997E+02  0.45594000000E+02  0.51100000000E-03 0.  1.
         23    2    1    2    0    0  0.22204460493E-15 -0.71054273576E-14 -0.17763568394E-14  0.91188000000E+02  0.91188000000E+02 0.  0.
    9900012    2    3    3    0    0 -0.14718253517E+01 -0.41200703308E+02  0.13563145206E+02  0.47787272693E+02  0.20000007514E+02 0.  0.
        -12    1    3    3    0    0  0.14718253517E+01  0.41200703308E+02 -0.13563145206E+02  0.43400727307E+02  0.00000000000E+00 0.  1.
         11    1    4    4    0    0 -0.10204383872E+01 -0.19103831055E+01  0.72974511970E+01  0.76120728022E+01  0.51100000000E-03 0. -1.
        -11    1    4    4    0    0  0.16541584998E+01 -0.12801590932E+02  0.15312578014E+00  0.12908927861E+02  0.51100000000E-03 0.  1.
         12    1    4    4    0    0 -0.21055454643E+01 -0.26488729270E+02  0.61125682287E+01  0.27266272030E+02  0.00000000000E+00 0. -1.
</event>
<event>
 8    1  0.6019723E-011  0.9118800E+02  0.7816164E-02  0.1184000E+00
        -11   -1    0    0    0    0  0.00000000000E+00  0.00000000000E+00  0.45593999997E+02  0.45594000000E+02  0.51100000000E-03 0. -1.
         11   -1    0    0    0    0 -0.00000000000E+00 -0.00000000000E+00 -0.45593999997E+02  0.45594000000E+02  0.51100000000E-03 0.  1.
         23    2    1    2    0    0  0.11102230246E-15  0.00000000000E+00  0.00000000000E+00  0.91188000000E+02  0.91188000000E+02 0.  0.
    9900012    2    3    3    0    0 -0.30976996304E+00  0.26169993732E+02  0.34621650932E+02  0.47787271404E+02  0.20000001639E+02 0.  0.
        -12    1    3    3    0    0  0.30976996304E+00 -0.26169993732E+02 -0.34621650932E+02  0.43400728596E+02  0.00000000000E+00 0.  1.
         11    1    4    4    0    0  0.24217055618E+01  0.97297308302E+01  0.12063895637E+02  0.15686615252E+02  0.51100000000E-03 0. -1.
        -11    1    4    4    0    0  0.51859476244E+01  0.17332842308E+01  0.25380516729E+01  0.60282695314E+01  0.51100000000E-03 0.  1.
        -12    1    4    4    0    0 -0.79174231493E+01  0.14706978671E+02  0.20019703623E+02  0.26072386621E+02  0.00000000000E+00 0.  1.
</event>
<event>
 8    1  0.6019723E-011  0.9118800E+02  0.7816164E-02  0.1184000E+00
        -11   -1    0    0    0    0  0.00000000000E+00  0.00000000000E+00  0.45593999997E+02  0.45594000000E+02  0.51100000000E-03 0. -1.
         11   -1    0    0    0    0 -0.00000000000E+00 -0.00000000000E+00 -0.45593999997E+02  0.45594000000E+02  0.51100000000E-03 0.  1.
         23    2    1    2    0    0  0.00000000000E+00  0.00000000000E+00 -0.71054273576E-14  0.91188000000E+02  0.91188000000E+02 0.  0.
    9900012    2    3    3    0    0 -0.16423668591E+02  0.11905719623E+02  0.38368485892E+02  0.47787265451E+02  0.19999974496E+02 0.  0.
        -12    1    3    3    0    0  0.16423668591E+02 -0.11905719623E+02 -0.38368485892E+02  0.43400734549E+02  0.00000000000E+00 0.  1.
         11    1    4    4    0    0  0.31208771732E+01  0.26776283958E+01  0.52838983642E+01  0.66954574407E+01  0.51100000000E-03 0. -1.
        -11    1    4    4    0    0 -0.13478074430E+02  0.52519671333E+00  0.21526321375E+02  0.25403087098E+02  0.51100000000E-03 0.  1.
        -12    1    4    4    0    0 -0.60664713344E+01  0.87028945139E+01  0.11558266153E+02  0.15688720912E+02  0.00000000000E+00 0.  1.
</event>
<event>
 8    1  0.6019723E-011  0.9118800E+02  0.7816164E-02  0.1184000E+00
        -11   -1    0    0    0    0  0.00000000000E+00  0.00000000000E+00  0.45593999997E+02  0.45594000000E+02  0.51100000000E-03 0. -1.
         11   -1    0    0    0    0 -0.00000000000E+00 -0.00000000000E+00 -0.45593999997E+02  0.45594000000E+02  0.51100000000E-03 0.  1.
         23    2    1    2    0    0  0.12212453271E-14  0.00000000000E+00 -0.71054273576E-14  0.91188000000E+02  0.91188000000E+02 0.  0.
    9900012    2    3    3    0    0  0.30455854486E+00  0.25486695050E+01  0.43324757373E+02  0.47787273352E+02  0.20000010520E+02 0.  0.
        -12    1    3    3    0    0 -0.30455854486E+00 -0.25486695050E+01 -0.43324757373E+02  0.43400726648E+02  0.00000000000E+00 0.  1.
         11    1    4    4    0    0  0.12474017037E+01  0.44783368658E+01  0.68709322301E+01  0.82958557163E+01  0.51100000000E-03 0. -1.
        -11    1    4    4    0    0  0.46439770245E+01 -0.51749982391E+01  0.94921233454E+01  0.11766373071E+02  0.51100000000E-03 0.  1.
        -12    1    4    4    0    0 -0.55868201833E+01  0.32453308783E+01  0.26961701798E+02  0.27725044564E+02  0.00000000000E+00 0.  1.
</event>
<event>
 8    1  0.6019723E-011  0.9118800E+02  0.7816164E-02  0.1184000E+00
        -11   -1    0    0    0    0  0.00000000000E+00  0.00000000000E+00  0.45593999997E+02  0.45594000000E+02  0.51100000000E-03 0. -1.
         11   -1    0    0    0    0 -0.00000000000E+00 -0.00000000000E+00 -0.45593999997E+02  0.45594000000E+02  0.51100000000E-03 0.  1.
         23    2    1    2    0    0 -0.35527136788E-14  0.35527136788E-14  0.00000000000E+00  0.91188000000E+02  0.91188000000E+02 0.  0.
    9900012    2    3    3    0    0  0.19864722224E+02 -0.27485326113E+02  0.27084560374E+02  0.47787265545E+02  0.19999974926E+02 0.  0.
        -12    1    3    3    0    0 -0.19864722224E+02  0.27485326113E+02 -0.27084560374E+02  0.43400734455E+02  0.00000000000E+00 0.  1.
         11    1    4    4    0    0  0.93562755296E+01 -0.14035127358E+02  0.45276332975E+01  0.17464940746E+02  0.51100000000E-03 0. -1.
        -11    1    4    4    0    0  0.23357466046E+01  0.15966542067E+01  0.53223881146E+01  0.60276722174E+01  0.51100000000E-03 0.  1.
         12    1    4    4    0    0  0.81727000902E+01 -0.15046852962E+02  0.17234538962E+02  0.24294652581E+02  0.00000000000E+00 0. -1.
</event>
<event>
 8    1  0.6019723E-011  0.9118800E+02  0.7816164E-02  0.1184000E+00
        -11   -1    0    0    0    0  0.00000000000E+00  0.00000000000E+00  0.45593999997E+02  0.45594000000E+02  0.51100000000E-03 0. -1.
         11   -1    0    0    0    0 -0.00000000000E+00 -0.00000000000E+00 -0.45593999997E+02  0.45594000000E+02  0.51100000000E-03 0.  1.
         23    2    1    2    0    0 -0.35527136788E-14  0.00000000000E+00 -0.35527136788E-14  0.91188000000E+02  0.91188000000E+02 0.  0.
    9900012    2    3    3    0    0 -0.20596335956E+02  0.32405809929E+02 -0.20230613903E+02  0.47787270619E+02  0.19999998060E+02 0.  0.
         12    1    3    3    0    0  0.20596335956E+02 -0.32405809929E+02  0.20230613903E+02  0.43400729381E+02  0.00000000000E+00 0. -1.
         11    1    4    4    0    0  0.16166957067E+00  0.16244750531E+00  0.30287440466E+00  0.37981496571E+00  0.51100000000E-03 0. -1.
        -11    1    4    4    0    0 -0.80683018075E+01  0.28279062994E+02 -0.14927927129E+02  0.32979477050E+02  0.51100000000E-03 0.  1.
        -12    1    4    4    0    0 -0.12689703719E+02  0.39642994289E+01 -0.56055611784E+01  0.14427978603E+02  0.00000000000E+00 0.  1.
</event>
<event>
 8    1  0.6019723E-011  0.9118800E+02  0.7816164E-02  0.1184000E+00
        -11   -1    0    0    0    0  0.00000000000E+00  0.00000000000E+00  0.45593999997E+02  0.45594000000E+02  0.51100000000E-03 0. -1.
         11   -1    0    0    0    0 -0.00000000000E+00 -0.00000000000E+00 -0.45593999997E+02  0.45594000000E+02  0.51100000000E-03 0.  1.
         23    2    1    2    0    0  0.00000000000E+00 -0.35527136788E-14  0.00000000000E+00  0.91188000000E+02  0.91188000000E+02 0.  0.
    9900012    2    3    3    0    0  0.23905375829E+02 -0.16003575472E+02  0.32496799837E+02  0.47787269349E+02  0.19999992269E+02 0.  0.
        -12    1    3    3    0    0 -0.23905375829E+02  0.16003575472E+02 -0.32496799837E+02  0.43400730651E+02  0.00000000000E+00 0.  1.
         11    1    4    4    0    0  0.11977654873E+02 -0.86929829244E+01  0.13232920666E+02  0.19853018864E+02  0.51100000000E-03 0. -1.
        -11    1    4    4    0    0  0.40793600178E+01 -0.10046919812E+02  0.63180449845E+01  0.12549879224E+02  0.51100000000E-03 0.  1.
        -12    1    4    4    0    0  0.78483609379E+01  0.27363272644E+01  0.12945834186E+02  0.15384371261E+02  0.00000000000E+00 0.  1.
</event>
<event>
 8    1  0.6019723E-011  0.9118800E+02  0.7816164E-02  0.1184000E+00
        -11   -1    0    0    0    0  0.00000000000E+00  0.00000000000E+00  0.45593999997E+02  0.45594000000E+02  0.51100000000E-03 0.  1.
         11   -1    0    0    0    0 -0.00000000000E+00 -0.00000000000E+00 -0.45593999997E+02  0.45594000000E+02  0.51100000000E-03 0. -1.
         23    2    1    2    0    0 -0.71054273576E-14  0.17763568394E-14  0.00000000000E+00  0.91188000000E+02  0.91188000000E+02 0.  0.
    9900012    2    3    3    0    0 -0.40053057055E+02 -0.10635976608E+02 -0.12893877932E+02  0.47787268831E+02  0.19999989906E+02 0.  0.
         12    1    3    3    0    0  0.40053057055E+02  0.10635976608E+02  0.12893877932E+02  0.43400731169E+02  0.00000000000E+00 0. -1.
         11    1    4    4    0    0 -0.14991188923E+02  0.14581651775E+00 -0.11524747360E+00  0.14992341046E+02  0.51100000000E-03 0. -1.
        -11    1    4    4    0    0 -0.63609439583E+01 -0.35909472478E+01  0.23672736256E+01  0.76785737515E+01  0.51100000000E-03 0.  1.
         12    1    4    4    0    0 -0.18700924174E+02 -0.71908458783E+01 -0.15145904084E+02  0.25116354033E+02  0.00000000000E+00 0. -1.
</event>
<event>
 8    1  0.6019723E-011  0.9118800E+02  0.7816164E-02  0.1184000E+00
        -11   -1    0    0    0    0  0.00000000000E+00  0.00000000000E+00  0.45593999997E+02  0.45594000000E+02  0.51100000000E-03 0.  1.
         11   -1    0    0    0    0 -0.00000000000E+00 -0.00000000000E+00 -0.45593999997E+02  0.45594000000E+02  0.51100000000E-03 0. -1.
         23    2    1    2    0    0  0.00000000000E+00  0.00000000000E+00  0.00000000000E+00  0.91188000000E+02  0.91188000000E+02 0.  0.
    9900012    2    3    3    0    0  0.23767895861E+02 -0.33922594401E+02  0.12960235188E+02  0.47787274422E+02  0.20000015401E+02 0.  0.
        -12    1    3    3    0    0 -0.23767895861E+02  0.33922594401E+02 -0.12960235188E+02  0.43400725578E+02  0.00000000000E+00 0.  1.
         11    1    4    4    0    0  0.65203782723E+01 -0.79328265560E+01 -0.25409546138E+01  0.10578351506E+02  0.51100000000E-03 0. -1.
        -11    1    4    4    0    0  0.17514719278E+02 -0.26847049858E+02  0.16340546204E+02  0.35979757197E+02  0.51100000000E-03 0.  1.
        -12    1    4    4    0    0 -0.26720168931E+00  0.85728201349E+00 -0.83935640218E+00  0.12291657184E+01  0.00000000000E+00 0.  1.
</event>
<event>
 8    1  0.6019723E-011  0.9118800E+02  0.7816164E-02  0.1184000E+00
        -11   -1    0    0    0    0  0.00000000000E+00  0.00000000000E+00  0.45593999997E+02  0.45594000000E+02  0.51100000000E-03 0. -1.
         11   -1    0    0    0    0 -0.00000000000E+00 -0.00000000000E+00 -0.45593999997E+02  0.45594000000E+02  0.51100000000E-03 0.  1.
         23    2    1    2    0    0  0.00000000000E+00  0.35527136788E-14 -0.17763568394E-14  0.91188000000E+02  0.91188000000E+02 0.  0.
    9900012    2    3    3    0    0  0.38487596588E+02 -0.17732374647E+02  0.93750234827E+01  0.47787271123E+02  0.20000000359E+02 0.  0.
        -12    1    3    3    0    0 -0.38487596588E+02  0.17732374647E+02 -0.93750234827E+01  0.43400728877E+02  0.00000000000E+00 0.  1.
         11    1    4    4    0    0  0.13661574479E+02 -0.51845491865E+01 -0.30983774535E+01  0.14937138635E+02  0.51100000000E-03 0. -1.
        -11    1    4    4    0    0  0.23226650116E+02 -0.11372054663E+02  0.14796122472E+02  0.29794733484E+02  0.51100000000E-03 0.  1.
         12    1    4    4    0    0  0.15993719932E+01 -0.11757707972E+01 -0.23227215361E+01  0.30553990041E+01  0.00000000000E+00 0. -1.
</event>
<event>
 8    1  0.6225499E-011  0.9118800E+02  0.7816164E-02  0.1184000E+00
        -11   -1    0    0    0    0  0.00000000000E+00  0.00000000000E+00  0.45593999997E+02  0.45594000000E+02  0.51100000000E-03 0. -1.
         11   -1    0    0    0    0 -0.00000000000E+00 -0.00000000000E+00 -0.45593999997E+02  0.45594000000E+02  0.51100000000E-03 0.  1.
         23    2    1    2    0    0  0.00000000000E+00 -0.22204460493E-15  0.00000000000E+00  0.91188000000E+02  0.91188000000E+02 0.  0.
    9900012    2    3    3    0    0  0.36832978888E+01  0.96416209200E+00 -0.43233410539E+02  0.47787261772E+02  0.19999957725E+02 0.  0.
         12    1    3    3    0    0 -0.36832978888E+01 -0.96416209200E+00  0.43233410539E+02  0.43400738228E+02  0.00000000000E+00 0. -1.
         11    1    4    4    0    0  0.76642620485E+01 -0.52328715445E+00 -0.22312286847E+02  0.23597730543E+02  0.51100000000E-03 0. -1.
        -11    1    4    4    0    0  0.38308454440E+01  0.18010004631E+01 -0.88097930687E+01  0.97740182964E+01  0.51100000000E-03 0.  1.
         12    1    4    4    0    0 -0.78118096036E+01 -0.31355121669E+00 -0.12111330623E+02  0.14415512933E+02  0.00000000000E+00 0. -1.
</event>
<event>
 8    1  0.6019723E-011  0.9118800E+02  0.7816164E-02  0.1184000E+00
        -11   -1    0    0    0    0  0.00000000000E+00  0.00000000000E+00  0.45593999997E+02  0.45594000000E+02  0.51100000000E-03 0.  1.
         11   -1    0    0    0    0 -0.00000000000E+00 -0.00000000000E+00 -0.45593999997E+02  0.45594000000E+02  0.51100000000E-03 0. -1.
         23    2    1    2    0    0  0.71054273576E-14  0.66613381478E-15  0.71054273576E-14  0.91188000000E+02  0.91188000000E+02 0.  0.
    9900012    2    3    3    0    0  0.34094931513E+02 -0.16636379909E+01  0.26802812330E+02  0.47787276561E+02  0.20000025153E+02 0.  0.
        -12    1    3    3    0    0 -0.34094931513E+02  0.16636379909E+01 -0.26802812330E+02  0.43400723439E+02  0.00000000000E+00 0.  1.
         11    1    4    4    0    0 -0.17141386461E+00 -0.39706927931E+01  0.42968210277E+01  0.58530722851E+01  0.51100000000E-03 0. -1.
        -11    1    4    4    0    0  0.25493667505E+02  0.15696671297E+01  0.20860692086E+02  0.32978165690E+02  0.51100000000E-03 0.  1.
         12    1    4    4    0    0  0.87726778726E+01  0.73738767245E+00  0.16452992162E+01  0.89560385856E+01  0.00000000000E+00 0. -1.
</event>
<event>
 8    1  0.6019723E-011  0.9118800E+02  0.7816164E-02  0.1184000E+00
        -11   -1    0    0    0    0  0.00000000000E+00  0.00000000000E+00  0.45593999997E+02  0.45594000000E+02  0.51100000000E-03 0. -1.
         11   -1    0    0    0    0 -0.00000000000E+00 -0.00000000000E+00 -0.45593999997E+02  0.45594000000E+02  0.51100000000E-03 0.  1.
         23    2    1    2    0    0  0.00000000000E+00  0.00000000000E+00 -0.71054273576E-14  0.91188000000E+02  0.91188000000E+02 0.  0.
    9900012    2    3    3    0    0 -0.34034377209E+01 -0.25303550766E+02  0.35096579046E+02  0.47787275001E+02  0.20000018041E+02 0.  0.
        -12    1    3    3    0    0  0.34034377209E+01  0.25303550766E+02 -0.35096579046E+02  0.43400724999E+02  0.00000000000E+00 0.  1.
         11    1    4    4    0    0 -0.23615679348E+01 -0.21550884041E+02  0.19594134239E+02  0.29222383594E+02  0.51100000000E-03 0. -1.
        -11    1    4    4    0    0 -0.16627506174E+01 -0.50612189749E+01  0.32782831375E+01  0.62552232349E+01  0.51100000000E-03 0.  1.
         12    1    4    4    0    0  0.62088083131E+00  0.13085522502E+01  0.12224161669E+02  0.12309668172E+02  0.00000000000E+00 0. -1.
</event>
<event>
 8    1  0.6019723E-011  0.9118800E+02  0.7816164E-02  0.1184000E+00
        -11   -1    0    0    0    0  0.00000000000E+00  0.00000000000E+00  0.45593999997E+02  0.45594000000E+02  0.51100000000E-03 0. -1.
         11   -1    0    0    0    0 -0.00000000000E+00 -0.00000000000E+00 -0.45593999997E+02  0.45594000000E+02  0.51100000000E-03 0.  1.
         23    2    1    2    0    0  0.00000000000E+00  0.00000000000E+00  0.00000000000E+00  0.91188000000E+02  0.91188000000E+02 0.  0.
    9900012    2    3    3    0    0  0.38045558210E+02 -0.99981812223E+01  0.18335620217E+02  0.47787273093E+02  0.20000009341E+02 0.  0.
        -12    1    3    3    0    0 -0.38045558210E+02  0.99981812223E+01 -0.18335620217E+02  0.43400726907E+02  0.00000000000E+00 0.  1.
         11    1    4    4    0    0  0.15048541665E+02 -0.13199719074E+02  0.91409678523E+01  0.22005646626E+02  0.51100000000E-03 0. -1.
        -11    1    4    4    0    0  0.17929936154E+02  0.70910725617E+00  0.91327981596E+01  0.20134384671E+02  0.51100000000E-03 0.  1.
         12    1    4    4    0    0  0.50670803916E+01  0.24924305955E+01  0.61854204979E-01  0.56472417968E+01  0.00000000000E+00 0. -1.
</event>
<event>
 8    1  0.6019723E-011  0.9118800E+02  0.7816164E-02  0.1184000E+00
        -11   -1    0    0    0    0  0.00000000000E+00  0.00000000000E+00  0.45593999997E+02  0.45594000000E+02  0.51100000000E-03 0. -1.
         11   -1    0    0    0    0 -0.00000000000E+00 -0.00000000000E+00 -0.45593999997E+02  0.45594000000E+02  0.51100000000E-03 0.  1.
         23    2    1    2    0    0 -0.17763568394E-14  0.00000000000E+00  0.00000000000E+00  0.91188000000E+02  0.91188000000E+02 0.  0.
    9900012    2    3    3    0    0  0.15696750379E+02  0.11560858478E+02 -0.38776041248E+02  0.47787276549E+02  0.20000025096E+02 0.  0.
         12    1    3    3    0    0 -0.15696750379E+02 -0.11560858478E+02  0.38776041248E+02  0.43400723451E+02  0.00000000000E+00 0. -1.
         11    1    4    4    0    0  0.46650253906E+01 -0.32568428742E+01 -0.75073747698E+01  0.94196689749E+01  0.51100000000E-03 0. -1.
        -11    1    4    4    0    0  0.51743909736E+01  0.15482436848E+02 -0.23578905132E+02  0.28678300859E+02  0.51100000000E-03 0.  1.
        -12    1    4    4    0    0  0.58573340146E+01 -0.66473549552E+00 -0.76897613471E+01  0.96893067148E+01  0.00000000000E+00 0.  1.
</event>
<event>
 8    1  0.6019723E-011  0.9118800E+02  0.7816164E-02  0.1184000E+00
        -11   -1    0    0    0    0  0.00000000000E+00  0.00000000000E+00  0.45593999997E+02  0.45594000000E+02  0.51100000000E-03 0. -1.
         11   -1    0    0    0    0 -0.00000000000E+00 -0.00000000000E+00 -0.45593999997E+02  0.45594000000E+02  0.51100000000E-03 0.  1.
         23    2    1    2    0    0 -0.35527136788E-14  0.00000000000E+00  0.00000000000E+00  0.91188000000E+02  0.91188000000E+02 0.  0.
    9900012    2    3    3    0    0  0.25089383010E+02 -0.33070511437E+02 -0.12668372320E+02  0.47787268165E+02  0.19999986873E+02 0.  0.
         12    1    3    3    0    0 -0.25089383010E+02  0.33070511437E+02  0.12668372320E+02  0.43400731835E+02  0.00000000000E+00 0. -1.
         11    1    4    4    0    0  0.23901403885E+01 -0.89289262277E+01 -0.11868879399E+01  0.93191844009E+01  0.51100000000E-03 0. -1.
        -11    1    4    4    0    0  0.15522867101E+02 -0.20030755080E+02 -0.15035723013E+02  0.29466311593E+02  0.51100000000E-03 0.  1.
        -12    1    4    4    0    0  0.71763755201E+01 -0.41108301294E+01  0.35542386333E+01  0.90017721711E+01  0.00000000000E+00 0.  1.
</event>
<event>
 8    1  0.6019723E-011  0.9118800E+02  0.7816164E-02  0.1184000E+00
        -11   -1    0    0    0    0  0.00000000000E+00  0.00000000000E+00  0.45593999997E+02  0.45594000000E+02  0.51100000000E-03 0. -1.
         11   -1    0    0    0    0 -0.00000000000E+00 -0.00000000000E+00 -0.45593999997E+02  0.45594000000E+02  0.51100000000E-03 0.  1.
         23    2    1    2    0    0  0.00000000000E+00  0.00000000000E+00  0.00000000000E+00  0.91188000000E+02  0.91188000000E+02 0.  0.
    9900012    2    3    3    0    0 -0.25542272549E+02 -0.23558070705E+02 -0.26004480302E+02  0.47787269844E+02  0.19999994528E+02 0.  0.
         12    1    3    3    0    0  0.25542272549E+02  0.23558070705E+02  0.26004480302E+02  0.43400730156E+02  0.00000000000E+00 0. -1.
         11    1    4    4    0    0 -0.52580253374E+01  0.22485731677E+01 -0.69949330321E+01  0.90350428955E+01  0.51100000000E-03 0. -1.
        -11    1    4    4    0    0 -0.17246549958E+02 -0.22650723695E+02 -0.12952482501E+02  0.31277237291E+02  0.51100000000E-03 0.  1.
        -12    1    4    4    0    0 -0.30376972531E+01 -0.31559201781E+01 -0.60570647689E+01  0.74749896580E+01  0.00000000000E+00 0.  1.
</event>
<event>
 8    1  0.6019723E-011  0.9118800E+02  0.7816164E-02  0.1184000E+00
        -11   -1    0    0    0    0  0.00000000000E+00  0.00000000000E+00  0.45593999997E+02  0.45594000000E+02  0.51100000000E-03 0.  1.
         11   -1    0    0    0    0 -0.00000000000E+00 -0.00000000000E+00 -0.45593999997E+02  0.45594000000E+02  0.51100000000E-03 0. -1.
         23    2    1    2    0    0  0.00000000000E+00  0.00000000000E+00 -0.35527136788E-14  0.91188000000E+02  0.91188000000E+02 0.  0.
    9900012    2    3    3    0    0  0.29593972790E+02  0.28024206383E+02  0.14915215073E+02  0.47787274089E+02  0.20000013882E+02 0.  0.
        -12    1    3    3    0    0 -0.29593972790E+02 -0.28024206383E+02 -0.14915215073E+02  0.43400725911E+02  0.00000000000E+00 0.  1.
         11    1    4    4    0    0  0.10789481359E+02  0.10420982218E+02  0.10100590254E+02  0.18084017864E+02  0.51100000000E-03 0. -1.
        -11    1    4    4    0    0  0.37073361864E+00  0.59774824162E+01 -0.28086165972E+01  0.66148368765E+01  0.51100000000E-03 0.  1.
        -12    1    4    4    0    0  0.18433757813E+02  0.11625741749E+02  0.76232414158E+01  0.23088419348E+02  0.00000000000E+00 0.  1.
</event>
<event>
 8    1  0.6019723E-011  0.9118800E+02  0.7816164E-02  0.1184000E+00
        -11   -1    0    0    0    0  0.00000000000E+00  0.00000000000E+00  0.45593999997E+02  0.45594000000E+02  0.51100000000E-03 0. -1.
         11   -1    0    0    0    0 -0.00000000000E+00 -0.00000000000E+00 -0.45593999997E+02  0.45594000000E+02  0.51100000000E-03 0.  1.
         23    2    1    2    0    0  0.00000000000E+00  0.44408920985E-15 -0.35527136788E-14  0.91188000000E+02  0.91188000000E+02 0.  0.
    9900012    2    3    3    0    0  0.29263983720E+02 -0.25230099170E+01 -0.31951167426E+02  0.47787269337E+02  0.19999992215E+02 0.  0.
         12    1    3    3    0    0 -0.29263983720E+02  0.25230099170E+01  0.31951167426E+02  0.43400730663E+02  0.00000000000E+00 0. -1.
         11    1    4    4    0    0  0.23829132977E+01 -0.44672991408E+01 -0.79413475150E+01  0.94180697604E+01  0.51100000000E-03 0. -1.
        -11    1    4    4    0    0  0.27104524724E+02  0.44013008792E+01 -0.21908659532E+02  0.35128564911E+02  0.51100000000E-03 0.  1.
        -12    1    4    4    0    0 -0.22345430132E+00 -0.24570116555E+01 -0.21011603786E+01  0.32406346657E+01  0.00000000000E+00 0.  1.
</event>
<event>
 8    1  0.6019723E-011  0.9118800E+02  0.7816164E-02  0.1184000E+00
        -11   -1    0    0    0    0  0.00000000000E+00  0.00000000000E+00  0.45593999997E+02  0.45594000000E+02  0.51100000000E-03 0. -1.
         11   -1    0    0    0    0 -0.00000000000E+00 -0.00000000000E+00 -0.45593999997E+02  0.45594000000E+02  0.51100000000E-03 0.  1.
         23    2    1    2    0    0 -0.88817841970E-15  0.00000000000E+00  0.00000000000E+00  0.91188000000E+02  0.91188000000E+02 0.  0.
    9900012    2    3    3    0    0 -0.23391861356E+01  0.13700655899E+02  0.41114997399E+02  0.47787276792E+02  0.20000026207E+02 0.  0.
        -12    1    3    3    0    0  0.23391861356E+01 -0.13700655899E+02 -0.41114997399E+02  0.43400723208E+02  0.00000000000E+00 0.  1.
         11    1    4    4    0    0 -0.14041420390E+01 -0.12055961995E+01  0.59949213742E+01  0.62740863563E+01  0.51100000000E-03 0. -1.
        -11    1    4    4    0    0  0.56755950115E+01  0.12785449068E+02  0.29245226299E+02  0.32418564869E+02  0.51100000000E-03 0.  1.
        -12    1    4    4    0    0 -0.66106391082E+01  0.21208030299E+01  0.58748497258E+01  0.90946255673E+01  0.00000000000E+00 0.  1.
</event>
<event>
 8    1  0.6019723E-011  0.9118800E+02  0.7816164E-02  0.1184000E+00
        -11   -1    0    0    0    0  0.00000000000E+00  0.00000000000E+00  0.45593999997E+02  0.45594000000E+02  0.51100000000E-03 0. -1.
         11   -1    0    0    0    0 -0.00000000000E+00 -0.00000000000E+00 -0.45593999997E+02  0.45594000000E+02  0.51100000000E-03 0.  1.
         23    2    1    2    0    0  0.00000000000E+00  0.00000000000E+00  0.00000000000E+00  0.91188000000E+02  0.91188000000E+02 0.  0.
    9900012    2    3    3    0    0 -0.15677147209E+02 -0.16325451888E+02  0.37031469954E+02  0.47787273152E+02  0.20000009609E+02 0.  0.
        -12    1    3    3    0    0  0.15677147209E+02  0.16325451888E+02 -0.37031469954E+02  0.43400726848E+02  0.00000000000E+00 0.  1.
         11    1    4    4    0    0 -0.10033996074E+02 -0.19437434845E+01  0.22456973530E+02  0.24673363701E+02  0.51100000000E-03 0. -1.
        -11    1    4    4    0    0 -0.10724938691E+01 -0.10388050006E+02  0.45419480219E+01  0.11388200829E+02  0.51100000000E-03 0.  1.
        -12    1    4    4    0    0 -0.45706572657E+01 -0.39936583980E+01  0.10032548403E+02  0.11725708622E+02  0.00000000000E+00 0.  1.
</event>
<event>
 8    1  0.6019723E-011  0.9118800E+02  0.7816164E-02  0.1184000E+00
        -11   -1    0    0    0    0  0.00000000000E+00  0.00000000000E+00  0.45593999997E+02  0.45594000000E+02  0.51100000000E-03 0. -1.
         11   -1    0    0    0    0 -0.00000000000E+00 -0.00000000000E+00 -0.45593999997E+02  0.45594000000E+02  0.51100000000E-03 0.  1.
         23    2    1    2    0    0  0.00000000000E+00  0.00000000000E+00  0.00000000000E+00  0.91188000000E+02  0.91188000000E+02 0.  0.
    9900012    2    3    3    0    0 -0.51543451080E+01  0.25128130487E+02 -0.35009042529E+02  0.47787271042E+02  0.19999999990E+02 0.  0.
         12    1    3    3    0    0  0.51543451080E+01 -0.25128130487E+02  0.35009042529E+02  0.43400728958E+02  0.00000000000E+00 0. -1.
         11    1    4    4    0    0 -0.89745683098E+01  0.18109712413E+02 -0.15818016658E+02  0.25665428329E+02  0.51100000000E-03 0. -1.
        -11    1    4    4    0    0  0.28252070294E+01  0.84088149157E+01 -0.17906541157E+02  0.19983347556E+02  0.51100000000E-03 0.  1.
         12    1    4    4    0    0  0.99501617241E+00 -0.13903968418E+01 -0.12844847137E+01  0.21384951580E+01  0.00000000000E+00 0. -1.
</event>
<event>
 8    1  0.6019723E-011  0.9118800E+02  0.7816164E-02  0.1184000E+00
        -11   -1    0    0    0    0  0.00000000000E+00  0.00000000000E+00  0.45593999997E+02  0.45594000000E+02  0.51100000000E-03 0. -1.
         11   -1    0    0    0    0 -0.00000000000E+00 -0.00000000000E+00 -0.45593999997E+02  0.45594000000E+02  0.51100000000E-03 0.  1.
         23    2    1    2    0    0  0.00000000000E+00  0.00000000000E+00 -0.35527136788E-14  0.91188000000E+02  0.91188000000E+02 0.  0.
    9900012    2    3    3    0    0 -0.35384099023E+02  0.37054853366E+01  0.24856761121E+02  0.47787266611E+02  0.19999979787E+02 0.  0.
        -12    1    3    3    0    0  0.35384099023E+02 -0.37054853366E+01 -0.24856761121E+02  0.43400733389E+02  0.00000000000E+00 0.  1.
         11    1    4    4    0    0 -0.13700063846E+02  0.45922661410E+01  0.20696447779E+02  0.25241307585E+02  0.51100000000E-03 0. -1.
        -11    1    4    4    0    0 -0.17862434563E+02  0.25427053924E+00  0.48209136305E+01  0.18503308637E+02  0.51100000000E-03 0.  1.
         12    1    4    4    0    0 -0.38216006144E+01 -0.11410513437E+01 -0.66060028867E+00  0.40426503888E+01  0.00000000000E+00 0. -1.
</event>
<event>
 8    1  0.6019723E-011  0.9118800E+02  0.7816164E-02  0.1184000E+00
        -11   -1    0    0    0    0  0.00000000000E+00  0.00000000000E+00  0.45593999997E+02  0.45594000000E+02  0.51100000000E-03 0. -1.
         11   -1    0    0    0    0 -0.00000000000E+00 -0.00000000000E+00 -0.45593999997E+02  0.45594000000E+02  0.51100000000E-03 0.  1.
         23    2    1    2    0    0 -0.88817841970E-15 -0.35527136788E-14  0.00000000000E+00  0.91188000000E+02  0.91188000000E+02 0.  0.
    9900012    2    3    3    0    0 -0.71167825483E+01 -0.26208670394E+02  0.33853825705E+02  0.47787256775E+02  0.19999934940E+02 0.  0.
        -12    1    3    3    0    0  0.71167825483E+01  0.26208670394E+02 -0.33853825705E+02  0.43400743225E+02  0.00000000000E+00 0.  1.
         11    1    4    4    0    0  0.18302980874E-01  0.93622942509E+00 -0.14588926580E+01  0.17335595127E+01  0.51100000000E-03 0. -1.
        -11    1    4    4    0    0  0.65369671799E+00 -0.22429554715E+01  0.77742681780E+01  0.81177222551E+01  0.51100000000E-03 0.  1.
         12    1    4    4    0    0 -0.77887822472E+01 -0.24901944347E+02  0.27538450185E+02  0.37935975007E+02  0.00000000000E+00 0. -1.
</event>
<event>
 8    1  0.6019723E-011  0.9118800E+02  0.7816164E-02  0.1184000E+00
        -11   -1    0    0    0    0  0.00000000000E+00  0.00000000000E+00  0.45593999997E+02  0.45594000000E+02  0.51100000000E-03 0. -1.
         11   -1    0    0    0    0 -0.00000000000E+00 -0.00000000000E+00 -0.45593999997E+02  0.45594000000E+02  0.51100000000E-03 0.  1.
         23    2    1    2    0    0  0.35527136788E-14  0.71054273576E-14  0.35527136788E-14  0.91188000000E+02  0.91188000000E+02 0.  0.
    9900012    2    3    3    0    0 -0.17497592633E+02 -0.30481628278E+02 -0.25462281656E+02  0.47787271924E+02  0.20000004010E+02 0.  0.
         12    1    3    3    0    0  0.17497592633E+02  0.30481628278E+02  0.25462281656E+02  0.43400728076E+02  0.00000000000E+00 0. -1.
         11    1    4    4    0    0 -0.18070552520E+02 -0.28915167874E+02 -0.20379159237E+02  0.39723317246E+02  0.51100000000E-03 0.  1.
        -11    1    4    4    0    0  0.15883564070E+01  0.19922029267E+01 -0.18337918421E+01  0.31391943805E+01  0.51100000000E-03 0. -1.
        -12    1    4    4    0    0 -0.10153965196E+01 -0.35586633306E+01 -0.32493305764E+01  0.49247602974E+01  0.00000000000E+00 0.  1.
</event>
<event>
 8    1  0.6019723E-011  0.9118800E+02  0.7816164E-02  0.1184000E+00
        -11   -1    0    0    0    0  0.00000000000E+00  0.00000000000E+00  0.45593999997E+02  0.45594000000E+02  0.51100000000E-03 0. -1.
         11   -1    0    0    0    0 -0.00000000000E+00 -0.00000000000E+00 -0.45593999997E+02  0.45594000000E+02  0.51100000000E-03 0.  1.
         23    2    1    2    0    0  0.00000000000E+00  0.00000000000E+00 -0.71054273576E-14  0.91188000000E+02  0.91188000000E+02 0.  0.
    9900012    2    3    3    0    0 -0.26131572534E+01  0.13972445722E+02 -0.41006893395E+02  0.47787272631E+02  0.20000007232E+02 0.  0.
         12    1    3    3    0    0  0.26131572534E+01 -0.13972445722E+02  0.41006893395E+02  0.43400727369E+02  0.00000000000E+00 0. -1.
         11    1    4    4    0    0 -0.24826191153E+01  0.12649600941E+02 -0.35714379554E+02  0.37969628768E+02  0.51100000000E-03 0. -1.
        -11    1    4    4    0    0 -0.21911900602E+01  0.49677149279E+00 -0.67818190995E+01  0.71443100685E+01  0.51100000000E-03 0.  1.
         12    1    4    4    0    0  0.20606519220E+01  0.82607328852E+00  0.14893052580E+01  0.26733337939E+01  0.00000000000E+00 0. -1.
</event>
<event>
 8    1  0.6019723E-011  0.9118800E+02  0.7816164E-02  0.1184000E+00
        -11   -1    0    0    0    0  0.00000000000E+00  0.00000000000E+00  0.45593999997E+02  0.45594000000E+02  0.51100000000E-03 0. -1.
         11   -1    0    0    0    0 -0.00000000000E+00 -0.00000000000E+00 -0.45593999997E+02  0.45594000000E+02  0.51100000000E-03 0.  1.
         23    2    1    2    0    0  0.71054273576E-14  0.00000000000E+00  0.00000000000E+00  0.91188000000E+02  0.91188000000E+02 0.  0.
    9900012    2    3    3    0    0  0.42133241725E+02 -0.13549152230E+01  0.10323640994E+02  0.47787269397E+02  0.19999992489E+02 0.  0.
        -12    1    3    3    0    0 -0.42133241725E+02  0.13549152230E+01 -0.10323640994E+02  0.43400730603E+02  0.00000000000E+00 0.  1.
         11    1    4    4    0    0  0.31969370294E+02 -0.44767980041E+01  0.59958446575E+01  0.32833405409E+02  0.51100000000E-03 0. -1.
        -11    1    4    4    0    0  0.86628585535E+00 -0.46161257791E+00 -0.26257378211E+01  0.28032189928E+01  0.51100000000E-03 0.  1.
         12    1    4    4    0    0  0.92975855757E+01  0.35834953590E+01  0.69535341572E+01  0.12150644995E+02  0.00000000000E+00 0. -1.
</event>
<event>
 8    1  0.6019723E-011  0.9118800E+02  0.7816164E-02  0.1184000E+00
        -11   -1    0    0    0    0  0.00000000000E+00  0.00000000000E+00  0.45593999997E+02  0.45594000000E+02  0.51100000000E-03 0.  1.
         11   -1    0    0    0    0 -0.00000000000E+00 -0.00000000000E+00 -0.45593999997E+02  0.45594000000E+02  0.51100000000E-03 0. -1.
         23    2    1    2    0    0  0.00000000000E+00  0.00000000000E+00  0.00000000000E+00  0.91188000000E+02  0.91188000000E+02 0.  0.
    9900012    2    3    3    0    0  0.35145316067E+02  0.17079585438E+02 -0.18886976902E+02  0.47787269860E+02  0.19999994602E+02 0.  0.
         12    1    3    3    0    0 -0.35145316067E+02 -0.17079585438E+02  0.18886976902E+02  0.43400730140E+02  0.00000000000E+00 0. -1.
         11    1    4    4    0    0  0.13637264981E+02  0.49943945272E+01 -0.13422826446E+02  0.19776026975E+02  0.51100000000E-03 0. -1.
        -11    1    4    4    0    0  0.30864845636E+01 -0.17651722249E+01  0.16091616716E+01  0.39027710017E+01  0.51100000000E-03 0.  1.
        -12    1    4    4    0    0  0.18421566522E+02  0.13850363136E+02 -0.70733121275E+01  0.24108471884E+02  0.00000000000E+00 0.  1.
</event>
<event>
 8    1  0.6019723E-011  0.9118800E+02  0.7816164E-02  0.1184000E+00
        -11   -1    0    0    0    0  0.00000000000E+00  0.00000000000E+00  0.45593999997E+02  0.45594000000E+02  0.51100000000E-03 0.  1.
         11   -1    0    0    0    0 -0.00000000000E+00 -0.00000000000E+00 -0.45593999997E+02  0.45594000000E+02  0.51100000000E-03 0. -1.
         23    2    1    2    0    0  0.00000000000E+00  0.00000000000E+00  0.00000000000E+00  0.91188000000E+02  0.91188000000E+02 0.  0.
    9900012    2    3    3    0    0 -0.98835536176E+01 -0.41986331470E+02  0.48048354166E+01  0.47787272980E+02  0.20000008826E+02 0.  0.
        -12    1    3    3    0    0  0.98835536176E+01  0.41986331470E+02 -0.48048354166E+01  0.43400727020E+02  0.00000000000E+00 0.  1.
         11    1    4    4    0    0 -0.92500420827E+01 -0.76702383771E+01  0.64755280610E+00  0.12033917076E+02  0.51100000000E-03 0. -1.
        -11    1    4    4    0    0 -0.16185434868E+01 -0.29625137756E+02  0.65685987736E+01  0.30387743585E+02  0.51100000000E-03 0.  1.
        -12    1    4    4    0    0  0.98503195194E+00 -0.46909553372E+01 -0.24113161631E+01  0.53656123192E+01  0.00000000000E+00 0.  1.
</event>
<event>
 8    1  0.6019723E-011  0.9118800E+02  0.7816164E-02  0.1184000E+00
        -11   -1    0    0    0    0  0.00000000000E+00  0.00000000000E+00  0.45593999997E+02  0.45594000000E+02  0.51100000000E-03 0. -1.
         11   -1    0    0    0    0 -0.00000000000E+00 -0.00000000000E+00 -0.45593999997E+02  0.45594000000E+02  0.51100000000E-03 0.  1.
         23    2    1    2    0    0  0.00000000000E+00 -0.35527136788E-14  0.00000000000E+00  0.91188000000E+02  0.91188000000E+02 0.  0.
    9900012    2    3    3    0    0 -0.79656588412E+01  0.18736059216E+02  0.38329249494E+02  0.47787274171E+02  0.20000014254E+02 0.  0.
        -12    1    3    3    0    0  0.79656588412E+01 -0.18736059216E+02 -0.38329249494E+02  0.43400725829E+02  0.00000000000E+00 0.  1.
         11    1    4    4    0    0 -0.33910520577E+01  0.47200299856E+01  0.14889866335E+02  0.15983930582E+02  0.51100000000E-03 0. -1.
        -11    1    4    4    0    0  0.40810276619E+00 -0.32619682944E+01  0.54696736278E+01  0.63815605362E+01  0.51100000000E-03 0.  1.
        -12    1    4    4    0    0 -0.49827095497E+01  0.17277997525E+02  0.17969709531E+02  0.25421783052E+02  0.00000000000E+00 0.  1.
</event>
<event>
 8    1  0.6019723E-011  0.9118800E+02  0.7816164E-02  0.1184000E+00
        -11   -1    0    0    0    0  0.00000000000E+00  0.00000000000E+00  0.45593999997E+02  0.45594000000E+02  0.51100000000E-03 0.  1.
         11   -1    0    0    0    0 -0.00000000000E+00 -0.00000000000E+00 -0.45593999997E+02  0.45594000000E+02  0.51100000000E-03 0. -1.
         23    2    1    2    0    0  0.35527136788E-14  0.71054273576E-14  0.17763568394E-14  0.91188000000E+02  0.91188000000E+02 0.  0.
    9900012    2    3    3    0    0 -0.18450420583E+02 -0.36978272907E+02 -0.13259430829E+02  0.47787271979E+02  0.20000004261E+02 0.  0.
         12    1    3    3    0    0  0.18450420583E+02  0.36978272907E+02  0.13259430829E+02  0.43400728021E+02  0.00000000000E+00 0. -1.
         11    1    4    4    0    0  0.23175534671E+01 -0.15177731504E+02 -0.28980416897E+01  0.15624763473E+02  0.51100000000E-03 0. -1.
        -11    1    4    4    0    0 -0.15265763308E+02 -0.18472817975E+02 -0.89360079046E+01  0.25576175845E+02  0.51100000000E-03 0.  1.
        -12    1    4    4    0    0 -0.55022107421E+01 -0.33277234279E+01 -0.14253812343E+01  0.65863326613E+01  0.00000000000E+00 0.  1.
</event>
<event>
 8    1  0.6019723E-011  0.9118800E+02  0.7816164E-02  0.1184000E+00
        -11   -1    0    0    0    0  0.00000000000E+00  0.00000000000E+00  0.45593999997E+02  0.45594000000E+02  0.51100000000E-03 0. -1.
         11   -1    0    0    0    0 -0.00000000000E+00 -0.00000000000E+00 -0.45593999997E+02  0.45594000000E+02  0.51100000000E-03 0.  1.
         23    2    1    2    0    0  0.00000000000E+00  0.00000000000E+00  0.00000000000E+00  0.91188000000E+02  0.91188000000E+02 0.  0.
    9900012    2    3    3    0    0  0.24230078203E+02 -0.12981523810E+02  0.33585808102E+02  0.47787272402E+02  0.20000006190E+02 0.  0.
        -12    1    3    3    0    0 -0.24230078203E+02  0.12981523810E+02 -0.33585808102E+02  0.43400727598E+02  0.00000000000E+00 0.  1.
         11    1    4    4    0    0 -0.12877052366E+00  0.11904150739E+01  0.27660076917E+01  0.30140452398E+01  0.51100000000E-03 0. -1.
        -11    1    4    4    0    0  0.68167790706E+01 -0.12073080262E+02  0.18983979850E+02  0.23507854754E+02  0.51100000000E-03 0.  1.
        -12    1    4    4    0    0  0.17542069657E+02 -0.20988586220E+01  0.11835820560E+02  0.21265372409E+02  0.00000000000E+00 0.  1.
</event>
<event>
 8    1  0.6019723E-011  0.9118800E+02  0.7816164E-02  0.1184000E+00
        -11   -1    0    0    0    0  0.00000000000E+00  0.00000000000E+00  0.45593999997E+02  0.45594000000E+02  0.51100000000E-03 0. -1.
         11   -1    0    0    0    0 -0.00000000000E+00 -0.00000000000E+00 -0.45593999997E+02  0.45594000000E+02  0.51100000000E-03 0.  1.
         23    2    1    2    0    0  0.00000000000E+00  0.88817841970E-15  0.00000000000E+00  0.91188000000E+02  0.91188000000E+02 0.  0.
    9900012    2    3    3    0    0  0.11914551369E+02  0.62304848443E+01  0.41265575451E+02  0.47787271976E+02  0.20000004246E+02 0.  0.
        -12    1    3    3    0    0 -0.11914551369E+02 -0.62304848443E+01 -0.41265575451E+02  0.43400728024E+02  0.00000000000E+00 0.  1.
         11    1    4    4    0    0  0.65354505357E+01 -0.46523723837E+00  0.21936834421E+02  0.22894393725E+02  0.51100000000E-03 0. -1.
        -11    1    4    4    0    0  0.45948587799E+01  0.10630357545E+02  0.15486619811E+02  0.19337854642E+02  0.51100000000E-03 0.  1.
        -12    1    4    4    0    0  0.78424205309E+00 -0.39346354623E+01  0.38421212200E+01  0.55550236083E+01  0.00000000000E+00 0.  1.
</event>
<event>
 8    1  0.6019723E-011  0.9118800E+02  0.7816164E-02  0.1184000E+00
        -11   -1    0    0    0    0  0.00000000000E+00  0.00000000000E+00  0.45593999997E+02  0.45594000000E+02  0.51100000000E-03 0. -1.
         11   -1    0    0    0    0 -0.00000000000E+00 -0.00000000000E+00 -0.45593999997E+02  0.45594000000E+02  0.51100000000E-03 0.  1.
         23    2    1    2    0    0 -0.35527136788E-14  0.00000000000E+00  0.00000000000E+00  0.91188000000E+02  0.91188000000E+02 0.  0.
    9900012    2    3    3    0    0 -0.19157097950E+02 -0.19711430267E+02  0.33587025006E+02  0.47787272658E+02  0.20000007356E+02 0.  0.
        -12    1    3    3    0    0  0.19157097950E+02  0.19711430267E+02 -0.33587025006E+02  0.43400727342E+02  0.00000000000E+00 0.  1.
         11    1    4    4    0    0  0.16959767374E+01 -0.71577991856E+00  0.95565230115E+01  0.97322048024E+01  0.51100000000E-03 0. -1.
        -11    1    4    4    0    0 -0.14928754366E+02 -0.10433939564E+02  0.10641881158E+02  0.21094654218E+02  0.51100000000E-03 0.  1.
         12    1    4    4    0    0 -0.59243203219E+01 -0.85617107843E+01  0.13388620837E+02  0.16960413638E+02  0.00000000000E+00 0. -1.
</event>
<event>
 8    1  0.6019723E-011  0.9118800E+02  0.7816164E-02  0.1184000E+00
        -11   -1    0    0    0    0  0.00000000000E+00  0.00000000000E+00  0.45593999997E+02  0.45594000000E+02  0.51100000000E-03 0.  1.
         11   -1    0    0    0    0 -0.00000000000E+00 -0.00000000000E+00 -0.45593999997E+02  0.45594000000E+02  0.51100000000E-03 0. -1.
         23    2    1    2    0    0  0.00000000000E+00  0.00000000000E+00  0.00000000000E+00  0.91188000000E+02  0.91188000000E+02 0.  0.
    9900012    2    3    3    0    0 -0.10647023960E+02  0.40503244209E+02 -0.11390835459E+02  0.47787273703E+02  0.20000012119E+02 0.  0.
        -12    1    3    3    0    0  0.10647023960E+02 -0.40503244209E+02  0.11390835459E+02  0.43400726297E+02  0.00000000000E+00 0.  1.
         11    1    4    4    0    0 -0.42887207100E+01  0.15172085900E+02 -0.13609645162E+02  0.20828052179E+02  0.51100000000E-03 0. -1.
        -11    1    4    4    0    0 -0.31226821317E+01  0.21904235765E+02  0.13508992951E+01  0.22166903647E+02  0.51100000000E-03 0.  1.
        -12    1    4    4    0    0 -0.32356211185E+01  0.34269225450E+01  0.86791040818E+00  0.47923178764E+01  0.00000000000E+00 0.  1.
</event>
<event>
 8    1  0.6019723E-011  0.9118800E+02  0.7816164E-02  0.1184000E+00
        -11   -1    0    0    0    0  0.00000000000E+00  0.00000000000E+00  0.45593999997E+02  0.45594000000E+02  0.51100000000E-03 0. -1.
         11   -1    0    0    0    0 -0.00000000000E+00 -0.00000000000E+00 -0.45593999997E+02  0.45594000000E+02  0.51100000000E-03 0.  1.
         23    2    1    2    0    0  0.00000000000E+00  0.00000000000E+00  0.35527136788E-14  0.91188000000E+02  0.91188000000E+02 0.  0.
    9900012    2    3    3    0    0  0.37698122681E+02  0.13776389790E+02  0.16513209492E+02  0.47787268934E+02  0.19999990379E+02 0.  0.
        -12    1    3    3    0    0 -0.37698122681E+02 -0.13776389790E+02 -0.16513209492E+02  0.43400731066E+02  0.00000000000E+00 0.  1.
         11    1    4    4    0    0  0.18192599667E+02 -0.50915583829E+00  0.14192636148E+02  0.23079446341E+02  0.51100000000E-03 0. -1.
        -11    1    4    4    0    0  0.77140673885E+01  0.73300152943E+01  0.28203220024E+01  0.11008640985E+02  0.51100000000E-03 0.  1.
         12    1    4    4    0    0  0.11791455626E+02  0.69555303340E+01 -0.49974865882E+00  0.13699181608E+02  0.00000000000E+00 0. -1.
</event>
<event>
 8    1  0.6019723E-011  0.9118800E+02  0.7816164E-02  0.1184000E+00
        -11   -1    0    0    0    0  0.00000000000E+00  0.00000000000E+00  0.45593999997E+02  0.45594000000E+02  0.51100000000E-03 0. -1.
         11   -1    0    0    0    0 -0.00000000000E+00 -0.00000000000E+00 -0.45593999997E+02  0.45594000000E+02  0.51100000000E-03 0.  1.
         23    2    1    2    0    0  0.00000000000E+00  0.00000000000E+00 -0.71054273576E-14  0.91188000000E+02  0.91188000000E+02 0.  0.
    9900012    2    3    3    0    0  0.92581892444E+01 -0.30957912721E+01  0.42288594816E+02  0.47787271397E+02  0.20000001610E+02 0.  0.
        -12    1    3    3    0    0 -0.92581892444E+01  0.30957912721E+01 -0.42288594816E+02  0.43400728603E+02  0.00000000000E+00 0.  1.
         11    1    4    4    0    0  0.63379722188E+01 -0.60037026549E+01  0.30615117469E+02  0.31835510916E+02  0.51100000000E-03 0. -1.
        -11    1    4    4    0    0  0.44327750818E+01  0.54076924906E+01  0.10864369731E+02  0.12920029524E+02  0.51100000000E-03 0.  1.
         12    1    4    4    0    0 -0.15125580561E+01 -0.24997811078E+01  0.80910761686E+00  0.30317309570E+01  0.00000000000E+00 0. -1.
</event>
<event>
 8    1  0.6019723E-011  0.9118800E+02  0.7816164E-02  0.1184000E+00
        -11   -1    0    0    0    0  0.00000000000E+00  0.00000000000E+00  0.45593999997E+02  0.45594000000E+02  0.51100000000E-03 0.  1.
         11   -1    0    0    0    0 -0.00000000000E+00 -0.00000000000E+00 -0.45593999997E+02  0.45594000000E+02  0.51100000000E-03 0. -1.
         23    2    1    2    0    0  0.00000000000E+00 -0.71054273576E-14  0.00000000000E+00  0.91188000000E+02  0.91188000000E+02 0.  0.
    9900012    2    3    3    0    0  0.15844680995E+02  0.33983622273E+02 -0.21856047145E+02  0.47787224714E+02  0.19999788760E+02 0.  0.
         12    1    3    3    0    0 -0.15844680995E+02 -0.33983622273E+02  0.21856047145E+02  0.43400775286E+02  0.00000000000E+00 0. -1.
         11    1    4    4    0    0 -0.54514776520E+00  0.80256781543E+01 -0.12399871007E+02  0.14780578378E+02  0.51100000000E-03 0. -1.
        -11    1    4    4    0    0  0.44362727532E+01  0.49907509598E+01  0.91045990410E+00  0.67392172084E+01  0.51100000000E-03 0.  1.
         12    1    4    4    0    0  0.11953556007E+02  0.20967193159E+02 -0.10366636042E+02  0.26267429128E+02  0.00000000000E+00 0. -1.
</event>
<event>
 8    1  0.6019723E-011  0.9118800E+02  0.7816164E-02  0.1184000E+00
        -11   -1    0    0    0    0  0.00000000000E+00  0.00000000000E+00  0.45593999997E+02  0.45594000000E+02  0.51100000000E-03 0. -1.
         11   -1    0    0    0    0 -0.00000000000E+00 -0.00000000000E+00 -0.45593999997E+02  0.45594000000E+02  0.51100000000E-03 0.  1.
         23    2    1    2    0    0 -0.17763568394E-14  0.00000000000E+00  0.35527136788E-14  0.91188000000E+02  0.91188000000E+02 0.  0.
    9900012    2    3    3    0    0 -0.13698278268E+02  0.26514430701E+02 -0.31511354304E+02  0.47787270594E+02  0.19999997948E+02 0.  0.
         12    1    3    3    0    0  0.13698278268E+02 -0.26514430701E+02  0.31511354304E+02  0.43400729406E+02  0.00000000000E+00 0. -1.
         11    1    4    4    0    0  0.55263586506E+00  0.13197173478E+01 -0.76581510145E+01  0.77906570646E+01  0.51100000000E-03 0. -1.
        -11    1    4    4    0    0 -0.15626840090E+02  0.20435632931E+02 -0.14806773663E+02  0.29682549942E+02  0.51100000000E-03 0.  1.
        -12    1    4    4    0    0  0.13759259573E+01  0.47590804220E+01 -0.90464296264E+01  0.10314063588E+02  0.00000000000E+00 0.  1.
</event>
<event>
 8    1  0.6019723E-011  0.9118800E+02  0.7816164E-02  0.1184000E+00
        -11   -1    0    0    0    0  0.00000000000E+00  0.00000000000E+00  0.45593999997E+02  0.45594000000E+02  0.51100000000E-03 0. -1.
         11   -1    0    0    0    0 -0.00000000000E+00 -0.00000000000E+00 -0.45593999997E+02  0.45594000000E+02  0.51100000000E-03 0.  1.
         23    2    1    2    0    0  0.00000000000E+00  0.00000000000E+00  0.00000000000E+00  0.91188000000E+02  0.91188000000E+02 0.  0.
    9900012    2    3    3    0    0 -0.12333749615E+02  0.16805189705E+02 -0.38066884129E+02  0.47787269040E+02  0.19999990861E+02 0.  0.
         12    1    3    3    0    0  0.12333749615E+02 -0.16805189705E+02  0.38066884129E+02  0.43400730960E+02  0.00000000000E+00 0. -1.
         11    1    4    4    0    0 -0.11774918675E+02  0.91813582206E+01 -0.96136421454E+01  0.17758608170E+02  0.51100000000E-03 0. -1.
        -11    1    4    4    0    0 -0.28023266306E+00  0.84775602348E+01 -0.27163687439E+02  0.28457221815E+02  0.51100000000E-03 0.  1.
        -12    1    4    4    0    0 -0.27859827656E+00 -0.85372875087E+00 -0.12895545446E+01  0.15714390549E+01  0.00000000000E+00 0.  1.
</event>
<event>
 8    1  0.6019723E-011  0.9118800E+02  0.7816164E-02  0.1184000E+00
        -11   -1    0    0    0    0  0.00000000000E+00  0.00000000000E+00  0.45593999997E+02  0.45594000000E+02  0.51100000000E-03 0. -1.
         11   -1    0    0    0    0 -0.00000000000E+00 -0.00000000000E+00 -0.45593999997E+02  0.45594000000E+02  0.51100000000E-03 0.  1.
         23    2    1    2    0    0  0.00000000000E+00  0.00000000000E+00  0.35527136788E-14  0.91188000000E+02  0.91188000000E+02 0.  0.
    9900012    2    3    3    0    0  0.36271444398E+02  0.49520710764E+01  0.23312713241E+02  0.47787270912E+02  0.19999999398E+02 0.  0.
        -12    1    3    3    0    0 -0.36271444398E+02 -0.49520710764E+01 -0.23312713241E+02  0.43400729088E+02  0.00000000000E+00 0.  1.
         11    1    4    4    0    0  0.17942947340E+02  0.88078213684E+00  0.11526659067E+02  0.21344531055E+02  0.51100000000E-03 0. -1.
        -11    1    4    4    0    0  0.56676523256E+01  0.33106892976E+01 -0.27801292457E+01  0.71282582300E+01  0.51100000000E-03 0.  1.
        -12    1    4    4    0    0  0.12660844732E+02  0.76059964200E+00  0.14566183419E+02  0.19314481628E+02  0.00000000000E+00 0.  1.
</event>
<event>
 8    1  0.6019723E-011  0.9118800E+02  0.7816164E-02  0.1184000E+00
        -11   -1    0    0    0    0  0.00000000000E+00  0.00000000000E+00  0.45593999997E+02  0.45594000000E+02  0.51100000000E-03 0. -1.
         11   -1    0    0    0    0 -0.00000000000E+00 -0.00000000000E+00 -0.45593999997E+02  0.45594000000E+02  0.51100000000E-03 0.  1.
         23    2    1    2    0    0  0.71054273576E-14  0.71054273576E-14  0.00000000000E+00  0.91188000000E+02  0.91188000000E+02 0.  0.
    9900012    2    3    3    0    0 -0.26601162901E+02 -0.25362873497E+02  0.23080861735E+02  0.47787269613E+02  0.19999993472E+02 0.  0.
        -12    1    3    3    0    0  0.26601162901E+02  0.25362873497E+02 -0.23080861735E+02  0.43400730387E+02  0.00000000000E+00 0.  1.
         11    1    4    4    0    0  0.14157337370E+01 -0.34027630648E+01  0.82729848352E+01  0.90567862309E+01  0.51100000000E-03 0.  1.
        -11    1    4    4    0    0 -0.17226067717E+02 -0.14490461815E+02  0.11067948134E+02  0.25084066033E+02  0.51100000000E-03 0. -1.
         12    1    4    4    0    0 -0.10790828921E+02 -0.74696486176E+01  0.37399287659E+01  0.13646417348E+02  0.00000000000E+00 0. -1.
</event>
<event>
 8    1  0.6019723E-011  0.9118800E+02  0.7816164E-02  0.1184000E+00
        -11   -1    0    0    0    0  0.00000000000E+00  0.00000000000E+00  0.45593999997E+02  0.45594000000E+02  0.51100000000E-03 0.  1.
         11   -1    0    0    0    0 -0.00000000000E+00 -0.00000000000E+00 -0.45593999997E+02  0.45594000000E+02  0.51100000000E-03 0. -1.
         23    2    1    2    0    0  0.00000000000E+00 -0.35527136788E-14  0.00000000000E+00  0.91188000000E+02  0.91188000000E+02 0.  0.
    9900012    2    3    3    0    0 -0.39205921839E+02 -0.18171370599E+02  0.40401963736E+01  0.47787237295E+02  0.19999846121E+02 0.  0.
         12    1    3    3    0    0  0.39205921839E+02  0.18171370599E+02 -0.40401963736E+01  0.43400762705E+02  0.00000000000E+00 0. -1.
         11    1    4    4    0    0 -0.35031718256E+01 -0.60608734110E+01  0.53283344409E+01  0.87975875966E+01  0.51100000000E-03 0. -1.
        -11    1    4    4    0    0 -0.28922238438E+02 -0.77056337926E+01  0.25494172873E+01  0.30039510601E+02  0.51100000000E-03 0.  1.
        -12    1    4    4    0    0 -0.67805115754E+01 -0.44048633949E+01 -0.38375553545E+01  0.89501390967E+01  0.00000000000E+00 0.  1.
</event>
<event>
 8    1  0.6019723E-011  0.9118800E+02  0.7816164E-02  0.1184000E+00
        -11   -1    0    0    0    0  0.00000000000E+00  0.00000000000E+00  0.45593999997E+02  0.45594000000E+02  0.51100000000E-03 0. -1.
         11   -1    0    0    0    0 -0.00000000000E+00 -0.00000000000E+00 -0.45593999997E+02  0.45594000000E+02  0.51100000000E-03 0.  1.
         23    2    1    2    0    0  0.00000000000E+00 -0.88817841970E-15  0.00000000000E+00  0.91188000000E+02  0.91188000000E+02 0.  0.
    9900012    2    3    3    0    0  0.28709381631E+02  0.43249951067E+01 -0.32259693198E+02  0.47787285932E+02  0.20000067880E+02 0.  0.
         12    1    3    3    0    0 -0.28709381631E+02 -0.43249951067E+01  0.32259693198E+02  0.43400714068E+02  0.00000000000E+00 0. -1.
         11    1    4    4    0    0  0.77381963682E+01  0.57931292104E+01 -0.46447557069E+01  0.10724448001E+02  0.51100000000E-03 0. -1.
        -11    1    4    4    0    0  0.16258462854E+02 -0.16325791570E+01 -0.27906270025E+02  0.32338256540E+02  0.51100000000E-03 0.  1.
        -12    1    4    4    0    0  0.47127224093E+01  0.16444505328E+00  0.29133253348E+00  0.47245813918E+01  0.00000000000E+00 0.  1.
</event>
<event>
 8    1  0.6019723E-011  0.9118800E+02  0.7816164E-02  0.1184000E+00
        -11   -1    0    0    0    0  0.00000000000E+00  0.00000000000E+00  0.45593999997E+02  0.45594000000E+02  0.51100000000E-03 0. -1.
         11   -1    0    0    0    0 -0.00000000000E+00 -0.00000000000E+00 -0.45593999997E+02  0.45594000000E+02  0.51100000000E-03 0.  1.
         23    2    1    2    0    0  0.00000000000E+00  0.00000000000E+00  0.00000000000E+00  0.91188000000E+02  0.91188000000E+02 0.  0.
    9900012    2    3    3    0    0 -0.34945780820E+02  0.17966482994E+02 -0.18428801334E+02  0.47787276194E+02  0.20000023480E+02 0.  0.
         12    1    3    3    0    0  0.34945780820E+02 -0.17966482994E+02  0.18428801334E+02  0.43400723806E+02  0.00000000000E+00 0. -1.
         11    1    4    4    0    0 -0.12492880720E+02  0.15501143205E+02 -0.13492571529E+02  0.24050093473E+02  0.51100000000E-03 0. -1.
        -11    1    4    4    0    0 -0.18181638038E+02  0.34329572367E+01 -0.55442365673E+01  0.19315685763E+02  0.51100000000E-03 0.  1.
         12    1    4    4    0    0 -0.42712620619E+01 -0.96761744803E+00  0.60800676195E+00  0.44214969580E+01  0.00000000000E+00 0. -1.
</event>
<event>
 8    1  0.6019723E-011  0.9118800E+02  0.7816164E-02  0.1184000E+00
        -11   -1    0    0    0    0  0.00000000000E+00  0.00000000000E+00  0.45593999997E+02  0.45594000000E+02  0.51100000000E-03 0. -1.
         11   -1    0    0    0    0 -0.00000000000E+00 -0.00000000000E+00 -0.45593999997E+02  0.45594000000E+02  0.51100000000E-03 0.  1.
         23    2    1    2    0    0  0.17763568394E-14  0.00000000000E+00  0.00000000000E+00  0.91188000000E+02  0.91188000000E+02 0.  0.
    9900012    2    3    3    0    0  0.14351765741E+02 -0.18508632717E+02  0.36538755631E+02  0.47787270421E+02  0.19999997156E+02 0.  0.
        -12    1    3    3    0    0 -0.14351765741E+02  0.18508632717E+02 -0.36538755631E+02  0.43400729579E+02  0.00000000000E+00 0.  1.
         11    1    4    4    0    0 -0.10952960133E+00  0.13433778003E+01  0.28733295861E+01  0.31737491740E+01  0.51100000000E-03 0. -1.
        -11    1    4    4    0    0  0.13281816050E+02 -0.16025658850E+02  0.34712815863E+02  0.40474781835E+02  0.51100000000E-03 0.  1.
        -12    1    4    4    0    0  0.11794792929E+01 -0.38263516679E+01 -0.10473898182E+01  0.41387394120E+01  0.00000000000E+00 0.  1.
</event>
<event>
 8    1  0.6019723E-011  0.9118800E+02  0.7816164E-02  0.1184000E+00
        -11   -1    0    0    0    0  0.00000000000E+00  0.00000000000E+00  0.45593999997E+02  0.45594000000E+02  0.51100000000E-03 0. -1.
         11   -1    0    0    0    0 -0.00000000000E+00 -0.00000000000E+00 -0.45593999997E+02  0.45594000000E+02  0.51100000000E-03 0.  1.
         23    2    1    2    0    0  0.00000000000E+00  0.00000000000E+00  0.00000000000E+00  0.91188000000E+02  0.91188000000E+02 0.  0.
    9900012    2    3    3    0    0  0.21756230712E+02  0.12740081853E+02  0.35326776534E+02  0.47787258062E+02  0.19999940810E+02 0.  0.
        -12    1    3    3    0    0 -0.21756230712E+02 -0.12740081853E+02 -0.35326776534E+02  0.43400741938E+02  0.00000000000E+00 0.  1.
         11    1    4    4    0    0  0.93401754107E+01  0.81373858952E+01  0.17970521776E+02  0.21826488015E+02  0.51100000000E-03 0. -1.
        -11    1    4    4    0    0  0.83125910609E+01  0.26849455747E+01  0.77245921292E+00  0.87695379799E+01  0.51100000000E-03 0.  1.
        -12    1    4    4    0    0  0.41034642403E+01  0.19177503835E+01  0.16583795545E+02  0.17191232067E+02  0.00000000000E+00 0.  1.
</event>
<event>
 8    1  0.6019723E-011  0.9118800E+02  0.7816164E-02  0.1184000E+00
        -11   -1    0    0    0    0  0.00000000000E+00  0.00000000000E+00  0.45593999997E+02  0.45594000000E+02  0.51100000000E-03 0. -1.
         11   -1    0    0    0    0 -0.00000000000E+00 -0.00000000000E+00 -0.45593999997E+02  0.45594000000E+02  0.51100000000E-03 0.  1.
         23    2    1    2    0    0 -0.22204460493E-15 -0.35527136788E-14  0.00000000000E+00  0.91188000000E+02  0.91188000000E+02 0.  0.
    9900012    2    3    3    0    0  0.14487393824E+01  0.19800999839E+02  0.38593326888E+02  0.47787270505E+02  0.19999997539E+02 0.  0.
        -12    1    3    3    0    0 -0.14487393824E+01 -0.19800999839E+02 -0.38593326888E+02  0.43400729495E+02  0.00000000000E+00 0.  1.
         11    1    4    4    0    0 -0.46394398203E+01 -0.18219871264E+01  0.11610906311E+02  0.12635552404E+02  0.51100000000E-03 0. -1.
        -11    1    4    4    0    0  0.26347671396E+01  0.79986549450E+01  0.89569791728E+01  0.12294224456E+02  0.51100000000E-03 0.  1.
         12    1    4    4    0    0  0.34534120632E+01  0.13624332021E+02  0.18025441405E+02  0.22857493645E+02  0.00000000000E+00 0. -1.
</event>
<event>
 8    1  0.6019723E-011  0.9118800E+02  0.7816164E-02  0.1184000E+00
        -11   -1    0    0    0    0  0.00000000000E+00  0.00000000000E+00  0.45593999997E+02  0.45594000000E+02  0.51100000000E-03 0. -1.
         11   -1    0    0    0    0 -0.00000000000E+00 -0.00000000000E+00 -0.45593999997E+02  0.45594000000E+02  0.51100000000E-03 0.  1.
         23    2    1    2    0    0  0.00000000000E+00  0.00000000000E+00  0.14210854715E-13  0.91188000000E+02  0.91188000000E+02 0.  0.
    9900012    2    3    3    0    0 -0.21208715323E+02 -0.44588133082E+00  0.37863109650E+02  0.47787268576E+02  0.19999988745E+02 0.  0.
        -12    1    3    3    0    0  0.21208715323E+02  0.44588133082E+00 -0.37863109650E+02  0.43400731424E+02  0.00000000000E+00 0.  1.
         11    1    4    4    0    0  0.87757625317E-01 -0.49495186642E+00 -0.17526929408E+01  0.18233517370E+01  0.51100000000E-03 0. -1.
        -11    1    4    4    0    0  0.54586103788E+00  0.51705706317E+00  0.33550005699E-01  0.75262084960E+00  0.51100000000E-03 0.  1.
         12    1    4    4    0    0 -0.21842333986E+02 -0.46798652757E+00  0.39582252585E+02  0.45211295989E+02  0.00000000000E+00 0. -1.
</event>
<event>
 8    1  0.6019723E-011  0.9118800E+02  0.7816164E-02  0.1184000E+00
        -11   -1    0    0    0    0  0.00000000000E+00  0.00000000000E+00  0.45593999997E+02  0.45594000000E+02  0.51100000000E-03 0. -1.
         11   -1    0    0    0    0 -0.00000000000E+00 -0.00000000000E+00 -0.45593999997E+02  0.45594000000E+02  0.51100000000E-03 0.  1.
         23    2    1    2    0    0  0.00000000000E+00  0.00000000000E+00  0.17763568394E-14  0.91188000000E+02  0.91188000000E+02 0.  0.
    9900012    2    3    3    0    0 -0.12247497334E+02 -0.39650413287E+02 -0.12706964698E+02  0.47787269400E+02  0.19999992502E+02 0.  0.
         12    1    3    3    0    0  0.12247497334E+02  0.39650413287E+02  0.12706964698E+02  0.43400730600E+02  0.00000000000E+00 0. -1.
         11    1    4    4    0    0 -0.11743130882E+02 -0.37648236109E+02 -0.12070779718E+02  0.41243114920E+02  0.51100000000E-03 0.  1.
        -11    1    4    4    0    0 -0.43628834140E+00  0.12742096262E+01 -0.24520537324E+01  0.27975927966E+01  0.51100000000E-03 0. -1.
         12    1    4    4    0    0 -0.68078110762E-01 -0.32763868043E+01  0.18158687528E+01  0.37465616835E+01  0.00000000000E+00 0. -1.
</event>
<event>
 8    1  0.6019723E-011  0.9118800E+02  0.7816164E-02  0.1184000E+00
        -11   -1    0    0    0    0  0.00000000000E+00  0.00000000000E+00  0.45593999997E+02  0.45594000000E+02  0.51100000000E-03 0. -1.
         11   -1    0    0    0    0 -0.00000000000E+00 -0.00000000000E+00 -0.45593999997E+02  0.45594000000E+02  0.51100000000E-03 0.  1.
         23    2    1    2    0    0 -0.88817841970E-15  0.00000000000E+00  0.00000000000E+00  0.91188000000E+02  0.91188000000E+02 0.  0.
    9900012    2    3    3    0    0  0.50304734496E+01 -0.22228822862E+02  0.36935066136E+02  0.47787247248E+02  0.19999891503E+02 0.  0.
        -12    1    3    3    0    0 -0.50304734496E+01  0.22228822862E+02 -0.36935066136E+02  0.43400752752E+02  0.00000000000E+00 0.  1.
         11    1    4    4    0    0 -0.12288064400E+01 -0.12403347733E+02  0.24582250820E+02  0.27561568458E+02  0.51100000000E-03 0. -1.
        -11    1    4    4    0    0 -0.18123214763E+01 -0.19727389364E+01 -0.90786185197E+00  0.28285016260E+01  0.51100000000E-03 0.  1.
         12    1    4    4    0    0  0.80716013658E+01 -0.78527361931E+01  0.13260677168E+02  0.17397177164E+02  0.00000000000E+00 0. -1.
</event>
<event>
 8    1  0.6019723E-011  0.9118800E+02  0.7816164E-02  0.1184000E+00
        -11   -1    0    0    0    0  0.00000000000E+00  0.00000000000E+00  0.45593999997E+02  0.45594000000E+02  0.51100000000E-03 0.  1.
         11   -1    0    0    0    0 -0.00000000000E+00 -0.00000000000E+00 -0.45593999997E+02  0.45594000000E+02  0.51100000000E-03 0. -1.
         23    2    1    2    0    0 -0.17763568394E-14  0.00000000000E+00  0.00000000000E+00  0.91188000000E+02  0.91188000000E+02 0.  0.
    9900012    2    3    3    0    0 -0.14742411813E+02 -0.40761807958E+02 -0.21822112472E+01  0.47787242634E+02  0.19999870464E+02 0.  0.
        -12    1    3    3    0    0  0.14742411813E+02  0.40761807958E+02  0.21822112472E+01  0.43400757366E+02  0.00000000000E+00 0.  1.
         11    1    4    4    0    0 -0.91495968567E+01 -0.28461656634E+02  0.24305165879E+01  0.29994806752E+02  0.51100000000E-03 0. -1.
        -11    1    4    4    0    0 -0.38100881656E+01 -0.18736624167E+00 -0.40095881577E+01  0.55343179700E+01  0.51100000000E-03 0.  1.
        -12    1    4    4    0    0 -0.17827267903E+01 -0.12112785082E+02 -0.60313967744E+00  0.12258117911E+02  0.00000000000E+00 0.  1.
</event>
<event>
 8    1  0.6019723E-011  0.9118800E+02  0.7816164E-02  0.1184000E+00
        -11   -1    0    0    0    0  0.00000000000E+00  0.00000000000E+00  0.45593999997E+02  0.45594000000E+02  0.51100000000E-03 0. -1.
         11   -1    0    0    0    0 -0.00000000000E+00 -0.00000000000E+00 -0.45593999997E+02  0.45594000000E+02  0.51100000000E-03 0.  1.
         23    2    1    2    0    0  0.17763568394E-14 -0.88817841970E-15  0.71054273576E-14  0.91188000000E+02  0.91188000000E+02 0.  0.
    9900012    2    3    3    0    0  0.10011359214E+02  0.11901246534E+01  0.42213490662E+02  0.47787279915E+02  0.20000040445E+02 0.  0.
        -12    1    3    3    0    0 -0.10011359214E+02 -0.11901246534E+01 -0.42213490662E+02  0.43400720085E+02  0.00000000000E+00 0.  1.
         11    1    4    4    0    0 -0.38947554649E+01 -0.36208699623E+01  0.69760148802E+01  0.87718072987E+01  0.51100000000E-03 0. -1.
        -11    1    4    4    0    0  0.42764795953E+01  0.56413092544E+01  0.15348443698E+02  0.16902288959E+02  0.51100000000E-03 0.  1.
         12    1    4    4    0    0  0.96296350839E+01 -0.83031463866E+00  0.19889032084E+02  0.22113183658E+02  0.00000000000E+00 0. -1.
</event>
<event>
 8    1  0.6675101E-011  0.9118800E+02  0.7816164E-02  0.1184000E+00
        -11   -1    0    0    0    0  0.00000000000E+00  0.00000000000E+00  0.45593999997E+02  0.45594000000E+02  0.51100000000E-03 0. -1.
         11   -1    0    0    0    0 -0.00000000000E+00 -0.00000000000E+00 -0.45593999997E+02  0.45594000000E+02  0.51100000000E-03 0.  1.
         23    2    1    2    0    0  0.17763568394E-14  0.00000000000E+00  0.00000000000E+00  0.91188000000E+02  0.91188000000E+02 0.  0.
    9900012    2    3    3    0    0  0.12170141524E+02  0.41689682125E+01 -0.41450332147E+02  0.47787277935E+02  0.20000031417E+02 0.  0.
         12    1    3    3    0    0 -0.12170141524E+02 -0.41689682125E+01  0.41450332147E+02  0.43400722065E+02  0.00000000000E+00 0. -1.
         11    1    4    4    0    0 -0.17736863000E+01 -0.17897744631E+01  0.95435900882E+00  0.26944493127E+01  0.51100000000E-03 0. -1.
        -11    1    4    4    0    0  0.58016203171E+01  0.31891105193E+01 -0.21226413824E+02  0.22234879543E+02  0.51100000000E-03 0.  1.
         12    1    4    4    0    0  0.81422075073E+01  0.27696321563E+01 -0.21178277332E+02  0.22857949080E+02  0.00000000000E+00 0. -1.
</event>
<event>
 8    1  0.6019723E-011  0.9118800E+02  0.7816164E-02  0.1184000E+00
        -11   -1    0    0    0    0  0.00000000000E+00  0.00000000000E+00  0.45593999997E+02  0.45594000000E+02  0.51100000000E-03 0. -1.
         11   -1    0    0    0    0 -0.00000000000E+00 -0.00000000000E+00 -0.45593999997E+02  0.45594000000E+02  0.51100000000E-03 0.  1.
         23    2    1    2    0    0  0.88817841970E-15  0.00000000000E+00  0.71054273576E-14  0.91188000000E+02  0.91188000000E+02 0.  0.
    9900012    2    3    3    0    0 -0.79758802013E+01  0.26219658825E+02  0.33653199153E+02  0.47787274348E+02  0.20000015063E+02 0.  0.
        -12    1    3    3    0    0  0.79758802013E+01 -0.26219658825E+02 -0.33653199153E+02  0.43400725652E+02  0.00000000000E+00 0.  1.
         11    1    4    4    0    0 -0.94215798168E+01  0.22674147740E+02  0.23918833691E+02  0.34278181798E+02  0.51100000000E-03 0. -1.
        -11    1    4    4    0    0  0.51681689032E+00 -0.26433159866E+01  0.49363482564E+01  0.56233222807E+01  0.51100000000E-03 0.  1.
         12    1    4    4    0    0  0.92888272517E+00  0.61888270719E+01  0.47980172047E+01  0.78857702693E+01  0.00000000000E+00 0. -1.
</event>
<event>
 8    1  0.6019723E-011  0.9118800E+02  0.7816164E-02  0.1184000E+00
        -11   -1    0    0    0    0  0.00000000000E+00  0.00000000000E+00  0.45593999997E+02  0.45594000000E+02  0.51100000000E-03 0. -1.
         11   -1    0    0    0    0 -0.00000000000E+00 -0.00000000000E+00 -0.45593999997E+02  0.45594000000E+02  0.51100000000E-03 0.  1.
         23    2    1    2    0    0  0.00000000000E+00  0.00000000000E+00  0.35527136788E-14  0.91188000000E+02  0.91188000000E+02 0.  0.
    9900012    2    3    3    0    0  0.11211521678E+02  0.27114963358E+02  0.31979742252E+02  0.47787269929E+02  0.19999994914E+02 0.  0.
        -12    1    3    3    0    0 -0.11211521678E+02 -0.27114963358E+02 -0.31979742252E+02  0.43400730071E+02  0.00000000000E+00 0.  1.
         11    1    4    4    0    0  0.38107910316E+01  0.19428041098E+02  0.84168908514E+01  0.21513134617E+02  0.51100000000E-03 0. -1.
        -11    1    4    4    0    0  0.25506317268E+01  0.13595425475E+01  0.11173968831E+02  0.11541735478E+02  0.51100000000E-03 0.  1.
         12    1    4    4    0    0  0.48500989193E+01  0.63273797119E+01  0.12388882570E+02  0.14732399834E+02  0.00000000000E+00 0. -1.
</event>
<event>
 8    1  0.6019723E-011  0.9118800E+02  0.7816164E-02  0.1184000E+00
        -11   -1    0    0    0    0  0.00000000000E+00  0.00000000000E+00  0.45593999997E+02  0.45594000000E+02  0.51100000000E-03 0. -1.
         11   -1    0    0    0    0 -0.00000000000E+00 -0.00000000000E+00 -0.45593999997E+02  0.45594000000E+02  0.51100000000E-03 0.  1.
         23    2    1    2    0    0  0.35527136788E-14 -0.35527136788E-14  0.00000000000E+00  0.91188000000E+02  0.91188000000E+02 0.  0.
    9900012    2    3    3    0    0  0.22349603539E+02 -0.29128285708E+02  0.23144360975E+02  0.47787271302E+02  0.20000001174E+02 0.  0.
        -12    1    3    3    0    0 -0.22349603539E+02  0.29128285708E+02 -0.23144360975E+02  0.43400728698E+02  0.00000000000E+00 0.  1.
         11    1    4    4    0    0  0.10399661684E+02 -0.18592176202E+02  0.93633806360E+01  0.23270042463E+02  0.51100000000E-03 0. -1.
        -11    1    4    4    0    0  0.13050585539E+02 -0.60052677357E+01  0.13703998790E+02  0.19853982134E+02  0.51100000000E-03 0.  1.
        -12    1    4    4    0    0 -0.11006436841E+01 -0.45308417705E+01  0.76981548686E-01  0.46632467045E+01  0.00000000000E+00 0.  1.
</event>
<event>
 8    1  0.6019723E-011  0.9118800E+02  0.7816164E-02  0.1184000E+00
        -11   -1    0    0    0    0  0.00000000000E+00  0.00000000000E+00  0.45593999997E+02  0.45594000000E+02  0.51100000000E-03 0. -1.
         11   -1    0    0    0    0 -0.00000000000E+00 -0.00000000000E+00 -0.45593999997E+02  0.45594000000E+02  0.51100000000E-03 0.  1.
         23    2    1    2    0    0 -0.17763568394E-14 -0.44408920985E-15  0.71054273576E-14  0.91188000000E+02  0.91188000000E+02 0.  0.
    9900012    2    3    3    0    0 -0.10494095413E+02 -0.37986572614E+01 -0.41941241336E+02  0.47787267745E+02  0.19999984955E+02 0.  0.
         12    1    3    3    0    0  0.10494095413E+02  0.37986572614E+01  0.41941241336E+02  0.43400732255E+02  0.00000000000E+00 0. -1.
         11    1    4    4    0    0 -0.11306929145E+02 -0.28523545599E+01 -0.32382329077E+02  0.34417986721E+02  0.51100000000E-03 0.  1.
        -11    1    4    4    0    0  0.23944901316E+00  0.37810160400E+01 -0.16388358727E+01  0.41278567566E+01  0.51100000000E-03 0. -1.
         12    1    4    4    0    0  0.57338471880E+00 -0.47273187415E+01 -0.79200763863E+01  0.92414242671E+01  0.00000000000E+00 0. -1.
</event>
<event>
 8    1  0.6019723E-011  0.9118800E+02  0.7816164E-02  0.1184000E+00
        -11   -1    0    0    0    0  0.00000000000E+00  0.00000000000E+00  0.45593999997E+02  0.45594000000E+02  0.51100000000E-03 0. -1.
         11   -1    0    0    0    0 -0.00000000000E+00 -0.00000000000E+00 -0.45593999997E+02  0.45594000000E+02  0.51100000000E-03 0.  1.
         23    2    1    2    0    0  0.00000000000E+00  0.00000000000E+00  0.00000000000E+00  0.91188000000E+02  0.91188000000E+02 0.  0.
    9900012    2    3    3    0    0 -0.26163137531E+02  0.16188664149E+02 -0.30611118606E+02  0.47787271957E+02  0.20000004160E+02 0.  0.
         12    1    3    3    0    0  0.26163137531E+02 -0.16188664149E+02  0.30611118606E+02  0.43400728043E+02  0.00000000000E+00 0. -1.
         11    1    4    4    0    0 -0.25811213902E+02  0.12871814616E+02 -0.24370373551E+02  0.37759998436E+02  0.51100000000E-03 0. -1.
        -11    1    4    4    0    0 -0.27899650017E+01  0.43500090598E+01 -0.45515174478E+01  0.68864210494E+01  0.51100000000E-03 0.  1.
         12    1    4    4    0    0  0.24380413726E+01 -0.10331595266E+01 -0.16892276067E+01  0.31408524717E+01  0.00000000000E+00 0. -1.
</event>
<event>
 8    1  0.6019723E-011  0.9118800E+02  0.7816164E-02  0.1184000E+00
        -11   -1    0    0    0    0  0.00000000000E+00  0.00000000000E+00  0.45593999997E+02  0.45594000000E+02  0.51100000000E-03 0.  1.
         11   -1    0    0    0    0 -0.00000000000E+00 -0.00000000000E+00 -0.45593999997E+02  0.45594000000E+02  0.51100000000E-03 0. -1.
         23    2    1    2    0    0  0.00000000000E+00  0.00000000000E+00 -0.35527136788E-14  0.91188000000E+02  0.91188000000E+02 0.  0.
    9900012    2    3    3    0    0  0.20144753610E+02 -0.33696300352E+02 -0.18503294217E+02  0.47787266685E+02  0.19999980123E+02 0.  0.
         12    1    3    3    0    0 -0.20144753610E+02  0.33696300352E+02  0.18503294217E+02  0.43400733315E+02  0.00000000000E+00 0. -1.
         11    1    4    4    0    0  0.47929698487E+01 -0.20899543134E+01 -0.10588380643E+01  0.53349421093E+01  0.51100000000E-03 0. -1.
        -11    1    4    4    0    0  0.14618476645E+02 -0.26549685862E+02 -0.74237654625E+01  0.31204133904E+02  0.51100000000E-03 0.  1.
        -12    1    4    4    0    0  0.73330711552E+00 -0.50566601767E+01 -0.10020690690E+02  0.11248190671E+02  0.00000000000E+00 0.  1.
</event>
<event>
 8    1  0.6019723E-011  0.9118800E+02  0.7816164E-02  0.1184000E+00
        -11   -1    0    0    0    0  0.00000000000E+00  0.00000000000E+00  0.45593999997E+02  0.45594000000E+02  0.51100000000E-03 0. -1.
         11   -1    0    0    0    0 -0.00000000000E+00 -0.00000000000E+00 -0.45593999997E+02  0.45594000000E+02  0.51100000000E-03 0.  1.
         23    2    1    2    0    0  0.17763568394E-14 -0.17763568394E-14  0.71054273576E-14  0.91188000000E+02  0.91188000000E+02 0.  0.
    9900012    2    3    3    0    0 -0.90985716411E+01  0.93214939712E+01 -0.41399866196E+02  0.47787272162E+02  0.20000005096E+02 0.  0.
         12    1    3    3    0    0  0.90985716411E+01 -0.93214939712E+01  0.41399866196E+02  0.43400727838E+02  0.00000000000E+00 0. -1.
         11    1    4    4    0    0 -0.22137799144E+00 -0.27695034582E+01 -0.30946863753E+01  0.41588750453E+01  0.51100000000E-03 0. -1.
        -11    1    4    4    0    0 -0.31623956487E+01 -0.32341466048E+01 -0.79149737187E+01  0.91163183209E+01  0.51100000000E-03 0.  1.
        -12    1    4    4    0    0 -0.57147980010E+01  0.15325144034E+02 -0.30390206103E+02  0.34512078796E+02  0.00000000000E+00 0.  1.
</event>
<event>
 8    1  0.6019723E-011  0.9118800E+02  0.7816164E-02  0.1184000E+00
        -11   -1    0    0    0    0  0.00000000000E+00  0.00000000000E+00  0.45593999997E+02  0.45594000000E+02  0.51100000000E-03 0. -1.
         11   -1    0    0    0    0 -0.00000000000E+00 -0.00000000000E+00 -0.45593999997E+02  0.45594000000E+02  0.51100000000E-03 0.  1.
         23    2    1    2    0    0  0.35527136788E-14  0.17763568394E-14  0.00000000000E+00  0.91188000000E+02  0.91188000000E+02 0.  0.
    9900012    2    3    3    0    0 -0.29792243137E+02 -0.15324502489E+02  0.27589949034E+02  0.47787269415E+02  0.19999992569E+02 0.  0.
        -12    1    3    3    0    0  0.29792243137E+02  0.15324502489E+02 -0.27589949034E+02  0.43400730585E+02  0.00000000000E+00 0.  1.
         11    1    4    4    0    0  0.16175335324E+00  0.40424872155E+00 -0.12844533170E+01  0.13562454649E+01  0.51100000000E-03 0.  1.
        -11    1    4    4    0    0 -0.25673906874E+02 -0.15756021808E+02  0.29432027551E+02  0.42114676342E+02  0.51100000000E-03 0. -1.
         12    1    4    4    0    0 -0.42800896160E+01  0.27270597127E-01 -0.55762520011E+00  0.43163476077E+01  0.00000000000E+00 0. -1.
</event>
<event>
 8    1  0.6019723E-011  0.9118800E+02  0.7816164E-02  0.1184000E+00
        -11   -1    0    0    0    0  0.00000000000E+00  0.00000000000E+00  0.45593999997E+02  0.45594000000E+02  0.51100000000E-03 0. -1.
         11   -1    0    0    0    0 -0.00000000000E+00 -0.00000000000E+00 -0.45593999997E+02  0.45594000000E+02  0.51100000000E-03 0.  1.
         23    2    1    2    0    0 -0.71054273576E-14  0.35527136788E-14  0.00000000000E+00  0.91188000000E+02  0.91188000000E+02 0.  0.
    9900012    2    3    3    0    0 -0.34102595766E+02  0.24530331282E+02 -0.10904098175E+02  0.47787267889E+02  0.19999985613E+02 0.  0.
         12    1    3    3    0    0  0.34102595766E+02 -0.24530331282E+02  0.10904098175E+02  0.43400732111E+02  0.00000000000E+00 0. -1.
         11    1    4    4    0    0 -0.25323043993E+01  0.12086280949E+02 -0.18007066365E+01  0.12479314781E+02  0.51100000000E-03 0. -1.
        -11    1    4    4    0    0 -0.27807732581E+02  0.11313628386E+02 -0.69011888795E+01  0.30804132625E+02  0.51100000000E-03 0.  1.
         12    1    4    4    0    0 -0.37625587854E+01  0.11304219464E+01 -0.22022026595E+01  0.45038204831E+01  0.00000000000E+00 0. -1.
</event>
<event>
 8    1  0.6945581E-011  0.9118800E+02  0.7816164E-02  0.1184000E+00
        -11   -1    0    0    0    0  0.00000000000E+00  0.00000000000E+00  0.45593999997E+02  0.45594000000E+02  0.51100000000E-03 0. -1.
         11   -1    0    0    0    0 -0.00000000000E+00 -0.00000000000E+00 -0.45593999997E+02  0.45594000000E+02  0.51100000000E-03 0.  1.
         23    2    1    2    0    0  0.35527136788E-14 -0.88817841970E-15  0.00000000000E+00  0.91188000000E+02  0.91188000000E+02 0.  0.
    9900012    2    3    3    0    0 -0.28848717959E+02  0.62287857185E+01 -0.31821019985E+02  0.47787267146E+02  0.19999982226E+02 0.  0.
         12    1    3    3    0    0  0.28848717959E+02 -0.62287857185E+01  0.31821019985E+02  0.43400732854E+02  0.00000000000E+00 0. -1.
         11    1    4    4    0    0 -0.51276242107E+01 -0.61007549620E+01 -0.44277218856E+01  0.91168230492E+01  0.51100000000E-03 0. -1.
        -11    1    4    4    0    0 -0.12617103529E+02  0.50376503210E+01 -0.17244271272E+02  0.21952997841E+02  0.51100000000E-03 0.  1.
         12    1    4    4    0    0 -0.11103990219E+02  0.72918903595E+01 -0.10149026827E+02  0.16717446256E+02  0.00000000000E+00 0. -1.
</event>
<event>
 8    1  0.6019723E-011  0.9118800E+02  0.7816164E-02  0.1184000E+00
        -11   -1    0    0    0    0  0.00000000000E+00  0.00000000000E+00  0.45593999997E+02  0.45594000000E+02  0.51100000000E-03 0. -1.
         11   -1    0    0    0    0 -0.00000000000E+00 -0.00000000000E+00 -0.45593999997E+02  0.45594000000E+02  0.51100000000E-03 0.  1.
         23    2    1    2    0    0  0.00000000000E+00  0.00000000000E+00  0.71054273576E-14  0.91188000000E+02  0.91188000000E+02 0.  0.
    9900012    2    3    3    0    0 -0.22329534093E+02 -0.12639824950E+02 -0.35003565519E+02  0.47787275736E+02  0.20000021389E+02 0.  0.
         12    1    3    3    0    0  0.22329534093E+02  0.12639824950E+02  0.35003565519E+02  0.43400724264E+02  0.00000000000E+00 0. -1.
         11    1    4    4    0    0 -0.14581992062E+02 -0.79241369610E+00 -0.16423471191E+02  0.21977097583E+02  0.51100000000E-03 0.  1.
        -11    1    4    4    0    0 -0.16306278431E+01  0.18630276839E+01 -0.94491928983E+00  0.26500362335E+01  0.51100000000E-03 0. -1.
         12    1    4    4    0    0 -0.61169141880E+01 -0.13710438938E+02 -0.17635175038E+02  0.23160141919E+02  0.00000000000E+00 0. -1.
</event>
<event>
 8    1  0.6019723E-011  0.9118800E+02  0.7816164E-02  0.1184000E+00
        -11   -1    0    0    0    0  0.00000000000E+00  0.00000000000E+00  0.45593999997E+02  0.45594000000E+02  0.51100000000E-03 0. -1.
         11   -1    0    0    0    0 -0.00000000000E+00 -0.00000000000E+00 -0.45593999997E+02  0.45594000000E+02  0.51100000000E-03 0.  1.
         23    2    1    2    0    0  0.00000000000E+00  0.44408920985E-15  0.00000000000E+00  0.91188000000E+02  0.91188000000E+02 0.  0.
    9900012    2    3    3    0    0  0.13353210258E+02  0.23267560185E+01  0.41229860500E+02  0.47787269423E+02  0.19999992609E+02 0.  0.
        -12    1    3    3    0    0 -0.13353210258E+02 -0.23267560185E+01 -0.41229860500E+02  0.43400730577E+02  0.00000000000E+00 0.  1.
         11    1    4    4    0    0 -0.21608617743E+01 -0.15180409626E+01  0.17190451106E+02  0.17392106872E+02  0.51100000000E-03 0. -1.
        -11    1    4    4    0    0  0.68137297965E+01  0.65687089795E+01  0.12933683162E+02  0.16026696846E+02  0.51100000000E-03 0.  1.
         12    1    4    4    0    0  0.87003422353E+01 -0.27239119984E+01  0.11105726232E+02  0.14368465705E+02  0.00000000000E+00 0. -1.
</event>
<event>
 8    1  0.6019723E-011  0.9118800E+02  0.7816164E-02  0.1184000E+00
        -11   -1    0    0    0    0  0.00000000000E+00  0.00000000000E+00  0.45593999997E+02  0.45594000000E+02  0.51100000000E-03 0.  1.
         11   -1    0    0    0    0 -0.00000000000E+00 -0.00000000000E+00 -0.45593999997E+02  0.45594000000E+02  0.51100000000E-03 0. -1.
         23    2    1    2    0    0 -0.35527136788E-14  0.00000000000E+00  0.00000000000E+00  0.91188000000E+02  0.91188000000E+02 0.  0.
    9900012    2    3    3    0    0 -0.25586957248E+02 -0.30546780264E+02 -0.17199559490E+02  0.47787274057E+02  0.20000013735E+02 0.  0.
         12    1    3    3    0    0  0.25586957248E+02  0.30546780264E+02  0.17199559490E+02  0.43400725943E+02  0.00000000000E+00 0. -1.
         11    1    4    4    0    0 -0.88220480457E+00 -0.14276431746E+02 -0.82621321989E+01  0.16518402388E+02  0.51100000000E-03 0. -1.
        -11    1    4    4    0    0 -0.23321937886E+02 -0.15292933956E+02 -0.71169771754E+01  0.28782598565E+02  0.51100000000E-03 0.  1.
         12    1    4    4    0    0 -0.13828145569E+01 -0.97741456253E+00 -0.18204501159E+01  0.24862731045E+01  0.00000000000E+00 0. -1.
</event>
<event>
 8    1  0.6019723E-011  0.9118800E+02  0.7816164E-02  0.1184000E+00
        -11   -1    0    0    0    0  0.00000000000E+00  0.00000000000E+00  0.45593999997E+02  0.45594000000E+02  0.51100000000E-03 0. -1.
         11   -1    0    0    0    0 -0.00000000000E+00 -0.00000000000E+00 -0.45593999997E+02  0.45594000000E+02  0.51100000000E-03 0.  1.
         23    2    1    2    0    0  0.17763568394E-14  0.00000000000E+00  0.00000000000E+00  0.91188000000E+02  0.91188000000E+02 0.  0.
    9900012    2    3    3    0    0  0.11988346529E+02 -0.21444306064E+02  0.35777696289E+02  0.47787282646E+02  0.20000052897E+02 0.  0.
        -12    1    3    3    0    0 -0.11988346529E+02  0.21444306064E+02 -0.35777696289E+02  0.43400717354E+02  0.00000000000E+00 0.  1.
         11    1    4    4    0    0  0.36940304495E+01 -0.18404681551E+02  0.21546091557E+02  0.28576427796E+02  0.51100000000E-03 0. -1.
        -11    1    4    4    0    0  0.26428019506E+00  0.20916374755E+01  0.30204458469E-01  0.21084837967E+01  0.51100000000E-03 0.  1.
         12    1    4    4    0    0  0.80300358849E+01 -0.51312619882E+01  0.14201400274E+02  0.17102371053E+02  0.00000000000E+00 0. -1.
</event>
<event>
 8    1  0.6019723E-011  0.9118800E+02  0.7816164E-02  0.1184000E+00
        -11   -1    0    0    0    0  0.00000000000E+00  0.00000000000E+00  0.45593999997E+02  0.45594000000E+02  0.51100000000E-03 0. -1.
         11   -1    0    0    0    0 -0.00000000000E+00 -0.00000000000E+00 -0.45593999997E+02  0.45594000000E+02  0.51100000000E-03 0.  1.
         23    2    1    2    0    0 -0.35527136788E-14  0.00000000000E+00  0.71054273576E-14  0.91188000000E+02  0.91188000000E+02 0.  0.
    9900012    2    3    3    0    0 -0.17190721774E+02  0.51137965064E+01 -0.39521529660E+02  0.47787272627E+02  0.20000007216E+02 0.  0.
         12    1    3    3    0    0  0.17190721774E+02 -0.51137965064E+01  0.39521529660E+02  0.43400727373E+02  0.00000000000E+00 0. -1.
         11    1    4    4    0    0 -0.12956782033E+02 -0.50312514182E+01 -0.22915531804E+02  0.26801367309E+02  0.51100000000E-03 0. -1.
        -11    1    4    4    0    0 -0.59735876499E+01  0.73142944343E+01 -0.11314240202E+02  0.14737526390E+02  0.51100000000E-03 0.  1.
         12    1    4    4    0    0  0.17396479088E+01  0.28307534902E+01 -0.52917576544E+01  0.62483789291E+01  0.00000000000E+00 0. -1.
</event>
<event>
 8    1  0.6019723E-011  0.9118800E+02  0.7816164E-02  0.1184000E+00
        -11   -1    0    0    0    0  0.00000000000E+00  0.00000000000E+00  0.45593999997E+02  0.45594000000E+02  0.51100000000E-03 0. -1.
         11   -1    0    0    0    0 -0.00000000000E+00 -0.00000000000E+00 -0.45593999997E+02  0.45594000000E+02  0.51100000000E-03 0.  1.
         23    2    1    2    0    0  0.00000000000E+00  0.00000000000E+00  0.00000000000E+00  0.91188000000E+02  0.91188000000E+02 0.  0.
    9900012    2    3    3    0    0 -0.22288691211E+02 -0.80369597565E+01 -0.36362684402E+02  0.47787270801E+02  0.19999998892E+02 0.  0.
         12    1    3    3    0    0  0.22288691211E+02  0.80369597565E+01  0.36362684402E+02  0.43400729199E+02  0.00000000000E+00 0. -1.
         11    1    4    4    0    0 -0.10627059588E+02  0.36508811020E+01 -0.13901450083E+02  0.17874944559E+02  0.51100000000E-03 0. -1.
        -11    1    4    4    0    0 -0.57482942874E+01 -0.11746849397E+02 -0.18982451256E+02  0.23051351672E+02  0.51100000000E-03 0.  1.
        -12    1    4    4    0    0 -0.59133373358E+01  0.59008538993E-01 -0.34787830636E+01  0.68609745706E+01  0.00000000000E+00 0.  1.
</event>
<event>
 8    1  0.6019723E-011  0.9118800E+02  0.7816164E-02  0.1184000E+00
        -11   -1    0    0    0    0  0.00000000000E+00  0.00000000000E+00  0.45593999997E+02  0.45594000000E+02  0.51100000000E-03 0. -1.
         11   -1    0    0    0    0 -0.00000000000E+00 -0.00000000000E+00 -0.45593999997E+02  0.45594000000E+02  0.51100000000E-03 0.  1.
         23    2    1    2    0    0  0.00000000000E+00 -0.33306690739E-15  0.71054273576E-14  0.91188000000E+02  0.91188000000E+02 0.  0.
    9900012    2    3    3    0    0 -0.16738000438E+02  0.65256260684E+00 -0.40037945826E+02  0.47787267258E+02  0.19999982734E+02 0.  0.
         12    1    3    3    0    0  0.16738000438E+02 -0.65256260684E+00  0.40037945826E+02  0.43400732742E+02  0.00000000000E+00 0. -1.
         11    1    4    4    0    0 -0.97646321628E+01 -0.34888892185E+01 -0.71677680783E+01  0.12605446789E+02  0.51100000000E-03 0. -1.
        -11    1    4    4    0    0 -0.88148374152E+01  0.24125433676E+01 -0.29986907648E+02  0.31348626042E+02  0.51100000000E-03 0.  1.
         12    1    4    4    0    0  0.18414691402E+01  0.17289084578E+01 -0.28832700998E+01  0.38331944274E+01  0.00000000000E+00 0. -1.
</event>
<event>
 8    1  0.6019723E-011  0.9118800E+02  0.7816164E-02  0.1184000E+00
        -11   -1    0    0    0    0  0.00000000000E+00  0.00000000000E+00  0.45593999997E+02  0.45594000000E+02  0.51100000000E-03 0. -1.
         11   -1    0    0    0    0 -0.00000000000E+00 -0.00000000000E+00 -0.45593999997E+02  0.45594000000E+02  0.51100000000E-03 0.  1.
         23    2    1    2    0    0  0.00000000000E+00  0.35527136788E-14  0.35527136788E-14  0.91188000000E+02  0.91188000000E+02 0.  0.
    9900012    2    3    3    0    0 -0.23004974520E+02 -0.25567144517E+02  0.26471036711E+02  0.47787268255E+02  0.19999987281E+02 0.  0.
        -12    1    3    3    0    0  0.23004974520E+02  0.25567144517E+02 -0.26471036711E+02  0.43400731745E+02  0.00000000000E+00 0.  1.
         11    1    4    4    0    0 -0.20259431862E+02 -0.20223763580E+02  0.19044590957E+02  0.34382286686E+02  0.51100000000E-03 0. -1.
        -11    1    4    4    0    0 -0.57851908562E+01 -0.24749204107E+01  0.20977923330E+01  0.66328272415E+01  0.51100000000E-03 0.  1.
         12    1    4    4    0    0  0.30396481984E+01 -0.28684605264E+01  0.53286534208E+01  0.67721543279E+01  0.00000000000E+00 0. -1.
</event>
<event>
 8    1  0.6019723E-011  0.9118800E+02  0.7816164E-02  0.1184000E+00
        -11   -1    0    0    0    0  0.00000000000E+00  0.00000000000E+00  0.45593999997E+02  0.45594000000E+02  0.51100000000E-03 0. -1.
         11   -1    0    0    0    0 -0.00000000000E+00 -0.00000000000E+00 -0.45593999997E+02  0.45594000000E+02  0.51100000000E-03 0.  1.
         23    2    1    2    0    0  0.17763568394E-14  0.00000000000E+00  0.00000000000E+00  0.91188000000E+02  0.91188000000E+02 0.  0.
    9900012    2    3    3    0    0 -0.14358731350E+02  0.35078109328E+02  0.21141802396E+02  0.47787277327E+02  0.20000028644E+02 0.  0.
        -12    1    3    3    0    0  0.14358731350E+02 -0.35078109328E+02 -0.21141802396E+02  0.43400722673E+02  0.00000000000E+00 0.  1.
         11    1    4    4    0    0 -0.62687444597E+01  0.20194562474E+02  0.12843689195E+02  0.24740207417E+02  0.51100000000E-03 0. -1.
        -11    1    4    4    0    0 -0.68850836107E+01  0.63410551756E+00  0.98092238021E+00  0.69834572463E+01  0.51100000000E-03 0.  1.
         12    1    4    4    0    0 -0.12049032793E+01  0.14249441336E+02  0.73171908209E+01  0.16063612664E+02  0.00000000000E+00 0. -1.
</event>
<event>
 8    1  0.6019723E-011  0.9118800E+02  0.7816164E-02  0.1184000E+00
        -11   -1    0    0    0    0  0.00000000000E+00  0.00000000000E+00  0.45593999997E+02  0.45594000000E+02  0.51100000000E-03 0. -1.
         11   -1    0    0    0    0 -0.00000000000E+00 -0.00000000000E+00 -0.45593999997E+02  0.45594000000E+02  0.51100000000E-03 0.  1.
         23    2    1    2    0    0  0.88817841970E-15  0.35527136788E-14  0.00000000000E+00  0.91188000000E+02  0.91188000000E+02 0.  0.
    9900012    2    3    3    0    0 -0.54496757818E+01  0.16168723799E+02  0.39906093376E+02  0.47787275536E+02  0.20000020479E+02 0.  0.
        -12    1    3    3    0    0  0.54496757818E+01 -0.16168723799E+02 -0.39906093376E+02  0.43400724464E+02  0.00000000000E+00 0.  1.
         11    1    4    4    0    0 -0.11758464860E+02  0.12505311589E+02  0.26197852728E+02  0.31320469371E+02  0.51100000000E-03 0. -1.
        -11    1    4    4    0    0  0.69779128306E+00  0.27863266124E+01  0.76081898745E+01  0.81323478831E+01  0.51100000000E-03 0.  1.
         12    1    4    4    0    0  0.56109977955E+01  0.87708559781E+00  0.61000507740E+01  0.83344582818E+01  0.00000000000E+00 0. -1.
</event>
<event>
 8    1  0.6019723E-011  0.9118800E+02  0.7816164E-02  0.1184000E+00
        -11   -1    0    0    0    0  0.00000000000E+00  0.00000000000E+00  0.45593999997E+02  0.45594000000E+02  0.51100000000E-03 0. -1.
         11   -1    0    0    0    0 -0.00000000000E+00 -0.00000000000E+00 -0.45593999997E+02  0.45594000000E+02  0.51100000000E-03 0.  1.
         23    2    1    2    0    0  0.00000000000E+00 -0.71054273576E-14  0.17763568394E-14  0.91188000000E+02  0.91188000000E+02 0.  0.
    9900012    2    3    3    0    0  0.24923581413E+02 -0.32759563803E+02  0.13756811301E+02  0.47787265119E+02  0.19999972985E+02 0.  0.
        -12    1    3    3    0    0 -0.24923581413E+02  0.32759563803E+02 -0.13756811301E+02  0.43400734881E+02  0.00000000000E+00 0.  1.
         11    1    4    4    0    0  0.14764547195E+02 -0.73116339758E+01  0.91262929252E+01  0.18834571089E+02  0.51100000000E-03 0. -1.
        -11    1    4    4    0    0  0.81382719710E+01 -0.15610783700E+02 -0.62944398671E+00  0.17616022207E+02  0.51100000000E-03 0.  1.
        -12    1    4    4    0    0  0.20207622467E+01 -0.98371461269E+01  0.52599623626E+01  0.11336671824E+02  0.00000000000E+00 0.  1.
</event>
<event>
 8    1  0.6957376E-011  0.9118800E+02  0.7816164E-02  0.1184000E+00
        -11   -1    0    0    0    0  0.00000000000E+00  0.00000000000E+00  0.45593999997E+02  0.45594000000E+02  0.51100000000E-03 0.  1.
         11   -1    0    0    0    0 -0.00000000000E+00 -0.00000000000E+00 -0.45593999997E+02  0.45594000000E+02  0.51100000000E-03 0. -1.
         23    2    1    2    0    0  0.00000000000E+00  0.17763568394E-14  0.00000000000E+00  0.91188000000E+02  0.91188000000E+02 0.  0.
    9900012    2    3    3    0    0 -0.30187074529E+02  0.81801589765E+01 -0.30090684195E+02  0.47787265619E+02  0.19999975263E+02 0.  0.
         12    1    3    3    0    0  0.30187074529E+02 -0.81801589765E+01  0.30090684195E+02  0.43400734381E+02  0.00000000000E+00 0. -1.
         11    1    4    4    0    0 -0.22775247087E+02  0.59094099520E+01 -0.22572373740E+02  0.32605905330E+02  0.51100000000E-03 0.  1.
        -11    1    4    4    0    0 -0.78116685158E+01 -0.53351394194E+00 -0.90452310596E+01  0.11963402832E+02  0.51100000000E-03 0. -1.
         12    1    4    4    0    0  0.39984107430E+00  0.28042629665E+01  0.15269206039E+01  0.32179574578E+01  0.00000000000E+00 0. -1.
</event>
<event>
 8    1  0.6019723E-011  0.9118800E+02  0.7816164E-02  0.1184000E+00
        -11   -1    0    0    0    0  0.00000000000E+00  0.00000000000E+00  0.45593999997E+02  0.45594000000E+02  0.51100000000E-03 0. -1.
         11   -1    0    0    0    0 -0.00000000000E+00 -0.00000000000E+00 -0.45593999997E+02  0.45594000000E+02  0.51100000000E-03 0.  1.
         23    2    1    2    0    0 -0.44408920985E-15  0.74940054162E-15  0.71054273576E-14  0.91188000000E+02  0.91188000000E+02 0.  0.
    9900012    2    3    3    0    0 -0.37829856163E+01  0.24542015098E+00  0.43234848475E+02  0.47787270353E+02  0.19999996849E+02 0.  0.
        -12    1    3    3    0    0  0.37829856163E+01 -0.24542015098E+00 -0.43234848475E+02  0.43400729647E+02  0.00000000000E+00 0.  1.
         11    1    4    4    0    0 -0.60465852637E+01 -0.75764124891E+01  0.13815971500E+02  0.16877330603E+02  0.51100000000E-03 0. -1.
        -11    1    4    4    0    0 -0.10894756401E+01  0.16653580376E+01  0.31856119975E+01  0.37561281426E+01  0.51100000000E-03 0.  1.
         12    1    4    4    0    0  0.33530752874E+01  0.61564746025E+01  0.26233264978E+02  0.27153811607E+02  0.00000000000E+00 0. -1.
</event>
<event>
 8    1  0.6019723E-011  0.9118800E+02  0.7816164E-02  0.1184000E+00
        -11   -1    0    0    0    0  0.00000000000E+00  0.00000000000E+00  0.45593999997E+02  0.45594000000E+02  0.51100000000E-03 0. -1.
         11   -1    0    0    0    0 -0.00000000000E+00 -0.00000000000E+00 -0.45593999997E+02  0.45594000000E+02  0.51100000000E-03 0.  1.
         23    2    1    2    0    0  0.17763568394E-14  0.00000000000E+00 -0.71054273576E-14  0.91188000000E+02  0.91188000000E+02 0.  0.
    9900012    2    3    3    0    0  0.12984992205E+02  0.27488712116E+01 -0.41321384749E+02  0.47787272436E+02  0.20000006346E+02 0.  0.
         12    1    3    3    0    0 -0.12984992205E+02 -0.27488712116E+01  0.41321384749E+02  0.43400727564E+02  0.00000000000E+00 0. -1.
         11    1    4    4    0    0  0.10849627064E+02  0.47961629004E+01 -0.33900234536E+02  0.35915783269E+02  0.51100000000E-03 0.  1.
        -11    1    4    4    0    0 -0.34323616970E+01 -0.60365964327E+00 -0.32616248592E+01  0.47732283381E+01  0.51100000000E-03 0. -1.
         12    1    4    4    0    0  0.55677268382E+01 -0.14436320455E+01 -0.41595253536E+01  0.70982608289E+01  0.00000000000E+00 0. -1.
</event>
<event>
 8    1  0.6019723E-011  0.9118800E+02  0.7816164E-02  0.1184000E+00
        -11   -1    0    0    0    0  0.00000000000E+00  0.00000000000E+00  0.45593999997E+02  0.45594000000E+02  0.51100000000E-03 0. -1.
         11   -1    0    0    0    0 -0.00000000000E+00 -0.00000000000E+00 -0.45593999997E+02  0.45594000000E+02  0.51100000000E-03 0.  1.
         23    2    1    2    0    0 -0.44408920985E-15 -0.35527136788E-14  0.00000000000E+00  0.91188000000E+02  0.91188000000E+02 0.  0.
    9900012    2    3    3    0    0 -0.20667622663E+01  0.19830799104E+02  0.38549854624E+02  0.47787269696E+02  0.19999993854E+02 0.  0.
        -12    1    3    3    0    0  0.20667622663E+01 -0.19830799104E+02 -0.38549854624E+02  0.43400730304E+02  0.00000000000E+00 0.  1.
         11    1    4    4    0    0 -0.49833836944E+00 -0.28667774062E+01  0.36440935096E+01  0.46632790604E+01  0.51100000000E-03 0. -1.
        -11    1    4    4    0    0 -0.57092690867E+01  0.18315681548E+02  0.28191964346E+02  0.34100539556E+02  0.51100000000E-03 0.  1.
        -12    1    4    4    0    0  0.41408451899E+01  0.43818949618E+01  0.67137967683E+01  0.90234510798E+01  0.00000000000E+00 0.  1.
</event>
<event>
 8    1  0.6019723E-011  0.9118800E+02  0.7816164E-02  0.1184000E+00
        -11   -1    0    0    0    0  0.00000000000E+00  0.00000000000E+00  0.45593999997E+02  0.45594000000E+02  0.51100000000E-03 0. -1.
         11   -1    0    0    0    0 -0.00000000000E+00 -0.00000000000E+00 -0.45593999997E+02  0.45594000000E+02  0.51100000000E-03 0.  1.
         23    2    1    2    0    0  0.35527136788E-14  0.00000000000E+00  0.00000000000E+00  0.91188000000E+02  0.91188000000E+02 0.  0.
    9900012    2    3    3    0    0  0.19319344532E+02  0.31064333142E+02  0.23353657137E+02  0.47787272259E+02  0.20000005539E+02 0.  0.
        -12    1    3    3    0    0 -0.19319344532E+02 -0.31064333142E+02 -0.23353657137E+02  0.43400727741E+02  0.00000000000E+00 0.  1.
         11    1    4    4    0    0  0.15077447972E+02  0.16001351368E+02  0.13510506094E+02  0.25805163401E+02  0.51100000000E-03 0. -1.
        -11    1    4    4    0    0  0.94219613208E+00  0.12117981850E+02  0.11253094087E+01  0.12206536741E+02  0.51100000000E-03 0.  1.
         12    1    4    4    0    0  0.32997004275E+01  0.29449999238E+01  0.87178416347E+01  0.97755721178E+01  0.00000000000E+00 0. -1.
</event>
<event>
 8    1  0.6019723E-011  0.9118800E+02  0.7816164E-02  0.1184000E+00
        -11   -1    0    0    0    0  0.00000000000E+00  0.00000000000E+00  0.45593999997E+02  0.45594000000E+02  0.51100000000E-03 0. -1.
         11   -1    0    0    0    0 -0.00000000000E+00 -0.00000000000E+00 -0.45593999997E+02  0.45594000000E+02  0.51100000000E-03 0.  1.
         23    2    1    2    0    0  0.00000000000E+00  0.35527136788E-14 -0.71054273576E-14  0.91188000000E+02  0.91188000000E+02 0.  0.
    9900012    2    3    3    0    0  0.11533362504E+02  0.20867522852E+02 -0.36265011875E+02  0.47787273658E+02  0.20000011919E+02 0.  0.
         12    1    3    3    0    0 -0.11533362504E+02 -0.20867522852E+02  0.36265011875E+02  0.43400726342E+02  0.00000000000E+00 0. -1.
         11    1    4    4    0    0  0.32504302566E+01  0.52894538573E+01 -0.26539956212E+02  0.27256428507E+02  0.51100000000E-03 0. -1.
        -11    1    4    4    0    0  0.80223841861E+01  0.12203633754E+02 -0.70506411990E+01  0.16217239790E+02  0.51100000000E-03 0.  1.
        -12    1    4    4    0    0  0.26054806181E+00  0.33744352403E+01 -0.26744144646E+01  0.43136053612E+01  0.00000000000E+00 0.  1.
</event>
<event>
 8    1  0.6019723E-011  0.9118800E+02  0.7816164E-02  0.1184000E+00
        -11   -1    0    0    0    0  0.00000000000E+00  0.00000000000E+00  0.45593999997E+02  0.45594000000E+02  0.51100000000E-03 0. -1.
         11   -1    0    0    0    0 -0.00000000000E+00 -0.00000000000E+00 -0.45593999997E+02  0.45594000000E+02  0.51100000000E-03 0.  1.
         23    2    1    2    0    0 -0.35527136788E-14  0.00000000000E+00 -0.88817841970E-15  0.91188000000E+02  0.91188000000E+02 0.  0.
    9900012    2    3    3    0    0 -0.29347174366E+02 -0.31522224074E+02  0.53587427826E+01  0.47787269844E+02  0.19999994528E+02 0.  0.
        -12    1    3    3    0    0  0.29347174366E+02  0.31522224074E+02 -0.53587427826E+01  0.43400730156E+02  0.00000000000E+00 0.  1.
         11    1    4    4    0    0 -0.33183051959E+01 -0.15336646244E+01  0.47200325480E+00  0.36859278191E+01  0.51100000000E-03 0. -1.
        -11    1    4    4    0    0 -0.22956787533E+02 -0.15563286856E+02  0.83242789069E+01  0.28957272164E+02  0.51100000000E-03 0.  1.
        -12    1    4    4    0    0 -0.30720816373E+01 -0.14425272594E+02 -0.34375393790E+01  0.15144069862E+02  0.00000000000E+00 0.  1.
</event>
<event>
 8    1  0.6019723E-011  0.9118800E+02  0.7816164E-02  0.1184000E+00
        -11   -1    0    0    0    0  0.00000000000E+00  0.00000000000E+00  0.45593999997E+02  0.45594000000E+02  0.51100000000E-03 0. -1.
         11   -1    0    0    0    0 -0.00000000000E+00 -0.00000000000E+00 -0.45593999997E+02  0.45594000000E+02  0.51100000000E-03 0.  1.
         23    2    1    2    0    0  0.00000000000E+00 -0.17763568394E-14  0.00000000000E+00  0.91188000000E+02  0.91188000000E+02 0.  0.
    9900012    2    3    3    0    0 -0.33471312768E+02  0.10933519231E+02 -0.25372273476E+02  0.47787275553E+02  0.20000020557E+02 0.  0.
         12    1    3    3    0    0  0.33471312768E+02 -0.10933519231E+02  0.25372273476E+02  0.43400724447E+02  0.00000000000E+00 0. -1.
         11    1    4    4    0    0  0.16382109935E+01  0.42096243433E+00 -0.32360367690E+01  0.36514214851E+01  0.51100000000E-03 0. -1.
        -11    1    4    4    0    0 -0.22930720898E+02  0.20288012438E+01 -0.10631513247E+02  0.25356716459E+02  0.51100000000E-03 0.  1.
         12    1    4    4    0    0 -0.12178802863E+02  0.84837555527E+01 -0.11504723460E+02  0.18779137609E+02  0.00000000000E+00 0. -1.
</event>
<event>
 8    1  0.6019723E-011  0.9118800E+02  0.7816164E-02  0.1184000E+00
        -11   -1    0    0    0    0  0.00000000000E+00  0.00000000000E+00  0.45593999997E+02  0.45594000000E+02  0.51100000000E-03 0. -1.
         11   -1    0    0    0    0 -0.00000000000E+00 -0.00000000000E+00 -0.45593999997E+02  0.45594000000E+02  0.51100000000E-03 0.  1.
         23    2    1    2    0    0  0.00000000000E+00 -0.35527136788E-14 -0.35527136788E-14  0.91188000000E+02  0.91188000000E+02 0.  0.
    9900012    2    3    3    0    0 -0.28037938303E+02 -0.18931617719E+02 -0.27186231728E+02  0.47787270406E+02  0.19999997087E+02 0.  0.
         12    1    3    3    0    0  0.28037938303E+02  0.18931617719E+02  0.27186231728E+02  0.43400729594E+02  0.00000000000E+00 0. -1.
         11    1    4    4    0    0 -0.92405487495E+01  0.23900084939E+01 -0.34517717788E+01  0.10149611346E+02  0.51100000000E-03 0. -1.
        -11    1    4    4    0    0 -0.17090758314E+02 -0.19722021206E+02 -0.23768046847E+02  0.35298331283E+02  0.51100000000E-03 0.  1.
        -12    1    4    4    0    0 -0.17066312400E+01 -0.15996050073E+01  0.33586897585E-01  0.23393277771E+01  0.00000000000E+00 0.  1.
</event>
<event>
 8    1  0.6019723E-011  0.9118800E+02  0.7816164E-02  0.1184000E+00
        -11   -1    0    0    0    0  0.00000000000E+00  0.00000000000E+00  0.45593999997E+02  0.45594000000E+02  0.51100000000E-03 0. -1.
         11   -1    0    0    0    0 -0.00000000000E+00 -0.00000000000E+00 -0.45593999997E+02  0.45594000000E+02  0.51100000000E-03 0.  1.
         23    2    1    2    0    0 -0.22204460493E-15 -0.35527136788E-14  0.00000000000E+00  0.91188000000E+02  0.91188000000E+02 0.  0.
    9900012    2    3    3    0    0  0.12533969197E+01 -0.22419689758E+02  0.37140412195E+02  0.47787266013E+02  0.19999977058E+02 0.  0.
        -12    1    3    3    0    0 -0.12533969197E+01  0.22419689758E+02 -0.37140412195E+02  0.43400733987E+02  0.00000000000E+00 0.  1.
         11    1    4    4    0    0  0.46347518692E+01 -0.13279482196E+02  0.34657424458E+02  0.37402709027E+02  0.51100000000E-03 0. -1.
        -11    1    4    4    0    0 -0.14058158235E+00  0.55243368991E-01 -0.22012138573E+00  0.26696197612E+00  0.51100000000E-03 0.  1.
         12    1    4    4    0    0 -0.32407733671E+01 -0.91954509309E+01  0.27031091223E+01  0.10117595009E+02  0.00000000000E+00 0. -1.
</event>
<event>
 8    1  0.6019723E-011  0.9118800E+02  0.7816164E-02  0.1184000E+00
        -11   -1    0    0    0    0  0.00000000000E+00  0.00000000000E+00  0.45593999997E+02  0.45594000000E+02  0.51100000000E-03 0. -1.
         11   -1    0    0    0    0 -0.00000000000E+00 -0.00000000000E+00 -0.45593999997E+02  0.45594000000E+02  0.51100000000E-03 0.  1.
         23    2    1    2    0    0 -0.71054273576E-14 -0.17763568394E-14  0.00000000000E+00  0.91188000000E+02  0.91188000000E+02 0.  0.
    9900012    2    3    3    0    0 -0.38445613749E+02 -0.11946438461E+02 -0.16212388026E+02  0.47787261136E+02  0.19999954824E+02 0.  0.
         12    1    3    3    0    0  0.38445613749E+02  0.11946438461E+02  0.16212388026E+02  0.43400738864E+02  0.00000000000E+00 0. -1.
         11    1    4    4    0    0 -0.64395575909E+01 -0.39479761301E+01  0.30475567900E+01  0.81450610888E+01  0.51100000000E-03 0. -1.
        -11    1    4    4    0    0 -0.31101395515E+02 -0.85960879070E+01 -0.20314560188E+02  0.38129658878E+02  0.51100000000E-03 0.  1.
        -12    1    4    4    0    0 -0.90466064292E+00  0.59762557601E+00  0.10546153712E+01  0.15125411694E+01  0.00000000000E+00 0.  1.
</event>
<event>
 8    1  0.6019723E-011  0.9118800E+02  0.7816164E-02  0.1184000E+00
        -11   -1    0    0    0    0  0.00000000000E+00  0.00000000000E+00  0.45593999997E+02  0.45594000000E+02  0.51100000000E-03 0. -1.
         11   -1    0    0    0    0 -0.00000000000E+00 -0.00000000000E+00 -0.45593999997E+02  0.45594000000E+02  0.51100000000E-03 0.  1.
         23    2    1    2    0    0  0.35527136788E-14  0.00000000000E+00  0.00000000000E+00  0.91188000000E+02  0.91188000000E+02 0.  0.
    9900012    2    3    3    0    0 -0.24060704341E+02  0.84553553841E+01  0.35117128753E+02  0.47787271206E+02  0.20000000735E+02 0.  0.
        -12    1    3    3    0    0  0.24060704341E+02 -0.84553553841E+01 -0.35117128753E+02  0.43400728794E+02  0.00000000000E+00 0.  1.
         11    1    4    4    0    0 -0.79312769583E+01  0.37530764282E+01  0.12111187539E+02  0.14955654473E+02  0.51100000000E-03 0. -1.
        -11    1    4    4    0    0 -0.59783041340E+01  0.97599964148E+01  0.77523029037E+01  0.13823742290E+02  0.51100000000E-03 0.  1.
        -12    1    4    4    0    0 -0.10151123249E+02 -0.50577174588E+01  0.15253638310E+02  0.19007874442E+02  0.00000000000E+00 0.  1.
</event>
<event>
 8    1  0.6019723E-011  0.9118800E+02  0.7816164E-02  0.1184000E+00
        -11   -1    0    0    0    0  0.00000000000E+00  0.00000000000E+00  0.45593999997E+02  0.45594000000E+02  0.51100000000E-03 0. -1.
         11   -1    0    0    0    0 -0.00000000000E+00 -0.00000000000E+00 -0.45593999997E+02  0.45594000000E+02  0.51100000000E-03 0.  1.
         23    2    1    2    0    0  0.00000000000E+00  0.13322676296E-14  0.00000000000E+00  0.91188000000E+02  0.91188000000E+02 0.  0.
    9900012    2    3    3    0    0 -0.55706703131E+01 -0.32694897232E+01 -0.42917378655E+02  0.47787270496E+02  0.19999997501E+02 0.  0.
         12    1    3    3    0    0  0.55706703131E+01  0.32694897232E+01  0.42917378655E+02  0.43400729504E+02  0.00000000000E+00 0. -1.
         11    1    4    4    0    0  0.89445921464E+00 -0.45743051670E+01 -0.11097999745E+01  0.47912400579E+01  0.51100000000E-03 0. -1.
        -11    1    4    4    0    0 -0.32949571493E+01  0.42360885042E+01 -0.28644778484E+02  0.29143172838E+02  0.51100000000E-03 0.  1.
        -12    1    4    4    0    0 -0.31701723785E+01 -0.29312730603E+01 -0.13162800197E+02  0.13852857600E+02  0.00000000000E+00 0.  1.
</event>
<event>
 8    1  0.6019723E-011  0.9118800E+02  0.7816164E-02  0.1184000E+00
        -11   -1    0    0    0    0  0.00000000000E+00  0.00000000000E+00  0.45593999997E+02  0.45594000000E+02  0.51100000000E-03 0.  1.
         11   -1    0    0    0    0 -0.00000000000E+00 -0.00000000000E+00 -0.45593999997E+02  0.45594000000E+02  0.51100000000E-03 0. -1.
         23    2    1    2    0    0  0.00000000000E+00 -0.35527136788E-14  0.88817841970E-15  0.91188000000E+02  0.91188000000E+02 0.  0.
    9900012    2    3    3    0    0  0.32453804220E+02  0.27920485388E+02 -0.71288392483E+01  0.47787271185E+02  0.20000000642E+02 0.  0.
        -12    1    3    3    0    0 -0.32453804220E+02 -0.27920485388E+02  0.71288392483E+01  0.43400728815E+02  0.00000000000E+00 0.  1.
         11    1    4    4    0    0  0.13333921260E+02  0.61466895544E+01 -0.82157096338E+01  0.16824777375E+02  0.51100000000E-03 0. -1.
        -11    1    4    4    0    0  0.83974090453E+01  0.82474053088E+01  0.57261507499E+01  0.13089116688E+02  0.51100000000E-03 0.  1.
         12    1    4    4    0    0  0.10722473914E+02  0.13526390525E+02 -0.46392803643E+01  0.17873377123E+02  0.00000000000E+00 0. -1.
</event>
<event>
 8    1  0.6019723E-011  0.9118800E+02  0.7816164E-02  0.1184000E+00
        -11   -1    0    0    0    0  0.00000000000E+00  0.00000000000E+00  0.45593999997E+02  0.45594000000E+02  0.51100000000E-03 0.  1.
         11   -1    0    0    0    0 -0.00000000000E+00 -0.00000000000E+00 -0.45593999997E+02  0.45594000000E+02  0.51100000000E-03 0. -1.
         23    2    1    2    0    0  0.00000000000E+00  0.44408920985E-15  0.00000000000E+00  0.91188000000E+02  0.91188000000E+02 0.  0.
    9900012    2    3    3    0    0 -0.28791990853E+02  0.31799922894E+01  0.32319225824E+02  0.47787269060E+02  0.19999990952E+02 0.  0.
        -12    1    3    3    0    0  0.28791990853E+02 -0.31799922894E+01 -0.32319225824E+02  0.43400730940E+02  0.00000000000E+00 0.  1.
         11    1    4    4    0    0 -0.14338076582E+02  0.71010868413E+01  0.67691443555E+01  0.17373174435E+02  0.51100000000E-03 0. -1.
        -11    1    4    4    0    0 -0.80594925202E+01 -0.52336864435E+01  0.11999748040E+02  0.15373381110E+02  0.51100000000E-03 0.  1.
         12    1    4    4    0    0 -0.63944217515E+01  0.13125918916E+01  0.13550333428E+02  0.15040713515E+02  0.00000000000E+00 0. -1.
</event>
<event>
 8    1  0.6019723E-011  0.9118800E+02  0.7816164E-02  0.1184000E+00
        -11   -1    0    0    0    0  0.00000000000E+00  0.00000000000E+00  0.45593999997E+02  0.45594000000E+02  0.51100000000E-03 0. -1.
         11   -1    0    0    0    0 -0.00000000000E+00 -0.00000000000E+00 -0.45593999997E+02  0.45594000000E+02  0.51100000000E-03 0.  1.
         23    2    1    2    0    0  0.88817841970E-15 -0.35527136788E-14  0.00000000000E+00  0.91188000000E+02  0.91188000000E+02 0.  0.
    9900012    2    3    3    0    0 -0.43960315392E+01 -0.28271853570E+02  0.32634339526E+02  0.47787275192E+02  0.20000018909E+02 0.  0.
        -12    1    3    3    0    0  0.43960315392E+01  0.28271853570E+02 -0.32634339526E+02  0.43400724808E+02  0.00000000000E+00 0.  1.
         11    1    4    4    0    0  0.46072276607E+01 -0.94513116237E+01  0.15758905461E+02  0.18944575469E+02  0.51100000000E-03 0. -1.
        -11    1    4    4    0    0 -0.10221535550E+02 -0.10160559158E+02  0.12431543978E+02  0.19033129993E+02  0.51100000000E-03 0.  1.
        -12    1    4    4    0    0  0.12182763500E+01 -0.86599827887E+01  0.44438900870E+01  0.98095697292E+01  0.00000000000E+00 0.  1.
</event>
<event>
 8    1  0.6019723E-011  0.9118800E+02  0.7816164E-02  0.1184000E+00
        -11   -1    0    0    0    0  0.00000000000E+00  0.00000000000E+00  0.45593999997E+02  0.45594000000E+02  0.51100000000E-03 0. -1.
         11   -1    0    0    0    0 -0.00000000000E+00 -0.00000000000E+00 -0.45593999997E+02  0.45594000000E+02  0.51100000000E-03 0.  1.
         23    2    1    2    0    0  0.00000000000E+00  0.00000000000E+00  0.00000000000E+00  0.91188000000E+02  0.91188000000E+02 0.  0.
    9900012    2    3    3    0    0 -0.20952346896E+02  0.14069935281E+02  0.35308045086E+02  0.47787286100E+02  0.20000068643E+02 0.  0.
        -12    1    3    3    0    0  0.20952346896E+02 -0.14069935281E+02 -0.35308045086E+02  0.43400713900E+02  0.00000000000E+00 0.  1.
         11    1    4    4    0    0 -0.14360301042E+02  0.11416239157E+02  0.31808851938E+02  0.36719910463E+02  0.51100000000E-03 0. -1.
        -11    1    4    4    0    0 -0.39508524112E+01  0.33498332879E+01 -0.14809537404E+01  0.53873780333E+01  0.51100000000E-03 0.  1.
         12    1    4    4    0    0 -0.26411934432E+01 -0.69613716338E+00  0.49801468877E+01  0.56799976037E+01  0.00000000000E+00 0. -1.
</event>
<event>
 8    1  0.6019723E-011  0.9118800E+02  0.7816164E-02  0.1184000E+00
        -11   -1    0    0    0    0  0.00000000000E+00  0.00000000000E+00  0.45593999997E+02  0.45594000000E+02  0.51100000000E-03 0. -1.
         11   -1    0    0    0    0 -0.00000000000E+00 -0.00000000000E+00 -0.45593999997E+02  0.45594000000E+02  0.51100000000E-03 0.  1.
         23    2    1    2    0    0  0.00000000000E+00  0.88817841970E-15  0.71054273576E-14  0.91188000000E+02  0.91188000000E+02 0.  0.
    9900012    2    3    3    0    0  0.18361357125E+02 -0.73755304719E+01 -0.38627525786E+02  0.47787266901E+02  0.19999981108E+02 0.  0.
         12    1    3    3    0    0 -0.18361357125E+02  0.73755304719E+01  0.38627525786E+02  0.43400733099E+02  0.00000000000E+00 0. -1.
         11    1    4    4    0    0  0.88776655819E+01 -0.11202109156E+02 -0.30048912220E+02  0.33275175756E+02  0.51100000000E-03 0. -1.
        -11    1    4    4    0    0  0.73866724403E+01  0.72338036749E-01 -0.50327658138E+01  0.89385062806E+01  0.51100000000E-03 0.  1.
         12    1    4    4    0    0  0.20970191029E+01  0.37542406477E+01 -0.35458477521E+01  0.55735848643E+01  0.00000000000E+00 0. -1.
</event>
<event>
 8    1  0.6019723E-011  0.9118800E+02  0.7816164E-02  0.1184000E+00
        -11   -1    0    0    0    0  0.00000000000E+00  0.00000000000E+00  0.45593999997E+02  0.45594000000E+02  0.51100000000E-03 0. -1.
         11   -1    0    0    0    0 -0.00000000000E+00 -0.00000000000E+00 -0.45593999997E+02  0.45594000000E+02  0.51100000000E-03 0.  1.
         23    2    1    2    0    0  0.00000000000E+00  0.00000000000E+00  0.00000000000E+00  0.91188000000E+02  0.91188000000E+02 0.  0.
    9900012    2    3    3    0    0 -0.55570317188E+01  0.29832795349E+02  0.31028165169E+02  0.47787270587E+02  0.19999997916E+02 0.  0.
        -12    1    3    3    0    0  0.55570317188E+01 -0.29832795349E+02 -0.31028165169E+02  0.43400729413E+02  0.00000000000E+00 0.  1.
         11    1    4    4    0    0  0.46879519372E+01  0.11583936620E+02  0.13204808070E+02  0.18180523573E+02  0.51100000000E-03 0. -1.
        -11    1    4    4    0    0 -0.85567808284E+01  0.77452722460E+01  0.41117590311E+01  0.12252114222E+02  0.51100000000E-03 0.  1.
        -12    1    4    4    0    0 -0.16882028276E+01  0.10503586483E+02  0.13711598068E+02  0.17354632792E+02  0.00000000000E+00 0.  1.
</event>
<event>
 8    1  0.6019723E-011  0.9118800E+02  0.7816164E-02  0.1184000E+00
        -11   -1    0    0    0    0  0.00000000000E+00  0.00000000000E+00  0.45593999997E+02  0.45594000000E+02  0.51100000000E-03 0. -1.
         11   -1    0    0    0    0 -0.00000000000E+00 -0.00000000000E+00 -0.45593999997E+02  0.45594000000E+02  0.51100000000E-03 0.  1.
         23    2    1    2    0    0  0.00000000000E+00  0.00000000000E+00  0.00000000000E+00  0.91188000000E+02  0.91188000000E+02 0.  0.
    9900012    2    3    3    0    0  0.19468009674E+02  0.21280551823E+02  0.32430821614E+02  0.47787268703E+02  0.19999989323E+02 0.  0.
        -12    1    3    3    0    0 -0.19468009674E+02 -0.21280551823E+02 -0.32430821614E+02  0.43400731297E+02  0.00000000000E+00 0.  1.
         11    1    4    4    0    0  0.19301789774E+02  0.16581409507E+02  0.19628955390E+02  0.32137176598E+02  0.51100000000E-03 0. -1.
        -11    1    4    4    0    0 -0.13427619232E+01  0.16355982997E+01 -0.27563660267E+00  0.21340494789E+01  0.51100000000E-03 0.  1.
         12    1    4    4    0    0  0.15089818235E+01  0.30635440163E+01  0.13077502826E+02  0.13516042626E+02  0.00000000000E+00 0. -1.
</event>
<event>
 8    1  0.6019723E-011  0.9118800E+02  0.7816164E-02  0.1184000E+00
        -11   -1    0    0    0    0  0.00000000000E+00  0.00000000000E+00  0.45593999997E+02  0.45594000000E+02  0.51100000000E-03 0. -1.
         11   -1    0    0    0    0 -0.00000000000E+00 -0.00000000000E+00 -0.45593999997E+02  0.45594000000E+02  0.51100000000E-03 0.  1.
         23    2    1    2    0    0  0.00000000000E+00  0.00000000000E+00  0.00000000000E+00  0.91188000000E+02  0.91188000000E+02 0.  0.
    9900012    2    3    3    0    0  0.39844817895E+01 -0.42424642288E+02  0.82399557250E+01  0.47787271449E+02  0.20000001845E+02 0.  0.
        -12    1    3    3    0    0 -0.39844817895E+01  0.42424642288E+02 -0.82399557250E+01  0.43400728551E+02  0.00000000000E+00 0.  1.
         11    1    4    4    0    0 -0.25374877449E+01 -0.12568134680E+02  0.44351265288E+01  0.13567136801E+02  0.51100000000E-03 0. -1.
        -11    1    4    4    0    0  0.69538505176E+01 -0.28671171189E+02  0.73947167575E+01  0.30415028038E+02  0.51100000000E-03 0.  1.
        -12    1    4    4    0    0 -0.43188098327E+00 -0.11853364187E+01 -0.35898875613E+01  0.38051066098E+01  0.00000000000E+00 0.  1.
</event>
<event>
 8    1  0.6019723E-011  0.9118800E+02  0.7816164E-02  0.1184000E+00
        -11   -1    0    0    0    0  0.00000000000E+00  0.00000000000E+00  0.45593999997E+02  0.45594000000E+02  0.51100000000E-03 0.  1.
         11   -1    0    0    0    0 -0.00000000000E+00 -0.00000000000E+00 -0.45593999997E+02  0.45594000000E+02  0.51100000000E-03 0. -1.
         23    2    1    2    0    0  0.35527136788E-14 -0.71054273576E-14 -0.88817841970E-15  0.91188000000E+02  0.91188000000E+02 0.  0.
    9900012    2    3    3    0    0 -0.18529102789E+02 -0.39172244712E+02 -0.24147402195E+01  0.47787269864E+02  0.19999994619E+02 0.  0.
         12    1    3    3    0    0  0.18529102789E+02  0.39172244712E+02  0.24147402195E+01  0.43400730136E+02  0.00000000000E+00 0. -1.
         11    1    4    4    0    0 -0.17862069880E+01  0.90208907453E+00  0.34045859064E+01  0.39491145283E+01  0.51100000000E-03 0. -1.
        -11    1    4    4    0    0 -0.11337460302E+02 -0.26427372919E+02 -0.33061320003E+01  0.28946062851E+02  0.51100000000E-03 0.  1.
         12    1    4    4    0    0 -0.54054354989E+01 -0.13646960868E+02 -0.25131941256E+01  0.14892092485E+02  0.00000000000E+00 0. -1.
</event>
<event>
 8    1  0.6019723E-011  0.9118800E+02  0.7816164E-02  0.1184000E+00
        -11   -1    0    0    0    0  0.00000000000E+00  0.00000000000E+00  0.45593999997E+02  0.45594000000E+02  0.51100000000E-03 0.  1.
         11   -1    0    0    0    0 -0.00000000000E+00 -0.00000000000E+00 -0.45593999997E+02  0.45594000000E+02  0.51100000000E-03 0. -1.
         23    2    1    2    0    0  0.35527136788E-14  0.00000000000E+00  0.00000000000E+00  0.91188000000E+02  0.91188000000E+02 0.  0.
    9900012    2    3    3    0    0  0.31201606446E+02 -0.20492042091E+02  0.22139552400E+02  0.47787264818E+02  0.19999971610E+02 0.  0.
        -12    1    3    3    0    0 -0.31201606446E+02  0.20492042091E+02 -0.22139552400E+02  0.43400735182E+02  0.00000000000E+00 0.  1.
         11    1    4    4    0    0  0.92810671331E+01 -0.10704942974E+02  0.23546163215E+01  0.14362389407E+02  0.51100000000E-03 0. -1.
        -11    1    4    4    0    0  0.22966388054E+02 -0.10856277189E+02  0.18229687524E+02  0.31267159163E+02  0.51100000000E-03 0.  1.
        -12    1    4    4    0    0 -0.10458487410E+01  0.10691780713E+01  0.15552485547E+01  0.21577162473E+01  0.00000000000E+00 0.  1.
</event>
<event>
 8    1  0.6019723E-011  0.9118800E+02  0.7816164E-02  0.1184000E+00
        -11   -1    0    0    0    0  0.00000000000E+00  0.00000000000E+00  0.45593999997E+02  0.45594000000E+02  0.51100000000E-03 0. -1.
         11   -1    0    0    0    0 -0.00000000000E+00 -0.00000000000E+00 -0.45593999997E+02  0.45594000000E+02  0.51100000000E-03 0.  1.
         23    2    1    2    0    0  0.00000000000E+00 -0.35527136788E-14  0.00000000000E+00  0.91188000000E+02  0.91188000000E+02 0.  0.
    9900012    2    3    3    0    0  0.25803240184E+02  0.17873088465E+02  0.29972801704E+02  0.47787270314E+02  0.19999996669E+02 0.  0.
        -12    1    3    3    0    0 -0.25803240184E+02 -0.17873088465E+02 -0.29972801704E+02  0.43400729686E+02  0.00000000000E+00 0.  1.
         11    1    4    4    0    0  0.11431139612E+02  0.11860669360E+01  0.16113868954E+02  0.19792283359E+02  0.51100000000E-03 0. -1.
        -11    1    4    4    0    0  0.12654711725E+02  0.91808560263E+01  0.53622363438E+01  0.16528261406E+02  0.51100000000E-03 0.  1.
         12    1    4    4    0    0  0.17173888465E+01  0.75061655032E+01  0.84966964059E+01  0.11466725549E+02  0.00000000000E+00 0. -1.
</event>
<event>
 8    1  0.6019723E-011  0.9118800E+02  0.7816164E-02  0.1184000E+00
        -11   -1    0    0    0    0  0.00000000000E+00  0.00000000000E+00  0.45593999997E+02  0.45594000000E+02  0.51100000000E-03 0. -1.
         11   -1    0    0    0    0 -0.00000000000E+00 -0.00000000000E+00 -0.45593999997E+02  0.45594000000E+02  0.51100000000E-03 0.  1.
         23    2    1    2    0    0  0.35527136788E-14 -0.35527136788E-14  0.35527136788E-14  0.91188000000E+02  0.91188000000E+02 0.  0.
    9900012    2    3    3    0    0  0.17030810167E+02 -0.25418314179E+02  0.30781230144E+02  0.47787270515E+02  0.19999997587E+02 0.  0.
        -12    1    3    3    0    0 -0.17030810167E+02  0.25418314179E+02 -0.30781230144E+02  0.43400729485E+02  0.00000000000E+00 0.  1.
         11    1    4    4    0    0  0.73815625411E+01 -0.11552331856E+02  0.16077375015E+02  0.21128791364E+02  0.51100000000E-03 0. -1.
        -11    1    4    4    0    0 -0.93611659123E+00  0.53928819334E+00  0.71842427987E+01  0.72650182987E+01  0.51100000000E-03 0.  1.
        -12    1    4    4    0    0  0.10585364217E+02 -0.14405270516E+02  0.75196123299E+01  0.19393460852E+02  0.00000000000E+00 0.  1.
</event>
<event>
 8    1  0.6019723E-011  0.9118800E+02  0.7816164E-02  0.1184000E+00
        -11   -1    0    0    0    0  0.00000000000E+00  0.00000000000E+00  0.45593999997E+02  0.45594000000E+02  0.51100000000E-03 0. -1.
         11   -1    0    0    0    0 -0.00000000000E+00 -0.00000000000E+00 -0.45593999997E+02  0.45594000000E+02  0.51100000000E-03 0.  1.
         23    2    1    2    0    0  0.00000000000E+00  0.00000000000E+00  0.00000000000E+00  0.91188000000E+02  0.91188000000E+02 0.  0.
    9900012    2    3    3    0    0  0.13199246178E+02 -0.25369376335E+02 -0.32646564464E+02  0.47787268133E+02  0.19999986726E+02 0.  0.
         12    1    3    3    0    0 -0.13199246178E+02  0.25369376335E+02  0.32646564464E+02  0.43400731867E+02  0.00000000000E+00 0. -1.
         11    1    4    4    0    0  0.14878050515E+02 -0.17344839886E+02 -0.27072215292E+02  0.35427456850E+02  0.51100000000E-03 0. -1.
        -11    1    4    4    0    0 -0.34161598934E+01 -0.16434420100E+01 -0.41001641587E+01  0.55841200244E+01  0.51100000000E-03 0.  1.
         12    1    4    4    0    0  0.17373555559E+01 -0.63810944394E+01 -0.14741850129E+01  0.67756912581E+01  0.00000000000E+00 0. -1.
</event>
<event>
 8    1  0.6019723E-011  0.9118800E+02  0.7816164E-02  0.1184000E+00
        -11   -1    0    0    0    0  0.00000000000E+00  0.00000000000E+00  0.45593999997E+02  0.45594000000E+02  0.51100000000E-03 0.  1.
         11   -1    0    0    0    0 -0.00000000000E+00 -0.00000000000E+00 -0.45593999997E+02  0.45594000000E+02  0.51100000000E-03 0. -1.
         23    2    1    2    0    0  0.00000000000E+00  0.35527136788E-14  0.00000000000E+00  0.91188000000E+02  0.91188000000E+02 0.  0.
    9900012    2    3    3    0    0 -0.31413693563E+02  0.21229148392E+02  0.21121704684E+02  0.47787270819E+02  0.19999998972E+02 0.  0.
        -12    1    3    3    0    0  0.31413693563E+02 -0.21229148392E+02 -0.21121704684E+02  0.43400729181E+02  0.00000000000E+00 0.  1.
         11    1    4    4    0    0 -0.22942263488E+02  0.95638412798E+01  0.72826863012E+01  0.25900811455E+02  0.51100000000E-03 0. -1.
        -11    1    4    4    0    0 -0.10469038508E+01  0.29065953437E+00  0.62161268510E+01  0.63103663861E+01  0.51100000000E-03 0.  1.
         12    1    4    4    0    0 -0.74245262235E+01  0.11374647578E+02  0.76228915315E+01  0.15576092978E+02  0.00000000000E+00 0. -1.
</event>
<event>
 8    1  0.6019723E-011  0.9118800E+02  0.7816164E-02  0.1184000E+00
        -11   -1    0    0    0    0  0.00000000000E+00  0.00000000000E+00  0.45593999997E+02  0.45594000000E+02  0.51100000000E-03 0. -1.
         11   -1    0    0    0    0 -0.00000000000E+00 -0.00000000000E+00 -0.45593999997E+02  0.45594000000E+02  0.51100000000E-03 0.  1.
         23    2    1    2    0    0  0.00000000000E+00  0.00000000000E+00  0.00000000000E+00  0.91188000000E+02  0.91188000000E+02 0.  0.
    9900012    2    3    3    0    0  0.20129264503E+02  0.14830408690E+02  0.35475271775E+02  0.47787271678E+02  0.20000002891E+02 0.  0.
        -12    1    3    3    0    0 -0.20129264503E+02 -0.14830408690E+02 -0.35475271775E+02  0.43400728322E+02  0.00000000000E+00 0.  1.
         11    1    4    4    0    0  0.57003309829E+01  0.89109976728E+00  0.74004508862E+01  0.93837362330E+01  0.51100000000E-03 0. -1.
        -11    1    4    4    0    0  0.11744666411E+02  0.42347002213E+01  0.54173426489E+01  0.13609462764E+02  0.51100000000E-03 0.  1.
        -12    1    4    4    0    0  0.26842671084E+01  0.97046087016E+01  0.22657478240E+02  0.24794072682E+02  0.00000000000E+00 0.  1.
</event>
<event>
 8    1  0.6019723E-011  0.9118800E+02  0.7816164E-02  0.1184000E+00
        -11   -1    0    0    0    0  0.00000000000E+00  0.00000000000E+00  0.45593999997E+02  0.45594000000E+02  0.51100000000E-03 0. -1.
         11   -1    0    0    0    0 -0.00000000000E+00 -0.00000000000E+00 -0.45593999997E+02  0.45594000000E+02  0.51100000000E-03 0.  1.
         23    2    1    2    0    0 -0.71054273576E-14 -0.17763568394E-14  0.00000000000E+00  0.91188000000E+02  0.91188000000E+02 0.  0.
    9900012    2    3    3    0    0  0.26988159995E+02 -0.15583493546E+02 -0.30206189940E+02  0.47787309203E+02  0.20000173978E+02 0.  0.
         12    1    3    3    0    0 -0.26988159995E+02  0.15583493546E+02  0.30206189940E+02  0.43400690797E+02  0.00000000000E+00 0. -1.
         11    1    4    4    0    0  0.22675798296E+02 -0.12676127550E+02 -0.19349427115E+02  0.32392535683E+02  0.51100000000E-03 0.  1.
        -11    1    4    4    0    0 -0.95583156074E-01  0.22669083207E+01  0.34201500983E+00  0.22945552951E+01  0.51100000000E-03 0. -1.
        -12    1    4    4    0    0  0.44079448548E+01 -0.51742743164E+01 -0.11198777835E+02  0.13100218225E+02  0.00000000000E+00 0.  1.
</event>
<event>
 8    1  0.6019723E-011  0.9118800E+02  0.7816164E-02  0.1184000E+00
        -11   -1    0    0    0    0  0.00000000000E+00  0.00000000000E+00  0.45593999997E+02  0.45594000000E+02  0.51100000000E-03 0. -1.
         11   -1    0    0    0    0 -0.00000000000E+00 -0.00000000000E+00 -0.45593999997E+02  0.45594000000E+02  0.51100000000E-03 0.  1.
         23    2    1    2    0    0  0.44408920985E-15  0.00000000000E+00 -0.35527136788E-14  0.91188000000E+02  0.91188000000E+02 0.  0.
    9900012    2    3    3    0    0 -0.23325520773E+01  0.30936477323E+02 -0.30349908369E+02  0.47787269979E+02  0.19999995143E+02 0.  0.
         12    1    3    3    0    0  0.23325520773E+01 -0.30936477323E+02  0.30349908369E+02  0.43400730021E+02  0.00000000000E+00 0. -1.
         11    1    4    4    0    0  0.21653253676E+01  0.13804769376E+01 -0.11538166207E+02  0.11820475041E+02  0.51100000000E-03 0. -1.
        -11    1    4    4    0    0 -0.26169776015E+01  0.23877231491E+02 -0.11838291928E+02  0.26779019987E+02  0.51100000000E-03 0.  1.
        -12    1    4    4    0    0 -0.18808998434E+01  0.56787688945E+01 -0.69734502344E+01  0.91877749510E+01  0.00000000000E+00 0.  1.
</event>
<event>
 8    1  0.6019723E-011  0.9118800E+02  0.7816164E-02  0.1184000E+00
        -11   -1    0    0    0    0  0.00000000000E+00  0.00000000000E+00  0.45593999997E+02  0.45594000000E+02  0.51100000000E-03 0. -1.
         11   -1    0    0    0    0 -0.00000000000E+00 -0.00000000000E+00 -0.45593999997E+02  0.45594000000E+02  0.51100000000E-03 0.  1.
         23    2    1    2    0    0  0.00000000000E+00  0.00000000000E+00  0.71054273576E-14  0.91188000000E+02  0.91188000000E+02 0.  0.
    9900012    2    3    3    0    0  0.12860672785E+02  0.19835651662E+02  0.36397433809E+02  0.47787272250E+02  0.20000005495E+02 0.  0.
        -12    1    3    3    0    0 -0.12860672785E+02 -0.19835651662E+02 -0.36397433809E+02  0.43400727750E+02  0.00000000000E+00 0.  1.
         11    1    4    4    0    0  0.13120601818E+02  0.65447461967E+01  0.18314639850E+02  0.23460816864E+02  0.51100000000E-03 0. -1.
        -11    1    4    4    0    0 -0.26240917087E+01  0.13631629109E+02  0.15556477391E+02  0.20849728021E+02  0.51100000000E-03 0.  1.
        -12    1    4    4    0    0  0.23641626763E+01 -0.34072364398E+00  0.25263165686E+01  0.34767273644E+01  0.00000000000E+00 0.  1.
</event>
<event>
 8    1  0.6019723E-011  0.9118800E+02  0.7816164E-02  0.1184000E+00
        -11   -1    0    0    0    0  0.00000000000E+00  0.00000000000E+00  0.45593999997E+02  0.45594000000E+02  0.51100000000E-03 0. -1.
         11   -1    0    0    0    0 -0.00000000000E+00 -0.00000000000E+00 -0.45593999997E+02  0.45594000000E+02  0.51100000000E-03 0.  1.
         23    2    1    2    0    0  0.88817841970E-15  0.00000000000E+00 -0.71054273576E-14  0.91188000000E+02  0.91188000000E+02 0.  0.
    9900012    2    3    3    0    0  0.35103645539E+00  0.34801302236E+02  0.25930091228E+02  0.47787268497E+02  0.19999988386E+02 0.  0.
        -12    1    3    3    0    0 -0.35103645539E+00 -0.34801302236E+02 -0.25930091228E+02  0.43400731503E+02  0.00000000000E+00 0.  1.
         11    1    4    4    0    0  0.46151961879E+01  0.11369101502E+02  0.69975364132E+01  0.14125226403E+02  0.51100000000E-03 0. -1.
        -11    1    4    4    0    0 -0.39047392473E+01  0.86725572850E+01 -0.17799972066E+00  0.95127242477E+01  0.51100000000E-03 0.  1.
        -12    1    4    4    0    0 -0.35942048522E+00  0.14759643449E+02  0.19110554535E+02  0.24149317847E+02  0.00000000000E+00 0.  1.
</event>
<event>
 8    1  0.6019723E-011  0.9118800E+02  0.7816164E-02  0.1184000E+00
        -11   -1    0    0    0    0  0.00000000000E+00  0.00000000000E+00  0.45593999997E+02  0.45594000000E+02  0.51100000000E-03 0. -1.
         11   -1    0    0    0    0 -0.00000000000E+00 -0.00000000000E+00 -0.45593999997E+02  0.45594000000E+02  0.51100000000E-03 0.  1.
         23    2    1    2    0    0  0.00000000000E+00  0.00000000000E+00  0.00000000000E+00  0.91188000000E+02  0.91188000000E+02 0.  0.
    9900012    2    3    3    0    0  0.28413278291E+01  0.26858469767E+02  0.33973117171E+02  0.47787271523E+02  0.20000002181E+02 0.  0.
        -12    1    3    3    0    0 -0.28413278291E+01 -0.26858469767E+02 -0.33973117171E+02  0.43400728477E+02  0.00000000000E+00 0.  1.
         11    1    4    4    0    0  0.55879847139E+00  0.13168524599E+02  0.13758070950E+02  0.19052737661E+02  0.51100000000E-03 0. -1.
        -11    1    4    4    0    0  0.37925576781E+01  0.11866726679E+02  0.51432855901E+01  0.13477985114E+02  0.51100000000E-03 0.  1.
        -12    1    4    4    0    0 -0.15100283204E+01  0.18232184889E+01  0.15071760630E+02  0.15256548747E+02  0.00000000000E+00 0.  1.
</event>
<event>
 8    1  0.6019723E-011  0.9118800E+02  0.7816164E-02  0.1184000E+00
        -11   -1    0    0    0    0  0.00000000000E+00  0.00000000000E+00  0.45593999997E+02  0.45594000000E+02  0.51100000000E-03 0. -1.
         11   -1    0    0    0    0 -0.00000000000E+00 -0.00000000000E+00 -0.45593999997E+02  0.45594000000E+02  0.51100000000E-03 0.  1.
         23    2    1    2    0    0 -0.35527136788E-14  0.00000000000E+00  0.35527136788E-14  0.91188000000E+02  0.91188000000E+02 0.  0.
    9900012    2    3    3    0    0 -0.25726983469E+02 -0.20872110947E+02 -0.28037448706E+02  0.47787294664E+02  0.20000107689E+02 0.  0.
         12    1    3    3    0    0  0.25726983469E+02  0.20872110947E+02  0.28037448706E+02  0.43400705336E+02  0.00000000000E+00 0. -1.
         11    1    4    4    0    0  0.33573925383E+00 -0.30897601224E+01 -0.25271854206E+01  0.40057464813E+01  0.51100000000E-03 0. -1.
        -11    1    4    4    0    0  0.14850898724E+01  0.13500225429E+01 -0.10150148379E+01  0.22490682910E+01  0.51100000000E-03 0.  1.
        -12    1    4    4    0    0 -0.27547812595E+02 -0.19132373367E+02 -0.24495248447E+02  0.41532479891E+02  0.00000000000E+00 0.  1.
</event>
<event>
 8    1  0.6019723E-011  0.9118800E+02  0.7816164E-02  0.1184000E+00
        -11   -1    0    0    0    0  0.00000000000E+00  0.00000000000E+00  0.45593999997E+02  0.45594000000E+02  0.51100000000E-03 0.  1.
         11   -1    0    0    0    0 -0.00000000000E+00 -0.00000000000E+00 -0.45593999997E+02  0.45594000000E+02  0.51100000000E-03 0. -1.
         23    2    1    2    0    0  0.00000000000E+00  0.00000000000E+00  0.00000000000E+00  0.91188000000E+02  0.91188000000E+02 0.  0.
    9900012    2    3    3    0    0 -0.27511321526E+02  0.31365540830E+02 -0.11956298547E+02  0.47787273755E+02  0.20000012358E+02 0.  0.
         12    1    3    3    0    0  0.27511321526E+02 -0.31365540830E+02  0.11956298547E+02  0.43400726245E+02  0.00000000000E+00 0. -1.
         11    1    4    4    0    0 -0.42552764288E+01  0.48192446462E+01  0.27143245128E+01  0.69785424172E+01  0.51100000000E-03 0. -1.
        -11    1    4    4    0    0 -0.24882029504E+02  0.22114322337E+02 -0.13649627466E+02  0.35978757273E+02  0.51100000000E-03 0.  1.
        -12    1    4    4    0    0  0.16259844070E+01  0.44319738464E+01 -0.10209955940E+01  0.48299740651E+01  0.00000000000E+00 0.  1.
</event>
<event>
 8    1  0.6019723E-011  0.9118800E+02  0.7816164E-02  0.1184000E+00
        -11   -1    0    0    0    0  0.00000000000E+00  0.00000000000E+00  0.45593999997E+02  0.45594000000E+02  0.51100000000E-03 0. -1.
         11   -1    0    0    0    0 -0.00000000000E+00 -0.00000000000E+00 -0.45593999997E+02  0.45594000000E+02  0.51100000000E-03 0.  1.
         23    2    1    2    0    0  0.17763568394E-14  0.17763568394E-14  0.00000000000E+00  0.91188000000E+02  0.91188000000E+02 0.  0.
    9900012    2    3    3    0    0 -0.14992836264E+02 -0.13913876704E+02  0.38278490024E+02  0.47787263801E+02  0.19999966972E+02 0.  0.
        -12    1    3    3    0    0  0.14992836264E+02  0.13913876704E+02 -0.38278490024E+02  0.43400736199E+02  0.00000000000E+00 0.  1.
         11    1    4    4    0    0 -0.83672200672E+01 -0.99195208469E+01  0.19228822361E+02  0.23198165340E+02  0.51100000000E-03 0. -1.
        -11    1    4    4    0    0  0.13106296372E+01 -0.24119358003E+01 -0.10363654979E+01  0.29341503126E+01  0.51100000000E-03 0.  1.
        -12    1    4    4    0    0 -0.79362458339E+01 -0.15824200571E+01  0.20086033160E+02  0.21654948148E+02  0.00000000000E+00 0.  1.
</event>
<event>
 8    1  0.6019723E-011  0.9118800E+02  0.7816164E-02  0.1184000E+00
        -11   -1    0    0    0    0  0.00000000000E+00  0.00000000000E+00  0.45593999997E+02  0.45594000000E+02  0.51100000000E-03 0. -1.
         11   -1    0    0    0    0 -0.00000000000E+00 -0.00000000000E+00 -0.45593999997E+02  0.45594000000E+02  0.51100000000E-03 0.  1.
         23    2    1    2    0    0  0.44408920985E-15 -0.17763568394E-14  0.00000000000E+00  0.91188000000E+02  0.91188000000E+02 0.  0.
    9900012    2    3    3    0    0  0.34889727000E+01 -0.15970342793E+02  0.40204460935E+02  0.47787268917E+02  0.19999990302E+02 0.  0.
        -12    1    3    3    0    0 -0.34889727000E+01  0.15970342793E+02 -0.40204460935E+02  0.43400731083E+02  0.00000000000E+00 0.  1.
         11    1    4    4    0    0  0.26740790202E+01 -0.13334559477E+01  0.14130984842E+02  0.14443459982E+02  0.51100000000E-03 0. -1.
        -11    1    4    4    0    0 -0.41433529868E+01 -0.38241029844E+00  0.13437615658E+01  0.43725629802E+01  0.51100000000E-03 0.  1.
        -12    1    4    4    0    0  0.49582466666E+01 -0.14254476546E+02  0.24729714527E+02  0.28971245955E+02  0.00000000000E+00 0.  1.
</event>
<event>
 8    1  0.6019723E-011  0.9118800E+02  0.7816164E-02  0.1184000E+00
        -11   -1    0    0    0    0  0.00000000000E+00  0.00000000000E+00  0.45593999997E+02  0.45594000000E+02  0.51100000000E-03 0. -1.
         11   -1    0    0    0    0 -0.00000000000E+00 -0.00000000000E+00 -0.45593999997E+02  0.45594000000E+02  0.51100000000E-03 0.  1.
         23    2    1    2    0    0  0.00000000000E+00  0.00000000000E+00  0.00000000000E+00  0.91188000000E+02  0.91188000000E+02 0.  0.
    9900012    2    3    3    0    0 -0.19738402591E+02  0.22032448604E+02 -0.31758316553E+02  0.47787262695E+02  0.19999961930E+02 0.  0.
         12    1    3    3    0    0  0.19738402591E+02 -0.22032448604E+02  0.31758316553E+02  0.43400737305E+02  0.00000000000E+00 0. -1.
         11    1    4    4    0    0 -0.19432018172E+02  0.25136494377E+02 -0.27325912113E+02  0.41906469105E+02  0.51100000000E-03 0. -1.
        -11    1    4    4    0    0  0.37348981580E+00 -0.21851054429E+01 -0.13554120412E+01  0.25983307145E+01  0.51100000000E-03 0.  1.
         12    1    4    4    0    0 -0.67987423525E+00 -0.91894032936E+00 -0.30769923989E+01  0.32824628753E+01  0.00000000000E+00 0. -1.
</event>
<event>
 8    1  0.6019723E-011  0.9118800E+02  0.7816164E-02  0.1184000E+00
        -11   -1    0    0    0    0  0.00000000000E+00  0.00000000000E+00  0.45593999997E+02  0.45594000000E+02  0.51100000000E-03 0.  1.
         11   -1    0    0    0    0 -0.00000000000E+00 -0.00000000000E+00 -0.45593999997E+02  0.45594000000E+02  0.51100000000E-03 0. -1.
         23    2    1    2    0    0 -0.71054273576E-14  0.35527136788E-14 -0.88817841970E-15  0.91188000000E+02  0.91188000000E+02 0.  0.
    9900012    2    3    3    0    0 -0.37999737700E+02  0.20275202216E+02 -0.53441175437E+01  0.47787268642E+02  0.19999989044E+02 0.  0.
         12    1    3    3    0    0  0.37999737700E+02 -0.20275202216E+02  0.53441175437E+01  0.43400731358E+02  0.00000000000E+00 0. -1.
         11    1    4    4    0    0 -0.92543284984E+00  0.90342431102E+00 -0.22223306073E+01  0.25712555367E+01  0.51100000000E-03 0. -1.
        -11    1    4    4    0    0 -0.14400010557E+02  0.16838627553E+02 -0.32954720897E+01  0.22399995947E+02  0.51100000000E-03 0.  1.
        -12    1    4    4    0    0 -0.22674294293E+02  0.25331503521E+01  0.17368515334E+00  0.22816017158E+02  0.00000000000E+00 0.  1.
</event>
<event>
 8    1  0.6019723E-011  0.9118800E+02  0.7816164E-02  0.1184000E+00
        -11   -1    0    0    0    0  0.00000000000E+00  0.00000000000E+00  0.45593999997E+02  0.45594000000E+02  0.51100000000E-03 0.  1.
         11   -1    0    0    0    0 -0.00000000000E+00 -0.00000000000E+00 -0.45593999997E+02  0.45594000000E+02  0.51100000000E-03 0. -1.
         23    2    1    2    0    0  0.35527136788E-14  0.00000000000E+00  0.00000000000E+00  0.91188000000E+02  0.91188000000E+02 0.  0.
    9900012    2    3    3    0    0 -0.26204514391E+02 -0.27110405271E+02  0.21493548444E+02  0.47787271053E+02  0.20000000041E+02 0.  0.
        -12    1    3    3    0    0  0.26204514391E+02  0.27110405271E+02 -0.21493548444E+02  0.43400728947E+02  0.00000000000E+00 0.  1.
         11    1    4    4    0    0 -0.17331706763E+02 -0.17091061018E+02  0.49196214556E+01  0.24833346564E+02  0.51100000000E-03 0. -1.
        -11    1    4    4    0    0 -0.10111158886E+02 -0.99686244699E+01  0.16415701961E+02  0.21704476012E+02  0.51100000000E-03 0.  1.
         12    1    4    4    0    0  0.12383512588E+01 -0.50719782324E-01  0.15822502760E+00  0.12494484767E+01  0.00000000000E+00 0. -1.
</event>
<event>
 8    1  0.6019723E-011  0.9118800E+02  0.7816164E-02  0.1184000E+00
        -11   -1    0    0    0    0  0.00000000000E+00  0.00000000000E+00  0.45593999997E+02  0.45594000000E+02  0.51100000000E-03 0. -1.
         11   -1    0    0    0    0 -0.00000000000E+00 -0.00000000000E+00 -0.45593999997E+02  0.45594000000E+02  0.51100000000E-03 0.  1.
         23    2    1    2    0    0  0.00000000000E+00  0.00000000000E+00 -0.71054273576E-14  0.91188000000E+02  0.91188000000E+02 0.  0.
    9900012    2    3    3    0    0  0.13026407489E+02 -0.23256089064E+02  0.34250403843E+02  0.47787272655E+02  0.20000007345E+02 0.  0.
        -12    1    3    3    0    0 -0.13026407489E+02  0.23256089064E+02 -0.34250403843E+02  0.43400727345E+02  0.00000000000E+00 0.  1.
         11    1    4    4    0    0 -0.40122211528E+01 -0.69151964654E+01  0.42490414645E+01  0.90538508029E+01  0.51100000000E-03 0. -1.
        -11    1    4    4    0    0  0.16699882012E+02 -0.15618194314E+02  0.25873066693E+02  0.34528678416E+02  0.51100000000E-03 0.  1.
         12    1    4    4    0    0  0.33874662912E+00 -0.72269828508E+00  0.41282956861E+01  0.42047434359E+01  0.00000000000E+00 0. -1.
</event>
<event>
 8    1  0.6019723E-011  0.9118800E+02  0.7816164E-02  0.1184000E+00
        -11   -1    0    0    0    0  0.00000000000E+00  0.00000000000E+00  0.45593999997E+02  0.45594000000E+02  0.51100000000E-03 0. -1.
         11   -1    0    0    0    0 -0.00000000000E+00 -0.00000000000E+00 -0.45593999997E+02  0.45594000000E+02  0.51100000000E-03 0.  1.
         23    2    1    2    0    0  0.00000000000E+00  0.00000000000E+00  0.00000000000E+00  0.91188000000E+02  0.91188000000E+02 0.  0.
    9900012    2    3    3    0    0  0.71804655220E+01 -0.19598072545E+01 -0.42757726391E+02  0.47787273097E+02  0.20000009359E+02 0.  0.
         12    1    3    3    0    0 -0.71804655220E+01  0.19598072545E+01  0.42757726391E+02  0.43400726903E+02  0.00000000000E+00 0. -1.
         11    1    4    4    0    0  0.10883371600E+02  0.38384827976E+01 -0.14361459944E+02  0.18423714597E+02  0.51100000000E-03 0. -1.
        -11    1    4    4    0    0 -0.35459234509E+01 -0.44347254188E+01 -0.17927660300E+02  0.18805354736E+02  0.51100000000E-03 0.  1.
         12    1    4    4    0    0 -0.15698262745E+00 -0.13635646332E+01 -0.10468606147E+02  0.10558203763E+02  0.00000000000E+00 0. -1.
</event>
<event>
 8    1  0.6019723E-011  0.9118800E+02  0.7816164E-02  0.1184000E+00
        -11   -1    0    0    0    0  0.00000000000E+00  0.00000000000E+00  0.45593999997E+02  0.45594000000E+02  0.51100000000E-03 0. -1.
         11   -1    0    0    0    0 -0.00000000000E+00 -0.00000000000E+00 -0.45593999997E+02  0.45594000000E+02  0.51100000000E-03 0.  1.
         23    2    1    2    0    0  0.88817841970E-15  0.00000000000E+00  0.00000000000E+00  0.91188000000E+02  0.91188000000E+02 0.  0.
    9900012    2    3    3    0    0 -0.25477940800E+01 -0.15755180701E+02  0.40359713385E+02  0.47787269152E+02  0.19999991372E+02 0.  0.
        -12    1    3    3    0    0  0.25477940800E+01  0.15755180701E+02 -0.40359713385E+02  0.43400730848E+02  0.00000000000E+00 0.  1.
         11    1    4    4    0    0 -0.35659284886E+01 -0.17603966698E+02  0.32085103825E+02  0.36770496015E+02  0.51100000000E-03 0. -1.
        -11    1    4    4    0    0 -0.72340493856E+00  0.14267377432E+01 -0.78482922639E+00  0.17818115693E+01  0.51100000000E-03 0.  1.
         12    1    4    4    0    0  0.17415393472E+01  0.42204825346E+00  0.90594387871E+01  0.92349615680E+01  0.00000000000E+00 0. -1.
</event>
<event>
 8    1  0.6019723E-011  0.9118800E+02  0.7816164E-02  0.1184000E+00
        -11   -1    0    0    0    0  0.00000000000E+00  0.00000000000E+00  0.45593999997E+02  0.45594000000E+02  0.51100000000E-03 0. -1.
         11   -1    0    0    0    0 -0.00000000000E+00 -0.00000000000E+00 -0.45593999997E+02  0.45594000000E+02  0.51100000000E-03 0.  1.
         23    2    1    2    0    0 -0.35527136788E-14  0.00000000000E+00  0.00000000000E+00  0.91188000000E+02  0.91188000000E+02 0.  0.
    9900012    2    3    3    0    0 -0.25294738107E+02 -0.12043251824E+02  0.33147596292E+02  0.47787230072E+02  0.19999813190E+02 0.  0.
        -12    1    3    3    0    0  0.25294738107E+02  0.12043251824E+02 -0.33147596292E+02  0.43400769928E+02  0.00000000000E+00 0.  1.
         11    1    4    4    0    0 -0.22849757977E+02 -0.79080762508E+01  0.26180567177E+02  0.35638058415E+02  0.51100000000E-03 0. -1.
        -11    1    4    4    0    0  0.23524141491E+00 -0.28458594378E+01 -0.14639543013E+01  0.32089588530E+01  0.51100000000E-03 0.  1.
        -12    1    4    4    0    0 -0.26802215452E+01 -0.12893161351E+01  0.84309834158E+01  0.89402128043E+01  0.00000000000E+00 0.  1.
</event>
<event>
 8    1  0.6019723E-011  0.9118800E+02  0.7816164E-02  0.1184000E+00
        -11   -1    0    0    0    0  0.00000000000E+00  0.00000000000E+00  0.45593999997E+02  0.45594000000E+02  0.51100000000E-03 0. -1.
         11   -1    0    0    0    0 -0.00000000000E+00 -0.00000000000E+00 -0.45593999997E+02  0.45594000000E+02  0.51100000000E-03 0.  1.
         23    2    1    2    0    0 -0.17763568394E-14  0.00000000000E+00  0.71054273576E-14  0.91188000000E+02  0.91188000000E+02 0.  0.
    9900012    2    3    3    0    0  0.12015442246E+02 -0.18733406235E+02 -0.37260074092E+02  0.47787257116E+02  0.19999936494E+02 0.  0.
         12    1    3    3    0    0 -0.12015442246E+02  0.18733406235E+02  0.37260074092E+02  0.43400742884E+02  0.00000000000E+00 0. -1.
         11    1    4    4    0    0  0.23373923781E+00 -0.90587270762E+01 -0.37217517696E+01  0.97962547317E+01  0.51100000000E-03 0. -1.
        -11    1    4    4    0    0  0.23983363199E+01 -0.76768429533E+01 -0.18223771930E+02  0.19919633492E+02  0.51100000000E-03 0.  1.
         12    1    4    4    0    0  0.93833666887E+01 -0.19978362054E+01 -0.15314550393E+02  0.18071368892E+02  0.00000000000E+00 0. -1.
</event>
<event>
 8    1  0.6019723E-011  0.9118800E+02  0.7816164E-02  0.1184000E+00
        -11   -1    0    0    0    0  0.00000000000E+00  0.00000000000E+00  0.45593999997E+02  0.45594000000E+02  0.51100000000E-03 0. -1.
         11   -1    0    0    0    0 -0.00000000000E+00 -0.00000000000E+00 -0.45593999997E+02  0.45594000000E+02  0.51100000000E-03 0.  1.
         23    2    1    2    0    0  0.00000000000E+00  0.00000000000E+00  0.00000000000E+00  0.91188000000E+02  0.91188000000E+02 0.  0.
    9900012    2    3    3    0    0  0.17804246251E+02 -0.20806205525E+02  0.33670965658E+02  0.47787270729E+02  0.19999998560E+02 0.  0.
        -12    1    3    3    0    0 -0.17804246251E+02  0.20806205525E+02 -0.33670965658E+02  0.43400729271E+02  0.00000000000E+00 0.  1.
         11    1    4    4    0    0  0.82650889327E+01 -0.86168818399E+01  0.14501586878E+02  0.18784524746E+02  0.51100000000E-03 0. -1.
        -11    1    4    4    0    0  0.27725537834E+01  0.34747018046E+01  0.22860000261E+01  0.49986401644E+01  0.51100000000E-03 0.  1.
        -12    1    4    4    0    0  0.67666035350E+01 -0.15664025490E+02  0.16883378755E+02  0.24004105818E+02  0.00000000000E+00 0.  1.
</event>
<event>
 8    1  0.6019723E-011  0.9118800E+02  0.7816164E-02  0.1184000E+00
        -11   -1    0    0    0    0  0.00000000000E+00  0.00000000000E+00  0.45593999997E+02  0.45594000000E+02  0.51100000000E-03 0. -1.
         11   -1    0    0    0    0 -0.00000000000E+00 -0.00000000000E+00 -0.45593999997E+02  0.45594000000E+02  0.51100000000E-03 0.  1.
         23    2    1    2    0    0  0.00000000000E+00  0.00000000000E+00  0.00000000000E+00  0.91188000000E+02  0.91188000000E+02 0.  0.
    9900012    2    3    3    0    0 -0.18929727727E+02  0.48516275972E+01 -0.38752421068E+02  0.47787273960E+02  0.20000013295E+02 0.  0.
         12    1    3    3    0    0  0.18929727727E+02 -0.48516275972E+01  0.38752421068E+02  0.43400726040E+02  0.00000000000E+00 0. -1.
         11    1    4    4    0    0 -0.15374405689E+02 -0.14826148433E+01 -0.28697672716E+02  0.32590288686E+02  0.51100000000E-03 0. -1.
        -11    1    4    4    0    0 -0.98872575048E+00  0.76378752690E+01 -0.44464066506E+01  0.88929887888E+01  0.51100000000E-03 0.  1.
        -12    1    4    4    0    0 -0.25665962874E+01 -0.13036328284E+01 -0.56083417010E+01  0.63039964855E+01  0.00000000000E+00 0.  1.
</event>
<event>
 8    1  0.6019723E-011  0.9118800E+02  0.7816164E-02  0.1184000E+00
        -11   -1    0    0    0    0  0.00000000000E+00  0.00000000000E+00  0.45593999997E+02  0.45594000000E+02  0.51100000000E-03 0. -1.
         11   -1    0    0    0    0 -0.00000000000E+00 -0.00000000000E+00 -0.45593999997E+02  0.45594000000E+02  0.51100000000E-03 0.  1.
         23    2    1    2    0    0  0.00000000000E+00  0.00000000000E+00  0.00000000000E+00  0.91188000000E+02  0.91188000000E+02 0.  0.
    9900012    2    3    3    0    0  0.15156840638E+02 -0.30631761746E+02  0.26750481068E+02  0.47787275546E+02  0.20000020522E+02 0.  0.
        -12    1    3    3    0    0 -0.15156840638E+02  0.30631761746E+02 -0.26750481068E+02  0.43400724454E+02  0.00000000000E+00 0.  1.
         11    1    4    4    0    0  0.14727913075E+02 -0.17598082951E+02  0.21773338670E+02  0.31633561675E+02  0.51100000000E-03 0. -1.
        -11    1    4    4    0    0 -0.28044343562E+01 -0.69880655869E+01  0.54290051102E+01  0.92828879909E+01  0.51100000000E-03 0.  1.
         12    1    4    4    0    0  0.32333619188E+01 -0.60456132082E+01 -0.45186271265E+00  0.68708258799E+01  0.00000000000E+00 0. -1.
</event>
<event>
 8    1  0.6019723E-011  0.9118800E+02  0.7816164E-02  0.1184000E+00
        -11   -1    0    0    0    0  0.00000000000E+00  0.00000000000E+00  0.45593999997E+02  0.45594000000E+02  0.51100000000E-03 0. -1.
         11   -1    0    0    0    0 -0.00000000000E+00 -0.00000000000E+00 -0.45593999997E+02  0.45594000000E+02  0.51100000000E-03 0.  1.
         23    2    1    2    0    0  0.00000000000E+00 -0.88817841970E-15  0.00000000000E+00  0.91188000000E+02  0.91188000000E+02 0.  0.
    9900012    2    3    3    0    0  0.29682555208E+01  0.60068927790E+01  0.42880412338E+02  0.47787273463E+02  0.20000011027E+02 0.  0.
        -12    1    3    3    0    0 -0.29682555208E+01 -0.60068927790E+01 -0.42880412338E+02  0.43400726537E+02  0.00000000000E+00 0.  1.
         11    1    4    4    0    0 -0.78636516055E+00  0.17518755787E+01  0.20990654169E+02  0.21078306406E+02  0.51100000000E-03 0. -1.
        -11    1    4    4    0    0 -0.25857763156E+01 -0.15506571940E+01 -0.18350393825E+00  0.30206705951E+01  0.51100000000E-03 0.  1.
        -12    1    4    4    0    0  0.63403969970E+01  0.58056743944E+01  0.22073262107E+02  0.23688296462E+02  0.00000000000E+00 0.  1.
</event>
<event>
 8    1  0.6019723E-011  0.9118800E+02  0.7816164E-02  0.1184000E+00
        -11   -1    0    0    0    0  0.00000000000E+00  0.00000000000E+00  0.45593999997E+02  0.45594000000E+02  0.51100000000E-03 0. -1.
         11   -1    0    0    0    0 -0.00000000000E+00 -0.00000000000E+00 -0.45593999997E+02  0.45594000000E+02  0.51100000000E-03 0.  1.
         23    2    1    2    0    0  0.00000000000E+00  0.35527136788E-14  0.00000000000E+00  0.91188000000E+02  0.91188000000E+02 0.  0.
    9900012    2    3    3    0    0 -0.10513845778E+02 -0.20559627432E+02 -0.36747563878E+02  0.47787277839E+02  0.20000030978E+02 0.  0.
         12    1    3    3    0    0  0.10513845778E+02  0.20559627432E+02  0.36747563878E+02  0.43400722161E+02  0.00000000000E+00 0. -1.
         11    1    4    4    0    0  0.11124156704E+01 -0.12728718773E+02 -0.84424925720E+01  0.15314484363E+02  0.51100000000E-03 0. -1.
        -11    1    4    4    0    0 -0.93025198841E+01 -0.21431055825E+01 -0.19793663393E+02  0.21975415548E+02  0.51100000000E-03 0.  1.
        -12    1    4    4    0    0 -0.23237415642E+01 -0.56878030769E+01 -0.85114079122E+01  0.10497377927E+02  0.00000000000E+00 0.  1.
</event>
<event>
 8    1  0.6019723E-011  0.9118800E+02  0.7816164E-02  0.1184000E+00
        -11   -1    0    0    0    0  0.00000000000E+00  0.00000000000E+00  0.45593999997E+02  0.45594000000E+02  0.51100000000E-03 0. -1.
         11   -1    0    0    0    0 -0.00000000000E+00 -0.00000000000E+00 -0.45593999997E+02  0.45594000000E+02  0.51100000000E-03 0.  1.
         23    2    1    2    0    0 -0.17763568394E-14  0.44408920985E-15  0.00000000000E+00  0.91188000000E+02  0.91188000000E+02 0.  0.
    9900012    2    3    3    0    0  0.14100947758E+02  0.33294133802E+01 -0.40910897781E+02  0.47787270993E+02  0.19999999764E+02 0.  0.
         12    1    3    3    0    0 -0.14100947758E+02 -0.33294133802E+01  0.40910897781E+02  0.43400729007E+02  0.00000000000E+00 0. -1.
         11    1    4    4    0    0 -0.18899725355E+01 -0.23205375414E+01 -0.33568247223E+01  0.44972395025E+01  0.51100000000E-03 0. -1.
        -11    1    4    4    0    0  0.87988036298E+01  0.78888651562E+01 -0.12826119578E+02  0.17440254656E+02  0.51100000000E-03 0.  1.
        -12    1    4    4    0    0  0.71921166639E+01 -0.22389142346E+01 -0.24727953480E+02  0.25849776834E+02  0.00000000000E+00 0.  1.
</event>
<event>
 8    1  0.6019723E-011  0.9118800E+02  0.7816164E-02  0.1184000E+00
        -11   -1    0    0    0    0  0.00000000000E+00  0.00000000000E+00  0.45593999997E+02  0.45594000000E+02  0.51100000000E-03 0. -1.
         11   -1    0    0    0    0 -0.00000000000E+00 -0.00000000000E+00 -0.45593999997E+02  0.45594000000E+02  0.51100000000E-03 0.  1.
         23    2    1    2    0    0  0.00000000000E+00  0.00000000000E+00  0.00000000000E+00  0.91188000000E+02  0.91188000000E+02 0.  0.
    9900012    2    3    3    0    0  0.10031029169E+02 -0.35251338337E+02  0.23245320134E+02  0.47787270642E+02  0.19999998164E+02 0.  0.
        -12    1    3    3    0    0 -0.10031029169E+02  0.35251338337E+02 -0.23245320134E+02  0.43400729358E+02  0.00000000000E+00 0.  1.
         11    1    4    4    0    0  0.19701562985E+01 -0.98487150863E+01  0.66204065835E+01  0.12029484124E+02  0.51100000000E-03 0. -1.
        -11    1    4    4    0    0  0.87314068530E+01 -0.25426827970E+02  0.93675815883E+01  0.28469503531E+02  0.51100000000E-03 0.  1.
        -12    1    4    4    0    0 -0.67053398245E+00  0.24204719579E-01  0.72573319617E+01  0.72882829866E+01  0.00000000000E+00 0.  1.
</event>
<event>
 8    1  0.6019723E-011  0.9118800E+02  0.7816164E-02  0.1184000E+00
        -11   -1    0    0    0    0  0.00000000000E+00  0.00000000000E+00  0.45593999997E+02  0.45594000000E+02  0.51100000000E-03 0. -1.
         11   -1    0    0    0    0 -0.00000000000E+00 -0.00000000000E+00 -0.45593999997E+02  0.45594000000E+02  0.51100000000E-03 0.  1.
         23    2    1    2    0    0  0.00000000000E+00  0.00000000000E+00  0.00000000000E+00  0.91188000000E+02  0.91188000000E+02 0.  0.
    9900012    2    3    3    0    0 -0.16856929737E+02  0.11599698262E+02 -0.38274216248E+02  0.47787254507E+02  0.19999924599E+02 0.  0.
         12    1    3    3    0    0  0.16856929737E+02 -0.11599698262E+02  0.38274216248E+02  0.43400745493E+02  0.00000000000E+00 0. -1.
         11    1    4    4    0    0 -0.50187249141E+01  0.51373726225E+01 -0.16854346433E+01  0.73770514044E+01  0.51100000000E-03 0. -1.
        -11    1    4    4    0    0 -0.10211932880E+02  0.73723694184E+01 -0.36423065430E+02  0.38539266983E+02  0.51100000000E-03 0.  1.
         12    1    4    4    0    0 -0.16262719434E+01 -0.91004377889E+00 -0.16571617451E+00  0.18709361197E+01  0.00000000000E+00 0. -1.
</event>
<event>
 8    1  0.6019723E-011  0.9118800E+02  0.7816164E-02  0.1184000E+00
        -11   -1    0    0    0    0  0.00000000000E+00  0.00000000000E+00  0.45593999997E+02  0.45594000000E+02  0.51100000000E-03 0. -1.
         11   -1    0    0    0    0 -0.00000000000E+00 -0.00000000000E+00 -0.45593999997E+02  0.45594000000E+02  0.51100000000E-03 0.  1.
         23    2    1    2    0    0  0.00000000000E+00 -0.88817841970E-15  0.00000000000E+00  0.91188000000E+02  0.91188000000E+02 0.  0.
    9900012    2    3    3    0    0  0.12251638123E+02  0.46032892607E+01  0.41380316117E+02  0.47787268778E+02  0.19999989665E+02 0.  0.
        -12    1    3    3    0    0 -0.12251638123E+02 -0.46032892607E+01 -0.41380316117E+02  0.43400731222E+02  0.00000000000E+00 0.  1.
         11    1    4    4    0    0  0.74704559940E+01 -0.59607564275E+01  0.10695000944E+02  0.14342990462E+02  0.51100000000E-03 0. -1.
        -11    1    4    4    0    0 -0.36170815965E+00  0.70637836676E+01  0.16884596558E+02  0.18306214073E+02  0.51100000000E-03 0.  1.
         12    1    4    4    0    0  0.51428902882E+01  0.35002620206E+01  0.13800718614E+02  0.15138064242E+02  0.00000000000E+00 0. -1.
</event>
<event>
 8    1  0.6019723E-011  0.9118800E+02  0.7816164E-02  0.1184000E+00
        -11   -1    0    0    0    0  0.00000000000E+00  0.00000000000E+00  0.45593999997E+02  0.45594000000E+02  0.51100000000E-03 0. -1.
         11   -1    0    0    0    0 -0.00000000000E+00 -0.00000000000E+00 -0.45593999997E+02  0.45594000000E+02  0.51100000000E-03 0.  1.
         23    2    1    2    0    0 -0.17763568394E-14  0.00000000000E+00  0.00000000000E+00  0.91188000000E+02  0.91188000000E+02 0.  0.
    9900012    2    3    3    0    0  0.14527301663E+02 -0.89677214084E+01  0.39901894708E+02  0.47787265880E+02  0.19999976454E+02 0.  0.
        -12    1    3    3    0    0 -0.14527301663E+02  0.89677214084E+01 -0.39901894708E+02  0.43400734120E+02  0.00000000000E+00 0.  1.
         11    1    4    4    0    0  0.26153475610E+01 -0.52487433767E+01  0.14166018363E+02  0.15331843543E+02  0.51100000000E-03 0. -1.
        -11    1    4    4    0    0 -0.26023337704E+01  0.14351984535E+01  0.10015997038E+02  0.10447589798E+02  0.51100000000E-03 0.  1.
        -12    1    4    4    0    0  0.14514287872E+02 -0.51541764852E+01  0.15719879307E+02  0.22007832540E+02  0.00000000000E+00 0.  1.
</event>
<event>
 8    1  0.6019723E-011  0.9118800E+02  0.7816164E-02  0.1184000E+00
        -11   -1    0    0    0    0  0.00000000000E+00  0.00000000000E+00  0.45593999997E+02  0.45594000000E+02  0.51100000000E-03 0. -1.
         11   -1    0    0    0    0 -0.00000000000E+00 -0.00000000000E+00 -0.45593999997E+02  0.45594000000E+02  0.51100000000E-03 0.  1.
         23    2    1    2    0    0  0.00000000000E+00  0.88817841970E-15  0.35527136788E-14  0.91188000000E+02  0.91188000000E+02 0.  0.
    9900012    2    3    3    0    0 -0.29356090610E+02  0.58277228058E+01  0.31430582527E+02  0.47787263520E+02  0.19999965694E+02 0.  0.
        -12    1    3    3    0    0  0.29356090610E+02 -0.58277228058E+01 -0.31430582527E+02  0.43400736480E+02  0.00000000000E+00 0.  1.
         11    1    4    4    0    0 -0.46724189729E+01  0.90720399933E+01  0.95485068517E+01  0.13975242111E+02  0.51100000000E-03 0.  1.
        -11    1    4    4    0    0 -0.22693371023E+01 -0.89987412895E+00  0.60529095816E-01  0.24419927036E+01  0.51100000000E-03 0. -1.
         12    1    4    4    0    0 -0.22414334535E+02 -0.23444430586E+01  0.21821546579E+02  0.31370028706E+02  0.00000000000E+00 0. -1.
</event>
<event>
 8    1  0.6019723E-011  0.9118800E+02  0.7816164E-02  0.1184000E+00
        -11   -1    0    0    0    0  0.00000000000E+00  0.00000000000E+00  0.45593999997E+02  0.45594000000E+02  0.51100000000E-03 0. -1.
         11   -1    0    0    0    0 -0.00000000000E+00 -0.00000000000E+00 -0.45593999997E+02  0.45594000000E+02  0.51100000000E-03 0.  1.
         23    2    1    2    0    0  0.00000000000E+00  0.00000000000E+00 -0.35527136788E-14  0.91188000000E+02  0.91188000000E+02 0.  0.
    9900012    2    3    3    0    0  0.22222051868E+02  0.32592890573E+02 -0.18097157971E+02  0.47787271530E+02  0.20000002214E+02 0.  0.
         12    1    3    3    0    0 -0.22222051868E+02 -0.32592890573E+02  0.18097157971E+02  0.43400728470E+02  0.00000000000E+00 0. -1.
         11    1    4    4    0    0  0.37045558131E+01  0.40045907721E+01  0.46856363306E+00  0.54754025572E+01  0.51100000000E-03 0. -1.
        -11    1    4    4    0    0  0.18893197522E+02  0.14258694312E+02 -0.10952504769E+02  0.26081039800E+02  0.51100000000E-03 0.  1.
        -12    1    4    4    0    0 -0.37570146730E+00  0.14329605489E+02 -0.76132168349E+01  0.16230829173E+02  0.00000000000E+00 0.  1.
</event>
<event>
 8    1  0.6019723E-011  0.9118800E+02  0.7816164E-02  0.1184000E+00
        -11   -1    0    0    0    0  0.00000000000E+00  0.00000000000E+00  0.45593999997E+02  0.45594000000E+02  0.51100000000E-03 0. -1.
         11   -1    0    0    0    0 -0.00000000000E+00 -0.00000000000E+00 -0.45593999997E+02  0.45594000000E+02  0.51100000000E-03 0.  1.
         23    2    1    2    0    0  0.17763568394E-14  0.00000000000E+00  0.00000000000E+00  0.91188000000E+02  0.91188000000E+02 0.  0.
    9900012    2    3    3    0    0  0.14350810864E+02 -0.36333232113E+02 -0.18909620078E+02  0.47787271208E+02  0.20000000745E+02 0.  0.
         12    1    3    3    0    0 -0.14350810864E+02  0.36333232113E+02  0.18909620078E+02  0.43400728792E+02  0.00000000000E+00 0. -1.
         11    1    4    4    0    0 -0.13986151280E+00  0.13170341608E+01  0.75249657262E+00  0.15232831570E+01  0.51100000000E-03 0. -1.
        -11    1    4    4    0    0  0.13079752375E+02 -0.34315340188E+02 -0.21116319321E+02  0.42361792176E+02  0.51100000000E-03 0.  1.
        -12    1    4    4    0    0  0.14109200010E+01 -0.33349260851E+01  0.14542026696E+01  0.39021958750E+01  0.00000000000E+00 0.  1.
</event>
<event>
 8    1  0.6019723E-011  0.9118800E+02  0.7816164E-02  0.1184000E+00
        -11   -1    0    0    0    0  0.00000000000E+00  0.00000000000E+00  0.45593999997E+02  0.45594000000E+02  0.51100000000E-03 0. -1.
         11   -1    0    0    0    0 -0.00000000000E+00 -0.00000000000E+00 -0.45593999997E+02  0.45594000000E+02  0.51100000000E-03 0.  1.
         23    2    1    2    0    0  0.00000000000E+00  0.00000000000E+00  0.00000000000E+00  0.91188000000E+02  0.91188000000E+02 0.  0.
    9900012    2    3    3    0    0 -0.30049476707E+01 -0.37711692686E+02 -0.21270137969E+02  0.47787305939E+02  0.20000159099E+02 0.  0.
         12    1    3    3    0    0  0.30049476707E+01  0.37711692686E+02  0.21270137969E+02  0.43400694061E+02  0.00000000000E+00 0. -1.
         11    1    4    4    0    0 -0.96679693222E+00 -0.49345244233E+01 -0.12897951527E+02  0.13843459880E+02  0.51100000000E-03 0. -1.
        -11    1    4    4    0    0 -0.21222064387E+01 -0.22183864888E+02 -0.51726915744E+01  0.22877595152E+02  0.51100000000E-03 0.  1.
         12    1    4    4    0    0  0.84055700207E-01 -0.10593303374E+02 -0.31994948678E+01  0.11066250907E+02  0.00000000000E+00 0. -1.
</event>
<event>
 8    1  0.6019723E-011  0.9118800E+02  0.7816164E-02  0.1184000E+00
        -11   -1    0    0    0    0  0.00000000000E+00  0.00000000000E+00  0.45593999997E+02  0.45594000000E+02  0.51100000000E-03 0. -1.
         11   -1    0    0    0    0 -0.00000000000E+00 -0.00000000000E+00 -0.45593999997E+02  0.45594000000E+02  0.51100000000E-03 0.  1.
         23    2    1    2    0    0  0.00000000000E+00  0.00000000000E+00 -0.71054273576E-14  0.91188000000E+02  0.91188000000E+02 0.  0.
    9900012    2    3    3    0    0 -0.13340393726E+02 -0.12773378632E+02 -0.39274633549E+02  0.47787284029E+02  0.20000059200E+02 0.  0.
         12    1    3    3    0    0  0.13340393726E+02  0.12773378632E+02  0.39274633549E+02  0.43400715971E+02  0.00000000000E+00 0. -1.
         11    1    4    4    0    0 -0.27436064989E+01 -0.44805004547E+01 -0.41962298811E+01  0.67238832844E+01  0.51100000000E-03 0. -1.
        -11    1    4    4    0    0  0.39462037998E+01 -0.47456096885E+01 -0.12973461296E+02  0.14366768391E+02  0.51100000000E-03 0.  1.
        -12    1    4    4    0    0 -0.14542991027E+02 -0.35472684884E+01 -0.22104942372E+02  0.26696632353E+02  0.00000000000E+00 0.  1.
</event>
<event>
 8    1  0.6019723E-011  0.9118800E+02  0.7816164E-02  0.1184000E+00
        -11   -1    0    0    0    0  0.00000000000E+00  0.00000000000E+00  0.45593999997E+02  0.45594000000E+02  0.51100000000E-03 0. -1.
         11   -1    0    0    0    0 -0.00000000000E+00 -0.00000000000E+00 -0.45593999997E+02  0.45594000000E+02  0.51100000000E-03 0.  1.
         23    2    1    2    0    0  0.00000000000E+00 -0.88817841970E-15  0.00000000000E+00  0.91188000000E+02  0.91188000000E+02 0.  0.
    9900012    2    3    3    0    0  0.41818789087E+01  0.42658656804E+01  0.42987662286E+02  0.47787253116E+02  0.19999918259E+02 0.  0.
        -12    1    3    3    0    0 -0.41818789087E+01 -0.42658656804E+01 -0.42987662286E+02  0.43400746884E+02  0.00000000000E+00 0.  1.
         11    1    4    4    0    0  0.38261814430E-01  0.33923669613E+01  0.15044908796E+02  0.15422674817E+02  0.51100000000E-03 0. -1.
        -11    1    4    4    0    0  0.17231167792E+01 -0.48625015044E+01  0.24911519290E+02  0.25440063796E+02  0.51100000000E-03 0.  1.
        -12    1    4    4    0    0  0.24205003150E+01  0.57360002235E+01  0.30312341998E+01  0.69245145037E+01  0.00000000000E+00 0.  1.
</event>
<event>
 8    1  0.6019723E-011  0.9118800E+02  0.7816164E-02  0.1184000E+00
        -11   -1    0    0    0    0  0.00000000000E+00  0.00000000000E+00  0.45593999997E+02  0.45594000000E+02  0.51100000000E-03 0.  1.
         11   -1    0    0    0    0 -0.00000000000E+00 -0.00000000000E+00 -0.45593999997E+02  0.45594000000E+02  0.51100000000E-03 0. -1.
         23    2    1    2    0    0  0.00000000000E+00 -0.88817841970E-15  0.00000000000E+00  0.91188000000E+02  0.91188000000E+02 0.  0.
    9900012    2    3    3    0    0  0.41946909542E+02  0.51308907869E+01 -0.98871083331E+01  0.47787260703E+02  0.19999952847E+02 0.  0.
         12    1    3    3    0    0 -0.41946909542E+02 -0.51308907869E+01  0.98871083331E+01  0.43400739297E+02  0.00000000000E+00 0. -1.
         11    1    4    4    0    0  0.26510399447E+01  0.20009747072E+01 -0.57825950444E+01  0.66686069217E+01  0.51100000000E-03 0. -1.
        -11    1    4    4    0    0  0.26754123775E+02 -0.30071457942E+01 -0.34221856506E+01  0.27139222902E+02  0.51100000000E-03 0.  1.
         12    1    4    4    0    0  0.12541745822E+02  0.61370618739E+01 -0.68232763809E+00  0.13979430879E+02  0.00000000000E+00 0. -1.
</event>
<event>
 8    1  0.6019723E-011  0.9118800E+02  0.7816164E-02  0.1184000E+00
        -11   -1    0    0    0    0  0.00000000000E+00  0.00000000000E+00  0.45593999997E+02  0.45594000000E+02  0.51100000000E-03 0. -1.
         11   -1    0    0    0    0 -0.00000000000E+00 -0.00000000000E+00 -0.45593999997E+02  0.45594000000E+02  0.51100000000E-03 0.  1.
         23    2    1    2    0    0 -0.71054273576E-14 -0.88817841970E-15  0.17763568394E-14  0.91188000000E+02  0.91188000000E+02 0.  0.
    9900012    2    3    3    0    0 -0.41095912949E+02 -0.52920122314E+01  0.12912934910E+02  0.47787270253E+02  0.19999996392E+02 0.  0.
        -12    1    3    3    0    0  0.41095912949E+02  0.52920122314E+01 -0.12912934910E+02  0.43400729747E+02  0.00000000000E+00 0.  1.
         11    1    4    4    0    0 -0.37683525908E+02 -0.69038251003E+01  0.83462810128E+01  0.39209327116E+02  0.51100000000E-03 0. -1.
        -11    1    4    4    0    0 -0.34650308830E+00  0.33596637558E+01  0.91411914682E+00  0.34990025748E+01  0.51100000000E-03 0.  1.
         12    1    4    4    0    0 -0.30658839532E+01 -0.17478508869E+01  0.36525347502E+01  0.50789405626E+01  0.00000000000E+00 0. -1.
</event>
<event>
 8    1  0.6019723E-011  0.9118800E+02  0.7816164E-02  0.1184000E+00
        -11   -1    0    0    0    0  0.00000000000E+00  0.00000000000E+00  0.45593999997E+02  0.45594000000E+02  0.51100000000E-03 0. -1.
         11   -1    0    0    0    0 -0.00000000000E+00 -0.00000000000E+00 -0.45593999997E+02  0.45594000000E+02  0.51100000000E-03 0.  1.
         23    2    1    2    0    0  0.00000000000E+00  0.00000000000E+00 -0.71054273576E-14  0.91188000000E+02  0.91188000000E+02 0.  0.
    9900012    2    3    3    0    0 -0.13467670634E+01  0.28139865615E+02  0.33014514669E+02  0.47787262712E+02  0.19999962008E+02 0.  0.
        -12    1    3    3    0    0  0.13467670634E+01 -0.28139865615E+02 -0.33014514669E+02  0.43400737288E+02  0.00000000000E+00 0.  1.
         11    1    4    4    0    0 -0.46486843984E+01 -0.42335550765E+00  0.10668063454E+01  0.47882744868E+01  0.51100000000E-03 0. -1.
        -11    1    4    4    0    0  0.22544046208E+01  0.21998095712E+02  0.25193003063E+02  0.33521425368E+02  0.51100000000E-03 0.  1.
         12    1    4    4    0    0  0.10475127141E+01  0.65651254102E+01  0.67547052609E+01  0.94775628565E+01  0.00000000000E+00 0. -1.
</event>
<event>
 8    1  0.6019723E-011  0.9118800E+02  0.7816164E-02  0.1184000E+00
        -11   -1    0    0    0    0  0.00000000000E+00  0.00000000000E+00  0.45593999997E+02  0.45594000000E+02  0.51100000000E-03 0.  1.
         11   -1    0    0    0    0 -0.00000000000E+00 -0.00000000000E+00 -0.45593999997E+02  0.45594000000E+02  0.51100000000E-03 0. -1.
         23    2    1    2    0    0 -0.17763568394E-14 -0.35527136788E-14  0.71054273576E-14  0.91188000000E+02  0.91188000000E+02 0.  0.
    9900012    2    3    3    0    0 -0.12881532997E+02 -0.12836841152E+02 -0.39406915515E+02  0.47787269896E+02  0.19999994764E+02 0.  0.
         12    1    3    3    0    0  0.12881532997E+02  0.12836841152E+02  0.39406915515E+02  0.43400730104E+02  0.00000000000E+00 0. -1.
         11    1    4    4    0    0 -0.12391012892E+01 -0.38361176476E+01 -0.24120422587E+01  0.46977780631E+01  0.51100000000E-03 0. -1.
        -11    1    4    4    0    0 -0.93983263465E+01 -0.12076147934E+02 -0.17589610584E+02  0.23314293637E+02  0.51100000000E-03 0.  1.
         12    1    4    4    0    0 -0.22441053615E+01  0.30754244294E+01 -0.19405262673E+02  0.19775198196E+02  0.00000000000E+00 0. -1.
</event>
<event>
 8    1  0.6019723E-011  0.9118800E+02  0.7816164E-02  0.1184000E+00
        -11   -1    0    0    0    0  0.00000000000E+00  0.00000000000E+00  0.45593999997E+02  0.45594000000E+02  0.51100000000E-03 0. -1.
         11   -1    0    0    0    0 -0.00000000000E+00 -0.00000000000E+00 -0.45593999997E+02  0.45594000000E+02  0.51100000000E-03 0.  1.
         23    2    1    2    0    0  0.44408920985E-15  0.00000000000E+00  0.00000000000E+00  0.91188000000E+02  0.91188000000E+02 0.  0.
    9900012    2    3    3    0    0  0.31929335297E+01 -0.31959562874E+02 -0.29189292287E+02  0.47787271114E+02  0.20000000318E+02 0.  0.
         12    1    3    3    0    0 -0.31929335297E+01  0.31959562874E+02  0.29189292287E+02  0.43400728886E+02  0.00000000000E+00 0. -1.
         11    1    4    4    0    0 -0.16803929109E+01 -0.52862724433E+00  0.13505345273E+01  0.22197096362E+01  0.51100000000E-03 0. -1.
        -11    1    4    4    0    0  0.14968595655E+00 -0.27815055627E+02 -0.24138439644E+02  0.36828847309E+02  0.51100000000E-03 0.  1.
        -12    1    4    4    0    0  0.47236404840E+01 -0.36158800020E+01 -0.64013871706E+01  0.87387141685E+01  0.00000000000E+00 0.  1.
</event>
<event>
 8    1  0.6019723E-011  0.9118800E+02  0.7816164E-02  0.1184000E+00
        -11   -1    0    0    0    0  0.00000000000E+00  0.00000000000E+00  0.45593999997E+02  0.45594000000E+02  0.51100000000E-03 0. -1.
         11   -1    0    0    0    0 -0.00000000000E+00 -0.00000000000E+00 -0.45593999997E+02  0.45594000000E+02  0.51100000000E-03 0.  1.
         23    2    1    2    0    0  0.00000000000E+00  0.00000000000E+00  0.00000000000E+00  0.91188000000E+02  0.91188000000E+02 0.  0.
    9900012    2    3    3    0    0 -0.11515303412E+02  0.25405389207E+02  0.33250334355E+02  0.47787300142E+02  0.20000132666E+02 0.  0.
        -12    1    3    3    0    0  0.11515303412E+02 -0.25405389207E+02 -0.33250334355E+02  0.43400699858E+02  0.00000000000E+00 0.  1.
         11    1    4    4    0    0  0.23597551815E+01  0.19458221189E+01 -0.88855143368E+00  0.31849948425E+01  0.51100000000E-03 0. -1.
        -11    1    4    4    0    0 -0.73541029240E+01  0.19315016467E+02  0.21767238180E+02  0.30016084841E+02  0.51100000000E-03 0.  1.
        -12    1    4    4    0    0 -0.65209556694E+01  0.41445506213E+01  0.12371647609E+02  0.14586220458E+02  0.00000000000E+00 0.  1.
</event>
<event>
 8    1  0.6019723E-011  0.9118800E+02  0.7816164E-02  0.1184000E+00
        -11   -1    0    0    0    0  0.00000000000E+00  0.00000000000E+00  0.45593999997E+02  0.45594000000E+02  0.51100000000E-03 0. -1.
         11   -1    0    0    0    0 -0.00000000000E+00 -0.00000000000E+00 -0.45593999997E+02  0.45594000000E+02  0.51100000000E-03 0.  1.
         23    2    1    2    0    0  0.00000000000E+00 -0.71054273576E-14  0.35527136788E-14  0.91188000000E+02  0.91188000000E+02 0.  0.
    9900012    2    3    3    0    0 -0.82075618837E+01  0.34942618717E+02 -0.24398210774E+02  0.47787270008E+02  0.19999995275E+02 0.  0.
         12    1    3    3    0    0  0.82075618837E+01 -0.34942618717E+02  0.24398210774E+02  0.43400729992E+02  0.00000000000E+00 0. -1.
         11    1    4    4    0    0 -0.11623657838E+02  0.17650561229E+02 -0.55568760892E+01  0.21852473667E+02  0.51100000000E-03 0. -1.
        -11    1    4    4    0    0  0.91252171652E+00  0.11161015090E+02 -0.11701760536E+02  0.16196671066E+02  0.51100000000E-03 0.  1.
         12    1    4    4    0    0  0.25035742380E+01  0.61310423982E+01 -0.71395741480E+01  0.97381252748E+01  0.00000000000E+00 0. -1.
</event>
<event>
 8    1  0.6019723E-011  0.9118800E+02  0.7816164E-02  0.1184000E+00
        -11   -1    0    0    0    0  0.00000000000E+00  0.00000000000E+00  0.45593999997E+02  0.45594000000E+02  0.51100000000E-03 0.  1.
         11   -1    0    0    0    0 -0.00000000000E+00 -0.00000000000E+00 -0.45593999997E+02  0.45594000000E+02  0.51100000000E-03 0. -1.
         23    2    1    2    0    0 -0.35527136788E-14  0.00000000000E+00  0.44408920985E-15  0.91188000000E+02  0.91188000000E+02 0.  0.
    9900012    2    3    3    0    0  0.29670946156E+02 -0.31463003453E+02 -0.36520756888E+01  0.47787270871E+02  0.19999999207E+02 0.  0.
         12    1    3    3    0    0 -0.29670946156E+02  0.31463003453E+02  0.36520756888E+01  0.43400729129E+02  0.00000000000E+00 0. -1.
         11    1    4    4    0    0 -0.20049381187E+01 -0.94295861301E+00  0.30771982161E+00  0.22368816588E+01  0.51100000000E-03 0. -1.
        -11    1    4    4    0    0  0.14638452300E+01 -0.21504438846E+01  0.24977232418E+01  0.36063656791E+01  0.51100000000E-03 0.  1.
        -12    1    4    4    0    0  0.30212039045E+02 -0.28369600956E+02 -0.64575187522E+01  0.41944023533E+02  0.00000000000E+00 0.  1.
</event>
<event>
 8    1  0.6019723E-011  0.9118800E+02  0.7816164E-02  0.1184000E+00
        -11   -1    0    0    0    0  0.00000000000E+00  0.00000000000E+00  0.45593999997E+02  0.45594000000E+02  0.51100000000E-03 0. -1.
         11   -1    0    0    0    0 -0.00000000000E+00 -0.00000000000E+00 -0.45593999997E+02  0.45594000000E+02  0.51100000000E-03 0.  1.
         23    2    1    2    0    0 -0.13322676296E-14  0.00000000000E+00  0.00000000000E+00  0.91188000000E+02  0.91188000000E+02 0.  0.
    9900012    2    3    3    0    0 -0.29956816530E+01 -0.15675743516E+02  0.40359873615E+02  0.47787280633E+02  0.20000043718E+02 0.  0.
        -12    1    3    3    0    0  0.29956816530E+01  0.15675743516E+02 -0.40359873615E+02  0.43400719367E+02  0.00000000000E+00 0.  1.
         11    1    4    4    0    0 -0.87933802830E+01 -0.61189425752E+01  0.20051358857E+02  0.22733719170E+02  0.51100000000E-03 0.  1.
        -11    1    4    4    0    0  0.72960527756E+01 -0.65013026225E+01  0.19077237791E+02  0.21434559102E+02  0.51100000000E-03 0. -1.
        -12    1    4    4    0    0 -0.14983541457E+01 -0.30554983184E+01  0.12312769677E+01  0.36190023612E+01  0.00000000000E+00 0.  1.
</event>
<event>
 8    1  0.6019723E-011  0.9118800E+02  0.7816164E-02  0.1184000E+00
        -11   -1    0    0    0    0  0.00000000000E+00  0.00000000000E+00  0.45593999997E+02  0.45594000000E+02  0.51100000000E-03 0. -1.
         11   -1    0    0    0    0 -0.00000000000E+00 -0.00000000000E+00 -0.45593999997E+02  0.45594000000E+02  0.51100000000E-03 0.  1.
         23    2    1    2    0    0  0.00000000000E+00  0.00000000000E+00  0.00000000000E+00  0.91188000000E+02  0.91188000000E+02 0.  0.
    9900012    2    3    3    0    0  0.83873202275E+01  0.34083833139E+02  0.25525827680E+02  0.47787277647E+02  0.20000030102E+02 0.  0.
        -12    1    3    3    0    0 -0.83873202275E+01 -0.34083833139E+02 -0.25525827680E+02  0.43400722353E+02  0.00000000000E+00 0.  1.
         11    1    4    4    0    0  0.94033173831E+01  0.14037513776E+02  0.66669980130E+01  0.18163783570E+02  0.51100000000E-03 0. -1.
        -11    1    4    4    0    0 -0.22591973499E+01  0.20867397175E+02  0.18724549361E+02  0.28127584087E+02  0.51100000000E-03 0.  1.
         12    1    4    4    0    0  0.12432001943E+01 -0.82107781198E+00  0.13428030623E+00  0.14959099896E+01  0.00000000000E+00 0. -1.
</event>
<event>
 8    1  0.6019723E-011  0.9118800E+02  0.7816164E-02  0.1184000E+00
        -11   -1    0    0    0    0  0.00000000000E+00  0.00000000000E+00  0.45593999997E+02  0.45594000000E+02  0.51100000000E-03 0. -1.
         11   -1    0    0    0    0 -0.00000000000E+00 -0.00000000000E+00 -0.45593999997E+02  0.45594000000E+02  0.51100000000E-03 0.  1.
         23    2    1    2    0    0  0.71054273576E-14  0.35527136788E-14  0.00000000000E+00  0.91188000000E+02  0.91188000000E+02 0.  0.
    9900012    2    3    3    0    0 -0.28450402322E+02 -0.18782506570E+02  0.26859173828E+02  0.47787272310E+02  0.20000005769E+02 0.  0.
        -12    1    3    3    0    0  0.28450402322E+02  0.18782506570E+02 -0.26859173828E+02  0.43400727690E+02  0.00000000000E+00 0.  1.
         11    1    4    4    0    0 -0.13672279836E+02 -0.18751381690E+01  0.11726792573E+02  0.18109805172E+02  0.51100000000E-03 0. -1.
        -11    1    4    4    0    0 -0.12764724702E+02 -0.15825226824E+02  0.74359417478E+01  0.21648769726E+02  0.51100000000E-03 0.  1.
         12    1    4    4    0    0 -0.20133977841E+01 -0.10821415774E+01  0.76964395072E+01  0.80286974110E+01  0.00000000000E+00 0. -1.
</event>
<event>
 8    1  0.6019723E-011  0.9118800E+02  0.7816164E-02  0.1184000E+00
        -11   -1    0    0    0    0  0.00000000000E+00  0.00000000000E+00  0.45593999997E+02  0.45594000000E+02  0.51100000000E-03 0. -1.
         11   -1    0    0    0    0 -0.00000000000E+00 -0.00000000000E+00 -0.45593999997E+02  0.45594000000E+02  0.51100000000E-03 0.  1.
         23    2    1    2    0    0  0.00000000000E+00  0.00000000000E+00  0.00000000000E+00  0.91188000000E+02  0.91188000000E+02 0.  0.
    9900012    2    3    3    0    0 -0.22885678531E+01 -0.43268216706E+02 -0.24995669768E+01  0.47787263200E+02  0.19999964233E+02 0.  0.
         12    1    3    3    0    0  0.22885678531E+01  0.43268216706E+02  0.24995669768E+01  0.43400736800E+02  0.00000000000E+00 0. -1.
         11    1    4    4    0    0 -0.54721511156E+01 -0.38346967440E+02 -0.13307723043E+01  0.38758293368E+02  0.51100000000E-03 0. -1.
        -11    1    4    4    0    0  0.46441008023E+01 -0.48970197590E+01 -0.23541993755E+01  0.71477779584E+01  0.51100000000E-03 0.  1.
         12    1    4    4    0    0 -0.14605175399E+01 -0.24229507210E-01  0.11854047029E+01  0.18811918730E+01  0.00000000000E+00 0. -1.
</event>
<event>
 8    1  0.6019723E-011  0.9118800E+02  0.7816164E-02  0.1184000E+00
        -11   -1    0    0    0    0  0.00000000000E+00  0.00000000000E+00  0.45593999997E+02  0.45594000000E+02  0.51100000000E-03 0.  1.
         11   -1    0    0    0    0 -0.00000000000E+00 -0.00000000000E+00 -0.45593999997E+02  0.45594000000E+02  0.51100000000E-03 0. -1.
         23    2    1    2    0    0  0.00000000000E+00  0.00000000000E+00  0.00000000000E+00  0.91188000000E+02  0.91188000000E+02 0.  0.
    9900012    2    3    3    0    0  0.26205192925E+02 -0.34019528875E+02 -0.62914812489E+01  0.47787271695E+02  0.20000002968E+02 0.  0.
         12    1    3    3    0    0 -0.26205192925E+02  0.34019528875E+02  0.62914812489E+01  0.43400728305E+02  0.00000000000E+00 0. -1.
         11    1    4    4    0    0  0.16246022814E+02 -0.87413742373E+01 -0.94785985893E+00  0.18472772380E+02  0.51100000000E-03 0. -1.
        -11    1    4    4    0    0  0.67012579334E+01 -0.22701081471E+02 -0.16016461749E+01  0.23723642819E+02  0.51100000000E-03 0.  1.
        -12    1    4    4    0    0  0.32579121773E+01 -0.25770731660E+01 -0.37419752151E+01  0.55908564968E+01  0.00000000000E+00 0.  1.
</event>
<event>
 8    1  0.6019723E-011  0.9118800E+02  0.7816164E-02  0.1184000E+00
        -11   -1    0    0    0    0  0.00000000000E+00  0.00000000000E+00  0.45593999997E+02  0.45594000000E+02  0.51100000000E-03 0. -1.
         11   -1    0    0    0    0 -0.00000000000E+00 -0.00000000000E+00 -0.45593999997E+02  0.45594000000E+02  0.51100000000E-03 0.  1.
         23    2    1    2    0    0 -0.71054273576E-14  0.35527136788E-14  0.00000000000E+00  0.91188000000E+02  0.91188000000E+02 0.  0.
    9900012    2    3    3    0    0 -0.22193237802E+02  0.17505175223E+02 -0.32934059725E+02  0.47787271277E+02  0.20000001061E+02 0.  0.
         12    1    3    3    0    0  0.22193237802E+02 -0.17505175223E+02  0.32934059725E+02  0.43400728723E+02  0.00000000000E+00 0. -1.
         11    1    4    4    0    0 -0.40544391528E+01  0.63009483227E+01  0.41022388398E+00  0.75039130130E+01  0.51100000000E-03 0. -1.
        -11    1    4    4    0    0 -0.12917533667E+02  0.86493901035E+01 -0.29404883469E+02  0.33261416045E+02  0.51100000000E-03 0.  1.
         12    1    4    4    0    0 -0.52212649823E+01  0.25548367972E+01 -0.39394001394E+01  0.70219422195E+01  0.00000000000E+00 0. -1.
</event>
<event>
 8    1  0.6019723E-011  0.9118800E+02  0.7816164E-02  0.1184000E+00
        -11   -1    0    0    0    0  0.00000000000E+00  0.00000000000E+00  0.45593999997E+02  0.45594000000E+02  0.51100000000E-03 0. -1.
         11   -1    0    0    0    0 -0.00000000000E+00 -0.00000000000E+00 -0.45593999997E+02  0.45594000000E+02  0.51100000000E-03 0.  1.
         23    2    1    2    0    0  0.17763568394E-14  0.00000000000E+00  0.00000000000E+00  0.91188000000E+02  0.91188000000E+02 0.  0.
    9900012    2    3    3    0    0  0.82100976119E+01  0.27262757352E+02  0.32756053205E+02  0.47787278085E+02  0.20000032100E+02 0.  0.
        -12    1    3    3    0    0 -0.82100976119E+01 -0.27262757352E+02 -0.32756053205E+02  0.43400721915E+02  0.00000000000E+00 0.  1.
         11    1    4    4    0    0 -0.21731874613E+01  0.52113540999E+01  0.18744853743E+02  0.19576784654E+02  0.51100000000E-03 0. -1.
        -11    1    4    4    0    0  0.11207780785E+01  0.27277490766E+01  0.87663793718E+00  0.30765651074E+01  0.51100000000E-03 0.  1.
         12    1    4    4    0    0  0.92625069947E+01  0.19323654175E+02  0.13134561524E+02  0.25133928323E+02  0.00000000000E+00 0. -1.
</event>
<event>
 8    1  0.6019723E-011  0.9118800E+02  0.7816164E-02  0.1184000E+00
        -11   -1    0    0    0    0  0.00000000000E+00  0.00000000000E+00  0.45593999997E+02  0.45594000000E+02  0.51100000000E-03 0. -1.
         11   -1    0    0    0    0 -0.00000000000E+00 -0.00000000000E+00 -0.45593999997E+02  0.45594000000E+02  0.51100000000E-03 0.  1.
         23    2    1    2    0    0  0.00000000000E+00  0.00000000000E+00 -0.71054273576E-14  0.91188000000E+02  0.91188000000E+02 0.  0.
    9900012    2    3    3    0    0 -0.20344952040E+02  0.32019112126E+02 -0.21082758489E+02  0.47787270509E+02  0.19999997561E+02 0.  0.
         12    1    3    3    0    0  0.20344952040E+02 -0.32019112126E+02  0.21082758489E+02  0.43400729491E+02  0.00000000000E+00 0. -1.
         11    1    4    4    0    0  0.27289039413E+01  0.23960368614E+00 -0.10625997446E+01  0.29382724730E+01  0.51100000000E-03 0. -1.
        -11    1    4    4    0    0 -0.80417273177E+01  0.79648611730E+01 -0.95312040224E+01  0.14797034910E+02  0.51100000000E-03 0.  1.
         12    1    4    4    0    0 -0.15032128663E+02  0.23814647267E+02 -0.10488954722E+02  0.30051963126E+02  0.00000000000E+00 0. -1.
</event>
<event>
 8    1  0.6019723E-011  0.9118800E+02  0.7816164E-02  0.1184000E+00
        -11   -1    0    0    0    0  0.00000000000E+00  0.00000000000E+00  0.45593999997E+02  0.45594000000E+02  0.51100000000E-03 0. -1.
         11   -1    0    0    0    0 -0.00000000000E+00 -0.00000000000E+00 -0.45593999997E+02  0.45594000000E+02  0.51100000000E-03 0.  1.
         23    2    1    2    0    0  0.17763568394E-14  0.00000000000E+00  0.00000000000E+00  0.91188000000E+02  0.91188000000E+02 0.  0.
    9900012    2    3    3    0    0 -0.15530587476E+02  0.37619565868E+02  0.15072902353E+02  0.47787271103E+02  0.20000000266E+02 0.  0.
        -12    1    3    3    0    0  0.15530587476E+02 -0.37619565868E+02 -0.15072902353E+02  0.43400728897E+02  0.00000000000E+00 0.  1.
         11    1    4    4    0    0 -0.17923749038E+02  0.25032000773E+02  0.69653856549E+01  0.31565462769E+02  0.51100000000E-03 0. -1.
        -11    1    4    4    0    0  0.15141165892E+01  0.12884364317E+02  0.80997752641E+01  0.15293977654E+02  0.51100000000E-03 0.  1.
        -12    1    4    4    0    0  0.87904497207E+00 -0.29679922110E+00  0.77414335527E-02  0.92783067979E+00  0.00000000000E+00 0.  1.
</event>
<event>
 8    1  0.6019723E-011  0.9118800E+02  0.7816164E-02  0.1184000E+00
        -11   -1    0    0    0    0  0.00000000000E+00  0.00000000000E+00  0.45593999997E+02  0.45594000000E+02  0.51100000000E-03 0. -1.
         11   -1    0    0    0    0 -0.00000000000E+00 -0.00000000000E+00 -0.45593999997E+02  0.45594000000E+02  0.51100000000E-03 0.  1.
         23    2    1    2    0    0  0.71054273576E-14  0.55511151231E-15  0.00000000000E+00  0.91188000000E+02  0.91188000000E+02 0.  0.
    9900012    2    3    3    0    0  0.36058692054E+02  0.95352394034E+00 -0.24134726725E+02  0.47787268270E+02  0.19999987352E+02 0.  0.
         12    1    3    3    0    0 -0.36058692054E+02 -0.95352394034E+00  0.24134726725E+02  0.43400731730E+02  0.00000000000E+00 0. -1.
         11    1    4    4    0    0  0.10939530897E+02 -0.72373734235E+01 -0.23447242284E+01  0.13324813030E+02  0.51100000000E-03 0.  1.
        -11    1    4    4    0    0  0.98099941797E+01  0.48660380136E+01 -0.10311266682E+02  0.15041161279E+02  0.51100000000E-03 0. -1.
        -12    1    4    4    0    0  0.15309166978E+02  0.33248593502E+01 -0.11478735814E+02  0.19421293962E+02  0.00000000000E+00 0.  1.
</event>
<event>
 8    1  0.6019723E-011  0.9118800E+02  0.7816164E-02  0.1184000E+00
        -11   -1    0    0    0    0  0.00000000000E+00  0.00000000000E+00  0.45593999997E+02  0.45594000000E+02  0.51100000000E-03 0. -1.
         11   -1    0    0    0    0 -0.00000000000E+00 -0.00000000000E+00 -0.45593999997E+02  0.45594000000E+02  0.51100000000E-03 0.  1.
         23    2    1    2    0    0  0.00000000000E+00  0.00000000000E+00 -0.35527136788E-14  0.91188000000E+02  0.91188000000E+02 0.  0.
    9900012    2    3    3    0    0  0.33120373693E+02  0.17425294518E+02 -0.21977790330E+02  0.47787270624E+02  0.19999998082E+02 0.  0.
         12    1    3    3    0    0 -0.33120373693E+02 -0.17425294518E+02  0.21977790330E+02  0.43400729376E+02  0.00000000000E+00 0. -1.
         11    1    4    4    0    0 -0.69062021391E+00  0.23813891894E+01  0.16263656054E+01  0.29653053965E+01  0.51100000000E-03 0. -1.
        -11    1    4    4    0    0  0.31678948362E+02  0.16113537146E+02 -0.20963248068E+02  0.41263296263E+02  0.51100000000E-03 0.  1.
         12    1    4    4    0    0  0.21320455448E+01 -0.10696318175E+01 -0.26409078676E+01  0.35586689640E+01  0.00000000000E+00 0. -1.
</event>
<event>
 8    1  0.6019723E-011  0.9118800E+02  0.7816164E-02  0.1184000E+00
        -11   -1    0    0    0    0  0.00000000000E+00  0.00000000000E+00  0.45593999997E+02  0.45594000000E+02  0.51100000000E-03 0. -1.
         11   -1    0    0    0    0 -0.00000000000E+00 -0.00000000000E+00 -0.45593999997E+02  0.45594000000E+02  0.51100000000E-03 0.  1.
         23    2    1    2    0    0  0.00000000000E+00  0.35527136788E-14  0.00000000000E+00  0.91188000000E+02  0.91188000000E+02 0.  0.
    9900012    2    3    3    0    0  0.16354476600E+01 -0.30901397975E+02 -0.30431060134E+02  0.47787302923E+02  0.20000145348E+02 0.  0.
         12    1    3    3    0    0 -0.16354476600E+01  0.30901397975E+02  0.30431060134E+02  0.43400697077E+02  0.00000000000E+00 0. -1.
         11    1    4    4    0    0 -0.70277561359E+00  0.10275132615E+01 -0.39505090044E+01  0.41420041913E+01  0.51100000000E-03 0. -1.
        -11    1    4    4    0    0  0.45367415224E+01 -0.27061323181E+02 -0.26719090755E+02  0.38298917047E+02  0.51100000000E-03 0.  1.
        -12    1    4    4    0    0 -0.21985182489E+01 -0.48675880559E+01  0.23853962482E+00  0.53463816854E+01  0.00000000000E+00 0.  1.
</event>
<event>
 8    1  0.6019723E-011  0.9118800E+02  0.7816164E-02  0.1184000E+00
        -11   -1    0    0    0    0  0.00000000000E+00  0.00000000000E+00  0.45593999997E+02  0.45594000000E+02  0.51100000000E-03 0. -1.
         11   -1    0    0    0    0 -0.00000000000E+00 -0.00000000000E+00 -0.45593999997E+02  0.45594000000E+02  0.51100000000E-03 0.  1.
         23    2    1    2    0    0 -0.13322676296E-14  0.00000000000E+00  0.00000000000E+00  0.91188000000E+02  0.91188000000E+02 0.  0.
    9900012    2    3    3    0    0 -0.11533113904E+01 -0.37902677469E+02 -0.21111142552E+02  0.47787269288E+02  0.19999991991E+02 0.  0.
         12    1    3    3    0    0  0.11533113904E+01  0.37902677469E+02  0.21111142552E+02  0.43400730712E+02  0.00000000000E+00 0. -1.
         11    1    4    4    0    0  0.74813900186E+01 -0.70089454916E+01 -0.75377395290E+01  0.12724544431E+02  0.51100000000E-03 0.  1.
        -11    1    4    4    0    0 -0.37172143188E+00 -0.49682700409E-01 -0.30774932946E+00  0.48513410985E+00  0.51100000000E-03 0. -1.
         12    1    4    4    0    0 -0.82629799772E+01 -0.30844049277E+02 -0.13265653694E+02  0.34577590747E+02  0.00000000000E+00 0. -1.
</event>
<event>
 8    1  0.6019723E-011  0.9118800E+02  0.7816164E-02  0.1184000E+00
        -11   -1    0    0    0    0  0.00000000000E+00  0.00000000000E+00  0.45593999997E+02  0.45594000000E+02  0.51100000000E-03 0.  1.
         11   -1    0    0    0    0 -0.00000000000E+00 -0.00000000000E+00 -0.45593999997E+02  0.45594000000E+02  0.51100000000E-03 0. -1.
         23    2    1    2    0    0 -0.22204460493E-15  0.00000000000E+00  0.17763568394E-14  0.91188000000E+02  0.91188000000E+02 0.  0.
    9900012    2    3    3    0    0  0.12600111861E+01  0.42849447125E+02 -0.67793759416E+01  0.47787277825E+02  0.20000030916E+02 0.  0.
         12    1    3    3    0    0 -0.12600111861E+01 -0.42849447125E+02  0.67793759416E+01  0.43400722175E+02  0.00000000000E+00 0. -1.
         11    1    4    4    0    0  0.17008023115E+01  0.16207871102E+01 -0.13247078969E+01  0.26971337810E+01  0.51100000000E-03 0. -1.
        -11    1    4    4    0    0  0.43902788345E+01  0.14755176011E+02 -0.91785322192E+01  0.17923036052E+02  0.51100000000E-03 0.  1.
        -12    1    4    4    0    0 -0.48310699600E+01  0.26473484004E+02  0.37238641745E+01  0.27167107992E+02  0.00000000000E+00 0.  1.
</event>
<event>
 8    1  0.6019723E-011  0.9118800E+02  0.7816164E-02  0.1184000E+00
        -11   -1    0    0    0    0  0.00000000000E+00  0.00000000000E+00  0.45593999997E+02  0.45594000000E+02  0.51100000000E-03 0. -1.
         11   -1    0    0    0    0 -0.00000000000E+00 -0.00000000000E+00 -0.45593999997E+02  0.45594000000E+02  0.51100000000E-03 0.  1.
         23    2    1    2    0    0  0.00000000000E+00  0.00000000000E+00  0.00000000000E+00  0.91188000000E+02  0.91188000000E+02 0.  0.
    9900012    2    3    3    0    0 -0.19093917091E+02 -0.98430316676E+01  0.37711541862E+02  0.47787270376E+02  0.19999996951E+02 0.  0.
        -12    1    3    3    0    0  0.19093917091E+02  0.98430316676E+01 -0.37711541862E+02  0.43400729624E+02  0.00000000000E+00 0.  1.
         11    1    4    4    0    0 -0.50877828286E+01 -0.96385099937E+01  0.13380959346E+02  0.17257939688E+02  0.51100000000E-03 0. -1.
        -11    1    4    4    0    0 -0.28065335234E+01  0.36549974812E+01  0.14243933611E+02  0.14970814339E+02  0.51100000000E-03 0.  1.
        -12    1    4    4    0    0 -0.11199600739E+02 -0.38595191551E+01  0.10086648906E+02  0.15558516349E+02  0.00000000000E+00 0.  1.
</event>
<event>
 8    1  0.6019723E-011  0.9118800E+02  0.7816164E-02  0.1184000E+00
        -11   -1    0    0    0    0  0.00000000000E+00  0.00000000000E+00  0.45593999997E+02  0.45594000000E+02  0.51100000000E-03 0. -1.
         11   -1    0    0    0    0 -0.00000000000E+00 -0.00000000000E+00 -0.45593999997E+02  0.45594000000E+02  0.51100000000E-03 0.  1.
         23    2    1    2    0    0 -0.17763568394E-14  0.00000000000E+00  0.00000000000E+00  0.91188000000E+02  0.91188000000E+02 0.  0.
    9900012    2    3    3    0    0  0.13434119588E+02  0.19797504948E+02  0.36210588907E+02  0.47787268206E+02  0.19999987056E+02 0.  0.
        -12    1    3    3    0    0 -0.13434119588E+02 -0.19797504948E+02 -0.36210588907E+02  0.43400731794E+02  0.00000000000E+00 0.  1.
         11    1    4    4    0    0  0.26020585390E+01  0.98502747149E+01  0.15898147563E+02  0.18882524111E+02  0.51100000000E-03 0. -1.
        -11    1    4    4    0    0  0.57960275641E+01 -0.31019647206E+01  0.62607268709E+01  0.90781507954E+01  0.51100000000E-03 0.  1.
        -12    1    4    4    0    0  0.50360334853E+01  0.13049194954E+02  0.14051714473E+02  0.19826593299E+02  0.00000000000E+00 0.  1.
</event>
<event>
 8    1  0.6019723E-011  0.9118800E+02  0.7816164E-02  0.1184000E+00
        -11   -1    0    0    0    0  0.00000000000E+00  0.00000000000E+00  0.45593999997E+02  0.45594000000E+02  0.51100000000E-03 0.  1.
         11   -1    0    0    0    0 -0.00000000000E+00 -0.00000000000E+00 -0.45593999997E+02  0.45594000000E+02  0.51100000000E-03 0. -1.
         23    2    1    2    0    0  0.00000000000E+00 -0.71054273576E-14  0.00000000000E+00  0.91188000000E+02  0.91188000000E+02 0.  0.
    9900012    2    3    3    0    0  0.18782142660E+02 -0.38432664219E+02 -0.73337489103E+01  0.47787280709E+02  0.20000044065E+02 0.  0.
         12    1    3    3    0    0 -0.18782142660E+02  0.38432664219E+02  0.73337489103E+01  0.43400719291E+02  0.00000000000E+00 0. -1.
         11    1    4    4    0    0  0.11822656603E+02 -0.12853024839E+02  0.51902181848E+01  0.18218502181E+02  0.51100000000E-03 0. -1.
        -11    1    4    4    0    0  0.41422983693E+01 -0.18774361692E+02 -0.74211085644E+01  0.20608448396E+02  0.51100000000E-03 0.  1.
        -12    1    4    4    0    0  0.28171876883E+01 -0.68052776885E+01 -0.51028585308E+01  0.89603301320E+01  0.00000000000E+00 0.  1.
</event>
<event>
 8    1  0.6019723E-011  0.9118800E+02  0.7816164E-02  0.1184000E+00
        -11   -1    0    0    0    0  0.00000000000E+00  0.00000000000E+00  0.45593999997E+02  0.45594000000E+02  0.51100000000E-03 0. -1.
         11   -1    0    0    0    0 -0.00000000000E+00 -0.00000000000E+00 -0.45593999997E+02  0.45594000000E+02  0.51100000000E-03 0.  1.
         23    2    1    2    0    0  0.71054273576E-14  0.35527136788E-14  0.35527136788E-14  0.91188000000E+02  0.91188000000E+02 0.  0.
    9900012    2    3    3    0    0 -0.21518446753E+02 -0.24630897976E+02 -0.28528898230E+02  0.47787277426E+02  0.20000029097E+02 0.  0.
         12    1    3    3    0    0  0.21518446753E+02  0.24630897976E+02  0.28528898230E+02  0.43400722574E+02  0.00000000000E+00 0. -1.
         11    1    4    4    0    0 -0.83093938695E+01 -0.42978303651E+01 -0.79356737376E+00  0.93886698613E+01  0.51100000000E-03 0. -1.
        -11    1    4    4    0    0 -0.25416480717E+01 -0.63561341347E+01 -0.15596813431E+02  0.17032938840E+02  0.51100000000E-03 0.  1.
        -12    1    4    4    0    0 -0.10667404811E+02 -0.13976933476E+02 -0.12138517425E+02  0.21365668725E+02  0.00000000000E+00 0.  1.
</event>
<event>
 8    1  0.6019723E-011  0.9118800E+02  0.7816164E-02  0.1184000E+00
        -11   -1    0    0    0    0  0.00000000000E+00  0.00000000000E+00  0.45593999997E+02  0.45594000000E+02  0.51100000000E-03 0. -1.
         11   -1    0    0    0    0 -0.00000000000E+00 -0.00000000000E+00 -0.45593999997E+02  0.45594000000E+02  0.51100000000E-03 0.  1.
         23    2    1    2    0    0  0.17763568394E-14  0.00000000000E+00 -0.71054273576E-14  0.91188000000E+02  0.91188000000E+02 0.  0.
    9900012    2    3    3    0    0 -0.13898041889E+02 -0.78271632824E+01  0.40363386336E+02  0.47787274085E+02  0.20000013865E+02 0.  0.
        -12    1    3    3    0    0  0.13898041889E+02  0.78271632824E+01 -0.40363386336E+02  0.43400725915E+02  0.00000000000E+00 0.  1.
         11    1    4    4    0    0 -0.52829675498E+01 -0.37453708560E+01  0.17231116412E+01  0.67012433899E+01  0.51100000000E-03 0. -1.
        -11    1    4    4    0    0 -0.82050724429E+01  0.14665291562E+01  0.25082898791E+02  0.26431529157E+02  0.51100000000E-03 0.  1.
         12    1    4    4    0    0 -0.41000189583E+00 -0.55483215826E+01  0.13557375904E+02  0.14654501539E+02  0.00000000000E+00 0. -1.
</event>
<event>
 8    1  0.6019723E-011  0.9118800E+02  0.7816164E-02  0.1184000E+00
        -11   -1    0    0    0    0  0.00000000000E+00  0.00000000000E+00  0.45593999997E+02  0.45594000000E+02  0.51100000000E-03 0.  1.
         11   -1    0    0    0    0 -0.00000000000E+00 -0.00000000000E+00 -0.45593999997E+02  0.45594000000E+02  0.51100000000E-03 0. -1.
         23    2    1    2    0    0  0.35527136788E-14  0.00000000000E+00  0.35527136788E-14  0.91188000000E+02  0.91188000000E+02 0.  0.
    9900012    2    3    3    0    0 -0.30421742794E+02 -0.25746791767E+02  0.17182653867E+02  0.47787270572E+02  0.19999997848E+02 0.  0.
        -12    1    3    3    0    0  0.30421742794E+02  0.25746791767E+02 -0.17182653867E+02  0.43400729428E+02  0.00000000000E+00 0.  1.
         11    1    4    4    0    0  0.15523171822E+00 -0.40013192081E+00 -0.21890002208E+01  0.22306780736E+01  0.51100000000E-03 0. -1.
        -11    1    4    4    0    0 -0.22476294851E+02 -0.20570054494E+02  0.19459258152E+02  0.36152091229E+02  0.51100000000E-03 0.  1.
         12    1    4    4    0    0 -0.81006796610E+01 -0.47766053516E+01 -0.87604064279E-01  0.94045012695E+01  0.00000000000E+00 0. -1.
</event>
<event>
 8    1  0.6019723E-011  0.9118800E+02  0.7816164E-02  0.1184000E+00
        -11   -1    0    0    0    0  0.00000000000E+00  0.00000000000E+00  0.45593999997E+02  0.45594000000E+02  0.51100000000E-03 0.  1.
         11   -1    0    0    0    0 -0.00000000000E+00 -0.00000000000E+00 -0.45593999997E+02  0.45594000000E+02  0.51100000000E-03 0. -1.
         23    2    1    2    0    0  0.00000000000E+00  0.00000000000E+00 -0.88817841970E-15  0.91188000000E+02  0.91188000000E+02 0.  0.
    9900012    2    3    3    0    0  0.40253194554E+02 -0.16021357205E+02 -0.25728502737E+01  0.47787272851E+02  0.20000008238E+02 0.  0.
         12    1    3    3    0    0 -0.40253194554E+02  0.16021357205E+02  0.25728502737E+01  0.43400727149E+02  0.00000000000E+00 0. -1.
         11    1    4    4    0    0  0.35274348594E+02 -0.85569387860E+01 -0.18011714220E+01  0.36342056750E+02  0.51100000000E-03 0. -1.
        -11    1    4    4    0    0  0.12335444721E+01 -0.51191739690E+01  0.26135261549E+01  0.58786132134E+01  0.51100000000E-03 0.  1.
        -12    1    4    4    0    0  0.37453014887E+01 -0.23452444499E+01 -0.33852050065E+01  0.55666028875E+01  0.00000000000E+00 0.  1.
</event>
<event>
 8    1  0.6019723E-011  0.9118800E+02  0.7816164E-02  0.1184000E+00
        -11   -1    0    0    0    0  0.00000000000E+00  0.00000000000E+00  0.45593999997E+02  0.45594000000E+02  0.51100000000E-03 0. -1.
         11   -1    0    0    0    0 -0.00000000000E+00 -0.00000000000E+00 -0.45593999997E+02  0.45594000000E+02  0.51100000000E-03 0.  1.
         23    2    1    2    0    0  0.00000000000E+00  0.00000000000E+00  0.00000000000E+00  0.91188000000E+02  0.91188000000E+02 0.  0.
    9900012    2    3    3    0    0  0.12087018551E+02 -0.36214012057E+02  0.20641522644E+02  0.47787272544E+02  0.20000006835E+02 0.  0.
        -12    1    3    3    0    0 -0.12087018551E+02  0.36214012057E+02 -0.20641522644E+02  0.43400727456E+02  0.00000000000E+00 0.  1.
         11    1    4    4    0    0  0.57121398462E+01 -0.12679464302E+02  0.13062913415E+02  0.19079755338E+02  0.51100000000E-03 0. -1.
        -11    1    4    4    0    0  0.52330318389E+01 -0.20925593715E+02  0.10623939589E+01  0.21596151873E+02  0.51100000000E-03 0.  1.
        -12    1    4    4    0    0  0.11418468662E+01 -0.26089540401E+01  0.65162152698E+01  0.71113653325E+01  0.00000000000E+00 0.  1.
</event>
<event>
 8    1  0.6019723E-011  0.9118800E+02  0.7816164E-02  0.1184000E+00
        -11   -1    0    0    0    0  0.00000000000E+00  0.00000000000E+00  0.45593999997E+02  0.45594000000E+02  0.51100000000E-03 0. -1.
         11   -1    0    0    0    0 -0.00000000000E+00 -0.00000000000E+00 -0.45593999997E+02  0.45594000000E+02  0.51100000000E-03 0.  1.
         23    2    1    2    0    0  0.00000000000E+00  0.44408920985E-15  0.35527136788E-14  0.91188000000E+02  0.91188000000E+02 0.  0.
    9900012    2    3    3    0    0  0.38756441999E+02  0.36835734830E+01 -0.19183153338E+02  0.47787264038E+02  0.19999968055E+02 0.  0.
         12    1    3    3    0    0 -0.38756441999E+02 -0.36835734830E+01  0.19183153338E+02  0.43400735962E+02  0.00000000000E+00 0. -1.
         11    1    4    4    0    0  0.12734540569E+02  0.51971889291E+01 -0.58844098491E+01  0.14960132881E+02  0.51100000000E-03 0. -1.
        -11    1    4    4    0    0  0.89768292932E+01 -0.67572816112E+01 -0.12504050425E+01  0.11305212601E+02  0.51100000000E-03 0.  1.
        -12    1    4    4    0    0  0.17045072137E+02  0.52436661651E+01 -0.12048338447E+02  0.21521918556E+02  0.00000000000E+00 0.  1.
</event>
<event>
 8    1  0.6019723E-011  0.9118800E+02  0.7816164E-02  0.1184000E+00
        -11   -1    0    0    0    0  0.00000000000E+00  0.00000000000E+00  0.45593999997E+02  0.45594000000E+02  0.51100000000E-03 0. -1.
         11   -1    0    0    0    0 -0.00000000000E+00 -0.00000000000E+00 -0.45593999997E+02  0.45594000000E+02  0.51100000000E-03 0.  1.
         23    2    1    2    0    0  0.00000000000E+00  0.17763568394E-14  0.00000000000E+00  0.91188000000E+02  0.91188000000E+02 0.  0.
    9900012    2    3    3    0    0 -0.19175699932E+02 -0.12398248372E+02 -0.36907982288E+02  0.47787272044E+02  0.20000004556E+02 0.  0.
         12    1    3    3    0    0  0.19175699932E+02  0.12398248372E+02  0.36907982288E+02  0.43400727956E+02  0.00000000000E+00 0. -1.
         11    1    4    4    0    0  0.24316767723E+00  0.38715037798E+01 -0.88895696616E+01  0.96990783617E+01  0.51100000000E-03 0. -1.
        -11    1    4    4    0    0 -0.16009286847E+02 -0.10814506481E+02 -0.19987993408E+02  0.27798753506E+02  0.51100000000E-03 0.  1.
         12    1    4    4    0    0 -0.34095807617E+01 -0.54552456701E+01 -0.80304192192E+01  0.10289440176E+02  0.00000000000E+00 0. -1.
</event>
<event>
 8    1  0.6019723E-011  0.9118800E+02  0.7816164E-02  0.1184000E+00
        -11   -1    0    0    0    0  0.00000000000E+00  0.00000000000E+00  0.45593999997E+02  0.45594000000E+02  0.51100000000E-03 0. -1.
         11   -1    0    0    0    0 -0.00000000000E+00 -0.00000000000E+00 -0.45593999997E+02  0.45594000000E+02  0.51100000000E-03 0.  1.
         23    2    1    2    0    0 -0.11102230246E-15  0.00000000000E+00  0.00000000000E+00  0.91188000000E+02  0.91188000000E+02 0.  0.
    9900012    2    3    3    0    0 -0.41190013289E+00  0.32834073091E+02 -0.28379175488E+02  0.47787267070E+02  0.19999981881E+02 0.  0.
         12    1    3    3    0    0  0.41190013289E+00 -0.32834073091E+02  0.28379175488E+02  0.43400732930E+02  0.00000000000E+00 0. -1.
         11    1    4    4    0    0 -0.48652655660E+01  0.52265125120E+01  0.89459465904E+00  0.71963561565E+01  0.51100000000E-03 0. -1.
        -11    1    4    4    0    0  0.24892969085E+01  0.22157921755E+02 -0.23962183623E+02  0.32731580161E+02  0.51100000000E-03 0.  1.
         12    1    4    4    0    0  0.19640685247E+01  0.54496388236E+01 -0.53115865240E+01  0.78593307526E+01  0.00000000000E+00 0. -1.
</event>
<event>
 8    1  0.6019723E-011  0.9118800E+02  0.7816164E-02  0.1184000E+00
        -11   -1    0    0    0    0  0.00000000000E+00  0.00000000000E+00  0.45593999997E+02  0.45594000000E+02  0.51100000000E-03 0. -1.
         11   -1    0    0    0    0 -0.00000000000E+00 -0.00000000000E+00 -0.45593999997E+02  0.45594000000E+02  0.51100000000E-03 0.  1.
         23    2    1    2    0    0  0.00000000000E+00  0.00000000000E+00 -0.71054273576E-14  0.91188000000E+02  0.91188000000E+02 0.  0.
    9900012    2    3    3    0    0 -0.48516273313E+01 -0.13849811886E+02 -0.40844432139E+02  0.47787271736E+02  0.20000003154E+02 0.  0.
         12    1    3    3    0    0  0.48516273313E+01  0.13849811886E+02  0.40844432139E+02  0.43400728264E+02  0.00000000000E+00 0. -1.
         11    1    4    4    0    0  0.16279611938E+00  0.40653308165E+01 -0.13188538612E+02  0.13801846550E+02  0.51100000000E-03 0. -1.
        -11    1    4    4    0    0 -0.63480915159E+01 -0.16747663764E+02 -0.25907533725E+02  0.31495758626E+02  0.51100000000E-03 0.  1.
         12    1    4    4    0    0  0.13336680653E+01 -0.11674789388E+01 -0.17483598025E+01  0.24896665599E+01  0.00000000000E+00 0. -1.
</event>
<event>
 8    1  0.6019723E-011  0.9118800E+02  0.7816164E-02  0.1184000E+00
        -11   -1    0    0    0    0  0.00000000000E+00  0.00000000000E+00  0.45593999997E+02  0.45594000000E+02  0.51100000000E-03 0. -1.
         11   -1    0    0    0    0 -0.00000000000E+00 -0.00000000000E+00 -0.45593999997E+02  0.45594000000E+02  0.51100000000E-03 0.  1.
         23    2    1    2    0    0  0.00000000000E+00  0.00000000000E+00  0.00000000000E+00  0.91188000000E+02  0.91188000000E+02 0.  0.
    9900012    2    3    3    0    0  0.12929801315E+02 -0.41256648506E+02  0.37857999845E+01  0.47787273169E+02  0.20000009685E+02 0.  0.
        -12    1    3    3    0    0 -0.12929801315E+02  0.41256648506E+02 -0.37857999845E+01  0.43400726831E+02  0.00000000000E+00 0.  1.
         11    1    4    4    0    0  0.20082686958E+01  0.23661904274E+00 -0.28177182167E+01  0.34682370068E+01  0.51100000000E-03 0. -1.
        -11    1    4    4    0    0  0.38263306620E+01 -0.26150388102E+02  0.78110627498E+00  0.26440380699E+02  0.51100000000E-03 0.  1.
         12    1    4    4    0    0  0.70952019575E+01 -0.15342879446E+02  0.58224119262E+01  0.17878655463E+02  0.00000000000E+00 0. -1.
</event>
<event>
 8    1  0.6019723E-011  0.9118800E+02  0.7816164E-02  0.1184000E+00
        -11   -1    0    0    0    0  0.00000000000E+00  0.00000000000E+00  0.45593999997E+02  0.45594000000E+02  0.51100000000E-03 0. -1.
         11   -1    0    0    0    0 -0.00000000000E+00 -0.00000000000E+00 -0.45593999997E+02  0.45594000000E+02  0.51100000000E-03 0.  1.
         23    2    1    2    0    0  0.00000000000E+00 -0.88817841970E-15  0.00000000000E+00  0.91188000000E+02  0.91188000000E+02 0.  0.
    9900012    2    3    3    0    0 -0.36554275505E+02  0.58857302812E+01 -0.22644344630E+02  0.47787271638E+02  0.20000002706E+02 0.  0.
         12    1    3    3    0    0  0.36554275505E+02 -0.58857302812E+01  0.22644344630E+02  0.43400728362E+02  0.00000000000E+00 0. -1.
         11    1    4    4    0    0 -0.19624530845E+02 -0.46501633481E+01 -0.13386234690E+02  0.24206146110E+02  0.51100000000E-03 0. -1.
        -11    1    4    4    0    0 -0.16225464287E+02  0.72754582050E+01 -0.96345709681E+01  0.20224315598E+02  0.51100000000E-03 0.  1.
         12    1    4    4    0    0 -0.70428037261E+00  0.32604354243E+01  0.37646102739E+00  0.33568099298E+01  0.00000000000E+00 0. -1.
</event>
<event>
 8    1  0.6019723E-011  0.9118800E+02  0.7816164E-02  0.1184000E+00
        -11   -1    0    0    0    0  0.00000000000E+00  0.00000000000E+00  0.45593999997E+02  0.45594000000E+02  0.51100000000E-03 0. -1.
         11   -1    0    0    0    0 -0.00000000000E+00 -0.00000000000E+00 -0.45593999997E+02  0.45594000000E+02  0.51100000000E-03 0.  1.
         23    2    1    2    0    0  0.00000000000E+00 -0.35527136788E-14  0.00000000000E+00  0.91188000000E+02  0.91188000000E+02 0.  0.
    9900012    2    3    3    0    0  0.14679540143E+02 -0.18977110448E+02  0.36166332006E+02  0.47787272004E+02  0.20000004376E+02 0.  0.
        -12    1    3    3    0    0 -0.14679540143E+02  0.18977110448E+02 -0.36166332006E+02  0.43400727996E+02  0.00000000000E+00 0.  1.
         11    1    4    4    0    0  0.77770335622E+01  0.56335384505E+00  0.72674119618E+01  0.10659028824E+02  0.51100000000E-03 0. -1.
        -11    1    4    4    0    0 -0.97772712405E+00  0.92547141786E+00  0.12433046826E+01  0.18325540836E+01  0.51100000000E-03 0.  1.
         12    1    4    4    0    0  0.78802337047E+01 -0.20465935711E+02  0.27655615362E+02  0.35295689097E+02  0.00000000000E+00 0. -1.
</event>
<event>
 8    1  0.6019723E-011  0.9118800E+02  0.7816164E-02  0.1184000E+00
        -11   -1    0    0    0    0  0.00000000000E+00  0.00000000000E+00  0.45593999997E+02  0.45594000000E+02  0.51100000000E-03 0. -1.
         11   -1    0    0    0    0 -0.00000000000E+00 -0.00000000000E+00 -0.45593999997E+02  0.45594000000E+02  0.51100000000E-03 0.  1.
         23    2    1    2    0    0  0.00000000000E+00  0.88817841970E-15  0.00000000000E+00  0.91188000000E+02  0.91188000000E+02 0.  0.
    9900012    2    3    3    0    0  0.27292215979E+01  0.41613160913E+01 -0.43114477192E+02  0.47787270218E+02  0.19999996230E+02 0.  0.
         12    1    3    3    0    0 -0.27292215979E+01 -0.41613160913E+01  0.43114477192E+02  0.43400729782E+02  0.00000000000E+00 0. -1.
         11    1    4    4    0    0 -0.68259918026E+01 -0.43388799607E+00 -0.10071307510E+02  0.12174303188E+02  0.51100000000E-03 0. -1.
        -11    1    4    4    0    0  0.61784614204E+01 -0.13080681189E+01 -0.13116242709E+02  0.14557480922E+02  0.51100000000E-03 0.  1.
        -12    1    4    4    0    0  0.33767519801E+01  0.59032722063E+01 -0.19926926972E+02  0.21055486108E+02  0.00000000000E+00 0.  1.
</event>
<event>
 8    1  0.6019723E-011  0.9118800E+02  0.7816164E-02  0.1184000E+00
        -11   -1    0    0    0    0  0.00000000000E+00  0.00000000000E+00  0.45593999997E+02  0.45594000000E+02  0.51100000000E-03 0. -1.
         11   -1    0    0    0    0 -0.00000000000E+00 -0.00000000000E+00 -0.45593999997E+02  0.45594000000E+02  0.51100000000E-03 0.  1.
         23    2    1    2    0    0  0.17763568394E-14  0.17763568394E-14 -0.71054273576E-14  0.91188000000E+02  0.91188000000E+02 0.  0.
    9900012    2    3    3    0    0  0.13627554605E+02 -0.93368926559E+01 -0.40133971701E+02  0.47787268515E+02  0.19999988466E+02 0.  0.
         12    1    3    3    0    0 -0.13627554605E+02  0.93368926559E+01  0.40133971701E+02  0.43400731485E+02  0.00000000000E+00 0. -1.
         11    1    4    4    0    0  0.80375146172E+01 -0.98200062572E+01 -0.19790792126E+02  0.23509777059E+02  0.51100000000E-03 0. -1.
        -11    1    4    4    0    0  0.68919262259E+01  0.42857431699E+01 -0.17686097975E+02  0.19459298637E+02  0.51100000000E-03 0.  1.
         12    1    4    4    0    0 -0.13018862376E+01 -0.38026295685E+01 -0.26570816000E+01  0.48181928189E+01  0.00000000000E+00 0. -1.
</event>
<event>
 8    1  0.6019723E-011  0.9118800E+02  0.7816164E-02  0.1184000E+00
        -11   -1    0    0    0    0  0.00000000000E+00  0.00000000000E+00  0.45593999997E+02  0.45594000000E+02  0.51100000000E-03 0. -1.
         11   -1    0    0    0    0 -0.00000000000E+00 -0.00000000000E+00 -0.45593999997E+02  0.45594000000E+02  0.51100000000E-03 0.  1.
         23    2    1    2    0    0  0.00000000000E+00  0.00000000000E+00  0.71054273576E-14  0.91188000000E+02  0.91188000000E+02 0.  0.
    9900012    2    3    3    0    0  0.46715450970E+01 -0.26704909990E+02 -0.33891704251E+02  0.47787272262E+02  0.20000005551E+02 0.  0.
         12    1    3    3    0    0 -0.46715450970E+01  0.26704909990E+02  0.33891704251E+02  0.43400727738E+02  0.00000000000E+00 0. -1.
         11    1    4    4    0    0  0.84566329149E+01 -0.11595935253E+02 -0.86221935344E+01  0.16742836566E+02  0.51100000000E-03 0. -1.
        -11    1    4    4    0    0 -0.45508249528E+01 -0.76843545745E+01 -0.71252186924E+01  0.11424887512E+02  0.51100000000E-03 0.  1.
        -12    1    4    4    0    0  0.76573713490E+00 -0.74246201622E+01 -0.18144292024E+02  0.19619548185E+02  0.00000000000E+00 0.  1.
</event>
<event>
 8    1  0.6019723E-011  0.9118800E+02  0.7816164E-02  0.1184000E+00
        -11   -1    0    0    0    0  0.00000000000E+00  0.00000000000E+00  0.45593999997E+02  0.45594000000E+02  0.51100000000E-03 0. -1.
         11   -1    0    0    0    0 -0.00000000000E+00 -0.00000000000E+00 -0.45593999997E+02  0.45594000000E+02  0.51100000000E-03 0.  1.
         23    2    1    2    0    0  0.00000000000E+00  0.00000000000E+00 -0.88817841970E-15  0.91188000000E+02  0.91188000000E+02 0.  0.
    9900012    2    3    3    0    0 -0.12749447360E+02  0.40999168324E+02 -0.63358309433E+01  0.47787274604E+02  0.20000016227E+02 0.  0.
         12    1    3    3    0    0  0.12749447360E+02 -0.40999168324E+02  0.63358309433E+01  0.43400725396E+02  0.00000000000E+00 0. -1.
         11    1    4    4    0    0 -0.87103902144E+00  0.11849034457E+01 -0.39866136527E+01  0.42492109655E+01  0.51100000000E-03 0. -1.
        -11    1    4    4    0    0 -0.14426895876E+02  0.29376340544E+02 -0.15725824455E+01  0.32765495940E+02  0.51100000000E-03 0.  1.
         12    1    4    4    0    0  0.25484875377E+01  0.10437924334E+02 -0.77663484511E+00  0.10772567698E+02  0.00000000000E+00 0. -1.
</event>
<event>
 8    1  0.6019723E-011  0.9118800E+02  0.7816164E-02  0.1184000E+00
        -11   -1    0    0    0    0  0.00000000000E+00  0.00000000000E+00  0.45593999997E+02  0.45594000000E+02  0.51100000000E-03 0. -1.
         11   -1    0    0    0    0 -0.00000000000E+00 -0.00000000000E+00 -0.45593999997E+02  0.45594000000E+02  0.51100000000E-03 0.  1.
         23    2    1    2    0    0  0.35527136788E-14  0.00000000000E+00  0.00000000000E+00  0.91188000000E+02  0.91188000000E+02 0.  0.
    9900012    2    3    3    0    0 -0.24949528307E+02  0.20968008135E+02 -0.28661584471E+02  0.47787277054E+02  0.20000027399E+02 0.  0.
         12    1    3    3    0    0  0.24949528307E+02 -0.20968008135E+02  0.28661584471E+02  0.43400722946E+02  0.00000000000E+00 0. -1.
         11    1    4    4    0    0 -0.27289906573E+02  0.16346393461E+02 -0.22125436660E+02  0.38748916469E+02  0.51100000000E-03 0. -1.
        -11    1    4    4    0    0  0.25755316537E+00  0.24965751822E+01 -0.52052116049E+01  0.57787065496E+01  0.51100000000E-03 0.  1.
         12    1    4    4    0    0  0.20828251002E+01  0.21250394921E+01 -0.13309362062E+01  0.32596540347E+01  0.00000000000E+00 0. -1.
</event>
<event>
 8    1  0.6019723E-011  0.9118800E+02  0.7816164E-02  0.1184000E+00
        -11   -1    0    0    0    0  0.00000000000E+00  0.00000000000E+00  0.45593999997E+02  0.45594000000E+02  0.51100000000E-03 0. -1.
         11   -1    0    0    0    0 -0.00000000000E+00 -0.00000000000E+00 -0.45593999997E+02  0.45594000000E+02  0.51100000000E-03 0.  1.
         23    2    1    2    0    0  0.00000000000E+00  0.88817841970E-15  0.71054273576E-14  0.91188000000E+02  0.91188000000E+02 0.  0.
    9900012    2    3    3    0    0  0.25361514354E+02 -0.70138111401E+01 -0.34514101723E+02  0.47787272186E+02  0.20000005205E+02 0.  0.
         12    1    3    3    0    0 -0.25361514354E+02  0.70138111401E+01  0.34514101723E+02  0.43400727814E+02  0.00000000000E+00 0. -1.
         11    1    4    4    0    0  0.17828735716E+02  0.37851332447E+01 -0.21608224022E+02  0.28268470007E+02  0.51100000000E-03 0. -1.
        -11    1    4    4    0    0  0.83205584681E+01 -0.10785663839E+02 -0.11183540995E+02  0.17624807151E+02  0.51100000000E-03 0.  1.
         12    1    4    4    0    0 -0.78777983053E+00 -0.13280545643E-01 -0.17223367063E+01  0.18939950275E+01  0.00000000000E+00 0. -1.
</event>
<event>
 8    1  0.6019723E-011  0.9118800E+02  0.7816164E-02  0.1184000E+00
        -11   -1    0    0    0    0  0.00000000000E+00  0.00000000000E+00  0.45593999997E+02  0.45594000000E+02  0.51100000000E-03 0. -1.
         11   -1    0    0    0    0 -0.00000000000E+00 -0.00000000000E+00 -0.45593999997E+02  0.45594000000E+02  0.51100000000E-03 0.  1.
         23    2    1    2    0    0  0.00000000000E+00  0.00000000000E+00  0.00000000000E+00  0.91188000000E+02  0.91188000000E+02 0.  0.
    9900012    2    3    3    0    0  0.11553670911E+02 -0.40988574573E+02 -0.83709327516E+01  0.47787273368E+02  0.20000010595E+02 0.  0.
         12    1    3    3    0    0 -0.11553670911E+02  0.40988574573E+02  0.83709327516E+01  0.43400726632E+02  0.00000000000E+00 0. -1.
         11    1    4    4    0    0  0.29879587971E+00 -0.89928356600E+01 -0.80105694071E+01  0.12046974503E+02  0.51100000000E-03 0. -1.
        -11    1    4    4    0    0  0.10718398777E+02 -0.32908353083E+02 -0.73404717334E+00  0.34617663128E+02  0.51100000000E-03 0.  1.
        -12    1    4    4    0    0  0.53647625397E+00  0.91261416981E+00  0.37368382883E+00  0.11226357370E+01  0.00000000000E+00 0.  1.
</event>
<event>
 8    1  0.6019723E-011  0.9118800E+02  0.7816164E-02  0.1184000E+00
        -11   -1    0    0    0    0  0.00000000000E+00  0.00000000000E+00  0.45593999997E+02  0.45594000000E+02  0.51100000000E-03 0. -1.
         11   -1    0    0    0    0 -0.00000000000E+00 -0.00000000000E+00 -0.45593999997E+02  0.45594000000E+02  0.51100000000E-03 0.  1.
         23    2    1    2    0    0 -0.88817841970E-15  0.00000000000E+00  0.00000000000E+00  0.91188000000E+02  0.91188000000E+02 0.  0.
    9900012    2    3    3    0    0 -0.60746805324E+01  0.18504362359E+02 -0.38785435818E+02  0.47787271879E+02  0.20000003803E+02 0.  0.
         12    1    3    3    0    0  0.60746805324E+01 -0.18504362359E+02  0.38785435818E+02  0.43400728121E+02  0.00000000000E+00 0. -1.
         11    1    4    4    0    0 -0.78452858276E+01  0.41609493317E+01 -0.86294858104E+01  0.12382650551E+02  0.51100000000E-03 0. -1.
        -11    1    4    4    0    0  0.15891150050E+01  0.13091464547E+02 -0.14126628367E+02  0.19325458850E+02  0.51100000000E-03 0.  1.
         12    1    4    4    0    0  0.18149029021E+00  0.12519484803E+01 -0.16029321640E+02  0.16079162477E+02  0.00000000000E+00 0. -1.
</event>
<event>
 8    1  0.6019723E-011  0.9118800E+02  0.7816164E-02  0.1184000E+00
        -11   -1    0    0    0    0  0.00000000000E+00  0.00000000000E+00  0.45593999997E+02  0.45594000000E+02  0.51100000000E-03 0. -1.
         11   -1    0    0    0    0 -0.00000000000E+00 -0.00000000000E+00 -0.45593999997E+02  0.45594000000E+02  0.51100000000E-03 0.  1.
         23    2    1    2    0    0  0.15543122345E-14  0.00000000000E+00 -0.71054273576E-14  0.91188000000E+02  0.91188000000E+02 0.  0.
    9900012    2    3    3    0    0 -0.99492652526E+00  0.16892779216E+02  0.39965836046E+02  0.47787263609E+02  0.19999966100E+02 0.  0.
        -12    1    3    3    0    0  0.99492652526E+00 -0.16892779216E+02 -0.39965836046E+02  0.43400736391E+02  0.00000000000E+00 0.  1.
         11    1    4    4    0    0 -0.27953114209E+01  0.81242766234E+01  0.12051578680E+02  0.14800614363E+02  0.51100000000E-03 0. -1.
        -11    1    4    4    0    0  0.67754664733E+01  0.80138433540E+01  0.25135838765E+02  0.27238557633E+02  0.51100000000E-03 0.  1.
        -12    1    4    4    0    0 -0.49750815776E+01  0.75465923878E+00  0.27784186006E+01  0.57480916130E+01  0.00000000000E+00 0.  1.
</event>
<event>
 8    1  0.6019723E-011  0.9118800E+02  0.7816164E-02  0.1184000E+00
        -11   -1    0    0    0    0  0.00000000000E+00  0.00000000000E+00  0.45593999997E+02  0.45594000000E+02  0.51100000000E-03 0.  1.
         11   -1    0    0    0    0 -0.00000000000E+00 -0.00000000000E+00 -0.45593999997E+02  0.45594000000E+02  0.51100000000E-03 0. -1.
         23    2    1    2    0    0 -0.17763568394E-14  0.71054273576E-14 -0.44408920985E-15  0.91188000000E+02  0.91188000000E+02 0.  0.
    9900012    2    3    3    0    0 -0.11100660419E+02  0.41892161240E+02 -0.23335341644E+01  0.47787271702E+02  0.20000002996E+02 0.  0.
         12    1    3    3    0    0  0.11100660419E+02 -0.41892161240E+02  0.23335341644E+01  0.43400728298E+02  0.00000000000E+00 0. -1.
         11    1    4    4    0    0 -0.12226897949E+02  0.13553020267E+02 -0.20074800581E+01  0.18363315829E+02  0.51100000000E-03 0. -1.
        -11    1    4    4    0    0 -0.23956522488E+01  0.47105746091E+01 -0.15368739718E+01  0.55036937334E+01  0.51100000000E-03 0.  1.
         12    1    4    4    0    0  0.35218897782E+01  0.23628566364E+02  0.12108198654E+01  0.23920262139E+02  0.00000000000E+00 0. -1.
</event>
<event>
 8    1  0.6019723E-011  0.9118800E+02  0.7816164E-02  0.1184000E+00
        -11   -1    0    0    0    0  0.00000000000E+00  0.00000000000E+00  0.45593999997E+02  0.45594000000E+02  0.51100000000E-03 0.  1.
         11   -1    0    0    0    0 -0.00000000000E+00 -0.00000000000E+00 -0.45593999997E+02  0.45594000000E+02  0.51100000000E-03 0. -1.
         23    2    1    2    0    0  0.35527136788E-14  0.35527136788E-14  0.00000000000E+00  0.91188000000E+02  0.91188000000E+02 0.  0.
    9900012    2    3    3    0    0 -0.24912623150E+02 -0.29541924317E+02 -0.19754978557E+02  0.47787271177E+02  0.20000000604E+02 0.  0.
         12    1    3    3    0    0  0.24912623150E+02  0.29541924317E+02  0.19754978557E+02  0.43400728823E+02  0.00000000000E+00 0. -1.
         11    1    4    4    0    0  0.78504376900E+00 -0.31927469417E+01  0.57867059399E+00  0.33383808457E+01  0.51100000000E-03 0. -1.
        -11    1    4    4    0    0 -0.87016732415E+01 -0.45370959389E+01 -0.12136244498E+02  0.15607459355E+02  0.51100000000E-03 0.  1.
        -12    1    4    4    0    0 -0.16995993678E+02 -0.21812081436E+02 -0.81974046533E+01  0.28841430976E+02  0.00000000000E+00 0.  1.
</event>
<event>
 8    1  0.6019723E-011  0.9118800E+02  0.7816164E-02  0.1184000E+00
        -11   -1    0    0    0    0  0.00000000000E+00  0.00000000000E+00  0.45593999997E+02  0.45594000000E+02  0.51100000000E-03 0. -1.
         11   -1    0    0    0    0 -0.00000000000E+00 -0.00000000000E+00 -0.45593999997E+02  0.45594000000E+02  0.51100000000E-03 0.  1.
         23    2    1    2    0    0 -0.17763568394E-14  0.00000000000E+00  0.00000000000E+00  0.91188000000E+02  0.91188000000E+02 0.  0.
    9900012    2    3    3    0    0 -0.81438087420E+01  0.35619857429E+02  0.23420670139E+02  0.47787266667E+02  0.19999980040E+02 0.  0.
        -12    1    3    3    0    0  0.81438087420E+01 -0.35619857429E+02 -0.23420670139E+02  0.43400733333E+02  0.00000000000E+00 0.  1.
         11    1    4    4    0    0 -0.72586862268E+01  0.18503480058E+02  0.80401385279E+01  0.21440875164E+02  0.51100000000E-03 0.  1.
        -11    1    4    4    0    0  0.46573797262E+01  0.14542693937E+02  0.10622319914E+02  0.18601473422E+02  0.51100000000E-03 0. -1.
        -12    1    4    4    0    0 -0.55425022415E+01  0.25736834340E+01  0.47582116973E+01  0.77449180804E+01  0.00000000000E+00 0.  1.
</event>
<event>
 8    1  0.6019723E-011  0.9118800E+02  0.7816164E-02  0.1184000E+00
        -11   -1    0    0    0    0  0.00000000000E+00  0.00000000000E+00  0.45593999997E+02  0.45594000000E+02  0.51100000000E-03 0.  1.
         11   -1    0    0    0    0 -0.00000000000E+00 -0.00000000000E+00 -0.45593999997E+02  0.45594000000E+02  0.51100000000E-03 0. -1.
         23    2    1    2    0    0  0.71054273576E-14  0.00000000000E+00  0.35527136788E-14  0.91188000000E+02  0.91188000000E+02 0.  0.
    9900012    2    3    3    0    0  0.23023594191E+02 -0.25267557084E+02  0.26741130945E+02  0.47787269422E+02  0.19999992603E+02 0.  0.
        -12    1    3    3    0    0 -0.23023594191E+02  0.25267557084E+02 -0.26741130945E+02  0.43400730578E+02  0.00000000000E+00 0.  1.
         11    1    4    4    0    0  0.28179495102E+01  0.19046596381E+01  0.53924184940E+01  0.63754800019E+01  0.51100000000E-03 0. -1.
        -11    1    4    4    0    0  0.50527902991E+01 -0.11807835553E+02  0.32525024814E+01  0.13248941199E+02  0.51100000000E-03 0.  1.
         12    1    4    4    0    0  0.15152854381E+02 -0.15364381170E+02  0.18096209970E+02  0.28162848221E+02  0.00000000000E+00 0. -1.
</event>
<event>
 8    1  0.6019723E-011  0.9118800E+02  0.7816164E-02  0.1184000E+00
        -11   -1    0    0    0    0  0.00000000000E+00  0.00000000000E+00  0.45593999997E+02  0.45594000000E+02  0.51100000000E-03 0. -1.
         11   -1    0    0    0    0 -0.00000000000E+00 -0.00000000000E+00 -0.45593999997E+02  0.45594000000E+02  0.51100000000E-03 0.  1.
         23    2    1    2    0    0  0.00000000000E+00  0.00000000000E+00  0.35527136788E-14  0.91188000000E+02  0.91188000000E+02 0.  0.
    9900012    2    3    3    0    0  0.29220047555E+02 -0.37969632796E+01  0.31865239843E+02  0.47787290103E+02  0.20000086896E+02 0.  0.
        -12    1    3    3    0    0 -0.29220047555E+02  0.37969632796E+01 -0.31865239843E+02  0.43400709897E+02  0.00000000000E+00 0.  1.
         11    1    4    4    0    0 -0.10752738435E+01  0.19893608266E+01 -0.30880318947E+00  0.22823518589E+01  0.51100000000E-03 0. -1.
        -11    1    4    4    0    0  0.12001499192E+02 -0.65881168183E+01  0.11428654699E+02  0.17834052107E+02  0.51100000000E-03 0.  1.
         12    1    4    4    0    0  0.18293822207E+02  0.80179271215E+00  0.20745388333E+02  0.27670886137E+02  0.00000000000E+00 0. -1.
</event>
<event>
 8    1  0.6019723E-011  0.9118800E+02  0.7816164E-02  0.1184000E+00
        -11   -1    0    0    0    0  0.00000000000E+00  0.00000000000E+00  0.45593999997E+02  0.45594000000E+02  0.51100000000E-03 0. -1.
         11   -1    0    0    0    0 -0.00000000000E+00 -0.00000000000E+00 -0.45593999997E+02  0.45594000000E+02  0.51100000000E-03 0.  1.
         23    2    1    2    0    0  0.35527136788E-14 -0.17763568394E-14  0.00000000000E+00  0.91188000000E+02  0.91188000000E+02 0.  0.
    9900012    2    3    3    0    0  0.16799633920E+02 -0.15748788468E+02  0.36788195019E+02  0.47787270388E+02  0.19999997009E+02 0.  0.
        -12    1    3    3    0    0 -0.16799633920E+02  0.15748788468E+02 -0.36788195019E+02  0.43400729612E+02  0.00000000000E+00 0.  1.
         11    1    4    4    0    0  0.10140439886E+02 -0.19647499633E+00  0.19543557338E+02  0.22018577547E+02  0.51100000000E-03 0. -1.
        -11    1    4    4    0    0  0.26935252176E+01 -0.47101465977E+01  0.52591890814E+00  0.54513438736E+01  0.51100000000E-03 0.  1.
         12    1    4    4    0    0  0.39656688172E+01 -0.10842166874E+02  0.16718718773E+02  0.20317348968E+02  0.00000000000E+00 0. -1.
</event>
<event>
 8    1  0.6019723E-011  0.9118800E+02  0.7816164E-02  0.1184000E+00
        -11   -1    0    0    0    0  0.00000000000E+00  0.00000000000E+00  0.45593999997E+02  0.45594000000E+02  0.51100000000E-03 0. -1.
         11   -1    0    0    0    0 -0.00000000000E+00 -0.00000000000E+00 -0.45593999997E+02  0.45594000000E+02  0.51100000000E-03 0.  1.
         23    2    1    2    0    0  0.55511151231E-16  0.35527136788E-14  0.00000000000E+00  0.91188000000E+02  0.91188000000E+02 0.  0.
    9900012    2    3    3    0    0 -0.25358935616E+00  0.17454165411E+02  0.39735523213E+02  0.47787262648E+02  0.19999961715E+02 0.  0.
        -12    1    3    3    0    0  0.25358935616E+00 -0.17454165411E+02 -0.39735523213E+02  0.43400737352E+02  0.00000000000E+00 0.  1.
         11    1    4    4    0    0 -0.77384310202E+00  0.33792708145E+01 -0.10570205841E+01  0.36243064386E+01  0.51100000000E-03 0. -1.
        -11    1    4    4    0    0 -0.30918681135E+01  0.84643779163E+00  0.80625461108E+01  0.86764483180E+01  0.51100000000E-03 0.  1.
         12    1    4    4    0    0  0.36121218594E+01  0.13228456805E+02  0.32729997686E+02  0.35486507891E+02  0.00000000000E+00 0. -1.
</event>
<event>
 8    1  0.6019723E-011  0.9118800E+02  0.7816164E-02  0.1184000E+00
        -11   -1    0    0    0    0  0.00000000000E+00  0.00000000000E+00  0.45593999997E+02  0.45594000000E+02  0.51100000000E-03 0. -1.
         11   -1    0    0    0    0 -0.00000000000E+00 -0.00000000000E+00 -0.45593999997E+02  0.45594000000E+02  0.51100000000E-03 0.  1.
         23    2    1    2    0    0  0.17763568394E-14  0.00000000000E+00  0.00000000000E+00  0.91188000000E+02  0.91188000000E+02 0.  0.
    9900012    2    3    3    0    0  0.12241175714E+02  0.39642462971E+02 -0.12737832914E+02  0.47787266819E+02  0.19999980736E+02 0.  0.
         12    1    3    3    0    0 -0.12241175714E+02 -0.39642462971E+02  0.12737832914E+02  0.43400733181E+02  0.00000000000E+00 0. -1.
         11    1    4    4    0    0 -0.32224822216E+01  0.15683247416E+02 -0.38578214723E+01  0.16469105256E+02  0.51100000000E-03 0. -1.
        -11    1    4    4    0    0  0.11025927768E+02  0.14269796510E+02 -0.99690659308E+01  0.20605350067E+02  0.51100000000E-03 0.  1.
         12    1    4    4    0    0  0.44377301679E+01  0.96894190450E+01  0.10890544891E+01  0.10712811496E+02  0.00000000000E+00 0. -1.
</event>
<event>
 8    1  0.6019723E-011  0.9118800E+02  0.7816164E-02  0.1184000E+00
        -11   -1    0    0    0    0  0.00000000000E+00  0.00000000000E+00  0.45593999997E+02  0.45594000000E+02  0.51100000000E-03 0. -1.
         11   -1    0    0    0    0 -0.00000000000E+00 -0.00000000000E+00 -0.45593999997E+02  0.45594000000E+02  0.51100000000E-03 0.  1.
         23    2    1    2    0    0 -0.88817841970E-15  0.71054273576E-14  0.00000000000E+00  0.91188000000E+02  0.91188000000E+02 0.  0.
    9900012    2    3    3    0    0 -0.57756070915E+01  0.33942161476E+02 -0.26423389887E+02  0.47787268485E+02  0.19999988331E+02 0.  0.
         12    1    3    3    0    0  0.57756070915E+01 -0.33942161476E+02  0.26423389887E+02  0.43400731515E+02  0.00000000000E+00 0. -1.
         11    1    4    4    0    0 -0.30788603210E+01  0.20190450198E+01  0.24854653145E+01  0.44422361215E+01  0.51100000000E-03 0. -1.
        -11    1    4    4    0    0 -0.24505431743E+01  0.17789832953E+02 -0.13743282491E+02  0.22613295475E+02  0.51100000000E-03 0.  1.
         12    1    4    4    0    0 -0.24620359618E+00  0.14133283502E+02 -0.15165572710E+02  0.20731736888E+02  0.00000000000E+00 0. -1.
</event>
<event>
 8    1  0.6019723E-011  0.9118800E+02  0.7816164E-02  0.1184000E+00
        -11   -1    0    0    0    0  0.00000000000E+00  0.00000000000E+00  0.45593999997E+02  0.45594000000E+02  0.51100000000E-03 0. -1.
         11   -1    0    0    0    0 -0.00000000000E+00 -0.00000000000E+00 -0.45593999997E+02  0.45594000000E+02  0.51100000000E-03 0.  1.
         23    2    1    2    0    0  0.00000000000E+00  0.00000000000E+00  0.00000000000E+00  0.91188000000E+02  0.91188000000E+02 0.  0.
    9900012    2    3    3    0    0  0.24746259602E+01  0.97063191265E+01 -0.42228983793E+02  0.47787268706E+02  0.19999989340E+02 0.  0.
         12    1    3    3    0    0 -0.24746259602E+01 -0.97063191265E+01  0.42228983793E+02  0.43400731294E+02  0.00000000000E+00 0. -1.
         11    1    4    4    0    0  0.64413404407E+01  0.14303253333E+02 -0.29861412079E+02  0.33730962841E+02  0.51100000000E-03 0. -1.
        -11    1    4    4    0    0 -0.14295754859E+01 -0.36050100656E+01 -0.61863331809E+01  0.73014041204E+01  0.51100000000E-03 0.  1.
         12    1    4    4    0    0 -0.25371389947E+01 -0.99192414103E+00 -0.61812385329E+01  0.67549017447E+01  0.00000000000E+00 0. -1.
</event>
<event>
 8    1  0.6019723E-011  0.9118800E+02  0.7816164E-02  0.1184000E+00
        -11   -1    0    0    0    0  0.00000000000E+00  0.00000000000E+00  0.45593999997E+02  0.45594000000E+02  0.51100000000E-03 0. -1.
         11   -1    0    0    0    0 -0.00000000000E+00 -0.00000000000E+00 -0.45593999997E+02  0.45594000000E+02  0.51100000000E-03 0.  1.
         23    2    1    2    0    0 -0.88817841970E-15  0.00000000000E+00  0.00000000000E+00  0.91188000000E+02  0.91188000000E+02 0.  0.
    9900012    2    3    3    0    0  0.74460308428E+01  0.40267278188E+02 -0.14377997204E+02  0.47787264158E+02  0.19999968604E+02 0.  0.
         12    1    3    3    0    0 -0.74460308428E+01 -0.40267278188E+02  0.14377997204E+02  0.43400735842E+02  0.00000000000E+00 0. -1.
         11    1    4    4    0    0  0.24806284344E+01  0.23900534503E+02 -0.71117352957E+00  0.24039443317E+02  0.51100000000E-03 0. -1.
        -11    1    4    4    0    0  0.29523436446E+01  0.49441279873E+01 -0.10077047026E+02  0.11606360824E+02  0.51100000000E-03 0.  1.
         12    1    4    4    0    0  0.20130587638E+01  0.11422615698E+02 -0.35897766486E+01  0.12141460017E+02  0.00000000000E+00 0. -1.
</event>
<event>
 8    1  0.6019723E-011  0.9118800E+02  0.7816164E-02  0.1184000E+00
        -11   -1    0    0    0    0  0.00000000000E+00  0.00000000000E+00  0.45593999997E+02  0.45594000000E+02  0.51100000000E-03 0.  1.
         11   -1    0    0    0    0 -0.00000000000E+00 -0.00000000000E+00 -0.45593999997E+02  0.45594000000E+02  0.51100000000E-03 0. -1.
         23    2    1    2    0    0  0.00000000000E+00  0.71054273576E-14  0.00000000000E+00  0.91188000000E+02  0.91188000000E+02 0.  0.
    9900012    2    3    3    0    0  0.26225409749E+02  0.34239583843E+02  0.48479316439E+01  0.47787266602E+02  0.19999979744E+02 0.  0.
         12    1    3    3    0    0 -0.26225409749E+02 -0.34239583843E+02 -0.48479316439E+01  0.43400733398E+02  0.00000000000E+00 0. -1.
         11    1    4    4    0    0  0.26658561559E+00 -0.43944932734E+00 -0.72570943531E+00  0.88929075524E+00  0.51100000000E-03 0. -1.
        -11    1    4    4    0    0  0.45475943105E+01  0.32987866972E+01 -0.49399485843E+01  0.74810226549E+01  0.51100000000E-03 0.  1.
        -12    1    4    4    0    0  0.21411229823E+02  0.31380246474E+02  0.10513589664E+02  0.39416953192E+02  0.00000000000E+00 0.  1.
</event>
<event>
 8    1  0.6019723E-011  0.9118800E+02  0.7816164E-02  0.1184000E+00
        -11   -1    0    0    0    0  0.00000000000E+00  0.00000000000E+00  0.45593999997E+02  0.45594000000E+02  0.51100000000E-03 0. -1.
         11   -1    0    0    0    0 -0.00000000000E+00 -0.00000000000E+00 -0.45593999997E+02  0.45594000000E+02  0.51100000000E-03 0.  1.
         23    2    1    2    0    0  0.00000000000E+00  0.00000000000E+00  0.00000000000E+00  0.91188000000E+02  0.91188000000E+02 0.  0.
    9900012    2    3    3    0    0 -0.24980309545E+02 -0.33643466119E+02 -0.11301526229E+02  0.47787272211E+02  0.20000005319E+02 0.  0.
         12    1    3    3    0    0  0.24980309545E+02  0.33643466119E+02  0.11301526229E+02  0.43400727789E+02  0.00000000000E+00 0. -1.
         11    1    4    4    0    0  0.10378813777E+01 -0.61804583034E+01  0.19928644747E+01  0.65762277690E+01  0.51100000000E-03 0. -1.
        -11    1    4    4    0    0 -0.22479828217E+02 -0.19983128596E+02 -0.71809017964E+01  0.30923024691E+02  0.51100000000E-03 0.  1.
         12    1    4    4    0    0 -0.35383627059E+01 -0.74798792196E+01 -0.61134889072E+01  0.10288019751E+02  0.00000000000E+00 0. -1.
</event>
<event>
 8    1  0.6019723E-011  0.9118800E+02  0.7816164E-02  0.1184000E+00
        -11   -1    0    0    0    0  0.00000000000E+00  0.00000000000E+00  0.45593999997E+02  0.45594000000E+02  0.51100000000E-03 0. -1.
         11   -1    0    0    0    0 -0.00000000000E+00 -0.00000000000E+00 -0.45593999997E+02  0.45594000000E+02  0.51100000000E-03 0.  1.
         23    2    1    2    0    0  0.00000000000E+00  0.00000000000E+00  0.00000000000E+00  0.91188000000E+02  0.91188000000E+02 0.  0.
    9900012    2    3    3    0    0  0.23535981379E+02  0.28130829587E+01 -0.36356169064E+02  0.47787229451E+02  0.19999810358E+02 0.  0.
         12    1    3    3    0    0 -0.23535981379E+02 -0.28130829587E+01  0.36356169064E+02  0.43400770549E+02  0.00000000000E+00 0. -1.
         11    1    4    4    0    0 -0.20196609678E+01 -0.20124960915E+01 -0.50394851808E+01  0.57901279859E+01  0.51100000000E-03 0. -1.
        -11    1    4    4    0    0  0.23637736306E+02  0.18176747956E+01 -0.29901094978E+02  0.38159166664E+02  0.51100000000E-03 0.  1.
        -12    1    4    4    0    0  0.19179060408E+01  0.30079042546E+01 -0.14155889053E+01  0.38379348008E+01  0.00000000000E+00 0.  1.
</event>
<event>
 8    1  0.6019723E-011  0.9118800E+02  0.7816164E-02  0.1184000E+00
        -11   -1    0    0    0    0  0.00000000000E+00  0.00000000000E+00  0.45593999997E+02  0.45594000000E+02  0.51100000000E-03 0. -1.
         11   -1    0    0    0    0 -0.00000000000E+00 -0.00000000000E+00 -0.45593999997E+02  0.45594000000E+02  0.51100000000E-03 0.  1.
         23    2    1    2    0    0  0.00000000000E+00 -0.35527136788E-14  0.00000000000E+00  0.91188000000E+02  0.91188000000E+02 0.  0.
    9900012    2    3    3    0    0 -0.15073289343E+02 -0.17963935570E+02 -0.36520089509E+02  0.47787263019E+02  0.19999963407E+02 0.  0.
         12    1    3    3    0    0  0.15073289343E+02  0.17963935570E+02  0.36520089509E+02  0.43400736981E+02  0.00000000000E+00 0. -1.
         11    1    4    4    0    0 -0.15103197821E+01  0.23716062842E+00 -0.10333011278E+01  0.18452703026E+01  0.51100000000E-03 0.  1.
        -11    1    4    4    0    0  0.41104887808E+01 -0.80281213711E+00 -0.34399931229E+01  0.54197950414E+01  0.51100000000E-03 0. -1.
        -12    1    4    4    0    0 -0.17673458342E+02 -0.17398284061E+02 -0.32046795259E+02  0.40522197674E+02  0.00000000000E+00 0.  1.
</event>
<event>
 8    1  0.6019723E-011  0.9118800E+02  0.7816164E-02  0.1184000E+00
        -11   -1    0    0    0    0  0.00000000000E+00  0.00000000000E+00  0.45593999997E+02  0.45594000000E+02  0.51100000000E-03 0. -1.
         11   -1    0    0    0    0 -0.00000000000E+00 -0.00000000000E+00 -0.45593999997E+02  0.45594000000E+02  0.51100000000E-03 0.  1.
         23    2    1    2    0    0  0.00000000000E+00  0.00000000000E+00  0.00000000000E+00  0.91188000000E+02  0.91188000000E+02 0.  0.
    9900012    2    3    3    0    0  0.19913544560E+02 -0.31566888710E+02  0.22149614191E+02  0.47787272718E+02  0.20000007631E+02 0.  0.
        -12    1    3    3    0    0 -0.19913544560E+02  0.31566888710E+02 -0.22149614191E+02  0.43400727282E+02  0.00000000000E+00 0.  1.
         11    1    4    4    0    0  0.14040746582E+02 -0.11016415433E+02  0.82879733461E+01  0.19677257837E+02  0.51100000000E-03 0. -1.
        -11    1    4    4    0    0  0.34647895993E+00 -0.78729669632E+01  0.11708780855E+02  0.14113794878E+02  0.51100000000E-03 0.  1.
        -12    1    4    4    0    0  0.55263190183E+01 -0.12677506314E+02  0.21528599903E+01  0.13996220003E+02  0.00000000000E+00 0.  1.
</event>
<event>
 8    1  0.6019723E-011  0.9118800E+02  0.7816164E-02  0.1184000E+00
        -11   -1    0    0    0    0  0.00000000000E+00  0.00000000000E+00  0.45593999997E+02  0.45594000000E+02  0.51100000000E-03 0. -1.
         11   -1    0    0    0    0 -0.00000000000E+00 -0.00000000000E+00 -0.45593999997E+02  0.45594000000E+02  0.51100000000E-03 0.  1.
         23    2    1    2    0    0  0.00000000000E+00 -0.35527136788E-14  0.35527136788E-14  0.91188000000E+02  0.91188000000E+02 0.  0.
    9900012    2    3    3    0    0 -0.28639031514E+02 -0.26510201590E+02  0.18990479503E+02  0.47787271594E+02  0.20000002508E+02 0.  0.
        -12    1    3    3    0    0  0.28639031514E+02  0.26510201590E+02 -0.18990479503E+02  0.43400728406E+02  0.00000000000E+00 0.  1.
         11    1    4    4    0    0 -0.14265959516E+02 -0.21542386963E+02  0.63109722284E+01  0.26597375955E+02  0.51100000000E-03 0. -1.
        -11    1    4    4    0    0 -0.80297671681E+01  0.11695342104E+01  0.53775649419E+01  0.97346379496E+01  0.51100000000E-03 0.  1.
        -12    1    4    4    0    0 -0.63433048297E+01 -0.61373488373E+01  0.73019423324E+01  0.11455257690E+02  0.00000000000E+00 0.  1.
</event>
<event>
 8    1  0.6019723E-011  0.9118800E+02  0.7816164E-02  0.1184000E+00
        -11   -1    0    0    0    0  0.00000000000E+00  0.00000000000E+00  0.45593999997E+02  0.45594000000E+02  0.51100000000E-03 0. -1.
         11   -1    0    0    0    0 -0.00000000000E+00 -0.00000000000E+00 -0.45593999997E+02  0.45594000000E+02  0.51100000000E-03 0.  1.
         23    2    1    2    0    0  0.00000000000E+00  0.00000000000E+00  0.00000000000E+00  0.91188000000E+02  0.91188000000E+02 0.  0.
    9900012    2    3    3    0    0  0.11527245965E+02  0.47456992944E+01 -0.41571919164E+02  0.47787268159E+02  0.19999986843E+02 0.  0.
         12    1    3    3    0    0 -0.11527245965E+02 -0.47456992944E+01  0.41571919164E+02  0.43400731841E+02  0.00000000000E+00 0. -1.
         11    1    4    4    0    0 -0.89428834172E+00 -0.26009660924E-02  0.99518078959E+00  0.13379624316E+01  0.51100000000E-03 0. -1.
        -11    1    4    4    0    0  0.15026545828E+02  0.46122348400E+01 -0.33322242802E+02  0.36843475072E+02  0.51100000000E-03 0.  1.
        -12    1    4    4    0    0 -0.26050115210E+01  0.13606542047E+00 -0.92448571517E+01  0.96058306553E+01  0.00000000000E+00 0.  1.
</event>
<event>
 8    1  0.6019723E-011  0.9118800E+02  0.7816164E-02  0.1184000E+00
        -11   -1    0    0    0    0  0.00000000000E+00  0.00000000000E+00  0.45593999997E+02  0.45594000000E+02  0.51100000000E-03 0. -1.
         11   -1    0    0    0    0 -0.00000000000E+00 -0.00000000000E+00 -0.45593999997E+02  0.45594000000E+02  0.51100000000E-03 0.  1.
         23    2    1    2    0    0  0.00000000000E+00  0.00000000000E+00  0.11102230246E-15  0.91188000000E+02  0.91188000000E+02 0.  0.
    9900012    2    3    3    0    0 -0.38184264944E+02 -0.20613523173E+02 -0.81712891092E+00  0.47787272742E+02  0.20000007738E+02 0.  0.
         12    1    3    3    0    0  0.38184264944E+02  0.20613523173E+02  0.81712891092E+00  0.43400727258E+02  0.00000000000E+00 0. -1.
         11    1    4    4    0    0 -0.25020575016E+01 -0.72651501485E+01  0.14083436800E+01  0.78119223372E+01  0.51100000000E-03 0. -1.
        -11    1    4    4    0    0 -0.31549929702E+02 -0.75663484231E+01  0.26243905410E+00  0.32445593957E+02  0.51100000000E-03 0.  1.
        -12    1    4    4    0    0 -0.41322777398E+01 -0.57820246015E+01 -0.24879116450E+01  0.75297564479E+01  0.00000000000E+00 0.  1.
</event>
<event>
 8    1  0.6019723E-011  0.9118800E+02  0.7816164E-02  0.1184000E+00
        -11   -1    0    0    0    0  0.00000000000E+00  0.00000000000E+00  0.45593999997E+02  0.45594000000E+02  0.51100000000E-03 0. -1.
         11   -1    0    0    0    0 -0.00000000000E+00 -0.00000000000E+00 -0.45593999997E+02  0.45594000000E+02  0.51100000000E-03 0.  1.
         23    2    1    2    0    0  0.17763568394E-14  0.71054273576E-14  0.00000000000E+00  0.91188000000E+02  0.91188000000E+02 0.  0.
    9900012    2    3    3    0    0 -0.12951291731E+02 -0.41070084905E+02  0.53977598393E+01  0.47787266793E+02  0.19999980615E+02 0.  0.
        -12    1    3    3    0    0  0.12951291731E+02  0.41070084905E+02 -0.53977598393E+01  0.43400733207E+02  0.00000000000E+00 0.  1.
         11    1    4    4    0    0 -0.73209264040E+01 -0.87665274238E+01  0.96040138206E+00  0.11461689996E+02  0.51100000000E-03 0. -1.
        -11    1    4    4    0    0 -0.62240832057E+01 -0.32743663648E+02  0.66551335309E+01  0.33987902604E+02  0.51100000000E-03 0.  1.
        -12    1    4    4    0    0  0.59371787834E+00  0.44010616638E+00 -0.22177750736E+01  0.23376741932E+01  0.00000000000E+00 0.  1.
</event>
<event>
 8    1  0.6019723E-011  0.9118800E+02  0.7816164E-02  0.1184000E+00
        -11   -1    0    0    0    0  0.00000000000E+00  0.00000000000E+00  0.45593999997E+02  0.45594000000E+02  0.51100000000E-03 0. -1.
         11   -1    0    0    0    0 -0.00000000000E+00 -0.00000000000E+00 -0.45593999997E+02  0.45594000000E+02  0.51100000000E-03 0.  1.
         23    2    1    2    0    0 -0.88817841970E-15  0.71054273576E-14  0.17763568394E-14  0.91188000000E+02  0.91188000000E+02 0.  0.
    9900012    2    3    3    0    0 -0.79801083340E+01 -0.40742978525E+02  0.12647171552E+02  0.47787269864E+02  0.19999994617E+02 0.  0.
        -12    1    3    3    0    0  0.79801083340E+01  0.40742978525E+02 -0.12647171552E+02  0.43400730136E+02  0.00000000000E+00 0.  1.
         11    1    4    4    0    0 -0.35060839690E+01 -0.26414932811E+02  0.56295941862E+01  0.27234787152E+02  0.51100000000E-03 0. -1.
        -11    1    4    4    0    0 -0.12248051399E+01 -0.76600143660E+01  0.99150959342E+01  0.12589086359E+02  0.51100000000E-03 0.  1.
        -12    1    4    4    0    0 -0.32492192251E+01 -0.66680313471E+01 -0.28975185684E+01  0.79633963529E+01  0.00000000000E+00 0.  1.
</event>
<event>
 8    1  0.6019723E-011  0.9118800E+02  0.7816164E-02  0.1184000E+00
        -11   -1    0    0    0    0  0.00000000000E+00  0.00000000000E+00  0.45593999997E+02  0.45594000000E+02  0.51100000000E-03 0. -1.
         11   -1    0    0    0    0 -0.00000000000E+00 -0.00000000000E+00 -0.45593999997E+02  0.45594000000E+02  0.51100000000E-03 0.  1.
         23    2    1    2    0    0  0.35527136788E-14  0.00000000000E+00 -0.17763568394E-14  0.91188000000E+02  0.91188000000E+02 0.  0.
    9900012    2    3    3    0    0 -0.29162174201E+02 -0.30814755953E+02  0.91455100412E+01  0.47787286383E+02  0.20000069935E+02 0.  0.
        -12    1    3    3    0    0  0.29162174201E+02  0.30814755953E+02 -0.91455100412E+01  0.43400713617E+02  0.00000000000E+00 0.  1.
         11    1    4    4    0    0 -0.11566442762E+02 -0.63165509713E+01  0.89882353696E+01  0.15952109254E+02  0.51100000000E-03 0. -1.
        -11    1    4    4    0    0 -0.15517027261E+02 -0.20680655101E+02  0.38396348353E+01  0.26138294251E+02  0.51100000000E-03 0.  1.
         12    1    4    4    0    0 -0.20787041779E+01 -0.38175498802E+01 -0.36823601637E+01  0.56968828777E+01  0.00000000000E+00 0. -1.
</event>
<event>
 8    1  0.6019723E-011  0.9118800E+02  0.7816164E-02  0.1184000E+00
        -11   -1    0    0    0    0  0.00000000000E+00  0.00000000000E+00  0.45593999997E+02  0.45594000000E+02  0.51100000000E-03 0. -1.
         11   -1    0    0    0    0 -0.00000000000E+00 -0.00000000000E+00 -0.45593999997E+02  0.45594000000E+02  0.51100000000E-03 0.  1.
         23    2    1    2    0    0  0.00000000000E+00  0.00000000000E+00  0.00000000000E+00  0.91188000000E+02  0.91188000000E+02 0.  0.
    9900012    2    3    3    0    0 -0.24825189353E+02 -0.12253645561E+02  0.33424263053E+02  0.47787271704E+02  0.20000003009E+02 0.  0.
        -12    1    3    3    0    0  0.24825189353E+02  0.12253645561E+02 -0.33424263053E+02  0.43400728296E+02  0.00000000000E+00 0.  1.
         11    1    4    4    0    0 -0.16958802377E+02 -0.47226337288E+01  0.10975769865E+02  0.20745403631E+02  0.51100000000E-03 0.  1.
        -11    1    4    4    0    0 -0.53052163285E+01 -0.41642744499E+00  0.28530468868E+01  0.60380964640E+01  0.51100000000E-03 0. -1.
         12    1    4    4    0    0 -0.25611706473E+01 -0.71145843876E+01  0.19595446301E+02  0.21003771610E+02  0.00000000000E+00 0. -1.
</event>
<event>
 8    1  0.6019723E-011  0.9118800E+02  0.7816164E-02  0.1184000E+00
        -11   -1    0    0    0    0  0.00000000000E+00  0.00000000000E+00  0.45593999997E+02  0.45594000000E+02  0.51100000000E-03 0. -1.
         11   -1    0    0    0    0 -0.00000000000E+00 -0.00000000000E+00 -0.45593999997E+02  0.45594000000E+02  0.51100000000E-03 0.  1.
         23    2    1    2    0    0  0.00000000000E+00  0.00000000000E+00  0.00000000000E+00  0.91188000000E+02  0.91188000000E+02 0.  0.
    9900012    2    3    3    0    0 -0.11113365182E+02 -0.25826163503E+01  0.41874184831E+02  0.47787260973E+02  0.19999954079E+02 0.  0.
        -12    1    3    3    0    0  0.11113365182E+02  0.25826163503E+01 -0.41874184831E+02  0.43400739027E+02  0.00000000000E+00 0.  1.
         11    1    4    4    0    0 -0.67043036434E+01 -0.32127725387E+00  0.72494846395E+01  0.98795715603E+01  0.51100000000E-03 0. -1.
        -11    1    4    4    0    0 -0.69914371457E+01 -0.29298334593E+01  0.34406053291E+02  0.35231244951E+02  0.51100000000E-03 0.  1.
        -12    1    4    4    0    0  0.25823756070E+01  0.66849436285E+00  0.21864689991E+00  0.26764444615E+01  0.00000000000E+00 0.  1.
</event>
<event>
 8    1  0.6019723E-011  0.9118800E+02  0.7816164E-02  0.1184000E+00
        -11   -1    0    0    0    0  0.00000000000E+00  0.00000000000E+00  0.45593999997E+02  0.45594000000E+02  0.51100000000E-03 0. -1.
         11   -1    0    0    0    0 -0.00000000000E+00 -0.00000000000E+00 -0.45593999997E+02  0.45594000000E+02  0.51100000000E-03 0.  1.
         23    2    1    2    0    0  0.00000000000E+00 -0.44408920985E-15  0.00000000000E+00  0.91188000000E+02  0.91188000000E+02 0.  0.
    9900012    2    3    3    0    0 -0.24554005015E+02 -0.29471393602E+01 -0.35665656688E+02  0.47787264296E+02  0.19999969231E+02 0.  0.
         12    1    3    3    0    0  0.24554005015E+02  0.29471393602E+01  0.35665656688E+02  0.43400735704E+02  0.00000000000E+00 0. -1.
         11    1    4    4    0    0  0.68085821292E+00  0.37798326502E+01 -0.11498072810E+02  0.12122556717E+02  0.51100000000E-03 0. -1.
        -11    1    4    4    0    0 -0.15194954289E+02 -0.49880838862E+01 -0.13726554014E+02  0.21075718305E+02  0.51100000000E-03 0.  1.
         12    1    4    4    0    0 -0.10039908939E+02 -0.17388881242E+01 -0.10441029864E+02  0.14588989274E+02  0.00000000000E+00 0. -1.
</event>
<event>
 8    1  0.6019723E-011  0.9118800E+02  0.7816164E-02  0.1184000E+00
        -11   -1    0    0    0    0  0.00000000000E+00  0.00000000000E+00  0.45593999997E+02  0.45594000000E+02  0.51100000000E-03 0. -1.
         11   -1    0    0    0    0 -0.00000000000E+00 -0.00000000000E+00 -0.45593999997E+02  0.45594000000E+02  0.51100000000E-03 0.  1.
         23    2    1    2    0    0  0.00000000000E+00  0.00000000000E+00  0.00000000000E+00  0.91188000000E+02  0.91188000000E+02 0.  0.
    9900012    2    3    3    0    0  0.34652904646E+02  0.22756713930E+02 -0.12842569460E+02  0.47787269365E+02  0.19999992344E+02 0.  0.
         12    1    3    3    0    0 -0.34652904646E+02 -0.22756713930E+02  0.12842569460E+02  0.43400730635E+02  0.00000000000E+00 0. -1.
         11    1    4    4    0    0  0.78194015025E+01  0.58694757807E+01 -0.10748376226E+01  0.98361101038E+01  0.51100000000E-03 0. -1.
        -11    1    4    4    0    0  0.26968911620E+02  0.16162103708E+02 -0.14857381785E+02  0.34774668711E+02  0.51100000000E-03 0.  1.
        -12    1    4    4    0    0 -0.13540847595E+00  0.72513444119E+00  0.30896499482E+01  0.31764905502E+01  0.00000000000E+00 0.  1.
</event>
<event>
 8    1  0.6019723E-011  0.9118800E+02  0.7816164E-02  0.1184000E+00
        -11   -1    0    0    0    0  0.00000000000E+00  0.00000000000E+00  0.45593999997E+02  0.45594000000E+02  0.51100000000E-03 0. -1.
         11   -1    0    0    0    0 -0.00000000000E+00 -0.00000000000E+00 -0.45593999997E+02  0.45594000000E+02  0.51100000000E-03 0.  1.
         23    2    1    2    0    0 -0.17763568394E-14  0.00000000000E+00  0.00000000000E+00  0.91188000000E+02  0.91188000000E+02 0.  0.
    9900012    2    3    3    0    0 -0.97588871258E+01  0.41845126063E+02 -0.61132998324E+01  0.47787275490E+02  0.20000020268E+02 0.  0.
         12    1    3    3    0    0  0.97588871258E+01 -0.41845126063E+02  0.61132998324E+01  0.43400724510E+02  0.00000000000E+00 0. -1.
         11    1    4    4    0    0 -0.12045590753E+01  0.49274226902E+01 -0.77054489565E+01  0.92252046491E+01  0.51100000000E-03 0. -1.
        -11    1    4    4    0    0 -0.47399197499E+01  0.25372132380E+02 -0.19854358873E+01  0.25887330814E+02  0.51100000000E-03 0.  1.
        -12    1    4    4    0    0 -0.38144083006E+01  0.11545570992E+02  0.35775850115E+01  0.12674740026E+02  0.00000000000E+00 0.  1.
</event>
<event>
 8    1  0.6019723E-011  0.9118800E+02  0.7816164E-02  0.1184000E+00
        -11   -1    0    0    0    0  0.00000000000E+00  0.00000000000E+00  0.45593999997E+02  0.45594000000E+02  0.51100000000E-03 0. -1.
         11   -1    0    0    0    0 -0.00000000000E+00 -0.00000000000E+00 -0.45593999997E+02  0.45594000000E+02  0.51100000000E-03 0.  1.
         23    2    1    2    0    0  0.00000000000E+00  0.35527136788E-14  0.00000000000E+00  0.91188000000E+02  0.91188000000E+02 0.  0.
    9900012    2    3    3    0    0 -0.16874572329E+02  0.20800594312E+02  0.34149776155E+02  0.47787272743E+02  0.20000007742E+02 0.  0.
        -12    1    3    3    0    0  0.16874572329E+02 -0.20800594312E+02 -0.34149776155E+02  0.43400727257E+02  0.00000000000E+00 0.  1.
         11    1    4    4    0    0 -0.27742852417E+01  0.71059765295E+01  0.66803319863E+01  0.10139940668E+02  0.51100000000E-03 0. -1.
        -11    1    4    4    0    0 -0.31729370081E+01  0.46364818784E+01 -0.11197271054E+01  0.57287243360E+01  0.51100000000E-03 0.  1.
        -12    1    4    4    0    0 -0.10927350079E+02  0.90581359038E+01  0.28589171274E+02  0.31918607739E+02  0.00000000000E+00 0.  1.
</event>
<event>
 8    1  0.6019723E-011  0.9118800E+02  0.7816164E-02  0.1184000E+00
        -11   -1    0    0    0    0  0.00000000000E+00  0.00000000000E+00  0.45593999997E+02  0.45594000000E+02  0.51100000000E-03 0. -1.
         11   -1    0    0    0    0 -0.00000000000E+00 -0.00000000000E+00 -0.45593999997E+02  0.45594000000E+02  0.51100000000E-03 0.  1.
         23    2    1    2    0    0  0.00000000000E+00  0.00000000000E+00  0.00000000000E+00  0.91188000000E+02  0.91188000000E+02 0.  0.
    9900012    2    3    3    0    0 -0.33127731486E+02  0.14303504884E+02 -0.24116097088E+02  0.47787274383E+02  0.20000015221E+02 0.  0.
         12    1    3    3    0    0  0.33127731486E+02 -0.14303504884E+02  0.24116097088E+02  0.43400725617E+02  0.00000000000E+00 0. -1.
         11    1    4    4    0    0 -0.33611779405E+01  0.94674809581E+01 -0.46382862814E+01  0.11065460349E+02  0.51100000000E-03 0. -1.
        -11    1    4    4    0    0 -0.10194327324E+02  0.10347283357E+01 -0.11067552919E+02  0.15082629087E+02  0.51100000000E-03 0.  1.
         12    1    4    4    0    0 -0.19572226221E+02  0.38012955897E+01 -0.84102578878E+01  0.21639184947E+02  0.00000000000E+00 0. -1.
</event>
<event>
 8    1  0.6019723E-011  0.9118800E+02  0.7816164E-02  0.1184000E+00
        -11   -1    0    0    0    0  0.00000000000E+00  0.00000000000E+00  0.45593999997E+02  0.45594000000E+02  0.51100000000E-03 0. -1.
         11   -1    0    0    0    0 -0.00000000000E+00 -0.00000000000E+00 -0.45593999997E+02  0.45594000000E+02  0.51100000000E-03 0.  1.
         23    2    1    2    0    0  0.00000000000E+00  0.88817841970E-15  0.71054273576E-14  0.91188000000E+02  0.91188000000E+02 0.  0.
    9900012    2    3    3    0    0  0.22150963933E+02  0.79274752358E+01 -0.36470717429E+02  0.47787270784E+02  0.19999998811E+02 0.  0.
         12    1    3    3    0    0 -0.22150963933E+02 -0.79274752358E+01  0.36470717429E+02  0.43400729216E+02  0.00000000000E+00 0. -1.
         11    1    4    4    0    0  0.24727326128E+01 -0.37511546600E+01 -0.15132359250E+01  0.47408281010E+01  0.51100000000E-03 0. -1.
        -11    1    4    4    0    0  0.43325435697E+01  0.70540910339E+01 -0.17429224738E+02  0.19295310553E+02  0.51100000000E-03 0.  1.
        -12    1    4    4    0    0  0.15345687750E+02  0.46245388620E+01 -0.17528256765E+02  0.23751132130E+02  0.00000000000E+00 0.  1.
</event>
<event>
 8    1  0.6019723E-011  0.9118800E+02  0.7816164E-02  0.1184000E+00
        -11   -1    0    0    0    0  0.00000000000E+00  0.00000000000E+00  0.45593999997E+02  0.45594000000E+02  0.51100000000E-03 0. -1.
         11   -1    0    0    0    0 -0.00000000000E+00 -0.00000000000E+00 -0.45593999997E+02  0.45594000000E+02  0.51100000000E-03 0.  1.
         23    2    1    2    0    0 -0.88817841970E-15  0.00000000000E+00  0.00000000000E+00  0.91188000000E+02  0.91188000000E+02 0.  0.
    9900012    2    3    3    0    0 -0.50991277980E+01  0.28583273423E+02  0.32258616593E+02  0.47787274564E+02  0.20000016047E+02 0.  0.
        -12    1    3    3    0    0  0.50991277980E+01 -0.28583273423E+02 -0.32258616593E+02  0.43400725436E+02  0.00000000000E+00 0.  1.
         11    1    4    4    0    0 -0.10718312623E+01  0.33143059536E+01  0.51658876590E+01  0.62305570999E+01  0.51100000000E-03 0. -1.
        -11    1    4    4    0    0 -0.10734498399E+02  0.18053492444E+02  0.22185269675E+02  0.30550683071E+02  0.51100000000E-03 0.  1.
        -12    1    4    4    0    0  0.67072018633E+01  0.72154750255E+01  0.49074592595E+01  0.11006034393E+02  0.00000000000E+00 0.  1.
</event>
<event>
 8    1  0.6019723E-011  0.9118800E+02  0.7816164E-02  0.1184000E+00
        -11   -1    0    0    0    0  0.00000000000E+00  0.00000000000E+00  0.45593999997E+02  0.45594000000E+02  0.51100000000E-03 0. -1.
         11   -1    0    0    0    0 -0.00000000000E+00 -0.00000000000E+00 -0.45593999997E+02  0.45594000000E+02  0.51100000000E-03 0.  1.
         23    2    1    2    0    0  0.00000000000E+00  0.22204460493E-15  0.00000000000E+00  0.91188000000E+02  0.91188000000E+02 0.  0.
    9900012    2    3    3    0    0  0.15948014657E+02 -0.17891450335E+01 -0.40324723126E+02  0.47787268363E+02  0.19999987776E+02 0.  0.
         12    1    3    3    0    0 -0.15948014657E+02  0.17891450335E+01  0.40324723126E+02  0.43400731637E+02  0.00000000000E+00 0. -1.
         11    1    4    4    0    0  0.59324451820E+01 -0.35384156317E+01 -0.29710335561E+02  0.30502759391E+02  0.51100000000E-03 0.  1.
        -11    1    4    4    0    0  0.11068991962E+02 -0.36009698697E+00 -0.74879706650E+01  0.13368693199E+02  0.51100000000E-03 0. -1.
         12    1    4    4    0    0 -0.10534224877E+01  0.21093675851E+01 -0.31264168993E+01  0.39158157738E+01  0.00000000000E+00 0. -1.
</event>
<event>
 8    1  0.6019723E-011  0.9118800E+02  0.7816164E-02  0.1184000E+00
        -11   -1    0    0    0    0  0.00000000000E+00  0.00000000000E+00  0.45593999997E+02  0.45594000000E+02  0.51100000000E-03 0. -1.
         11   -1    0    0    0    0 -0.00000000000E+00 -0.00000000000E+00 -0.45593999997E+02  0.45594000000E+02  0.51100000000E-03 0.  1.
         23    2    1    2    0    0  0.00000000000E+00  0.00000000000E+00  0.00000000000E+00  0.91188000000E+02  0.91188000000E+02 0.  0.
    9900012    2    3    3    0    0  0.64774983878E+01  0.22881884569E+02  0.36305432098E+02  0.47787273893E+02  0.20000012986E+02 0.  0.
        -12    1    3    3    0    0 -0.64774983878E+01 -0.22881884569E+02 -0.36305432098E+02  0.43400726107E+02  0.00000000000E+00 0.  1.
         11    1    4    4    0    0  0.79424751401E+00  0.12517583698E+02  0.76785517292E+01  0.14706491344E+02  0.51100000000E-03 0. -1.
        -11    1    4    4    0    0 -0.65545943166E+00  0.48399818974E+01  0.21532636356E+02  0.22079616856E+02  0.51100000000E-03 0.  1.
        -12    1    4    4    0    0  0.63387103055E+01  0.55243189737E+01  0.70942440137E+01  0.11001165692E+02  0.00000000000E+00 0.  1.
</event>
<event>
 8    1  0.6019723E-011  0.9118800E+02  0.7816164E-02  0.1184000E+00
        -11   -1    0    0    0    0  0.00000000000E+00  0.00000000000E+00  0.45593999997E+02  0.45594000000E+02  0.51100000000E-03 0. -1.
         11   -1    0    0    0    0 -0.00000000000E+00 -0.00000000000E+00 -0.45593999997E+02  0.45594000000E+02  0.51100000000E-03 0.  1.
         23    2    1    2    0    0  0.44408920985E-15  0.00000000000E+00  0.00000000000E+00  0.91188000000E+02  0.91188000000E+02 0.  0.
    9900012    2    3    3    0    0 -0.20705447321E+01  0.69575449023E+01 -0.42789351152E+02  0.47787272373E+02  0.20000006059E+02 0.  0.
         12    1    3    3    0    0  0.20705447321E+01 -0.69575449023E+01  0.42789351152E+02  0.43400727627E+02  0.00000000000E+00 0. -1.
         11    1    4    4    0    0 -0.82472838068E+00  0.47585057105E+01 -0.20289944604E+01  0.52383558757E+01  0.51100000000E-03 0. -1.
        -11    1    4    4    0    0  0.49932891999E+01  0.15230912295E+00 -0.24662923334E+02  0.25163781964E+02  0.51100000000E-03 0.  1.
        -12    1    4    4    0    0 -0.62391055513E+01  0.20467300689E+01 -0.16097433358E+02  0.17385134534E+02  0.00000000000E+00 0.  1.
</event>
<event>
 8    1  0.6019723E-011  0.9118800E+02  0.7816164E-02  0.1184000E+00
        -11   -1    0    0    0    0  0.00000000000E+00  0.00000000000E+00  0.45593999997E+02  0.45594000000E+02  0.51100000000E-03 0. -1.
         11   -1    0    0    0    0 -0.00000000000E+00 -0.00000000000E+00 -0.45593999997E+02  0.45594000000E+02  0.51100000000E-03 0.  1.
         23    2    1    2    0    0  0.44408920985E-15  0.00000000000E+00  0.35527136788E-14  0.91188000000E+02  0.91188000000E+02 0.  0.
    9900012    2    3    3    0    0  0.24507281345E+01 -0.37821374076E+02 -0.21146185014E+02  0.47787267909E+02  0.19999985705E+02 0.  0.
         12    1    3    3    0    0 -0.24507281345E+01  0.37821374076E+02  0.21146185014E+02  0.43400732091E+02  0.00000000000E+00 0. -1.
         11    1    4    4    0    0 -0.79005090491E+01 -0.13524814749E+02 -0.63896967719E+01  0.16916467785E+02  0.51100000000E-03 0. -1.
        -11    1    4    4    0    0  0.10851709082E+02 -0.24140003387E+02 -0.14834313626E+02  0.30340669316E+02  0.51100000000E-03 0.  1.
        -12    1    4    4    0    0 -0.50047189814E+00 -0.15655593968E+00  0.77825384287E-01  0.53013080793E+00  0.00000000000E+00 0.  1.
</event>
<event>
 8    1  0.6019723E-011  0.9118800E+02  0.7816164E-02  0.1184000E+00
        -11   -1    0    0    0    0  0.00000000000E+00  0.00000000000E+00  0.45593999997E+02  0.45594000000E+02  0.51100000000E-03 0. -1.
         11   -1    0    0    0    0 -0.00000000000E+00 -0.00000000000E+00 -0.45593999997E+02  0.45594000000E+02  0.51100000000E-03 0.  1.
         23    2    1    2    0    0  0.17763568394E-14  0.00000000000E+00  0.00000000000E+00  0.91188000000E+02  0.91188000000E+02 0.  0.
    9900012    2    3    3    0    0  0.14922056834E+02  0.17033338886E+01 -0.40719212612E+02  0.47787269566E+02  0.19999993260E+02 0.  0.
         12    1    3    3    0    0 -0.14922056834E+02 -0.17033338886E+01  0.40719212612E+02  0.43400730434E+02  0.00000000000E+00 0. -1.
         11    1    4    4    0    0 -0.51622350386E+00 -0.45036219238E+00 -0.20945370064E-01  0.68538440303E+00  0.51100000000E-03 0. -1.
        -11    1    4    4    0    0 -0.12248513098E+01  0.26532018035E+01 -0.21407094285E+02  0.21605634139E+02  0.51100000000E-03 0.  1.
        -12    1    4    4    0    0  0.16663131647E+02 -0.49950572255E+00 -0.19291172957E+02  0.25496251024E+02  0.00000000000E+00 0.  1.
</event>
<event>
 8    1  0.6019723E-011  0.9118800E+02  0.7816164E-02  0.1184000E+00
        -11   -1    0    0    0    0  0.00000000000E+00  0.00000000000E+00  0.45593999997E+02  0.45594000000E+02  0.51100000000E-03 0. -1.
         11   -1    0    0    0    0 -0.00000000000E+00 -0.00000000000E+00 -0.45593999997E+02  0.45594000000E+02  0.51100000000E-03 0.  1.
         23    2    1    2    0    0  0.00000000000E+00 -0.35527136788E-14  0.00000000000E+00  0.91188000000E+02  0.91188000000E+02 0.  0.
    9900012    2    3    3    0    0 -0.28085554113E+02 -0.25284263194E+02 -0.21343173207E+02  0.47787270079E+02  0.19999995600E+02 0.  0.
         12    1    3    3    0    0  0.28085554113E+02  0.25284263194E+02  0.21343173207E+02  0.43400729921E+02  0.00000000000E+00 0. -1.
         11    1    4    4    0    0 -0.25098127878E+02 -0.17194342679E+02 -0.19237499231E+02  0.35995038826E+02  0.51100000000E-03 0. -1.
        -11    1    4    4    0    0 -0.54625657524E+01 -0.41697228102E+01 -0.19905389174E+01  0.71546109857E+01  0.51100000000E-03 0.  1.
         12    1    4    4    0    0  0.24751395170E+01 -0.39201977044E+01 -0.11513505871E+00  0.46376202682E+01  0.00000000000E+00 0. -1.
</event>
<event>
 8    1  0.6019723E-011  0.9118800E+02  0.7816164E-02  0.1184000E+00
        -11   -1    0    0    0    0  0.00000000000E+00  0.00000000000E+00  0.45593999997E+02  0.45594000000E+02  0.51100000000E-03 0. -1.
         11   -1    0    0    0    0 -0.00000000000E+00 -0.00000000000E+00 -0.45593999997E+02  0.45594000000E+02  0.51100000000E-03 0.  1.
         23    2    1    2    0    0  0.17763568394E-14 -0.17763568394E-14  0.00000000000E+00  0.91188000000E+02  0.91188000000E+02 0.  0.
    9900012    2    3    3    0    0 -0.11197534131E+02  0.10908661299E+02 -0.40487524639E+02  0.47787270589E+02  0.19999997925E+02 0.  0.
         12    1    3    3    0    0  0.11197534131E+02 -0.10908661299E+02  0.40487524639E+02  0.43400729411E+02  0.00000000000E+00 0. -1.
         11    1    4    4    0    0 -0.11295067039E+01 -0.40983519650E+01 -0.45500352124E+01  0.62269651451E+01  0.51100000000E-03 0. -1.
        -11    1    4    4    0    0 -0.76181441803E+01  0.11003660973E+02 -0.14997604476E+02  0.20100866047E+02  0.51100000000E-03 0.  1.
        -12    1    4    4    0    0 -0.24498832472E+01  0.40033522910E+01 -0.20939884951E+02  0.21459439397E+02  0.00000000000E+00 0.  1.
</event>
<event>
 8    1  0.6019723E-011  0.9118800E+02  0.7816164E-02  0.1184000E+00
        -11   -1    0    0    0    0  0.00000000000E+00  0.00000000000E+00  0.45593999997E+02  0.45594000000E+02  0.51100000000E-03 0. -1.
         11   -1    0    0    0    0 -0.00000000000E+00 -0.00000000000E+00 -0.45593999997E+02  0.45594000000E+02  0.51100000000E-03 0.  1.
         23    2    1    2    0    0  0.00000000000E+00  0.13322676296E-14  0.00000000000E+00  0.91188000000E+02  0.91188000000E+02 0.  0.
    9900012    2    3    3    0    0  0.24600864740E+02  0.26008940651E+01 -0.35660280729E+02  0.47787276302E+02  0.20000023970E+02 0.  0.
         12    1    3    3    0    0 -0.24600864740E+02 -0.26008940651E+01  0.35660280729E+02  0.43400723698E+02  0.00000000000E+00 0. -1.
         11    1    4    4    0    0 -0.39357806898E+00  0.26477170479E+01 -0.15003482948E+01  0.30686079138E+01  0.51100000000E-03 0. -1.
        -11    1    4    4    0    0  0.22676840977E+02 -0.49376844273E+01 -0.25264848823E+02  0.34306448818E+02  0.51100000000E-03 0.  1.
        -12    1    4    4    0    0  0.23176018315E+01  0.48908614446E+01 -0.88950836112E+01  0.10412219570E+02  0.00000000000E+00 0.  1.
</event>
<event>
 8    1  0.6019723E-011  0.9118800E+02  0.7816164E-02  0.1184000E+00
        -11   -1    0    0    0    0  0.00000000000E+00  0.00000000000E+00  0.45593999997E+02  0.45594000000E+02  0.51100000000E-03 0. -1.
         11   -1    0    0    0    0 -0.00000000000E+00 -0.00000000000E+00 -0.45593999997E+02  0.45594000000E+02  0.51100000000E-03 0.  1.
         23    2    1    2    0    0  0.55511151231E-15  0.00000000000E+00  0.00000000000E+00  0.91188000000E+02  0.91188000000E+02 0.  0.
    9900012    2    3    3    0    0 -0.54949276339E+00  0.19826126333E+02 -0.38603712582E+02  0.47787264375E+02  0.19999969591E+02 0.  0.
         12    1    3    3    0    0  0.54949276339E+00 -0.19826126333E+02  0.38603712582E+02  0.43400735625E+02  0.00000000000E+00 0. -1.
         11    1    4    4    0    0  0.10459798566E+01 -0.11444753300E+01 -0.37647961769E+00  0.15955045613E+01  0.51100000000E-03 0. -1.
        -11    1    4    4    0    0  0.22038520270E+01  0.15516535571E+02 -0.13818843703E+02  0.20894503617E+02  0.51100000000E-03 0.  1.
        -12    1    4    4    0    0 -0.37993246470E+01  0.54540660922E+01 -0.24408389262E+02  0.25297256196E+02  0.00000000000E+00 0.  1.
</event>
<event>
 8    1  0.6019723E-011  0.9118800E+02  0.7816164E-02  0.1184000E+00
        -11   -1    0    0    0    0  0.00000000000E+00  0.00000000000E+00  0.45593999997E+02  0.45594000000E+02  0.51100000000E-03 0.  1.
         11   -1    0    0    0    0 -0.00000000000E+00 -0.00000000000E+00 -0.45593999997E+02  0.45594000000E+02  0.51100000000E-03 0. -1.
         23    2    1    2    0    0 -0.35527136788E-14 -0.35527136788E-14  0.17763568394E-14  0.91188000000E+02  0.91188000000E+02 0.  0.
    9900012    2    3    3    0    0 -0.29485654262E+02 -0.28953116379E+02 -0.13264110417E+02  0.47787269816E+02  0.19999994399E+02 0.  0.
         12    1    3    3    0    0  0.29485654262E+02  0.28953116379E+02  0.13264110417E+02  0.43400730184E+02  0.00000000000E+00 0. -1.
         11    1    4    4    0    0 -0.25698097279E+02 -0.23160758467E+02 -0.89364328742E+01  0.35730557921E+02  0.51100000000E-03 0. -1.
        -11    1    4    4    0    0 -0.39297911487E-01 -0.20028470246E+01  0.26212061542E+01  0.32990396320E+01  0.51100000000E-03 0.  1.
         12    1    4    4    0    0 -0.37482590714E+01 -0.37895108877E+01 -0.69488836972E+01  0.87576722633E+01  0.00000000000E+00 0. -1.
</event>
<event>
 8    1  0.6019723E-011  0.9118800E+02  0.7816164E-02  0.1184000E+00
        -11   -1    0    0    0    0  0.00000000000E+00  0.00000000000E+00  0.45593999997E+02  0.45594000000E+02  0.51100000000E-03 0. -1.
         11   -1    0    0    0    0 -0.00000000000E+00 -0.00000000000E+00 -0.45593999997E+02  0.45594000000E+02  0.51100000000E-03 0.  1.
         23    2    1    2    0    0 -0.35527136788E-14 -0.35527136788E-14  0.35527136788E-14  0.91188000000E+02  0.91188000000E+02 0.  0.
    9900012    2    3    3    0    0 -0.16756146290E+02 -0.30660788222E+02  0.25744338790E+02  0.47787270137E+02  0.19999995864E+02 0.  0.
        -12    1    3    3    0    0  0.16756146290E+02  0.30660788222E+02 -0.25744338790E+02  0.43400729863E+02  0.00000000000E+00 0.  1.
         11    1    4    4    0    0 -0.44615091202E+01 -0.21637734499E+02  0.14232229100E+02  0.26280277078E+02  0.51100000000E-03 0. -1.
        -11    1    4    4    0    0 -0.10423506628E+02 -0.57324673164E+01  0.31162234723E+01  0.12297215984E+02  0.51100000000E-03 0.  1.
         12    1    4    4    0    0 -0.18711305412E+01 -0.32905864068E+01  0.83958862177E+01  0.92097770757E+01  0.00000000000E+00 0. -1.
</event>
<event>
 8    1  0.6019723E-011  0.9118800E+02  0.7816164E-02  0.1184000E+00
        -11   -1    0    0    0    0  0.00000000000E+00  0.00000000000E+00  0.45593999997E+02  0.45594000000E+02  0.51100000000E-03 0. -1.
         11   -1    0    0    0    0 -0.00000000000E+00 -0.00000000000E+00 -0.45593999997E+02  0.45594000000E+02  0.51100000000E-03 0.  1.
         23    2    1    2    0    0 -0.71054273576E-14  0.00000000000E+00  0.00000000000E+00  0.91188000000E+02  0.91188000000E+02 0.  0.
    9900012    2    3    3    0    0 -0.39052194493E+02 -0.90777505930E+01 -0.16617579728E+02  0.47787269516E+02  0.19999993031E+02 0.  0.
         12    1    3    3    0    0  0.39052194493E+02  0.90777505930E+01  0.16617579728E+02  0.43400730484E+02  0.00000000000E+00 0. -1.
         11    1    4    4    0    0 -0.84050723760E+01 -0.62564243826E+00  0.20165515296E+01  0.86662073850E+01  0.51100000000E-03 0. -1.
        -11    1    4    4    0    0 -0.19971484987E+02 -0.99182342107E+01 -0.17381328303E+02  0.28272639712E+02  0.51100000000E-03 0.  1.
        -12    1    4    4    0    0 -0.10675637130E+02  0.14661260560E+01 -0.12528029540E+01  0.10848422419E+02  0.00000000000E+00 0.  1.
</event>
<event>
 8    1  0.6019723E-011  0.9118800E+02  0.7816164E-02  0.1184000E+00
        -11   -1    0    0    0    0  0.00000000000E+00  0.00000000000E+00  0.45593999997E+02  0.45594000000E+02  0.51100000000E-03 0.  1.
         11   -1    0    0    0    0 -0.00000000000E+00 -0.00000000000E+00 -0.45593999997E+02  0.45594000000E+02  0.51100000000E-03 0. -1.
         23    2    1    2    0    0  0.00000000000E+00  0.00000000000E+00  0.00000000000E+00  0.91188000000E+02  0.91188000000E+02 0.  0.
    9900012    2    3    3    0    0  0.17122630193E+02 -0.36336567483E+02 -0.16434509395E+02  0.47787266132E+02  0.19999977603E+02 0.  0.
         12    1    3    3    0    0 -0.17122630193E+02  0.36336567483E+02  0.16434509395E+02  0.43400733868E+02  0.00000000000E+00 0. -1.
         11    1    4    4    0    0  0.47415523995E+00 -0.17053390834E+02 -0.97422462202E+01  0.19645720242E+02  0.51100000000E-03 0. -1.
        -11    1    4    4    0    0  0.11834808937E+02 -0.13863123842E+02  0.70382040641E-01  0.18227831992E+02  0.51100000000E-03 0.  1.
        -12    1    4    4    0    0  0.48136660162E+01 -0.54200528069E+01 -0.67626452158E+01  0.99137138984E+01  0.00000000000E+00 0.  1.
</event>
<event>
 8    1  0.7156375E-011  0.9118800E+02  0.7816164E-02  0.1184000E+00
        -11   -1    0    0    0    0  0.00000000000E+00  0.00000000000E+00  0.45593999997E+02  0.45594000000E+02  0.51100000000E-03 0. -1.
         11   -1    0    0    0    0 -0.00000000000E+00 -0.00000000000E+00 -0.45593999997E+02  0.45594000000E+02  0.51100000000E-03 0.  1.
         23    2    1    2    0    0 -0.17763568394E-14  0.17763568394E-14  0.00000000000E+00  0.91188000000E+02  0.91188000000E+02 0.  0.
    9900012    2    3    3    0    0  0.14975566484E+02  0.11652936631E+02 -0.39032865130E+02  0.47787273233E+02  0.20000009978E+02 0.  0.
         12    1    3    3    0    0 -0.14975566484E+02 -0.11652936631E+02  0.39032865130E+02  0.43400726767E+02  0.00000000000E+00 0. -1.
         11    1    4    4    0    0  0.36590023606E+01 -0.34720915060E+01 -0.21888132013E+01  0.54986017489E+01  0.51100000000E-03 0. -1.
        -11    1    4    4    0    0  0.14522485323E+01  0.90280962394E+01 -0.17078700444E+02  0.19372598086E+02  0.51100000000E-03 0.  1.
         12    1    4    4    0    0  0.98643155907E+01  0.60969318972E+01 -0.19765351485E+02  0.22916073398E+02  0.00000000000E+00 0. -1.
</event>
<event>
 8    1  0.6019723E-011  0.9118800E+02  0.7816164E-02  0.1184000E+00
        -11   -1    0    0    0    0  0.00000000000E+00  0.00000000000E+00  0.45593999997E+02  0.45594000000E+02  0.51100000000E-03 0. -1.
         11   -1    0    0    0    0 -0.00000000000E+00 -0.00000000000E+00 -0.45593999997E+02  0.45594000000E+02  0.51100000000E-03 0.  1.
         23    2    1    2    0    0  0.00000000000E+00  0.71054273576E-14  0.00000000000E+00  0.91188000000E+02  0.91188000000E+02 0.  0.
    9900012    2    3    3    0    0  0.22317711813E+02  0.36843803656E+02 -0.52987820719E+01  0.47787271666E+02  0.20000002835E+02 0.  0.
         12    1    3    3    0    0 -0.22317711813E+02 -0.36843803656E+02  0.52987820719E+01  0.43400728334E+02  0.00000000000E+00 0. -1.
         11    1    4    4    0    0  0.50609776307E+01  0.34884406793E+01 -0.46661080546E+01  0.77172065924E+01  0.51100000000E-03 0. -1.
        -11    1    4    4    0    0  0.19656836974E+02  0.30315701448E+02  0.86454408746E-01  0.36130879712E+02  0.51100000000E-03 0.  1.
        -12    1    4    4    0    0 -0.24001027917E+01  0.30396615291E+01 -0.71912842604E+00  0.39391853619E+01  0.00000000000E+00 0.  1.
</event>
<event>
 8    1  0.6019723E-011  0.9118800E+02  0.7816164E-02  0.1184000E+00
        -11   -1    0    0    0    0  0.00000000000E+00  0.00000000000E+00  0.45593999997E+02  0.45594000000E+02  0.51100000000E-03 0. -1.
         11   -1    0    0    0    0 -0.00000000000E+00 -0.00000000000E+00 -0.45593999997E+02  0.45594000000E+02  0.51100000000E-03 0.  1.
         23    2    1    2    0    0  0.00000000000E+00  0.00000000000E+00  0.71054273576E-14  0.91188000000E+02  0.91188000000E+02 0.  0.
    9900012    2    3    3    0    0  0.23762545157E+02  0.17017847233E+02 -0.32083602461E+02  0.47787271623E+02  0.20000002639E+02 0.  0.
         12    1    3    3    0    0 -0.23762545157E+02 -0.17017847233E+02  0.32083602461E+02  0.43400728377E+02  0.00000000000E+00 0. -1.
         11    1    4    4    0    0  0.16144290561E+02  0.34302566812E+01 -0.12907321272E+02  0.20952415643E+02  0.51100000000E-03 0. -1.
        -11    1    4    4    0    0  0.13484167599E+01  0.12296282724E+02 -0.12714532830E+02  0.17739113336E+02  0.51100000000E-03 0.  1.
        -12    1    4    4    0    0  0.62698378360E+01  0.12913078273E+01 -0.64617483587E+01  0.90957426440E+01  0.00000000000E+00 0.  1.
</event>
<event>
 8    1  0.6019723E-011  0.9118800E+02  0.7816164E-02  0.1184000E+00
        -11   -1    0    0    0    0  0.00000000000E+00  0.00000000000E+00  0.45593999997E+02  0.45594000000E+02  0.51100000000E-03 0. -1.
         11   -1    0    0    0    0 -0.00000000000E+00 -0.00000000000E+00 -0.45593999997E+02  0.45594000000E+02  0.51100000000E-03 0.  1.
         23    2    1    2    0    0  0.00000000000E+00  0.00000000000E+00  0.00000000000E+00  0.91188000000E+02  0.91188000000E+02 0.  0.
    9900012    2    3    3    0    0 -0.24410413393E+02  0.30015378911E+02  0.19668038398E+02  0.47787274342E+02  0.20000015037E+02 0.  0.
        -12    1    3    3    0    0  0.24410413393E+02 -0.30015378911E+02 -0.19668038398E+02  0.43400725658E+02  0.00000000000E+00 0.  1.
         11    1    4    4    0    0 -0.53970227792E+01  0.20740366519E+02  0.13007697143E+02  0.25069719652E+02  0.51100000000E-03 0. -1.
        -11    1    4    4    0    0 -0.77188896182E+01  0.23631377231E+01  0.46733995661E+01  0.93277189388E+01  0.51100000000E-03 0.  1.
         12    1    4    4    0    0 -0.11294500996E+02  0.69118746690E+01  0.19869416897E+01  0.13389835752E+02  0.00000000000E+00 0. -1.
</event>
<event>
 8    1  0.6019723E-011  0.9118800E+02  0.7816164E-02  0.1184000E+00
        -11   -1    0    0    0    0  0.00000000000E+00  0.00000000000E+00  0.45593999997E+02  0.45594000000E+02  0.51100000000E-03 0. -1.
         11   -1    0    0    0    0 -0.00000000000E+00 -0.00000000000E+00 -0.45593999997E+02  0.45594000000E+02  0.51100000000E-03 0.  1.
         23    2    1    2    0    0  0.00000000000E+00 -0.88817841970E-15  0.00000000000E+00  0.91188000000E+02  0.91188000000E+02 0.  0.
    9900012    2    3    3    0    0 -0.27545245401E+02  0.68949423848E+01 -0.32822893855E+02  0.47787272636E+02  0.20000007257E+02 0.  0.
         12    1    3    3    0    0  0.27545245401E+02 -0.68949423848E+01  0.32822893855E+02  0.43400727364E+02  0.00000000000E+00 0. -1.
         11    1    4    4    0    0 -0.67611556465E+01 -0.10099736669E+00 -0.62253897893E+01  0.91912406362E+01  0.51100000000E-03 0. -1.
        -11    1    4    4    0    0 -0.18051332686E+02  0.82644523650E+01 -0.28717572346E+02  0.34912042999E+02  0.51100000000E-03 0.  1.
         12    1    4    4    0    0 -0.27327570687E+01 -0.12685126135E+01  0.21200682804E+01  0.36839890012E+01  0.00000000000E+00 0. -1.
</event>
<event>
 8    1  0.6019723E-011  0.9118800E+02  0.7816164E-02  0.1184000E+00
        -11   -1    0    0    0    0  0.00000000000E+00  0.00000000000E+00  0.45593999997E+02  0.45594000000E+02  0.51100000000E-03 0. -1.
         11   -1    0    0    0    0 -0.00000000000E+00 -0.00000000000E+00 -0.45593999997E+02  0.45594000000E+02  0.51100000000E-03 0.  1.
         23    2    1    2    0    0 -0.44408920985E-15 -0.44408920985E-15  0.71054273576E-14  0.91188000000E+02  0.91188000000E+02 0.  0.
    9900012    2    3    3    0    0 -0.22634588623E+01 -0.21868106157E+01  0.43286465855E+02  0.47787268290E+02  0.19999987444E+02 0.  0.
        -12    1    3    3    0    0  0.22634588623E+01  0.21868106157E+01 -0.43286465855E+02  0.43400731710E+02  0.00000000000E+00 0.  1.
         11    1    4    4    0    0  0.66726068475E+00  0.73920857391E+01  0.10961384479E+02  0.13237829065E+02  0.51100000000E-03 0. -1.
        -11    1    4    4    0    0 -0.10224066995E+01 -0.61538736991E+01  0.28105405730E+02  0.28789395764E+02  0.51100000000E-03 0.  1.
        -12    1    4    4    0    0 -0.19083128475E+01 -0.34250226558E+01  0.42196756462E+01  0.57600434613E+01  0.00000000000E+00 0.  1.
</event>
<event>
 8    1  0.6019723E-011  0.9118800E+02  0.7816164E-02  0.1184000E+00
        -11   -1    0    0    0    0  0.00000000000E+00  0.00000000000E+00  0.45593999997E+02  0.45594000000E+02  0.51100000000E-03 0. -1.
         11   -1    0    0    0    0 -0.00000000000E+00 -0.00000000000E+00 -0.45593999997E+02  0.45594000000E+02  0.51100000000E-03 0.  1.
         23    2    1    2    0    0  0.35527136788E-14  0.17763568394E-14 -0.71054273576E-14  0.91188000000E+02  0.91188000000E+02 0.  0.
    9900012    2    3    3    0    0 -0.22122321280E+02 -0.97631248251E+01  0.36040359756E+02  0.47787271475E+02  0.20000001965E+02 0.  0.
        -12    1    3    3    0    0  0.22122321280E+02  0.97631248251E+01 -0.36040359756E+02  0.43400728525E+02  0.00000000000E+00 0.  1.
         11    1    4    4    0    0 -0.82749952875E+01 -0.29609826125E+01  0.26628556849E+02  0.28041451552E+02  0.51100000000E-03 0. -1.
        -11    1    4    4    0    0 -0.67505405186E+01 -0.34003941617E+01  0.10731817121E+00  0.75593647352E+01  0.51100000000E-03 0.  1.
        -12    1    4    4    0    0 -0.70967854734E+01 -0.34017480509E+01  0.93044847356E+01  0.12186455188E+02  0.00000000000E+00 0.  1.
</event>
<event>
 8    1  0.6019723E-011  0.9118800E+02  0.7816164E-02  0.1184000E+00
        -11   -1    0    0    0    0  0.00000000000E+00  0.00000000000E+00  0.45593999997E+02  0.45594000000E+02  0.51100000000E-03 0. -1.
         11   -1    0    0    0    0 -0.00000000000E+00 -0.00000000000E+00 -0.45593999997E+02  0.45594000000E+02  0.51100000000E-03 0.  1.
         23    2    1    2    0    0  0.00000000000E+00  0.27755575616E-15 -0.71054273576E-14  0.91188000000E+02  0.91188000000E+02 0.  0.
    9900012    2    3    3    0    0  0.47035328007E+01  0.18741661343E+00  0.43144694988E+02  0.47787273608E+02  0.20000011688E+02 0.  0.
        -12    1    3    3    0    0 -0.47035328007E+01 -0.18741661343E+00 -0.43144694988E+02  0.43400726392E+02  0.00000000000E+00 0.  1.
         11    1    4    4    0    0  0.10611952816E+02 -0.56889228040E+00  0.32478089633E+02  0.34172554594E+02  0.51100000000E-03 0. -1.
        -11    1    4    4    0    0 -0.25104420211E+01 -0.13236196556E+01  0.76147161278E+00  0.29383885741E+01  0.51100000000E-03 0.  1.
         12    1    4    4    0    0 -0.33979779944E+01  0.20799285495E+01  0.99051337417E+01  0.10676330440E+02  0.00000000000E+00 0. -1.
</event>
<event>
 8    1  0.6019723E-011  0.9118800E+02  0.7816164E-02  0.1184000E+00
        -11   -1    0    0    0    0  0.00000000000E+00  0.00000000000E+00  0.45593999997E+02  0.45594000000E+02  0.51100000000E-03 0. -1.
         11   -1    0    0    0    0 -0.00000000000E+00 -0.00000000000E+00 -0.45593999997E+02  0.45594000000E+02  0.51100000000E-03 0.  1.
         23    2    1    2    0    0 -0.26645352591E-14  0.00000000000E+00  0.00000000000E+00  0.91188000000E+02  0.91188000000E+02 0.  0.
    9900012    2    3    3    0    0 -0.66970406884E+01 -0.14536967338E+02  0.40341659796E+02  0.47787270876E+02  0.19999999231E+02 0.  0.
        -12    1    3    3    0    0  0.66970406884E+01  0.14536967338E+02 -0.40341659796E+02  0.43400729124E+02  0.00000000000E+00 0.  1.
         11    1    4    4    0    0  0.58256793467E+00 -0.16010781766E+01 -0.16689971059E+01  0.23850342402E+01  0.51100000000E-03 0. -1.
        -11    1    4    4    0    0 -0.51197093404E+01 -0.17492504116E+01  0.92385681502E+01  0.10706187111E+02  0.51100000000E-03 0.  1.
         12    1    4    4    0    0 -0.21598992827E+01 -0.11186638750E+02  0.32772088752E+02  0.34696049525E+02  0.00000000000E+00 0. -1.
</event>
<event>
 8    1  0.6019723E-011  0.9118800E+02  0.7816164E-02  0.1184000E+00
        -11   -1    0    0    0    0  0.00000000000E+00  0.00000000000E+00  0.45593999997E+02  0.45594000000E+02  0.51100000000E-03 0. -1.
         11   -1    0    0    0    0 -0.00000000000E+00 -0.00000000000E+00 -0.45593999997E+02  0.45594000000E+02  0.51100000000E-03 0.  1.
         23    2    1    2    0    0  0.00000000000E+00  0.11102230246E-14  0.00000000000E+00  0.91188000000E+02  0.91188000000E+02 0.  0.
    9900012    2    3    3    0    0 -0.12760605904E+02  0.13289188375E+01  0.41461115801E+02  0.47787271760E+02  0.20000003263E+02 0.  0.
        -12    1    3    3    0    0  0.12760605904E+02 -0.13289188375E+01 -0.41461115801E+02  0.43400728240E+02  0.00000000000E+00 0.  1.
         11    1    4    4    0    0  0.94698631527E+00 -0.55924763644E+01  0.19875361233E+02  0.20668879007E+02  0.51100000000E-03 0. -1.
        -11    1    4    4    0    0 -0.10326165829E+02  0.77597853086E+01  0.17458767752E+02  0.21717562949E+02  0.51100000000E-03 0.  1.
         12    1    4    4    0    0 -0.33814263905E+01 -0.83839010664E+00  0.41269868153E+01  0.54008298046E+01  0.00000000000E+00 0. -1.
</event>
<event>
 8    1  0.6019723E-011  0.9118800E+02  0.7816164E-02  0.1184000E+00
        -11   -1    0    0    0    0  0.00000000000E+00  0.00000000000E+00  0.45593999997E+02  0.45594000000E+02  0.51100000000E-03 0. -1.
         11   -1    0    0    0    0 -0.00000000000E+00 -0.00000000000E+00 -0.45593999997E+02  0.45594000000E+02  0.51100000000E-03 0.  1.
         23    2    1    2    0    0  0.00000000000E+00 -0.71054273576E-14 -0.35527136788E-14  0.91188000000E+02  0.91188000000E+02 0.  0.
    9900012    2    3    3    0    0 -0.19232509817E+02  0.30032073230E+02  0.24734770569E+02  0.47787265773E+02  0.19999975967E+02 0.  0.
        -12    1    3    3    0    0  0.19232509817E+02 -0.30032073230E+02 -0.24734770569E+02  0.43400734227E+02  0.00000000000E+00 0.  1.
         11    1    4    4    0    0 -0.16730597256E+02  0.10654225189E+02  0.14290139705E+02  0.24446543558E+02  0.51100000000E-03 0. -1.
        -11    1    4    4    0    0 -0.36750174606E+00  0.16213156721E+02  0.10834702828E+02  0.19503648223E+02  0.51100000000E-03 0.  1.
         12    1    4    4    0    0 -0.21344108147E+01  0.31646913203E+01 -0.39007196442E+00  0.38370739915E+01  0.00000000000E+00 0. -1.
</event>
<event>
 8    1  0.6019723E-011  0.9118800E+02  0.7816164E-02  0.1184000E+00
        -11   -1    0    0    0    0  0.00000000000E+00  0.00000000000E+00  0.45593999997E+02  0.45594000000E+02  0.51100000000E-03 0. -1.
         11   -1    0    0    0    0 -0.00000000000E+00 -0.00000000000E+00 -0.45593999997E+02  0.45594000000E+02  0.51100000000E-03 0.  1.
         23    2    1    2    0    0  0.17763568394E-14 -0.44408920985E-15  0.00000000000E+00  0.91188000000E+02  0.91188000000E+02 0.  0.
    9900012    2    3    3    0    0  0.82855498461E+01 -0.15379307402E+01  0.42574734764E+02  0.47787267201E+02  0.19999982478E+02 0.  0.
        -12    1    3    3    0    0 -0.82855498461E+01  0.15379307402E+01 -0.42574734764E+02  0.43400732799E+02  0.00000000000E+00 0.  1.
         11    1    4    4    0    0  0.17067001507E+01 -0.84176783397E+01  0.18435083178E+02  0.20337709460E+02  0.51100000000E-03 0. -1.
        -11    1    4    4    0    0  0.10945009192E+01  0.50447966191E+01  0.19078310252E+02  0.19764357503E+02  0.51100000000E-03 0.  1.
         12    1    4    4    0    0  0.54843487762E+01  0.18349509804E+01  0.50613413345E+01  0.76852002383E+01  0.00000000000E+00 0. -1.
</event>
<event>
 8    1  0.6019723E-011  0.9118800E+02  0.7816164E-02  0.1184000E+00
        -11   -1    0    0    0    0  0.00000000000E+00  0.00000000000E+00  0.45593999997E+02  0.45594000000E+02  0.51100000000E-03 0. -1.
         11   -1    0    0    0    0 -0.00000000000E+00 -0.00000000000E+00 -0.45593999997E+02  0.45594000000E+02  0.51100000000E-03 0.  1.
         23    2    1    2    0    0  0.00000000000E+00  0.00000000000E+00  0.35527136788E-14  0.91188000000E+02  0.91188000000E+02 0.  0.
    9900012    2    3    3    0    0 -0.19317616993E+02  0.24338938226E+02 -0.30299650387E+02  0.47787273579E+02  0.20000011557E+02 0.  0.
         12    1    3    3    0    0  0.19317616993E+02 -0.24338938226E+02  0.30299650387E+02  0.43400726421E+02  0.00000000000E+00 0. -1.
         11    1    4    4    0    0 -0.13024134675E+02  0.26971952389E+01 -0.10635924446E+02  0.17030144898E+02  0.51100000000E-03 0. -1.
        -11    1    4    4    0    0 -0.18536312891E+01  0.11007922744E+02 -0.14033410752E+02  0.17931729691E+02  0.51100000000E-03 0.  1.
        -12    1    4    4    0    0 -0.44398510289E+01  0.10633820243E+02 -0.56303151897E+01  0.12825398990E+02  0.00000000000E+00 0.  1.
</event>
<event>
 8    1  0.6019723E-011  0.9118800E+02  0.7816164E-02  0.1184000E+00
        -11   -1    0    0    0    0  0.00000000000E+00  0.00000000000E+00  0.45593999997E+02  0.45594000000E+02  0.51100000000E-03 0. -1.
         11   -1    0    0    0    0 -0.00000000000E+00 -0.00000000000E+00 -0.45593999997E+02  0.45594000000E+02  0.51100000000E-03 0.  1.
         23    2    1    2    0    0  0.00000000000E+00 -0.71054273576E-14  0.88817841970E-15  0.91188000000E+02  0.91188000000E+02 0.  0.
    9900012    2    3    3    0    0 -0.96311722842E+01  0.41597231365E+02 -0.77803223838E+01  0.47787279347E+02  0.20000037856E+02 0.  0.
         12    1    3    3    0    0  0.96311722842E+01 -0.41597231365E+02  0.77803223838E+01  0.43400720653E+02  0.00000000000E+00 0. -1.
         11    1    4    4    0    0 -0.23978570587E+01  0.23097006222E+02  0.42063529348E+01  0.23599042781E+02  0.51100000000E-03 0. -1.
        -11    1    4    4    0    0 -0.26026172944E+01  0.71408646679E+01 -0.85692226658E+01  0.11454132108E+02  0.51100000000E-03 0.  1.
         12    1    4    4    0    0 -0.46306979312E+01  0.11359360475E+02 -0.34174526527E+01  0.12734104458E+02  0.00000000000E+00 0. -1.
</event>
<event>
 8    1  0.6136545E-011  0.9118800E+02  0.7816164E-02  0.1184000E+00
        -11   -1    0    0    0    0  0.00000000000E+00  0.00000000000E+00  0.45593999997E+02  0.45594000000E+02  0.51100000000E-03 0. -1.
         11   -1    0    0    0    0 -0.00000000000E+00 -0.00000000000E+00 -0.45593999997E+02  0.45594000000E+02  0.51100000000E-03 0.  1.
         23    2    1    2    0    0  0.35527136788E-14  0.22204460493E-15  0.71054273576E-14  0.91188000000E+02  0.91188000000E+02 0.  0.
    9900012    2    3    3    0    0 -0.14969545220E+02  0.15376139323E+00 -0.40737113194E+02  0.47787270536E+02  0.19999997681E+02 0.  0.
         12    1    3    3    0    0  0.14969545220E+02 -0.15376139323E+00  0.40737113194E+02  0.43400729464E+02  0.00000000000E+00 0. -1.
         11    1    4    4    0    0  0.32585512718E+01  0.34813818862E+01 -0.34825487009E+01  0.59047711170E+01  0.51100000000E-03 0. -1.
        -11    1    4    4    0    0 -0.73380157765E+01 -0.37134389744E+01 -0.16886201943E+02  0.18782436500E+02  0.51100000000E-03 0.  1.
         12    1    4    4    0    0 -0.10890080716E+02  0.38581848145E+00 -0.20368362549E+02  0.23100062918E+02  0.00000000000E+00 0. -1.
</event>
<event>
 8    1  0.6019723E-011  0.9118800E+02  0.7816164E-02  0.1184000E+00
        -11   -1    0    0    0    0  0.00000000000E+00  0.00000000000E+00  0.45593999997E+02  0.45594000000E+02  0.51100000000E-03 0. -1.
         11   -1    0    0    0    0 -0.00000000000E+00 -0.00000000000E+00 -0.45593999997E+02  0.45594000000E+02  0.51100000000E-03 0.  1.
         23    2    1    2    0    0  0.00000000000E+00  0.00000000000E+00  0.00000000000E+00  0.91188000000E+02  0.91188000000E+02 0.  0.
    9900012    2    3    3    0    0 -0.32305557045E+02  0.23348420426E+02 -0.17170523522E+02  0.47787255416E+02  0.19999928746E+02 0.  0.
         12    1    3    3    0    0  0.32305557045E+02 -0.23348420426E+02  0.17170523522E+02  0.43400744584E+02  0.00000000000E+00 0. -1.
         11    1    4    4    0    0 -0.57248073229E+01 -0.16492511868E+01 -0.68351930737E+01  0.90671557270E+01  0.51100000000E-03 0.  1.
        -11    1    4    4    0    0 -0.24921453061E+02  0.22162375311E+02 -0.70767758082E+01  0.34092967870E+02  0.51100000000E-03 0. -1.
         12    1    4    4    0    0 -0.16592966611E+01  0.28352963025E+01 -0.32585546402E+01  0.46271318195E+01  0.00000000000E+00 0. -1.
</event>
<event>
 8    1  0.6019723E-011  0.9118800E+02  0.7816164E-02  0.1184000E+00
        -11   -1    0    0    0    0  0.00000000000E+00  0.00000000000E+00  0.45593999997E+02  0.45594000000E+02  0.51100000000E-03 0. -1.
         11   -1    0    0    0    0 -0.00000000000E+00 -0.00000000000E+00 -0.45593999997E+02  0.45594000000E+02  0.51100000000E-03 0.  1.
         23    2    1    2    0    0  0.35527136788E-14 -0.71054273576E-14 -0.44408920985E-15  0.91188000000E+02  0.91188000000E+02 0.  0.
    9900012    2    3    3    0    0 -0.14389078758E+02  0.40788415359E+02 -0.35892581422E+01  0.47787272022E+02  0.20000004457E+02 0.  0.
        -12    1    3    3    0    0  0.14389078758E+02 -0.40788415359E+02  0.35892581422E+01  0.43400727978E+02  0.00000000000E+00 0.  1.
         11    1    4    4    0    0 -0.10273794884E+02  0.28739691748E+02 -0.79187731065E+01  0.31531376609E+02  0.51100000000E-03 0. -1.
        -11    1    4    4    0    0 -0.37675501918E+01  0.13415045818E+02  0.48485411624E+01  0.14753516205E+02  0.51100000000E-03 0.  1.
        -12    1    4    4    0    0 -0.34773368292E+00 -0.13663222076E+01 -0.51902619820E+00  0.15023792076E+01  0.00000000000E+00 0.  1.
</event>
<event>
 8    1  0.6019723E-011  0.9118800E+02  0.7816164E-02  0.1184000E+00
        -11   -1    0    0    0    0  0.00000000000E+00  0.00000000000E+00  0.45593999997E+02  0.45594000000E+02  0.51100000000E-03 0. -1.
         11   -1    0    0    0    0 -0.00000000000E+00 -0.00000000000E+00 -0.45593999997E+02  0.45594000000E+02  0.51100000000E-03 0.  1.
         23    2    1    2    0    0  0.00000000000E+00  0.00000000000E+00  0.00000000000E+00  0.91188000000E+02  0.91188000000E+02 0.  0.
    9900012    2    3    3    0    0 -0.33637333761E+02 -0.18200522369E+02 -0.20515704465E+02  0.47787269974E+02  0.19999995121E+02 0.  0.
         12    1    3    3    0    0  0.33637333761E+02  0.18200522369E+02  0.20515704465E+02  0.43400730026E+02  0.00000000000E+00 0. -1.
         11    1    4    4    0    0 -0.12558777310E+02 -0.14344801021E+02 -0.37390562061E+01  0.19428760780E+02  0.51100000000E-03 0. -1.
        -11    1    4    4    0    0 -0.15997392982E+02 -0.49923395258E+01 -0.15856778265E+02  0.23071138970E+02  0.51100000000E-03 0.  1.
        -12    1    4    4    0    0 -0.50811634698E+01  0.11366181781E+01 -0.91986999337E+00  0.52873702248E+01  0.00000000000E+00 0.  1.
</event>
<event>
 8    1  0.6019723E-011  0.9118800E+02  0.7816164E-02  0.1184000E+00
        -11   -1    0    0    0    0  0.00000000000E+00  0.00000000000E+00  0.45593999997E+02  0.45594000000E+02  0.51100000000E-03 0. -1.
         11   -1    0    0    0    0 -0.00000000000E+00 -0.00000000000E+00 -0.45593999997E+02  0.45594000000E+02  0.51100000000E-03 0.  1.
         23    2    1    2    0    0  0.11102230246E-15  0.00000000000E+00  0.00000000000E+00  0.91188000000E+02  0.91188000000E+02 0.  0.
    9900012    2    3    3    0    0  0.31050282289E+00  0.15396153789E+02  0.40576906427E+02  0.47787270759E+02  0.19999998697E+02 0.  0.
        -12    1    3    3    0    0 -0.31050282289E+00 -0.15396153789E+02 -0.40576906427E+02  0.43400729241E+02  0.00000000000E+00 0.  1.
         11    1    4    4    0    0  0.66077059955E+01  0.11645798315E+01  0.22502325905E+02  0.23481326540E+02  0.51100000000E-03 0. -1.
        -11    1    4    4    0    0 -0.35869055793E+01  0.10623336256E+02  0.98497996125E+01  0.14924467076E+02  0.51100000000E-03 0.  1.
         12    1    4    4    0    0 -0.27102975933E+01  0.36082377009E+01  0.82247809098E+01  0.93814771420E+01  0.00000000000E+00 0. -1.
</event>
<event>
 8    1  0.6019723E-011  0.9118800E+02  0.7816164E-02  0.1184000E+00
        -11   -1    0    0    0    0  0.00000000000E+00  0.00000000000E+00  0.45593999997E+02  0.45594000000E+02  0.51100000000E-03 0. -1.
         11   -1    0    0    0    0 -0.00000000000E+00 -0.00000000000E+00 -0.45593999997E+02  0.45594000000E+02  0.51100000000E-03 0.  1.
         23    2    1    2    0    0  0.17763568394E-14  0.00000000000E+00  0.00000000000E+00  0.91188000000E+02  0.91188000000E+02 0.  0.
    9900012    2    3    3    0    0 -0.97519563970E+01 -0.47835231852E+01  0.42019528269E+02  0.47787268398E+02  0.19999987935E+02 0.  0.
        -12    1    3    3    0    0  0.97519563970E+01  0.47835231852E+01 -0.42019528269E+02  0.43400731602E+02  0.00000000000E+00 0.  1.
         11    1    4    4    0    0  0.42116541149E+01  0.92295309144E+00  0.20053394483E+01  0.47551297939E+01  0.51100000000E-03 0. -1.
        -11    1    4    4    0    0 -0.22965472184E+01 -0.18463434005E+01  0.39252435562E+01  0.49082227248E+01  0.51100000000E-03 0.  1.
         12    1    4    4    0    0 -0.11667063294E+02 -0.38601328762E+01  0.36088945264E+02  0.38123915880E+02  0.00000000000E+00 0. -1.
</event>
<event>
 8    1  0.6019723E-011  0.9118800E+02  0.7816164E-02  0.1184000E+00
        -11   -1    0    0    0    0  0.00000000000E+00  0.00000000000E+00  0.45593999997E+02  0.45594000000E+02  0.51100000000E-03 0. -1.
         11   -1    0    0    0    0 -0.00000000000E+00 -0.00000000000E+00 -0.45593999997E+02  0.45594000000E+02  0.51100000000E-03 0.  1.
         23    2    1    2    0    0  0.17763568394E-14  0.00000000000E+00  0.00000000000E+00  0.91188000000E+02  0.91188000000E+02 0.  0.
    9900012    2    3    3    0    0 -0.11116634296E+02  0.84771495862E+01  0.41087487631E+02  0.47787271169E+02  0.20000000569E+02 0.  0.
        -12    1    3    3    0    0  0.11116634296E+02 -0.84771495862E+01 -0.41087487631E+02  0.43400728831E+02  0.00000000000E+00 0.  1.
         11    1    4    4    0    0 -0.84351760983E+01  0.12160903656E+02  0.29402702329E+02  0.32917452485E+02  0.51100000000E-03 0. -1.
        -11    1    4    4    0    0  0.16256592516E+01 -0.16222900735E+01  0.54326826357E-01  0.22972907413E+01  0.51100000000E-03 0.  1.
         12    1    4    4    0    0 -0.43071174489E+01 -0.20614639968E+01  0.11630458476E+02  0.12572527943E+02  0.00000000000E+00 0. -1.
</event>
<event>
 8    1  0.6019723E-011  0.9118800E+02  0.7816164E-02  0.1184000E+00
        -11   -1    0    0    0    0  0.00000000000E+00  0.00000000000E+00  0.45593999997E+02  0.45594000000E+02  0.51100000000E-03 0. -1.
         11   -1    0    0    0    0 -0.00000000000E+00 -0.00000000000E+00 -0.45593999997E+02  0.45594000000E+02  0.51100000000E-03 0.  1.
         23    2    1    2    0    0 -0.17763568394E-14  0.00000000000E+00  0.71054273576E-14  0.91188000000E+02  0.91188000000E+02 0.  0.
    9900012    2    3    3    0    0 -0.14599429099E+02 -0.20504611374E+02  0.35355919191E+02  0.47787269137E+02  0.19999991304E+02 0.  0.
        -12    1    3    3    0    0  0.14599429099E+02  0.20504611374E+02 -0.35355919191E+02  0.43400730863E+02  0.00000000000E+00 0.  1.
         11    1    4    4    0    0 -0.13728742215E+02 -0.15122731772E+02  0.32851007308E+02  0.38682865205E+02  0.51100000000E-03 0. -1.
        -11    1    4    4    0    0  0.23179408186E+01 -0.32485020610E+01  0.33095178655E+01  0.51844502160E+01  0.51100000000E-03 0.  1.
         12    1    4    4    0    0 -0.31886277021E+01 -0.21333775404E+01 -0.80460598224E+00  0.39199537165E+01  0.00000000000E+00 0. -1.
</event>
<event>
 8    1  0.6019723E-011  0.9118800E+02  0.7816164E-02  0.1184000E+00
        -11   -1    0    0    0    0  0.00000000000E+00  0.00000000000E+00  0.45593999997E+02  0.45594000000E+02  0.51100000000E-03 0. -1.
         11   -1    0    0    0    0 -0.00000000000E+00 -0.00000000000E+00 -0.45593999997E+02  0.45594000000E+02  0.51100000000E-03 0.  1.
         23    2    1    2    0    0  0.00000000000E+00  0.00000000000E+00  0.00000000000E+00  0.91188000000E+02  0.91188000000E+02 0.  0.
    9900012    2    3    3    0    0 -0.28000618667E+02  0.38789525200E+01  0.32932393144E+02  0.47787269170E+02  0.19999991453E+02 0.  0.
        -12    1    3    3    0    0  0.28000618667E+02 -0.38789525200E+01 -0.32932393144E+02  0.43400730830E+02  0.00000000000E+00 0.  1.
         11    1    4    4    0    0 -0.20140173499E+02 -0.42654937627E+01  0.17918219428E+02  0.27292556006E+02  0.51100000000E-03 0. -1.
        -11    1    4    4    0    0 -0.43474918369E+01  0.78842783892E+01  0.60075410552E+01  0.10823727675E+02  0.51100000000E-03 0.  1.
        -12    1    4    4    0    0 -0.35129533316E+01  0.26016789354E+00  0.90066326610E+01  0.96709854893E+01  0.00000000000E+00 0.  1.
</event>
<event>
 8    1  0.6019723E-011  0.9118800E+02  0.7816164E-02  0.1184000E+00
        -11   -1    0    0    0    0  0.00000000000E+00  0.00000000000E+00  0.45593999997E+02  0.45594000000E+02  0.51100000000E-03 0. -1.
         11   -1    0    0    0    0 -0.00000000000E+00 -0.00000000000E+00 -0.45593999997E+02  0.45594000000E+02  0.51100000000E-03 0.  1.
         23    2    1    2    0    0  0.00000000000E+00  0.00000000000E+00  0.00000000000E+00  0.91188000000E+02  0.91188000000E+02 0.  0.
    9900012    2    3    3    0    0  0.12672786275E+02 -0.24048492896E+02  0.33833324442E+02  0.47787269990E+02  0.19999995194E+02 0.  0.
        -12    1    3    3    0    0 -0.12672786275E+02  0.24048492896E+02 -0.33833324442E+02  0.43400730010E+02  0.00000000000E+00 0.  1.
         11    1    4    4    0    0  0.90273209032E+01 -0.99327086139E+01  0.25125242627E+02  0.28485593560E+02  0.51100000000E-03 0. -1.
        -11    1    4    4    0    0 -0.14504484335E+01 -0.31913277626E+01  0.59964320590E+01  0.69459031987E+01  0.51100000000E-03 0.  1.
         12    1    4    4    0    0  0.50959138051E+01 -0.10924456520E+02  0.27116497559E+01  0.12355773232E+02  0.00000000000E+00 0. -1.
</event>
<event>
 8    1  0.6019723E-011  0.9118800E+02  0.7816164E-02  0.1184000E+00
        -11   -1    0    0    0    0  0.00000000000E+00  0.00000000000E+00  0.45593999997E+02  0.45594000000E+02  0.51100000000E-03 0. -1.
         11   -1    0    0    0    0 -0.00000000000E+00 -0.00000000000E+00 -0.45593999997E+02  0.45594000000E+02  0.51100000000E-03 0.  1.
         23    2    1    2    0    0  0.15543122345E-14  0.00000000000E+00 -0.71054273576E-14  0.91188000000E+02  0.91188000000E+02 0.  0.
    9900012    2    3    3    0    0  0.68942322293E+00  0.10553720896E+02 -0.42092362501E+02  0.47787270628E+02  0.19999998102E+02 0.  0.
         12    1    3    3    0    0 -0.68942322293E+00 -0.10553720896E+02  0.42092362501E+02  0.43400729372E+02  0.00000000000E+00 0. -1.
         11    1    4    4    0    0 -0.59079760000E+01  0.49948320164E+01 -0.32566010861E+02  0.33472340685E+02  0.51100000000E-03 0. -1.
        -11    1    4    4    0    0  0.61523487168E+01  0.28198327422E+01 -0.93392904280E+01  0.11533654988E+02  0.51100000000E-03 0.  1.
         12    1    4    4    0    0  0.44505050609E+00  0.27390561372E+01 -0.18706121133E+00  0.27812749545E+01  0.00000000000E+00 0. -1.
</event>
<event>
 8    1  0.6019723E-011  0.9118800E+02  0.7816164E-02  0.1184000E+00
        -11   -1    0    0    0    0  0.00000000000E+00  0.00000000000E+00  0.45593999997E+02  0.45594000000E+02  0.51100000000E-03 0. -1.
         11   -1    0    0    0    0 -0.00000000000E+00 -0.00000000000E+00 -0.45593999997E+02  0.45594000000E+02  0.51100000000E-03 0.  1.
         23    2    1    2    0    0  0.00000000000E+00  0.00000000000E+00  0.00000000000E+00  0.91188000000E+02  0.91188000000E+02 0.  0.
    9900012    2    3    3    0    0 -0.48595539794E+01 -0.30695222583E+02 -0.30295395561E+02  0.47787274817E+02  0.20000017199E+02 0.  0.
         12    1    3    3    0    0  0.48595539794E+01  0.30695222583E+02  0.30295395561E+02  0.43400725183E+02  0.00000000000E+00 0. -1.
         11    1    4    4    0    0  0.40020050211E+01 -0.23139581726E+01 -0.81463740298E+01  0.93666352927E+01  0.51100000000E-03 0. -1.
        -11    1    4    4    0    0 -0.19112134110E+01 -0.11907616587E+02 -0.34383707975E+01  0.12540592629E+02  0.51100000000E-03 0.  1.
         12    1    4    4    0    0 -0.69503455894E+01 -0.16473647823E+02 -0.18710650733E+02  0.25880046895E+02  0.00000000000E+00 0. -1.
</event>
<event>
 8    1  0.6019723E-011  0.9118800E+02  0.7816164E-02  0.1184000E+00
        -11   -1    0    0    0    0  0.00000000000E+00  0.00000000000E+00  0.45593999997E+02  0.45594000000E+02  0.51100000000E-03 0. -1.
         11   -1    0    0    0    0 -0.00000000000E+00 -0.00000000000E+00 -0.45593999997E+02  0.45594000000E+02  0.51100000000E-03 0.  1.
         23    2    1    2    0    0  0.00000000000E+00  0.00000000000E+00 -0.35527136788E-14  0.91188000000E+02  0.91188000000E+02 0.  0.
    9900012    2    3    3    0    0  0.23379260225E+02 -0.26741797648E+02 -0.24938110776E+02  0.47787275130E+02  0.20000018627E+02 0.  0.
         12    1    3    3    0    0 -0.23379260225E+02  0.26741797648E+02  0.24938110776E+02  0.43400724870E+02  0.00000000000E+00 0. -1.
         11    1    4    4    0    0  0.37597523911E+01 -0.14553005778E+02 -0.22052709540E+01  0.15191739053E+02  0.51100000000E-03 0. -1.
        -11    1    4    4    0    0  0.11082924333E+02 -0.57863893973E+01 -0.10200573188E+02  0.16135836131E+02  0.51100000000E-03 0.  1.
         12    1    4    4    0    0  0.85365835010E+01 -0.64024024736E+01 -0.12532266635E+02  0.16459699946E+02  0.00000000000E+00 0. -1.
</event>
<event>
 8    1  0.6019723E-011  0.9118800E+02  0.7816164E-02  0.1184000E+00
        -11   -1    0    0    0    0  0.00000000000E+00  0.00000000000E+00  0.45593999997E+02  0.45594000000E+02  0.51100000000E-03 0. -1.
         11   -1    0    0    0    0 -0.00000000000E+00 -0.00000000000E+00 -0.45593999997E+02  0.45594000000E+02  0.51100000000E-03 0.  1.
         23    2    1    2    0    0  0.88817841970E-15  0.71054273576E-14  0.66613381478E-15  0.91188000000E+02  0.91188000000E+02 0.  0.
    9900012    2    3    3    0    0 -0.73053278399E+01 -0.42774335731E+02  0.78201601715E+00  0.47787272344E+02  0.20000005924E+02 0.  0.
        -12    1    3    3    0    0  0.73053278399E+01  0.42774335731E+02 -0.78201601715E+00  0.43400727656E+02  0.00000000000E+00 0.  1.
         11    1    4    4    0    0 -0.64371029216E+00 -0.38178473482E+01  0.20665758591E+01  0.43887421156E+01  0.51100000000E-03 0. -1.
        -11    1    4    4    0    0 -0.12434836958E+01 -0.22754776535E+02  0.77532152648E+01  0.24071527872E+02  0.51100000000E-03 0.  1.
        -12    1    4    4    0    0 -0.54181338519E+01 -0.16201711847E+02 -0.90377751067E+01  0.19327002357E+02  0.00000000000E+00 0.  1.
</event>
<event>
 8    1  0.6019723E-011  0.9118800E+02  0.7816164E-02  0.1184000E+00
        -11   -1    0    0    0    0  0.00000000000E+00  0.00000000000E+00  0.45593999997E+02  0.45594000000E+02  0.51100000000E-03 0. -1.
         11   -1    0    0    0    0 -0.00000000000E+00 -0.00000000000E+00 -0.45593999997E+02  0.45594000000E+02  0.51100000000E-03 0.  1.
         23    2    1    2    0    0  0.00000000000E+00  0.00000000000E+00  0.00000000000E+00  0.91188000000E+02  0.91188000000E+02 0.  0.
    9900012    2    3    3    0    0  0.10175223820E+02 -0.37066735041E+02  0.20153047246E+02  0.47787270286E+02  0.19999996541E+02 0.  0.
        -12    1    3    3    0    0 -0.10175223820E+02  0.37066735041E+02 -0.20153047246E+02  0.43400729714E+02  0.00000000000E+00 0.  1.
         11    1    4    4    0    0  0.50271619091E+01 -0.25137672404E+02  0.20120702136E+02  0.32588611284E+02  0.51100000000E-03 0. -1.
        -11    1    4    4    0    0 -0.16828088368E+01 -0.31843346971E+01  0.16911343639E+01  0.39789155234E+01  0.51100000000E-03 0.  1.
         12    1    4    4    0    0  0.68308707478E+01 -0.87447279403E+01 -0.16587892533E+01  0.11219743478E+02  0.00000000000E+00 0. -1.
</event>
<event>
 8    1  0.6019723E-011  0.9118800E+02  0.7816164E-02  0.1184000E+00
        -11   -1    0    0    0    0  0.00000000000E+00  0.00000000000E+00  0.45593999997E+02  0.45594000000E+02  0.51100000000E-03 0. -1.
         11   -1    0    0    0    0 -0.00000000000E+00 -0.00000000000E+00 -0.45593999997E+02  0.45594000000E+02  0.51100000000E-03 0.  1.
         23    2    1    2    0    0  0.00000000000E+00  0.35527136788E-14  0.00000000000E+00  0.91188000000E+02  0.91188000000E+02 0.  0.
    9900012    2    3    3    0    0 -0.12038435308E+01  0.31918466003E+02  0.29383436328E+02  0.47787262199E+02  0.19999959669E+02 0.  0.
        -12    1    3    3    0    0  0.12038435308E+01 -0.31918466003E+02 -0.29383436328E+02  0.43400737801E+02  0.00000000000E+00 0.  1.
         11    1    4    4    0    0 -0.25811428051E+01  0.11662971089E+02  0.10450942038E+02  0.15871653429E+02  0.51100000000E-03 0. -1.
        -11    1    4    4    0    0 -0.51238823070E+01  0.42662698717E+01  0.11128464666E+02  0.12972970154E+02  0.51100000000E-03 0.  1.
        -12    1    4    4    0    0  0.65011815812E+01  0.15989225042E+02  0.78040296236E+01  0.18942638617E+02  0.00000000000E+00 0.  1.
</event>
<event>
 8    1  0.6019723E-011  0.9118800E+02  0.7816164E-02  0.1184000E+00
        -11   -1    0    0    0    0  0.00000000000E+00  0.00000000000E+00  0.45593999997E+02  0.45594000000E+02  0.51100000000E-03 0. -1.
         11   -1    0    0    0    0 -0.00000000000E+00 -0.00000000000E+00 -0.45593999997E+02  0.45594000000E+02  0.51100000000E-03 0.  1.
         23    2    1    2    0    0  0.00000000000E+00  0.44408920985E-15 -0.71054273576E-14  0.91188000000E+02  0.91188000000E+02 0.  0.
    9900012    2    3    3    0    0  0.87803941888E+01  0.37575882419E+01  0.42336851796E+02  0.47787264851E+02  0.19999971760E+02 0.  0.
        -12    1    3    3    0    0 -0.87803941888E+01 -0.37575882419E+01 -0.42336851796E+02  0.43400735149E+02  0.00000000000E+00 0.  1.
         11    1    4    4    0    0  0.25572420035E+01  0.25314345792E+01  0.37285105123E+02  0.37458333011E+02  0.51100000000E-03 0. -1.
        -11    1    4    4    0    0  0.41693261029E+01  0.30994876670E+01  0.81076593551E+00  0.52580838348E+01  0.51100000000E-03 0.  1.
         12    1    4    4    0    0  0.20538260824E+01 -0.18733340044E+01  0.42409807373E+01  0.50708480043E+01  0.00000000000E+00 0. -1.
</event>
<event>
 8    1  0.6019723E-011  0.9118800E+02  0.7816164E-02  0.1184000E+00
        -11   -1    0    0    0    0  0.00000000000E+00  0.00000000000E+00  0.45593999997E+02  0.45594000000E+02  0.51100000000E-03 0. -1.
         11   -1    0    0    0    0 -0.00000000000E+00 -0.00000000000E+00 -0.45593999997E+02  0.45594000000E+02  0.51100000000E-03 0.  1.
         23    2    1    2    0    0 -0.17763568394E-14 -0.71054273576E-14  0.35527136788E-14  0.91188000000E+02  0.91188000000E+02 0.  0.
    9900012    2    3    3    0    0 -0.12137866938E+02  0.32434155621E+02 -0.26159528943E+02  0.47787271675E+02  0.20000002874E+02 0.  0.
         12    1    3    3    0    0  0.12137866938E+02 -0.32434155621E+02  0.26159528943E+02  0.43400728325E+02  0.00000000000E+00 0. -1.
         11    1    4    4    0    0 -0.19912407708E+01  0.38563587068E+01 -0.68013581729E+01  0.80681482101E+01  0.51100000000E-03 0. -1.
        -11    1    4    4    0    0  0.71408453249E+00  0.42565342854E+01 -0.10977925772E+02  0.11795882983E+02  0.51100000000E-03 0.  1.
        -12    1    4    4    0    0 -0.10860710700E+02  0.24321262629E+02 -0.83802449984E+01  0.27923240482E+02  0.00000000000E+00 0.  1.
</event>
<event>
 8    1  0.6019723E-011  0.9118800E+02  0.7816164E-02  0.1184000E+00
        -11   -1    0    0    0    0  0.00000000000E+00  0.00000000000E+00  0.45593999997E+02  0.45594000000E+02  0.51100000000E-03 0. -1.
         11   -1    0    0    0    0 -0.00000000000E+00 -0.00000000000E+00 -0.45593999997E+02  0.45594000000E+02  0.51100000000E-03 0.  1.
         23    2    1    2    0    0  0.00000000000E+00  0.00000000000E+00  0.00000000000E+00  0.91188000000E+02  0.91188000000E+02 0.  0.
    9900012    2    3    3    0    0 -0.31644895316E+02 -0.18404992905E+02 -0.23312646105E+02  0.47787278441E+02  0.20000033725E+02 0.  0.
         12    1    3    3    0    0  0.31644895316E+02  0.18404992905E+02  0.23312646105E+02  0.43400721559E+02  0.00000000000E+00 0. -1.
         11    1    4    4    0    0 -0.76240391920E+01 -0.24541538212E+01 -0.12655793810E+01  0.81086704219E+01  0.51100000000E-03 0. -1.
        -11    1    4    4    0    0  0.14157727397E+00  0.25510903792E+01 -0.18266714439E+01  0.31408334997E+01  0.51100000000E-03 0.  1.
        -12    1    4    4    0    0 -0.24162433398E+02 -0.18501929463E+02 -0.20220395280E+02  0.36537774520E+02  0.00000000000E+00 0.  1.
</event>
<event>
 8    1  0.6019723E-011  0.9118800E+02  0.7816164E-02  0.1184000E+00
        -11   -1    0    0    0    0  0.00000000000E+00  0.00000000000E+00  0.45593999997E+02  0.45594000000E+02  0.51100000000E-03 0. -1.
         11   -1    0    0    0    0 -0.00000000000E+00 -0.00000000000E+00 -0.45593999997E+02  0.45594000000E+02  0.51100000000E-03 0.  1.
         23    2    1    2    0    0  0.00000000000E+00  0.35527136788E-14  0.00000000000E+00  0.91188000000E+02  0.91188000000E+02 0.  0.
    9900012    2    3    3    0    0  0.24784012245E+02 -0.29673710534E+02 -0.19719201235E+02  0.47787271237E+02  0.20000000877E+02 0.  0.
         12    1    3    3    0    0 -0.24784012245E+02  0.29673710534E+02  0.19719201235E+02  0.43400728763E+02  0.00000000000E+00 0. -1.
         11    1    4    4    0    0  0.86518845742E+01 -0.14679743111E+02 -0.75819146473E+01  0.18650345693E+02  0.51100000000E-03 0. -1.
        -11    1    4    4    0    0  0.14533858916E+02 -0.37822413264E+01 -0.84205713989E+01  0.17217561598E+02  0.51100000000E-03 0.  1.
        -12    1    4    4    0    0  0.15982687550E+01 -0.11211726096E+02 -0.37167151889E+01  0.11919363946E+02  0.00000000000E+00 0.  1.
</event>
<event>
 8    1  0.6019723E-011  0.9118800E+02  0.7816164E-02  0.1184000E+00
        -11   -1    0    0    0    0  0.00000000000E+00  0.00000000000E+00  0.45593999997E+02  0.45594000000E+02  0.51100000000E-03 0. -1.
         11   -1    0    0    0    0 -0.00000000000E+00 -0.00000000000E+00 -0.45593999997E+02  0.45594000000E+02  0.51100000000E-03 0.  1.
         23    2    1    2    0    0  0.00000000000E+00  0.00000000000E+00 -0.71054273576E-14  0.91188000000E+02  0.91188000000E+02 0.  0.
    9900012    2    3    3    0    0  0.24034114193E+02 -0.14763285677E+02 -0.32985302346E+02  0.47787269362E+02  0.19999992329E+02 0.  0.
         12    1    3    3    0    0 -0.24034114193E+02  0.14763285677E+02  0.32985302346E+02  0.43400730638E+02  0.00000000000E+00 0. -1.
         11    1    4    4    0    0  0.12803008507E+02  0.95482969595E+00 -0.63847572313E+01  0.14338544269E+02  0.51100000000E-03 0. -1.
        -11    1    4    4    0    0  0.79590142280E+00 -0.58443350593E+01 -0.83224956925E+01  0.10200668908E+02  0.51100000000E-03 0.  1.
         12    1    4    4    0    0  0.10435204263E+02 -0.98737803141E+01 -0.18278049422E+02  0.23248056185E+02  0.00000000000E+00 0. -1.
</event>
<event>
 8    1  0.6019723E-011  0.9118800E+02  0.7816164E-02  0.1184000E+00
        -11   -1    0    0    0    0  0.00000000000E+00  0.00000000000E+00  0.45593999997E+02  0.45594000000E+02  0.51100000000E-03 0. -1.
         11   -1    0    0    0    0 -0.00000000000E+00 -0.00000000000E+00 -0.45593999997E+02  0.45594000000E+02  0.51100000000E-03 0.  1.
         23    2    1    2    0    0  0.00000000000E+00  0.00000000000E+00  0.00000000000E+00  0.91188000000E+02  0.91188000000E+02 0.  0.
    9900012    2    3    3    0    0  0.19806032975E+02  0.25131070481E+02  0.29321901656E+02  0.47787267720E+02  0.19999984842E+02 0.  0.
        -12    1    3    3    0    0 -0.19806032975E+02 -0.25131070481E+02 -0.29321901656E+02  0.43400732280E+02  0.00000000000E+00 0.  1.
         11    1    4    4    0    0  0.71461594786E+01  0.10606419446E+02  0.13224392998E+02  0.18396964402E+02  0.51100000000E-03 0. -1.
        -11    1    4    4    0    0  0.15164838328E+02  0.14201905358E+02  0.16854827605E+02  0.26753535303E+02  0.51100000000E-03 0.  1.
        -12    1    4    4    0    0 -0.25049648320E+01  0.32274567638E+00 -0.75731894702E+00  0.26367680157E+01  0.00000000000E+00 0.  1.
</event>
<event>
 8    1  0.6019723E-011  0.9118800E+02  0.7816164E-02  0.1184000E+00
        -11   -1    0    0    0    0  0.00000000000E+00  0.00000000000E+00  0.45593999997E+02  0.45594000000E+02  0.51100000000E-03 0. -1.
         11   -1    0    0    0    0 -0.00000000000E+00 -0.00000000000E+00 -0.45593999997E+02  0.45594000000E+02  0.51100000000E-03 0.  1.
         23    2    1    2    0    0  0.35527136788E-14  0.00000000000E+00  0.00000000000E+00  0.91188000000E+02  0.91188000000E+02 0.  0.
    9900012    2    3    3    0    0 -0.21931149116E+02 -0.14229880631E+02  0.34643274432E+02  0.47787294157E+02  0.20000105378E+02 0.  0.
        -12    1    3    3    0    0  0.21931149116E+02  0.14229880631E+02 -0.34643274432E+02  0.43400705843E+02  0.00000000000E+00 0.  1.
         11    1    4    4    0    0 -0.14484020761E+02 -0.14863247153E+02  0.19767322891E+02  0.28660949529E+02  0.51100000000E-03 0. -1.
        -11    1    4    4    0    0 -0.85227092589E+01  0.26258963582E+01  0.83432635711E+01  0.12212368815E+02  0.51100000000E-03 0.  1.
        -12    1    4    4    0    0  0.10755809039E+01 -0.19925298357E+01  0.65326879702E+01  0.69139758130E+01  0.00000000000E+00 0.  1.
</event>
<event>
 8    1  0.6019723E-011  0.9118800E+02  0.7816164E-02  0.1184000E+00
        -11   -1    0    0    0    0  0.00000000000E+00  0.00000000000E+00  0.45593999997E+02  0.45594000000E+02  0.51100000000E-03 0.  1.
         11   -1    0    0    0    0 -0.00000000000E+00 -0.00000000000E+00 -0.45593999997E+02  0.45594000000E+02  0.51100000000E-03 0. -1.
         23    2    1    2    0    0  0.35527136788E-14  0.00000000000E+00 -0.17763568394E-14  0.91188000000E+02  0.91188000000E+02 0.  0.
    9900012    2    3    3    0    0  0.21837130053E+02  0.36251375762E+02 -0.96229363852E+01  0.47787269612E+02  0.19999993467E+02 0.  0.
         12    1    3    3    0    0 -0.21837130053E+02 -0.36251375762E+02  0.96229363852E+01  0.43400730388E+02  0.00000000000E+00 0. -1.
         11    1    4    4    0    0 -0.28152007423E+01  0.92995923216E+01 -0.33371201667E+01  0.10273467956E+02  0.51100000000E-03 0. -1.
        -11    1    4    4    0    0  0.16011766220E+02  0.21332110040E+02 -0.47614043020E+01  0.27094400666E+02  0.51100000000E-03 0.  1.
        -12    1    4    4    0    0  0.86405645752E+01  0.56196734003E+01 -0.15244119164E+01  0.10419400990E+02  0.00000000000E+00 0.  1.
</event>
<event>
 8    1  0.6019723E-011  0.9118800E+02  0.7816164E-02  0.1184000E+00
        -11   -1    0    0    0    0  0.00000000000E+00  0.00000000000E+00  0.45593999997E+02  0.45594000000E+02  0.51100000000E-03 0. -1.
         11   -1    0    0    0    0 -0.00000000000E+00 -0.00000000000E+00 -0.45593999997E+02  0.45594000000E+02  0.51100000000E-03 0.  1.
         23    2    1    2    0    0  0.00000000000E+00  0.00000000000E+00  0.00000000000E+00  0.91188000000E+02  0.91188000000E+02 0.  0.
    9900012    2    3    3    0    0 -0.56179401107E+01 -0.40504346731E+02  0.14541667550E+02  0.47787269012E+02  0.19999990731E+02 0.  0.
        -12    1    3    3    0    0  0.56179401107E+01  0.40504346731E+02 -0.14541667550E+02  0.43400730988E+02  0.00000000000E+00 0.  1.
         11    1    4    4    0    0 -0.36358167877E+01 -0.71815050208E+01 -0.10080349852E+00  0.80500521541E+01  0.51100000000E-03 0.  1.
        -11    1    4    4    0    0 -0.69575653949E+01 -0.30006744649E+02  0.13583634266E+02  0.33664930726E+02  0.51100000000E-03 0. -1.
        -12    1    4    4    0    0  0.49754420719E+01 -0.33160970615E+01  0.10588367822E+01  0.60722861315E+01  0.00000000000E+00 0.  1.
</event>
<event>
 8    1  0.6019723E-011  0.9118800E+02  0.7816164E-02  0.1184000E+00
        -11   -1    0    0    0    0  0.00000000000E+00  0.00000000000E+00  0.45593999997E+02  0.45594000000E+02  0.51100000000E-03 0. -1.
         11   -1    0    0    0    0 -0.00000000000E+00 -0.00000000000E+00 -0.45593999997E+02  0.45594000000E+02  0.51100000000E-03 0.  1.
         23    2    1    2    0    0 -0.88817841970E-15  0.35527136788E-14  0.00000000000E+00  0.91188000000E+02  0.91188000000E+02 0.  0.
    9900012    2    3    3    0    0 -0.27746542519E+01  0.18788643802E+02  0.39024494431E+02  0.47787274110E+02  0.20000013979E+02 0.  0.
        -12    1    3    3    0    0  0.27746542519E+01 -0.18788643802E+02 -0.39024494431E+02  0.43400725890E+02  0.00000000000E+00 0.  1.
         11    1    4    4    0    0  0.20567041267E+01 -0.25082062026E+01  0.30245364512E+01  0.44349691347E+01  0.51100000000E-03 0. -1.
        -11    1    4    4    0    0 -0.52380931766E+01  0.18923844239E+02  0.23504279683E+02  0.30626796513E+02  0.51100000000E-03 0.  1.
         12    1    4    4    0    0  0.40673479796E+00  0.23730057648E+01  0.12495678297E+02  0.12725508463E+02  0.00000000000E+00 0. -1.
</event>
<event>
 8    1  0.6019723E-011  0.9118800E+02  0.7816164E-02  0.1184000E+00
        -11   -1    0    0    0    0  0.00000000000E+00  0.00000000000E+00  0.45593999997E+02  0.45594000000E+02  0.51100000000E-03 0. -1.
         11   -1    0    0    0    0 -0.00000000000E+00 -0.00000000000E+00 -0.45593999997E+02  0.45594000000E+02  0.51100000000E-03 0.  1.
         23    2    1    2    0    0  0.00000000000E+00  0.00000000000E+00  0.00000000000E+00  0.91188000000E+02  0.91188000000E+02 0.  0.
    9900012    2    3    3    0    0  0.52033453488E+01 -0.15057697625E+02  0.40370959980E+02  0.47787268781E+02  0.19999989682E+02 0.  0.
        -12    1    3    3    0    0 -0.52033453488E+01  0.15057697625E+02 -0.40370959980E+02  0.43400731219E+02  0.00000000000E+00 0.  1.
         11    1    4    4    0    0  0.56510378460E+01 -0.14132732690E+02  0.16856314188E+02  0.22711311945E+02  0.51100000000E-03 0. -1.
        -11    1    4    4    0    0  0.37127397551E+01 -0.81438376164E+00  0.16388199073E+02  0.16823219862E+02  0.51100000000E-03 0.  1.
         12    1    4    4    0    0 -0.41604322523E+01 -0.11058117327E+00  0.71264467191E+01  0.82527369740E+01  0.00000000000E+00 0. -1.
</event>
<event>
 8    1  0.6019723E-011  0.9118800E+02  0.7816164E-02  0.1184000E+00
        -11   -1    0    0    0    0  0.00000000000E+00  0.00000000000E+00  0.45593999997E+02  0.45594000000E+02  0.51100000000E-03 0. -1.
         11   -1    0    0    0    0 -0.00000000000E+00 -0.00000000000E+00 -0.45593999997E+02  0.45594000000E+02  0.51100000000E-03 0.  1.
         23    2    1    2    0    0  0.00000000000E+00 -0.22204460493E-15  0.00000000000E+00  0.91188000000E+02  0.91188000000E+02 0.  0.
    9900012    2    3    3    0    0  0.15819010490E+02 -0.16483946000E+01 -0.40381491241E+02  0.47787272673E+02  0.20000007426E+02 0.  0.
         12    1    3    3    0    0 -0.15819010490E+02  0.16483946000E+01  0.40381491241E+02  0.43400727327E+02  0.00000000000E+00 0. -1.
         11    1    4    4    0    0  0.10264730854E+02  0.29879788177E+01 -0.65289944479E+01  0.12526790717E+02  0.51100000000E-03 0. -1.
        -11    1    4    4    0    0  0.62648513972E+01 -0.52067846704E+01 -0.33072719122E+02  0.34061176140E+02  0.51100000000E-03 0.  1.
        -12    1    4    4    0    0 -0.71057176101E+00  0.57041125264E+00 -0.77977767136E+00  0.11993058165E+01  0.00000000000E+00 0.  1.
</event>
<event>
 8    1  0.6019723E-011  0.9118800E+02  0.7816164E-02  0.1184000E+00
        -11   -1    0    0    0    0  0.00000000000E+00  0.00000000000E+00  0.45593999997E+02  0.45594000000E+02  0.51100000000E-03 0. -1.
         11   -1    0    0    0    0 -0.00000000000E+00 -0.00000000000E+00 -0.45593999997E+02  0.45594000000E+02  0.51100000000E-03 0.  1.
         23    2    1    2    0    0  0.00000000000E+00  0.88817841970E-15  0.00000000000E+00  0.91188000000E+02  0.91188000000E+02 0.  0.
    9900012    2    3    3    0    0  0.17117710293E+02 -0.68412640257E+01 -0.39291272986E+02  0.47787273831E+02  0.20000012707E+02 0.  0.
         12    1    3    3    0    0 -0.17117710293E+02  0.68412640257E+01  0.39291272986E+02  0.43400726169E+02  0.00000000000E+00 0. -1.
         11    1    4    4    0    0 -0.21555934014E+00  0.13063986856E+01  0.39448332191E+00  0.13815790630E+01  0.51100000000E-03 0. -1.
        -11    1    4    4    0    0  0.68035002719E+00  0.32521371053E+01 -0.97682921779E+01  0.10317887586E+02  0.51100000000E-03 0.  1.
        -12    1    4    4    0    0  0.16652919606E+02 -0.11399799817E+02 -0.29917464130E+02  0.36087807182E+02  0.00000000000E+00 0.  1.
</event>
<event>
 8    1  0.6019723E-011  0.9118800E+02  0.7816164E-02  0.1184000E+00
        -11   -1    0    0    0    0  0.00000000000E+00  0.00000000000E+00  0.45593999997E+02  0.45594000000E+02  0.51100000000E-03 0. -1.
         11   -1    0    0    0    0 -0.00000000000E+00 -0.00000000000E+00 -0.45593999997E+02  0.45594000000E+02  0.51100000000E-03 0.  1.
         23    2    1    2    0    0  0.00000000000E+00  0.00000000000E+00  0.00000000000E+00  0.91188000000E+02  0.91188000000E+02 0.  0.
    9900012    2    3    3    0    0  0.35617238873E+02 -0.15438397949E+02 -0.19408527853E+02  0.47787276624E+02  0.20000025439E+02 0.  0.
         12    1    3    3    0    0 -0.35617238873E+02  0.15438397949E+02  0.19408527853E+02  0.43400723376E+02  0.00000000000E+00 0. -1.
         11    1    4    4    0    0  0.12094555535E+02 -0.77719433456E+01 -0.17188331771E+02  0.22408037092E+02  0.51100000000E-03 0. -1.
        -11    1    4    4    0    0  0.13461140005E+02 -0.42626226009E+01  0.13239133645E+01  0.14181854199E+02  0.51100000000E-03 0.  1.
        -12    1    4    4    0    0  0.10061543333E+02 -0.34038320026E+01 -0.35441094465E+01  0.11197385334E+02  0.00000000000E+00 0.  1.
</event>
<event>
 8    1  0.6019723E-011  0.9118800E+02  0.7816164E-02  0.1184000E+00
        -11   -1    0    0    0    0  0.00000000000E+00  0.00000000000E+00  0.45593999997E+02  0.45594000000E+02  0.51100000000E-03 0. -1.
         11   -1    0    0    0    0 -0.00000000000E+00 -0.00000000000E+00 -0.45593999997E+02  0.45594000000E+02  0.51100000000E-03 0.  1.
         23    2    1    2    0    0  0.00000000000E+00 -0.44408920985E-15  0.71054273576E-14  0.91188000000E+02  0.91188000000E+02 0.  0.
    9900012    2    3    3    0    0 -0.79291587964E+01  0.30277503605E+01 -0.42562712979E+02  0.47787269964E+02  0.19999995076E+02 0.  0.
         12    1    3    3    0    0  0.79291587964E+01 -0.30277503605E+01  0.42562712979E+02  0.43400730036E+02  0.00000000000E+00 0. -1.
         11    1    4    4    0    0 -0.51801536092E+01  0.19681247962E+00 -0.12755220739E+01  0.53385094727E+01  0.51100000000E-03 0. -1.
        -11    1    4    4    0    0  0.44224044430E+00  0.21301968707E+01 -0.36973141310E+02  0.37037096187E+02  0.51100000000E-03 0.  1.
        -12    1    4    4    0    0 -0.31912456314E+01  0.70074101016E+00 -0.43140495949E+01  0.54116643051E+01  0.00000000000E+00 0.  1.
</event>
<event>
 8    1  0.6019723E-011  0.9118800E+02  0.7816164E-02  0.1184000E+00
        -11   -1    0    0    0    0  0.00000000000E+00  0.00000000000E+00  0.45593999997E+02  0.45594000000E+02  0.51100000000E-03 0. -1.
         11   -1    0    0    0    0 -0.00000000000E+00 -0.00000000000E+00 -0.45593999997E+02  0.45594000000E+02  0.51100000000E-03 0.  1.
         23    2    1    2    0    0  0.00000000000E+00 -0.88817841970E-15  0.71054273576E-14  0.91188000000E+02  0.91188000000E+02 0.  0.
    9900012    2    3    3    0    0  0.13465094313E+02 -0.79010481926E+01 -0.40495527155E+02  0.47787273659E+02  0.20000011920E+02 0.  0.
         12    1    3    3    0    0 -0.13465094313E+02  0.79010481926E+01  0.40495527155E+02  0.43400726341E+02  0.00000000000E+00 0. -1.
         11    1    4    4    0    0 -0.12133355627E+01 -0.59049739093E+01 -0.53483029866E+01  0.80588612815E+01  0.51100000000E-03 0. -1.
        -11    1    4    4    0    0  0.15563724939E+02 -0.86943372042E-01 -0.25665058709E+02  0.30015534844E+02  0.51100000000E-03 0.  1.
        -12    1    4    4    0    0 -0.88529506430E+00 -0.19091309112E+01 -0.94821654589E+01  0.97128775333E+01  0.00000000000E+00 0.  1.
</event>
<event>
 8    1  0.8090228E-011  0.9118800E+02  0.7816164E-02  0.1184000E+00
        -11   -1    0    0    0    0  0.00000000000E+00  0.00000000000E+00  0.45593999997E+02  0.45594000000E+02  0.51100000000E-03 0. -1.
         11   -1    0    0    0    0 -0.00000000000E+00 -0.00000000000E+00 -0.45593999997E+02  0.45594000000E+02  0.51100000000E-03 0.  1.
         23    2    1    2    0    0 -0.44408920985E-15  0.35527136788E-14  0.00000000000E+00  0.91188000000E+02  0.91188000000E+02 0.  0.
    9900012    2    3    3    0    0  0.22270238815E+01  0.23515861718E+02 -0.36409723652E+02  0.47787270005E+02  0.19999995260E+02 0.  0.
         12    1    3    3    0    0 -0.22270238815E+01 -0.23515861718E+02  0.36409723652E+02  0.43400729995E+02  0.00000000000E+00 0. -1.
         11    1    4    4    0    0 -0.36773761133E+00  0.23252246923E+01  0.21837188176E+01  0.32110012388E+01  0.51100000000E-03 0. -1.
        -11    1    4    4    0    0  0.35592444406E+01  0.73480031194E+01 -0.17731406899E+02  0.19520864778E+02  0.51100000000E-03 0.  1.
         12    1    4    4    0    0 -0.96448294773E+00  0.13842633906E+02 -0.20862035571E+02  0.25055403988E+02  0.00000000000E+00 0. -1.
</event>
<event>
 8    1  0.6019723E-011  0.9118800E+02  0.7816164E-02  0.1184000E+00
        -11   -1    0    0    0    0  0.00000000000E+00  0.00000000000E+00  0.45593999997E+02  0.45594000000E+02  0.51100000000E-03 0. -1.
         11   -1    0    0    0    0 -0.00000000000E+00 -0.00000000000E+00 -0.45593999997E+02  0.45594000000E+02  0.51100000000E-03 0.  1.
         23    2    1    2    0    0  0.66613381478E-15  0.00000000000E+00 -0.71054273576E-14  0.91188000000E+02  0.91188000000E+02 0.  0.
    9900012    2    3    3    0    0  0.44267925635E+00 -0.43664591024E+01 -0.43178254739E+02  0.47787267146E+02  0.19999982224E+02 0.  0.
         12    1    3    3    0    0 -0.44267925635E+00  0.43664591024E+01  0.43178254739E+02  0.43400732854E+02  0.00000000000E+00 0. -1.
         11    1    4    4    0    0  0.68678768002E+01 -0.15510098208E+01 -0.79154296246E+01  0.10593742946E+02  0.51100000000E-03 0. -1.
        -11    1    4    4    0    0 -0.63234321731E+01  0.22204012724E+01 -0.22346195584E+02  0.23329561368E+02  0.51100000000E-03 0.  1.
        -12    1    4    4    0    0 -0.10176537081E+00 -0.50358505539E+01 -0.12916629530E+02  0.13863962832E+02  0.00000000000E+00 0.  1.
</event>
<event>
 8    1  0.6019723E-011  0.9118800E+02  0.7816164E-02  0.1184000E+00
        -11   -1    0    0    0    0  0.00000000000E+00  0.00000000000E+00  0.45593999997E+02  0.45594000000E+02  0.51100000000E-03 0.  1.
         11   -1    0    0    0    0 -0.00000000000E+00 -0.00000000000E+00 -0.45593999997E+02  0.45594000000E+02  0.51100000000E-03 0. -1.
         23    2    1    2    0    0  0.17763568394E-14 -0.71054273576E-14 -0.88817841970E-15  0.91188000000E+02  0.91188000000E+02 0.  0.
    9900012    2    3    3    0    0 -0.71658593523E+01 -0.42252366318E+02 -0.68564866836E+01  0.47787269484E+02  0.19999992884E+02 0.  0.
         12    1    3    3    0    0  0.71658593523E+01  0.42252366318E+02  0.68564866836E+01  0.43400730516E+02  0.00000000000E+00 0. -1.
         11    1    4    4    0    0  0.61367406085E+01 -0.12206212855E+02 -0.24880591451E+00  0.13664301014E+02  0.51100000000E-03 0. -1.
        -11    1    4    4    0    0 -0.11305254741E+02 -0.27346215342E+02 -0.77265489438E+01  0.30583064548E+02  0.51100000000E-03 0.  1.
        -12    1    4    4    0    0 -0.19973452201E+01 -0.26999381204E+01  0.11188681747E+01  0.35399039217E+01  0.00000000000E+00 0.  1.
</event>
<event>
 8    1  0.6019723E-011  0.9118800E+02  0.7816164E-02  0.1184000E+00
        -11   -1    0    0    0    0  0.00000000000E+00  0.00000000000E+00  0.45593999997E+02  0.45594000000E+02  0.51100000000E-03 0. -1.
         11   -1    0    0    0    0 -0.00000000000E+00 -0.00000000000E+00 -0.45593999997E+02  0.45594000000E+02  0.51100000000E-03 0.  1.
         23    2    1    2    0    0  0.00000000000E+00  0.00000000000E+00  0.00000000000E+00  0.91188000000E+02  0.91188000000E+02 0.  0.
    9900012    2    3    3    0    0  0.17279091212E+02 -0.27911964110E+02 -0.28389715395E+02  0.47787300999E+02  0.20000136574E+02 0.  0.
         12    1    3    3    0    0 -0.17279091212E+02  0.27911964110E+02  0.28389715395E+02  0.43400699001E+02  0.00000000000E+00 0. -1.
         11    1    4    4    0    0  0.28634118558E+01 -0.12264835769E+02 -0.48725091071E+01  0.13504320388E+02  0.51100000000E-03 0. -1.
        -11    1    4    4    0    0  0.15177118715E+02 -0.17105830322E+02 -0.23257821476E+02  0.32617182949E+02  0.51100000000E-03 0.  1.
        -12    1    4    4    0    0 -0.76143935860E+00  0.14587019813E+01 -0.25938481207E+00  0.16657976612E+01  0.00000000000E+00 0.  1.
</event>
<event>
 8    1  0.6019723E-011  0.9118800E+02  0.7816164E-02  0.1184000E+00
        -11   -1    0    0    0    0  0.00000000000E+00  0.00000000000E+00  0.45593999997E+02  0.45594000000E+02  0.51100000000E-03 0. -1.
         11   -1    0    0    0    0 -0.00000000000E+00 -0.00000000000E+00 -0.45593999997E+02  0.45594000000E+02  0.51100000000E-03 0.  1.
         23    2    1    2    0    0  0.00000000000E+00  0.00000000000E+00  0.00000000000E+00  0.91188000000E+02  0.91188000000E+02 0.  0.
    9900012    2    3    3    0    0  0.16878185948E+02 -0.10244984881E+02  0.38649607375E+02  0.47787250855E+02  0.19999907949E+02 0.  0.
        -12    1    3    3    0    0 -0.16878185948E+02  0.10244984881E+02 -0.38649607375E+02  0.43400749145E+02  0.00000000000E+00 0.  1.
         11    1    4    4    0    0 -0.24798554665E+01 -0.37482006687E+01  0.10747757785E+02  0.11649591798E+02  0.51100000000E-03 0. -1.
        -11    1    4    4    0    0  0.15258139856E+02  0.14223429976E-01  0.17966766733E+02  0.23571502737E+02  0.51100000000E-03 0.  1.
         12    1    4    4    0    0  0.40999015582E+01 -0.65110076423E+01  0.99350828568E+01  0.12566156321E+02  0.00000000000E+00 0. -1.
</event>
<event>
 8    1  0.6019723E-011  0.9118800E+02  0.7816164E-02  0.1184000E+00
        -11   -1    0    0    0    0  0.00000000000E+00  0.00000000000E+00  0.45593999997E+02  0.45594000000E+02  0.51100000000E-03 0. -1.
         11   -1    0    0    0    0 -0.00000000000E+00 -0.00000000000E+00 -0.45593999997E+02  0.45594000000E+02  0.51100000000E-03 0.  1.
         23    2    1    2    0    0  0.22204460493E-15 -0.88817841970E-15  0.00000000000E+00  0.91188000000E+02  0.91188000000E+02 0.  0.
    9900012    2    3    3    0    0  0.60017924804E+00  0.55895050422E+01  0.43035107821E+02  0.47787270894E+02  0.19999999315E+02 0.  0.
        -12    1    3    3    0    0 -0.60017924804E+00 -0.55895050422E+01 -0.43035107821E+02  0.43400729106E+02  0.00000000000E+00 0.  1.
         11    1    4    4    0    0  0.49721032181E+01  0.13316984909E+01  0.37498318791E+02  0.37849955663E+02  0.51100000000E-03 0. -1.
        -11    1    4    4    0    0 -0.10854472413E+01 -0.11836113168E+01  0.22962329192E+01  0.28021094453E+01  0.51100000000E-03 0.  1.
         12    1    4    4    0    0 -0.32864767288E+01  0.54414178681E+01  0.32405561112E+01  0.71352057863E+01  0.00000000000E+00 0. -1.
</event>
<event>
 8    1  0.6019723E-011  0.9118800E+02  0.7816164E-02  0.1184000E+00
        -11   -1    0    0    0    0  0.00000000000E+00  0.00000000000E+00  0.45593999997E+02  0.45594000000E+02  0.51100000000E-03 0. -1.
         11   -1    0    0    0    0 -0.00000000000E+00 -0.00000000000E+00 -0.45593999997E+02  0.45594000000E+02  0.51100000000E-03 0.  1.
         23    2    1    2    0    0 -0.17763568394E-14  0.00000000000E+00  0.00000000000E+00  0.91188000000E+02  0.91188000000E+02 0.  0.
    9900012    2    3    3    0    0  0.14678341377E+02  0.20031516584E+02 -0.35593646657E+02  0.47787273686E+02  0.20000012044E+02 0.  0.
         12    1    3    3    0    0 -0.14678341377E+02 -0.20031516584E+02  0.35593646657E+02  0.43400726314E+02  0.00000000000E+00 0. -1.
         11    1    4    4    0    0  0.76865160942E+01  0.25619765555E+01 -0.22677295973E+02  0.24081237643E+02  0.51100000000E-03 0. -1.
        -11    1    4    4    0    0 -0.53869895975E+00  0.67841977898E+01 -0.43539259516E+01  0.80791217142E+01  0.51100000000E-03 0.  1.
         12    1    4    4    0    0  0.75305242424E+01  0.10685342239E+02 -0.85624247329E+01  0.15626914329E+02  0.00000000000E+00 0. -1.
</event>
<event>
 8    1  0.6019723E-011  0.9118800E+02  0.7816164E-02  0.1184000E+00
        -11   -1    0    0    0    0  0.00000000000E+00  0.00000000000E+00  0.45593999997E+02  0.45594000000E+02  0.51100000000E-03 0. -1.
         11   -1    0    0    0    0 -0.00000000000E+00 -0.00000000000E+00 -0.45593999997E+02  0.45594000000E+02  0.51100000000E-03 0.  1.
         23    2    1    2    0    0  0.71054273576E-14  0.00000000000E+00 -0.35527136788E-14  0.91188000000E+02  0.91188000000E+02 0.  0.
    9900012    2    3    3    0    0  0.27198520579E+02  0.28333275062E+02  0.18468605862E+02  0.47787269593E+02  0.19999993381E+02 0.  0.
        -12    1    3    3    0    0 -0.27198520579E+02 -0.28333275062E+02 -0.18468605862E+02  0.43400730407E+02  0.00000000000E+00 0.  1.
         11    1    4    4    0    0  0.27925569717E+01  0.68511275748E+01 -0.26545532695E+01  0.78602148068E+01  0.51100000000E-03 0. -1.
        -11    1    4    4    0    0 -0.54189415048E+00  0.16278993332E+01  0.24063314276E+01  0.29553572897E+01  0.51100000000E-03 0.  1.
         12    1    4    4    0    0  0.24947857757E+02  0.19854248154E+02  0.18716827704E+02  0.36971697496E+02  0.00000000000E+00 0. -1.
</event>
<event>
 8    1  0.6019723E-011  0.9118800E+02  0.7816164E-02  0.1184000E+00
        -11   -1    0    0    0    0  0.00000000000E+00  0.00000000000E+00  0.45593999997E+02  0.45594000000E+02  0.51100000000E-03 0. -1.
         11   -1    0    0    0    0 -0.00000000000E+00 -0.00000000000E+00 -0.45593999997E+02  0.45594000000E+02  0.51100000000E-03 0.  1.
         23    2    1    2    0    0  0.17763568394E-14  0.22204460493E-15  0.00000000000E+00  0.91188000000E+02  0.91188000000E+02 0.  0.
    9900012    2    3    3    0    0  0.15742743365E+02 -0.16111896335E+01  0.40412786962E+02  0.47787271311E+02  0.20000001215E+02 0.  0.
        -12    1    3    3    0    0 -0.15742743365E+02  0.16111896335E+01 -0.40412786962E+02  0.43400728689E+02  0.00000000000E+00 0.  1.
         11    1    4    4    0    0  0.77768848696E+01 -0.11126113167E+01  0.31689575617E+02  0.32648844470E+02  0.51100000000E-03 0. -1.
        -11    1    4    4    0    0  0.55608296019E+01 -0.48191608452E+01  0.59913474711E+01  0.94891191316E+01  0.51100000000E-03 0.  1.
         12    1    4    4    0    0  0.24050288935E+01  0.43205825284E+01  0.27318638745E+01  0.56493077091E+01  0.00000000000E+00 0. -1.
</event>
<event>
 8    1  0.6019723E-011  0.9118800E+02  0.7816164E-02  0.1184000E+00
        -11   -1    0    0    0    0  0.00000000000E+00  0.00000000000E+00  0.45593999997E+02  0.45594000000E+02  0.51100000000E-03 0. -1.
         11   -1    0    0    0    0 -0.00000000000E+00 -0.00000000000E+00 -0.45593999997E+02  0.45594000000E+02  0.51100000000E-03 0.  1.
         23    2    1    2    0    0  0.00000000000E+00  0.00000000000E+00  0.00000000000E+00  0.91188000000E+02  0.91188000000E+02 0.  0.
    9900012    2    3    3    0    0  0.73360060451E+01 -0.12284940174E+02  0.40974210627E+02  0.47787277929E+02  0.20000031392E+02 0.  0.
        -12    1    3    3    0    0 -0.73360060451E+01  0.12284940174E+02 -0.40974210627E+02  0.43400722071E+02  0.00000000000E+00 0.  1.
         11    1    4    4    0    0  0.17030920549E+01  0.19404080961E+00  0.11873369122E+02  0.11996460685E+02  0.51100000000E-03 0. -1.
        -11    1    4    4    0    0 -0.48877476507E+01 -0.70778954252E+01  0.15824354897E+02  0.18011021318E+02  0.51100000000E-03 0.  1.
        -12    1    4    4    0    0  0.10520661641E+02 -0.54010855582E+01  0.13276486608E+02  0.17779795927E+02  0.00000000000E+00 0.  1.
</event>
<event>
 8    1  0.6019723E-011  0.9118800E+02  0.7816164E-02  0.1184000E+00
        -11   -1    0    0    0    0  0.00000000000E+00  0.00000000000E+00  0.45593999997E+02  0.45594000000E+02  0.51100000000E-03 0. -1.
         11   -1    0    0    0    0 -0.00000000000E+00 -0.00000000000E+00 -0.45593999997E+02  0.45594000000E+02  0.51100000000E-03 0.  1.
         23    2    1    2    0    0 -0.44408920985E-15  0.00000000000E+00 -0.17763568394E-14  0.91188000000E+02  0.91188000000E+02 0.  0.
    9900012    2    3    3    0    0  0.30711875128E+01 -0.41159530673E+02 -0.13419544333E+02  0.47787270420E+02  0.19999997154E+02 0.  0.
         12    1    3    3    0    0 -0.30711875128E+01  0.41159530673E+02  0.13419544333E+02  0.43400729580E+02  0.00000000000E+00 0. -1.
         11    1    4    4    0    0 -0.88781218767E+00 -0.23477094447E+00 -0.58738341260E+01  0.59451875898E+01  0.51100000000E-03 0. -1.
        -11    1    4    4    0    0  0.10113613312E+01 -0.19879294772E+02 -0.37112648965E+01  0.20248029528E+02  0.51100000000E-03 0.  1.
         12    1    4    4    0    0  0.29476383692E+01 -0.21045464957E+02 -0.38344453109E+01  0.21594053303E+02  0.00000000000E+00 0. -1.
</event>
<event>
 8    1  0.6019723E-011  0.9118800E+02  0.7816164E-02  0.1184000E+00
        -11   -1    0    0    0    0  0.00000000000E+00  0.00000000000E+00  0.45593999997E+02  0.45594000000E+02  0.51100000000E-03 0. -1.
         11   -1    0    0    0    0 -0.00000000000E+00 -0.00000000000E+00 -0.45593999997E+02  0.45594000000E+02  0.51100000000E-03 0.  1.
         23    2    1    2    0    0  0.00000000000E+00  0.00000000000E+00  0.00000000000E+00  0.91188000000E+02  0.91188000000E+02 0.  0.
    9900012    2    3    3    0    0  0.25537122316E+02  0.34690086469E+02 -0.52987284579E+01  0.47787271450E+02  0.20000001850E+02 0.  0.
         12    1    3    3    0    0 -0.25537122316E+02 -0.34690086469E+02  0.52987284579E+01  0.43400728550E+02  0.00000000000E+00 0. -1.
         11    1    4    4    0    0  0.80243588743E+01  0.44536155874E+01  0.12730145527E+01  0.92652897125E+01  0.51100000000E-03 0. -1.
        -11    1    4    4    0    0  0.97504095880E+01  0.24794270530E+02 -0.99762773937E+01  0.28449120358E+02  0.51100000000E-03 0.  1.
        -12    1    4    4    0    0  0.77623538535E+01  0.54422003515E+01  0.34045343831E+01  0.10072861380E+02  0.00000000000E+00 0.  1.
</event>
<event>
 8    1  0.6019723E-011  0.9118800E+02  0.7816164E-02  0.1184000E+00
        -11   -1    0    0    0    0  0.00000000000E+00  0.00000000000E+00  0.45593999997E+02  0.45594000000E+02  0.51100000000E-03 0. -1.
         11   -1    0    0    0    0 -0.00000000000E+00 -0.00000000000E+00 -0.45593999997E+02  0.45594000000E+02  0.51100000000E-03 0.  1.
         23    2    1    2    0    0  0.00000000000E+00 -0.38857805862E-15  0.35527136788E-14  0.91188000000E+02  0.91188000000E+02 0.  0.
    9900012    2    3    3    0    0  0.32978998497E+02 -0.29749341576E+00 -0.28212055002E+02  0.47787275448E+02  0.20000020077E+02 0.  0.
         12    1    3    3    0    0 -0.32978998497E+02  0.29749341576E+00  0.28212055002E+02  0.43400724552E+02  0.00000000000E+00 0. -1.
         11    1    4    4    0    0 -0.33405019182E+00  0.34282609775E+01 -0.11292190092E+01  0.36248722312E+01  0.51100000000E-03 0. -1.
        -11    1    4    4    0    0  0.15580679923E+02  0.30324329139E+01 -0.11372664499E+02  0.19526667261E+02  0.51100000000E-03 0.  1.
         12    1    4    4    0    0  0.17732368766E+02 -0.67581873071E+01 -0.15710171494E+02  0.24635735956E+02  0.00000000000E+00 0. -1.
</event>
<event>
 8    1  0.6019723E-011  0.9118800E+02  0.7816164E-02  0.1184000E+00
        -11   -1    0    0    0    0  0.00000000000E+00  0.00000000000E+00  0.45593999997E+02  0.45594000000E+02  0.51100000000E-03 0. -1.
         11   -1    0    0    0    0 -0.00000000000E+00 -0.00000000000E+00 -0.45593999997E+02  0.45594000000E+02  0.51100000000E-03 0.  1.
         23    2    1    2    0    0  0.00000000000E+00  0.00000000000E+00  0.00000000000E+00  0.91188000000E+02  0.91188000000E+02 0.  0.
    9900012    2    3    3    0    0  0.84213246252E+01  0.98409675187E+01 -0.41422938241E+02  0.47787272326E+02  0.20000005843E+02 0.  0.
         12    1    3    3    0    0 -0.84213246252E+01 -0.98409675187E+01  0.41422938241E+02  0.43400727674E+02  0.00000000000E+00 0. -1.
         11    1    4    4    0    0 -0.13348410849E+01  0.54930432301E+00 -0.57157743626E+00  0.15524937964E+01  0.51100000000E-03 0. -1.
        -11    1    4    4    0    0  0.47065761557E+00  0.69436797310E+01 -0.33351775629E+02  0.34070179698E+02  0.51100000000E-03 0.  1.
        -12    1    4    4    0    0  0.92855080945E+01  0.23479834648E+01 -0.74995851759E+01  0.12164598832E+02  0.00000000000E+00 0.  1.
</event>
<event>
 8    1  0.6019723E-011  0.9118800E+02  0.7816164E-02  0.1184000E+00
        -11   -1    0    0    0    0  0.00000000000E+00  0.00000000000E+00  0.45593999997E+02  0.45594000000E+02  0.51100000000E-03 0. -1.
         11   -1    0    0    0    0 -0.00000000000E+00 -0.00000000000E+00 -0.45593999997E+02  0.45594000000E+02  0.51100000000E-03 0.  1.
         23    2    1    2    0    0 -0.71054273576E-14  0.00000000000E+00 -0.35527136788E-14  0.91188000000E+02  0.91188000000E+02 0.  0.
    9900012    2    3    3    0    0 -0.35468401958E+02 -0.42411044107E+01 -0.24650121145E+02  0.47787274470E+02  0.20000015618E+02 0.  0.
         12    1    3    3    0    0  0.35468401958E+02  0.42411044107E+01  0.24650121145E+02  0.43400725530E+02  0.00000000000E+00 0. -1.
         11    1    4    4    0    0 -0.16112783919E+01 -0.34488475434E+01 -0.79979774864E+01  0.88576752914E+01  0.51100000000E-03 0. -1.
        -11    1    4    4    0    0 -0.18692358049E+02 -0.39589336608E+01 -0.56379864196E+01  0.19921453167E+02  0.51100000000E-03 0.  1.
         12    1    4    4    0    0 -0.15164765517E+02  0.31666767935E+01 -0.11014157239E+02  0.19008146012E+02  0.00000000000E+00 0. -1.
</event>
<event>
 8    1  0.6019723E-011  0.9118800E+02  0.7816164E-02  0.1184000E+00
        -11   -1    0    0    0    0  0.00000000000E+00  0.00000000000E+00  0.45593999997E+02  0.45594000000E+02  0.51100000000E-03 0. -1.
         11   -1    0    0    0    0 -0.00000000000E+00 -0.00000000000E+00 -0.45593999997E+02  0.45594000000E+02  0.51100000000E-03 0.  1.
         23    2    1    2    0    0  0.00000000000E+00  0.00000000000E+00  0.71054273576E-14  0.91188000000E+02  0.91188000000E+02 0.  0.
    9900012    2    3    3    0    0 -0.12094972443E+02  0.24503473043E+02  0.33718169165E+02  0.47787268653E+02  0.19999989099E+02 0.  0.
        -12    1    3    3    0    0  0.12094972443E+02 -0.24503473043E+02 -0.33718169165E+02  0.43400731347E+02  0.00000000000E+00 0.  1.
         11    1    4    4    0    0 -0.10161554619E+02  0.44527404894E+01  0.16247273060E+02  0.19673788966E+02  0.51100000000E-03 0. -1.
        -11    1    4    4    0    0 -0.27901946489E+01  0.11717911596E+01  0.15364898399E+01  0.33939773113E+01  0.51100000000E-03 0.  1.
         12    1    4    4    0    0  0.85677682520E+00  0.18878941394E+02  0.15934406266E+02  0.24719502376E+02  0.00000000000E+00 0. -1.
</event>
<event>
 8    1  0.6019723E-011  0.9118800E+02  0.7816164E-02  0.1184000E+00
        -11   -1    0    0    0    0  0.00000000000E+00  0.00000000000E+00  0.45593999997E+02  0.45594000000E+02  0.51100000000E-03 0. -1.
         11   -1    0    0    0    0 -0.00000000000E+00 -0.00000000000E+00 -0.45593999997E+02  0.45594000000E+02  0.51100000000E-03 0.  1.
         23    2    1    2    0    0  0.35527136788E-14 -0.13322676296E-14  0.00000000000E+00  0.91188000000E+02  0.91188000000E+02 0.  0.
    9900012    2    3    3    0    0  0.22510389704E+02 -0.36215864557E+01 -0.36929524979E+02  0.47787270188E+02  0.19999996094E+02 0.  0.
         12    1    3    3    0    0 -0.22510389704E+02  0.36215864557E+01  0.36929524979E+02  0.43400729812E+02  0.00000000000E+00 0. -1.
         11    1    4    4    0    0  0.68171476727E+01 -0.61574740304E+01 -0.15854855165E+02  0.18323875720E+02  0.51100000000E-03 0. -1.
        -11    1    4    4    0    0  0.71981998412E+01  0.67282203917E+01 -0.56390111474E+01  0.11352597834E+02  0.51100000000E-03 0.  1.
        -12    1    4    4    0    0  0.84950421906E+01 -0.41923328169E+01 -0.15435658666E+02  0.18110796634E+02  0.00000000000E+00 0.  1.
</event>
<event>
 8    1  0.6019723E-011  0.9118800E+02  0.7816164E-02  0.1184000E+00
        -11   -1    0    0    0    0  0.00000000000E+00  0.00000000000E+00  0.45593999997E+02  0.45594000000E+02  0.51100000000E-03 0. -1.
         11   -1    0    0    0    0 -0.00000000000E+00 -0.00000000000E+00 -0.45593999997E+02  0.45594000000E+02  0.51100000000E-03 0.  1.
         23    2    1    2    0    0  0.00000000000E+00  0.00000000000E+00  0.00000000000E+00  0.91188000000E+02  0.91188000000E+02 0.  0.
    9900012    2    3    3    0    0 -0.57632463272E+01  0.21831183919E+02 -0.37064914470E+02  0.47787268621E+02  0.19999988953E+02 0.  0.
         12    1    3    3    0    0  0.57632463272E+01 -0.21831183919E+02  0.37064914470E+02  0.43400731379E+02  0.00000000000E+00 0. -1.
         11    1    4    4    0    0 -0.45144681974E+01  0.19093197346E+02 -0.22482987462E+02  0.29839827973E+02  0.51100000000E-03 0. -1.
        -11    1    4    4    0    0 -0.34452581390E+01  0.49775196393E+01 -0.49567321847E+01  0.78239823374E+01  0.51100000000E-03 0.  1.
         12    1    4    4    0    0  0.21964800092E+01 -0.22395330664E+01 -0.96251948230E+01  0.10123458311E+02  0.00000000000E+00 0. -1.
</event>
<event>
 8    1  0.6019723E-011  0.9118800E+02  0.7816164E-02  0.1184000E+00
        -11   -1    0    0    0    0  0.00000000000E+00  0.00000000000E+00  0.45593999997E+02  0.45594000000E+02  0.51100000000E-03 0. -1.
         11   -1    0    0    0    0 -0.00000000000E+00 -0.00000000000E+00 -0.45593999997E+02  0.45594000000E+02  0.51100000000E-03 0.  1.
         23    2    1    2    0    0  0.00000000000E+00  0.35527136788E-14  0.00000000000E+00  0.91188000000E+02  0.91188000000E+02 0.  0.
    9900012    2    3    3    0    0  0.21943948289E+02 -0.21246867672E+02  0.30832710352E+02  0.47787282494E+02  0.20000052205E+02 0.  0.
        -12    1    3    3    0    0 -0.21943948289E+02  0.21246867672E+02 -0.30832710352E+02  0.43400717506E+02  0.00000000000E+00 0.  1.
         11    1    4    4    0    0  0.64680868446E+01 -0.23350991348E+01  0.16165160911E+02  0.17567050490E+02  0.51100000000E-03 0. -1.
        -11    1    4    4    0    0  0.41477599287E+01  0.10039630361E+00  0.12234646090E+01  0.43256049004E+01  0.51100000000E-03 0.  1.
         12    1    4    4    0    0  0.11328101516E+02 -0.19012164840E+02  0.13444084832E+02  0.25894627104E+02  0.00000000000E+00 0. -1.
</event>
<event>
 8    1  0.6019723E-011  0.9118800E+02  0.7816164E-02  0.1184000E+00
        -11   -1    0    0    0    0  0.00000000000E+00  0.00000000000E+00  0.45593999997E+02  0.45594000000E+02  0.51100000000E-03 0.  1.
         11   -1    0    0    0    0 -0.00000000000E+00 -0.00000000000E+00 -0.45593999997E+02  0.45594000000E+02  0.51100000000E-03 0. -1.
         23    2    1    2    0    0 -0.88817841970E-15 -0.71054273576E-14 -0.17763568394E-14  0.91188000000E+02  0.91188000000E+02 0.  0.
    9900012    2    3    3    0    0 -0.54286833100E+01  0.40043478862E+02 -0.15832635102E+02  0.47787272631E+02  0.20000007233E+02 0.  0.
         12    1    3    3    0    0  0.54286833100E+01 -0.40043478862E+02  0.15832635102E+02  0.43400727369E+02  0.00000000000E+00 0. -1.
         11    1    4    4    0    0 -0.16616459327E+00  0.21171663909E+02 -0.54349825255E+00  0.21179290686E+02  0.51100000000E-03 0. -1.
        -11    1    4    4    0    0  0.13831961472E+01  0.11188222660E+02 -0.10383453299E+02  0.15326632394E+02  0.51100000000E-03 0.  1.
         12    1    4    4    0    0 -0.66457148639E+01  0.76835922935E+01 -0.49056835506E+01  0.11281349551E+02  0.00000000000E+00 0. -1.
</event>
<event>
 8    1  0.6019723E-011  0.9118800E+02  0.7816164E-02  0.1184000E+00
        -11   -1    0    0    0    0  0.00000000000E+00  0.00000000000E+00  0.45593999997E+02  0.45594000000E+02  0.51100000000E-03 0. -1.
         11   -1    0    0    0    0 -0.00000000000E+00 -0.00000000000E+00 -0.45593999997E+02  0.45594000000E+02  0.51100000000E-03 0.  1.
         23    2    1    2    0    0 -0.88817841970E-15  0.35527136788E-14  0.00000000000E+00  0.91188000000E+02  0.91188000000E+02 0.  0.
    9900012    2    3    3    0    0 -0.54164210251E+01 -0.23129922021E+02 -0.36322065774E+02  0.47787269919E+02  0.19999994871E+02 0.  0.
         12    1    3    3    0    0  0.54164210251E+01  0.23129922021E+02  0.36322065774E+02  0.43400730081E+02  0.00000000000E+00 0. -1.
         11    1    4    4    0    0 -0.10389647637E+02 -0.17729014209E+02 -0.27799137749E+02  0.34569564398E+02  0.51100000000E-03 0. -1.
        -11    1    4    4    0    0  0.40264566831E+01  0.28762738429E-02 -0.14791650262E+01  0.42895560528E+01  0.51100000000E-03 0.  1.
        -12    1    4    4    0    0  0.94676992838E+00 -0.54037840860E+01 -0.70437629990E+01  0.89281494685E+01  0.00000000000E+00 0.  1.
</event>
<event>
 8    1  0.6019723E-011  0.9118800E+02  0.7816164E-02  0.1184000E+00
        -11   -1    0    0    0    0  0.00000000000E+00  0.00000000000E+00  0.45593999997E+02  0.45594000000E+02  0.51100000000E-03 0. -1.
         11   -1    0    0    0    0 -0.00000000000E+00 -0.00000000000E+00 -0.45593999997E+02  0.45594000000E+02  0.51100000000E-03 0.  1.
         23    2    1    2    0    0 -0.44408920985E-15  0.00000000000E+00  0.00000000000E+00  0.91188000000E+02  0.91188000000E+02 0.  0.
    9900012    2    3    3    0    0  0.37483084977E+01 -0.85332525418E+01  0.42388168615E+02  0.47787273577E+02  0.20000011545E+02 0.  0.
        -12    1    3    3    0    0 -0.37483084977E+01  0.85332525418E+01 -0.42388168615E+02  0.43400726423E+02  0.00000000000E+00 0.  1.
         11    1    4    4    0    0  0.50369606168E+01 -0.76372672629E+01  0.26221190952E+02  0.27771382369E+02  0.51100000000E-03 0. -1.
        -11    1    4    4    0    0 -0.20960471207E-02  0.10723642277E+01 -0.16917599879E+01  0.20030031323E+01  0.51100000000E-03 0.  1.
        -12    1    4    4    0    0 -0.12865560720E+01 -0.19683495065E+01  0.17858737651E+02  0.18012888075E+02  0.00000000000E+00 0.  1.
</event>
<event>
 8    1  0.6019723E-011  0.9118800E+02  0.7816164E-02  0.1184000E+00
        -11   -1    0    0    0    0  0.00000000000E+00  0.00000000000E+00  0.45593999997E+02  0.45594000000E+02  0.51100000000E-03 0. -1.
         11   -1    0    0    0    0 -0.00000000000E+00 -0.00000000000E+00 -0.45593999997E+02  0.45594000000E+02  0.51100000000E-03 0.  1.
         23    2    1    2    0    0  0.00000000000E+00 -0.35527136788E-14  0.00000000000E+00  0.91188000000E+02  0.91188000000E+02 0.  0.
    9900012    2    3    3    0    0 -0.48748094717E+01  0.24572589108E+02 -0.35440758366E+02  0.47787271246E+02  0.20000000917E+02 0.  0.
         12    1    3    3    0    0  0.48748094717E+01 -0.24572589108E+02  0.35440758366E+02  0.43400728754E+02  0.00000000000E+00 0. -1.
         11    1    4    4    0    0  0.29436064630E+01  0.76263574796E+01 -0.21232106664E+02  0.22751450527E+02  0.51100000000E-03 0. -1.
        -11    1    4    4    0    0  0.24271848546E+00  0.96345413975E+01 -0.54944291322E+01  0.11093784384E+02  0.51100000000E-03 0.  1.
         12    1    4    4    0    0 -0.80611344202E+01  0.73116902307E+01 -0.87142225697E+01  0.13942036335E+02  0.00000000000E+00 0. -1.
</event>
<event>
 8    1  0.6019723E-011  0.9118800E+02  0.7816164E-02  0.1184000E+00
        -11   -1    0    0    0    0  0.00000000000E+00  0.00000000000E+00  0.45593999997E+02  0.45594000000E+02  0.51100000000E-03 0. -1.
         11   -1    0    0    0    0 -0.00000000000E+00 -0.00000000000E+00 -0.45593999997E+02  0.45594000000E+02  0.51100000000E-03 0.  1.
         23    2    1    2    0    0 -0.71054273576E-14  0.00000000000E+00  0.17763568394E-14  0.91188000000E+02  0.91188000000E+02 0.  0.
    9900012    2    3    3    0    0 -0.41433138896E+02 -0.42247710712E+01  0.12209409753E+02  0.47787269869E+02  0.19999994641E+02 0.  0.
         12    1    3    3    0    0  0.41433138896E+02  0.42247710712E+01 -0.12209409753E+02  0.43400730131E+02  0.00000000000E+00 0. -1.
         11    1    4    4    0    0 -0.31409514062E+01  0.19543566349E+01 -0.22431384556E+01  0.43262866276E+01  0.51100000000E-03 0. -1.
        -11    1    4    4    0    0 -0.35090836747E+02 -0.55823954526E+01  0.82830474602E+01  0.36484775429E+02  0.51100000000E-03 0.  1.
        -12    1    4    4    0    0 -0.32013507429E+01 -0.59673225351E+00  0.61695007484E+01  0.69762078127E+01  0.00000000000E+00 0.  1.
</event>
<event>
 8    1  0.6019723E-011  0.9118800E+02  0.7816164E-02  0.1184000E+00
        -11   -1    0    0    0    0  0.00000000000E+00  0.00000000000E+00  0.45593999997E+02  0.45594000000E+02  0.51100000000E-03 0. -1.
         11   -1    0    0    0    0 -0.00000000000E+00 -0.00000000000E+00 -0.45593999997E+02  0.45594000000E+02  0.51100000000E-03 0.  1.
         23    2    1    2    0    0  0.00000000000E+00 -0.88817841970E-15  0.00000000000E+00  0.91188000000E+02  0.91188000000E+02 0.  0.
    9900012    2    3    3    0    0  0.40167851466E+02  0.44135061989E+01 -0.15833126339E+02  0.47787271688E+02  0.20000002933E+02 0.  0.
         12    1    3    3    0    0 -0.40167851466E+02 -0.44135061989E+01  0.15833126339E+02  0.43400728312E+02  0.00000000000E+00 0. -1.
         11    1    4    4    0    0  0.10469164128E+02  0.25789838300E+01 -0.10471557605E+01  0.10832870838E+02  0.51100000000E-03 0. -1.
        -11    1    4    4    0    0  0.29523235473E+02 -0.23725674318E+01 -0.12352389328E+02  0.32090996111E+02  0.51100000000E-03 0.  1.
        -12    1    4    4    0    0  0.17545186447E+00  0.42070898008E+01 -0.24335812509E+01  0.48634047388E+01  0.00000000000E+00 0.  1.
</event>
<event>
 8    1  0.6453887E-011  0.9118800E+02  0.7816164E-02  0.1184000E+00
        -11   -1    0    0    0    0  0.00000000000E+00  0.00000000000E+00  0.45593999997E+02  0.45594000000E+02  0.51100000000E-03 0. -1.
         11   -1    0    0    0    0 -0.00000000000E+00 -0.00000000000E+00 -0.45593999997E+02  0.45594000000E+02  0.51100000000E-03 0.  1.
         23    2    1    2    0    0 -0.71054273576E-14 -0.35527136788E-14  0.00000000000E+00  0.91188000000E+02  0.91188000000E+02 0.  0.
    9900012    2    3    3    0    0  0.37112103372E+02  0.16461927763E+02 -0.15340145869E+02  0.47787270079E+02  0.19999995598E+02 0.  0.
         12    1    3    3    0    0 -0.37112103372E+02 -0.16461927763E+02  0.15340145869E+02  0.43400729921E+02  0.00000000000E+00 0. -1.
         11    1    4    4    0    0  0.15353954221E+02  0.14640864681E+02 -0.37584391703E+01  0.21545874178E+02  0.51100000000E-03 0. -1.
        -11    1    4    4    0    0  0.85102298862E+01  0.50710453630E+01 -0.48585147836E+01  0.11033797168E+02  0.51100000000E-03 0.  1.
         12    1    4    4    0    0  0.13247919265E+02 -0.32499822813E+01 -0.67231919150E+01  0.15207598733E+02  0.00000000000E+00 0. -1.
</event>
<event>
 8    1  0.6019723E-011  0.9118800E+02  0.7816164E-02  0.1184000E+00
        -11   -1    0    0    0    0  0.00000000000E+00  0.00000000000E+00  0.45593999997E+02  0.45594000000E+02  0.51100000000E-03 0. -1.
         11   -1    0    0    0    0 -0.00000000000E+00 -0.00000000000E+00 -0.45593999997E+02  0.45594000000E+02  0.51100000000E-03 0.  1.
         23    2    1    2    0    0  0.00000000000E+00  0.00000000000E+00  0.00000000000E+00  0.91188000000E+02  0.91188000000E+02 0.  0.
    9900012    2    3    3    0    0  0.84393629112E+01 -0.35388782803E+01  0.42424946901E+02  0.47787278515E+02  0.20000034062E+02 0.  0.
        -12    1    3    3    0    0 -0.84393629112E+01  0.35388782803E+01 -0.42424946901E+02  0.43400721485E+02  0.00000000000E+00 0.  1.
         11    1    4    4    0    0  0.55096737810E+01 -0.30983962579E+01  0.30053327032E+02  0.30710894329E+02  0.51100000000E-03 0. -1.
        -11    1    4    4    0    0 -0.65526471380E+00  0.47759066166E+01  0.27218294197E+01  0.55359743051E+01  0.51100000000E-03 0.  1.
        -12    1    4    4    0    0  0.35849538440E+01 -0.52163886390E+01  0.96497904500E+01  0.11540409881E+02  0.00000000000E+00 0.  1.
</event>
<event>
 8    1  0.6019723E-011  0.9118800E+02  0.7816164E-02  0.1184000E+00
        -11   -1    0    0    0    0  0.00000000000E+00  0.00000000000E+00  0.45593999997E+02  0.45594000000E+02  0.51100000000E-03 0. -1.
         11   -1    0    0    0    0 -0.00000000000E+00 -0.00000000000E+00 -0.45593999997E+02  0.45594000000E+02  0.51100000000E-03 0.  1.
         23    2    1    2    0    0  0.35527136788E-14  0.00000000000E+00  0.00000000000E+00  0.91188000000E+02  0.91188000000E+02 0.  0.
    9900012    2    3    3    0    0 -0.23632076631E+02 -0.65344053976E+01  0.35811316144E+02  0.47787264248E+02  0.19999969013E+02 0.  0.
        -12    1    3    3    0    0  0.23632076631E+02  0.65344053976E+01 -0.35811316144E+02  0.43400735752E+02  0.00000000000E+00 0.  1.
         11    1    4    4    0    0 -0.46261258533E+01  0.35882710401E+01  0.15911384497E+02  0.16954317631E+02  0.51100000000E-03 0. -1.
        -11    1    4    4    0    0 -0.16383422900E+02 -0.10565573358E+02  0.20298180753E+02  0.28143632112E+02  0.51100000000E-03 0.  1.
        -12    1    4    4    0    0 -0.26225278787E+01  0.44289692021E+00 -0.39824910635E+00  0.26893145051E+01  0.00000000000E+00 0.  1.
</event>
<event>
 8    1  0.6019723E-011  0.9118800E+02  0.7816164E-02  0.1184000E+00
        -11   -1    0    0    0    0  0.00000000000E+00  0.00000000000E+00  0.45593999997E+02  0.45594000000E+02  0.51100000000E-03 0. -1.
         11   -1    0    0    0    0 -0.00000000000E+00 -0.00000000000E+00 -0.45593999997E+02  0.45594000000E+02  0.51100000000E-03 0.  1.
         23    2    1    2    0    0 -0.88817841970E-15 -0.35527136788E-14  0.00000000000E+00  0.91188000000E+02  0.91188000000E+02 0.  0.
    9900012    2    3    3    0    0  0.51365465171E+01 -0.29905234926E+02  0.31030889616E+02  0.47787270784E+02  0.19999998814E+02 0.  0.
        -12    1    3    3    0    0 -0.51365465171E+01  0.29905234926E+02 -0.31030889616E+02  0.43400729216E+02  0.00000000000E+00 0.  1.
         11    1    4    4    0    0 -0.54782856708E+01 -0.11985708075E+02  0.14370851052E+02  0.19498465893E+02  0.51100000000E-03 0. -1.
        -11    1    4    4    0    0  0.75414208698E+01 -0.80602383857E+01  0.35400061625E+01  0.11591898700E+02  0.51100000000E-03 0.  1.
        -12    1    4    4    0    0  0.30734113181E+01 -0.98592884652E+01  0.13120032402E+02  0.16696906192E+02  0.00000000000E+00 0.  1.
</event>
<event>
 8    1  0.6019723E-011  0.9118800E+02  0.7816164E-02  0.1184000E+00
        -11   -1    0    0    0    0  0.00000000000E+00  0.00000000000E+00  0.45593999997E+02  0.45594000000E+02  0.51100000000E-03 0. -1.
         11   -1    0    0    0    0 -0.00000000000E+00 -0.00000000000E+00 -0.45593999997E+02  0.45594000000E+02  0.51100000000E-03 0.  1.
         23    2    1    2    0    0  0.44408920985E-15  0.00000000000E+00  0.00000000000E+00  0.91188000000E+02  0.91188000000E+02 0.  0.
    9900012    2    3    3    0    0 -0.39248575211E+01 -0.36085959605E+02 -0.23791258632E+02  0.47787251453E+02  0.19999910674E+02 0.  0.
         12    1    3    3    0    0  0.39248575211E+01  0.36085959605E+02  0.23791258632E+02  0.43400748547E+02  0.00000000000E+00 0. -1.
         11    1    4    4    0    0 -0.71859229128E+01 -0.12764244623E+02 -0.39931541951E+01  0.15182513283E+02  0.51100000000E-03 0. -1.
        -11    1    4    4    0    0  0.66013464245E+00 -0.23078507568E+02 -0.18916414282E+02  0.29847680293E+02  0.51100000000E-03 0.  1.
        -12    1    4    4    0    0  0.26009307492E+01 -0.24320741396E+00 -0.88169015528E+00  0.27570578772E+01  0.00000000000E+00 0.  1.
</event>
<event>
 8    1  0.6019723E-011  0.9118800E+02  0.7816164E-02  0.1184000E+00
        -11   -1    0    0    0    0  0.00000000000E+00  0.00000000000E+00  0.45593999997E+02  0.45594000000E+02  0.51100000000E-03 0. -1.
         11   -1    0    0    0    0 -0.00000000000E+00 -0.00000000000E+00 -0.45593999997E+02  0.45594000000E+02  0.51100000000E-03 0.  1.
         23    2    1    2    0    0  0.00000000000E+00  0.00000000000E+00  0.00000000000E+00  0.91188000000E+02  0.91188000000E+02 0.  0.
    9900012    2    3    3    0    0  0.18698487962E+02 -0.66204872710E+01 -0.38602595638E+02  0.47787254687E+02  0.19999925419E+02 0.  0.
         12    1    3    3    0    0 -0.18698487962E+02  0.66204872710E+01  0.38602595638E+02  0.43400745313E+02  0.00000000000E+00 0. -1.
         11    1    4    4    0    0  0.15683010133E+02 -0.58810103933E+01 -0.15148965131E+02  0.22583937542E+02  0.51100000000E-03 0. -1.
        -11    1    4    4    0    0  0.29265899460E+01  0.14450139986E+01 -0.24371207900E+01  0.40733956565E+01  0.51100000000E-03 0.  1.
         12    1    4    4    0    0  0.88887882719E-01 -0.21844908762E+01 -0.21016509717E+02  0.21129921489E+02  0.00000000000E+00 0. -1.
</event>
<event>
 8    1  0.7908503E-011  0.9118800E+02  0.7816164E-02  0.1184000E+00
        -11   -1    0    0    0    0  0.00000000000E+00  0.00000000000E+00  0.45593999997E+02  0.45594000000E+02  0.51100000000E-03 0. -1.
         11   -1    0    0    0    0 -0.00000000000E+00 -0.00000000000E+00 -0.45593999997E+02  0.45594000000E+02  0.51100000000E-03 0.  1.
         23    2    1    2    0    0  0.00000000000E+00  0.22204460493E-15  0.00000000000E+00  0.91188000000E+02  0.91188000000E+02 0.  0.
    9900012    2    3    3    0    0  0.20860158170E+02  0.10998568702E+01 -0.38042967927E+02  0.47787270828E+02  0.19999999012E+02 0.  0.
         12    1    3    3    0    0 -0.20860158170E+02 -0.10998568702E+01  0.38042967927E+02  0.43400729172E+02  0.00000000000E+00 0. -1.
         11    1    4    4    0    0  0.70217544868E+01  0.72597294676E+01 -0.16836257535E+02  0.19633346023E+02  0.51100000000E-03 0. -1.
        -11    1    4    4    0    0  0.14082589237E+02 -0.72190744964E+01 -0.21782243576E+02  0.26923976149E+02  0.51100000000E-03 0.  1.
         12    1    4    4    0    0 -0.24418555388E+00  0.10592018990E+01  0.57553318503E+00  0.12299486553E+01  0.00000000000E+00 0. -1.
</event>
<event>
 8    1  0.6019723E-011  0.9118800E+02  0.7816164E-02  0.1184000E+00
        -11   -1    0    0    0    0  0.00000000000E+00  0.00000000000E+00  0.45593999997E+02  0.45594000000E+02  0.51100000000E-03 0.  1.
         11   -1    0    0    0    0 -0.00000000000E+00 -0.00000000000E+00 -0.45593999997E+02  0.45594000000E+02  0.51100000000E-03 0. -1.
         23    2    1    2    0    0  0.00000000000E+00  0.00000000000E+00  0.00000000000E+00  0.91188000000E+02  0.91188000000E+02 0.  0.
    9900012    2    3    3    0    0  0.80835172847E+01 -0.42596887068E+02 -0.19455431073E+01  0.47787272154E+02  0.20000005059E+02 0.  0.
        -12    1    3    3    0    0 -0.80835172847E+01  0.42596887068E+02  0.19455431073E+01  0.43400727846E+02  0.00000000000E+00 0.  1.
         11    1    4    4    0    0  0.61484292694E+01 -0.11558981356E+02 -0.32301844377E+01  0.13485077835E+02  0.51100000000E-03 0. -1.
        -11    1    4    4    0    0 -0.11398074138E+00 -0.31681815945E+02  0.25917745350E+01  0.31787855365E+02  0.51100000000E-03 0.  1.
        -12    1    4    4    0    0  0.20490687567E+01  0.64391023339E+00 -0.13071332046E+01  0.25143389535E+01  0.00000000000E+00 0.  1.
</event>
<event>
 8    1  0.6019723E-011  0.9118800E+02  0.7816164E-02  0.1184000E+00
        -11   -1    0    0    0    0  0.00000000000E+00  0.00000000000E+00  0.45593999997E+02  0.45594000000E+02  0.51100000000E-03 0.  1.
         11   -1    0    0    0    0 -0.00000000000E+00 -0.00000000000E+00 -0.45593999997E+02  0.45594000000E+02  0.51100000000E-03 0. -1.
         23    2    1    2    0    0  0.00000000000E+00  0.00000000000E+00 -0.19428902931E-15  0.91188000000E+02  0.91188000000E+02 0.  0.
    9900012    2    3    3    0    0 -0.39179305506E+02  0.18670313306E+02 -0.15789159562E+00  0.47787268340E+02  0.19999987669E+02 0.  0.
        -12    1    3    3    0    0  0.39179305506E+02 -0.18670313306E+02  0.15789159562E+00  0.43400731660E+02  0.00000000000E+00 0.  1.
         11    1    4    4    0    0 -0.20022157991E+02  0.17015343384E+02 -0.28396714998E+01  0.26428629469E+02  0.51100000000E-03 0. -1.
        -11    1    4    4    0    0 -0.10262795208E+02 -0.29624218272E+01 -0.89206596295E+00  0.10718987382E+02  0.51100000000E-03 0.  1.
         12    1    4    4    0    0 -0.88943523070E+01  0.46173917486E+01  0.35738458672E+01  0.10639651489E+02  0.00000000000E+00 0. -1.
</event>
<event>
 8    1  0.6019723E-011  0.9118800E+02  0.7816164E-02  0.1184000E+00
        -11   -1    0    0    0    0  0.00000000000E+00  0.00000000000E+00  0.45593999997E+02  0.45594000000E+02  0.51100000000E-03 0. -1.
         11   -1    0    0    0    0 -0.00000000000E+00 -0.00000000000E+00 -0.45593999997E+02  0.45594000000E+02  0.51100000000E-03 0.  1.
         23    2    1    2    0    0  0.00000000000E+00  0.00000000000E+00  0.00000000000E+00  0.91188000000E+02  0.91188000000E+02 0.  0.
    9900012    2    3    3    0    0 -0.85885261386E+01 -0.24731457317E+02 -0.34615232375E+02  0.47787284861E+02  0.20000062993E+02 0.  0.
         12    1    3    3    0    0  0.85885261386E+01  0.24731457317E+02  0.34615232375E+02  0.43400715139E+02  0.00000000000E+00 0. -1.
         11    1    4    4    0    0  0.38408445442E+01 -0.20899190110E+01 -0.66731925321E+01  0.79781794363E+01  0.51100000000E-03 0. -1.
        -11    1    4    4    0    0 -0.85816618426E+01 -0.12882105130E+02 -0.83552279528E+01  0.17589866030E+02  0.51100000000E-03 0.  1.
        -12    1    4    4    0    0 -0.38477088402E+01 -0.97594331761E+01 -0.19586811890E+02  0.22219239394E+02  0.00000000000E+00 0.  1.
</event>
<event>
 8    1  0.6019723E-011  0.9118800E+02  0.7816164E-02  0.1184000E+00
        -11   -1    0    0    0    0  0.00000000000E+00  0.00000000000E+00  0.45593999997E+02  0.45594000000E+02  0.51100000000E-03 0. -1.
         11   -1    0    0    0    0 -0.00000000000E+00 -0.00000000000E+00 -0.45593999997E+02  0.45594000000E+02  0.51100000000E-03 0.  1.
         23    2    1    2    0    0  0.00000000000E+00  0.00000000000E+00  0.00000000000E+00  0.91188000000E+02  0.91188000000E+02 0.  0.
    9900012    2    3    3    0    0  0.37099905583E+02 -0.13798817021E+02 -0.17799240778E+02  0.47787270540E+02  0.19999997700E+02 0.  0.
         12    1    3    3    0    0 -0.37099905583E+02  0.13798817021E+02  0.17799240778E+02  0.43400729460E+02  0.00000000000E+00 0. -1.
         11    1    4    4    0    0  0.17802388230E+02  0.10968890281E+01 -0.13719281298E+02  0.22502152604E+02  0.51100000000E-03 0. -1.
        -11    1    4    4    0    0  0.18130365307E+02 -0.11855127543E+02 -0.39920076458E+01  0.22027036127E+02  0.51100000000E-03 0.  1.
        -12    1    4    4    0    0  0.11671520452E+01 -0.30405785055E+01 -0.87951833978E-01  0.32580818084E+01  0.00000000000E+00 0.  1.
</event>
<event>
 8    1  0.6019723E-011  0.9118800E+02  0.7816164E-02  0.1184000E+00
        -11   -1    0    0    0    0  0.00000000000E+00  0.00000000000E+00  0.45593999997E+02  0.45594000000E+02  0.51100000000E-03 0. -1.
         11   -1    0    0    0    0 -0.00000000000E+00 -0.00000000000E+00 -0.45593999997E+02  0.45594000000E+02  0.51100000000E-03 0.  1.
         23    2    1    2    0    0 -0.17763568394E-14  0.00000000000E+00  0.00000000000E+00  0.91188000000E+02  0.91188000000E+02 0.  0.
    9900012    2    3    3    0    0  0.12053717980E+02  0.25988664221E+02 -0.32602464736E+02  0.47787268532E+02  0.19999988545E+02 0.  0.
         12    1    3    3    0    0 -0.12053717980E+02 -0.25988664221E+02  0.32602464736E+02  0.43400731468E+02  0.00000000000E+00 0. -1.
         11    1    4    4    0    0  0.19899852623E+00  0.13519954994E+02 -0.18872122656E+02  0.23216067652E+02  0.51100000000E-03 0. -1.
        -11    1    4    4    0    0  0.32562275463E+01  0.61089630162E+01 -0.11833172853E+02  0.13709355455E+02  0.51100000000E-03 0.  1.
         12    1    4    4    0    0  0.85984919074E+01  0.63597462108E+01 -0.18971692269E+01  0.10861845424E+02  0.00000000000E+00 0. -1.
</event>
<event>
 8    1  0.6019723E-011  0.9118800E+02  0.7816164E-02  0.1184000E+00
        -11   -1    0    0    0    0  0.00000000000E+00  0.00000000000E+00  0.45593999997E+02  0.45594000000E+02  0.51100000000E-03 0. -1.
         11   -1    0    0    0    0 -0.00000000000E+00 -0.00000000000E+00 -0.45593999997E+02  0.45594000000E+02  0.51100000000E-03 0.  1.
         23    2    1    2    0    0 -0.88817841970E-15  0.71054273576E-14  0.00000000000E+00  0.91188000000E+02  0.91188000000E+02 0.  0.
    9900012    2    3    3    0    0 -0.50908573579E+01  0.38919533047E+02 -0.18519639669E+02  0.47787263431E+02  0.19999965289E+02 0.  0.
         12    1    3    3    0    0  0.50908573579E+01 -0.38919533047E+02  0.18519639669E+02  0.43400736569E+02  0.00000000000E+00 0. -1.
         11    1    4    4    0    0 -0.22225992785E+01  0.23883498838E+02 -0.14655612838E+02  0.28109579367E+02  0.51100000000E-03 0.  1.
        -11    1    4    4    0    0  0.30344246468E+01  0.44443408701E+00 -0.23521637618E+01  0.38649617356E+01  0.51100000000E-03 0. -1.
        -12    1    4    4    0    0 -0.59026827261E+01  0.14591600122E+02 -0.15118630687E+01  0.15812722328E+02  0.00000000000E+00 0.  1.
</event>
<event>
 8    1  0.6019723E-011  0.9118800E+02  0.7816164E-02  0.1184000E+00
        -11   -1    0    0    0    0  0.00000000000E+00  0.00000000000E+00  0.45593999997E+02  0.45594000000E+02  0.51100000000E-03 0. -1.
         11   -1    0    0    0    0 -0.00000000000E+00 -0.00000000000E+00 -0.45593999997E+02  0.45594000000E+02  0.51100000000E-03 0.  1.
         23    2    1    2    0    0  0.00000000000E+00  0.00000000000E+00 -0.71054273576E-14  0.91188000000E+02  0.91188000000E+02 0.  0.
    9900012    2    3    3    0    0 -0.22813388219E+02 -0.83260151814E+01 -0.35970124298E+02  0.47787273591E+02  0.20000011609E+02 0.  0.
         12    1    3    3    0    0  0.22813388219E+02  0.83260151814E+01  0.35970124298E+02  0.43400726409E+02  0.00000000000E+00 0. -1.
         11    1    4    4    0    0 -0.16159602801E+01 -0.82102459568E+01 -0.16350453118E+02  0.18367274804E+02  0.51100000000E-03 0. -1.
        -11    1    4    4    0    0 -0.15967444274E+02 -0.21924683966E+01 -0.12821973749E+02  0.20595368543E+02  0.51100000000E-03 0.  1.
         12    1    4    4    0    0 -0.52299836642E+01  0.20766991720E+01 -0.67976974311E+01  0.88246302440E+01  0.00000000000E+00 0. -1.
</event>
<event>
 8    1  0.6019723E-011  0.9118800E+02  0.7816164E-02  0.1184000E+00
        -11   -1    0    0    0    0  0.00000000000E+00  0.00000000000E+00  0.45593999997E+02  0.45594000000E+02  0.51100000000E-03 0. -1.
         11   -1    0    0    0    0 -0.00000000000E+00 -0.00000000000E+00 -0.45593999997E+02  0.45594000000E+02  0.51100000000E-03 0.  1.
         23    2    1    2    0    0  0.35527136788E-14  0.00000000000E+00 -0.17763568394E-14  0.91188000000E+02  0.91188000000E+02 0.  0.
    9900012    2    3    3    0    0  0.30601509352E+02  0.26980445723E+02  0.14806292773E+02  0.47787272683E+02  0.20000007469E+02 0.  0.
        -12    1    3    3    0    0 -0.30601509352E+02 -0.26980445723E+02 -0.14806292773E+02  0.43400727317E+02  0.00000000000E+00 0.  1.
         11    1    4    4    0    0  0.24679825782E+02  0.29339895309E+02  0.12168131847E+02  0.40224205279E+02  0.51100000000E-03 0. -1.
        -11    1    4    4    0    0  0.77328530599E+00 -0.11141452990E+01  0.17148664656E+01  0.21863341849E+01  0.51100000000E-03 0.  1.
         12    1    4    4    0    0  0.51483982633E+01 -0.12453042878E+01  0.92329446089E+00  0.53767332190E+01  0.00000000000E+00 0. -1.
</event>
<event>
 8    1  0.6019723E-011  0.9118800E+02  0.7816164E-02  0.1184000E+00
        -11   -1    0    0    0    0  0.00000000000E+00  0.00000000000E+00  0.45593999997E+02  0.45594000000E+02  0.51100000000E-03 0. -1.
         11   -1    0    0    0    0 -0.00000000000E+00 -0.00000000000E+00 -0.45593999997E+02  0.45594000000E+02  0.51100000000E-03 0.  1.
         23    2    1    2    0    0 -0.88817841970E-15  0.44408920985E-15  0.00000000000E+00  0.91188000000E+02  0.91188000000E+02 0.  0.
    9900012    2    3    3    0    0  0.48004261666E+01 -0.29435204329E+01  0.43033884550E+02  0.47787267017E+02  0.19999981639E+02 0.  0.
        -12    1    3    3    0    0 -0.48004261666E+01  0.29435204329E+01 -0.43033884550E+02  0.43400732983E+02  0.00000000000E+00 0.  1.
         11    1    4    4    0    0 -0.23047225572E+01  0.10407286494E+01  0.24658151200E+02  0.24787482387E+02  0.51100000000E-03 0. -1.
        -11    1    4    4    0    0  0.36276768204E+01 -0.74410803865E+01  0.79448053779E+01  0.11473868100E+02  0.51100000000E-03 0.  1.
        -12    1    4    4    0    0  0.34774719033E+01  0.34568313041E+01  0.10430927972E+02  0.11525916530E+02  0.00000000000E+00 0.  1.
</event>
<event>
 8    1  0.6019723E-011  0.9118800E+02  0.7816164E-02  0.1184000E+00
        -11   -1    0    0    0    0  0.00000000000E+00  0.00000000000E+00  0.45593999997E+02  0.45594000000E+02  0.51100000000E-03 0. -1.
         11   -1    0    0    0    0 -0.00000000000E+00 -0.00000000000E+00 -0.45593999997E+02  0.45594000000E+02  0.51100000000E-03 0.  1.
         23    2    1    2    0    0  0.00000000000E+00  0.00000000000E+00  0.88817841970E-15  0.91188000000E+02  0.91188000000E+02 0.  0.
    9900012    2    3    3    0    0  0.11463013416E+02  0.41450455254E+02  0.58380114428E+01  0.47787270802E+02  0.19999998893E+02 0.  0.
         12    1    3    3    0    0 -0.11463013416E+02 -0.41450455254E+02 -0.58380114428E+01  0.43400729198E+02  0.00000000000E+00 0. -1.
         11    1    4    4    0    0 -0.19548835477E+01 -0.34652252310E-01  0.21093565522E+01  0.28761355652E+01  0.51100000000E-03 0. -1.
        -11    1    4    4    0    0  0.11075511137E+02  0.18601213627E+02  0.33357032516E+01  0.21904314912E+02  0.51100000000E-03 0.  1.
         12    1    4    4    0    0  0.23423858275E+01  0.22883893879E+02  0.39295163890E+00  0.23006820324E+02  0.00000000000E+00 0. -1.
</event>
<event>
 8    1  0.6644555E-011  0.9118800E+02  0.7816164E-02  0.1184000E+00
        -11   -1    0    0    0    0  0.00000000000E+00  0.00000000000E+00  0.45593999997E+02  0.45594000000E+02  0.51100000000E-03 0. -1.
         11   -1    0    0    0    0 -0.00000000000E+00 -0.00000000000E+00 -0.45593999997E+02  0.45594000000E+02  0.51100000000E-03 0.  1.
         23    2    1    2    0    0  0.35527136788E-14  0.00000000000E+00  0.35527136788E-14  0.91188000000E+02  0.91188000000E+02 0.  0.
    9900012    2    3    3    0    0 -0.30157470815E+02 -0.39041736421E+01 -0.30966254430E+02  0.47787256559E+02  0.19999933955E+02 0.  0.
         12    1    3    3    0    0  0.30157470815E+02  0.39041736421E+01  0.30966254430E+02  0.43400743441E+02  0.00000000000E+00 0. -1.
         11    1    4    4    0    0 -0.47653193917E+01  0.34806942920E+00  0.17412292818E+01  0.50854007616E+01  0.51100000000E-03 0. -1.
        -11    1    4    4    0    0 -0.96006881917E+01  0.26452084416E+01 -0.92219841338E+01  0.13572594928E+02  0.51100000000E-03 0.  1.
         12    1    4    4    0    0 -0.15791463232E+02 -0.68974515129E+01 -0.23485499578E+02  0.29129260870E+02  0.00000000000E+00 0. -1.
</event>
<event>
 8    1  0.6019723E-011  0.9118800E+02  0.7816164E-02  0.1184000E+00
        -11   -1    0    0    0    0  0.00000000000E+00  0.00000000000E+00  0.45593999997E+02  0.45594000000E+02  0.51100000000E-03 0. -1.
         11   -1    0    0    0    0 -0.00000000000E+00 -0.00000000000E+00 -0.45593999997E+02  0.45594000000E+02  0.51100000000E-03 0.  1.
         23    2    1    2    0    0  0.13322676296E-14 -0.44408920985E-15  0.00000000000E+00  0.91188000000E+02  0.91188000000E+02 0.  0.
    9900012    2    3    3    0    0 -0.13174195439E+00 -0.26643287795E+01  0.43318681344E+02  0.47787260869E+02  0.19999953604E+02 0.  0.
        -12    1    3    3    0    0  0.13174195439E+00  0.26643287795E+01 -0.43318681344E+02  0.43400739131E+02  0.00000000000E+00 0.  1.
         11    1    4    4    0    0  0.83194699130E+01  0.35551748447E+01  0.23358498454E+02  0.25049397161E+02  0.51100000000E-03 0. -1.
        -11    1    4    4    0    0 -0.58257983393E+01 -0.26936560136E+01  0.10502254010E+02  0.12308251239E+02  0.51100000000E-03 0.  1.
         12    1    4    4    0    0 -0.26254135281E+01 -0.35258476105E+01  0.94579288796E+01  0.10429612469E+02  0.00000000000E+00 0. -1.
</event>
<event>
 8    1  0.6019723E-011  0.9118800E+02  0.7816164E-02  0.1184000E+00
        -11   -1    0    0    0    0  0.00000000000E+00  0.00000000000E+00  0.45593999997E+02  0.45594000000E+02  0.51100000000E-03 0. -1.
         11   -1    0    0    0    0 -0.00000000000E+00 -0.00000000000E+00 -0.45593999997E+02  0.45594000000E+02  0.51100000000E-03 0.  1.
         23    2    1    2    0    0  0.44408920985E-15  0.88817841970E-15  0.00000000000E+00  0.91188000000E+02  0.91188000000E+02 0.  0.
    9900012    2    3    3    0    0 -0.38117133716E+01 -0.79775437690E+01 -0.42490656302E+02  0.47787236914E+02  0.19999844386E+02 0.  0.
         12    1    3    3    0    0  0.38117133716E+01  0.79775437690E+01  0.42490656302E+02  0.43400763086E+02  0.00000000000E+00 0. -1.
         11    1    4    4    0    0 -0.14377578539E+01 -0.19659969805E+01 -0.25796636339E+00  0.24492526778E+01  0.51100000000E-03 0. -1.
        -11    1    4    4    0    0  0.27535587861E+01 -0.28684068890E+01 -0.37432308666E+02  0.37642895430E+02  0.51100000000E-03 0.  1.
        -12    1    4    4    0    0 -0.51275143038E+01 -0.31431398995E+01 -0.48003812732E+01  0.76950888060E+01  0.00000000000E+00 0.  1.
</event>
<event>
 8    1  0.6019723E-011  0.9118800E+02  0.7816164E-02  0.1184000E+00
        -11   -1    0    0    0    0  0.00000000000E+00  0.00000000000E+00  0.45593999997E+02  0.45594000000E+02  0.51100000000E-03 0. -1.
         11   -1    0    0    0    0 -0.00000000000E+00 -0.00000000000E+00 -0.45593999997E+02  0.45594000000E+02  0.51100000000E-03 0.  1.
         23    2    1    2    0    0  0.00000000000E+00  0.00000000000E+00  0.00000000000E+00  0.91188000000E+02  0.91188000000E+02 0.  0.
    9900012    2    3    3    0    0 -0.17380212080E+02  0.24741285742E+02 -0.31135513568E+02  0.47787271927E+02  0.20000004023E+02 0.  0.
         12    1    3    3    0    0  0.17380212080E+02 -0.24741285742E+02  0.31135513568E+02  0.43400728073E+02  0.00000000000E+00 0. -1.
         11    1    4    4    0    0 -0.15889344892E+02  0.17020648668E+02 -0.26815877524E+02  0.35514293599E+02  0.51100000000E-03 0. -1.
        -11    1    4    4    0    0  0.28638389213E+01  0.21749734040E+01  0.63958411800E+00  0.36525540079E+01  0.51100000000E-03 0.  1.
        -12    1    4    4    0    0 -0.43547061100E+01  0.55456636704E+01 -0.49592201616E+01  0.86204243202E+01  0.00000000000E+00 0.  1.
</event>
<event>
 8    1  0.6019723E-011  0.9118800E+02  0.7816164E-02  0.1184000E+00
        -11   -1    0    0    0    0  0.00000000000E+00  0.00000000000E+00  0.45593999997E+02  0.45594000000E+02  0.51100000000E-03 0. -1.
         11   -1    0    0    0    0 -0.00000000000E+00 -0.00000000000E+00 -0.45593999997E+02  0.45594000000E+02  0.51100000000E-03 0.  1.
         23    2    1    2    0    0  0.00000000000E+00  0.00000000000E+00  0.00000000000E+00  0.91188000000E+02  0.91188000000E+02 0.  0.
    9900012    2    3    3    0    0  0.19384529917E+02 -0.21127439289E+02 -0.32580589753E+02  0.47787268213E+02  0.19999987089E+02 0.  0.
         12    1    3    3    0    0 -0.19384529917E+02  0.21127439289E+02  0.32580589753E+02  0.43400731787E+02  0.00000000000E+00 0. -1.
         11    1    4    4    0    0 -0.65894505788E+00  0.29616853601E+00  0.20002839298E+00  0.74962391247E+00  0.51100000000E-03 0. -1.
        -11    1    4    4    0    0  0.15719344752E+02 -0.13200562229E+02 -0.10845036174E+02  0.23215672562E+02  0.51100000000E-03 0.  1.
        -12    1    4    4    0    0  0.43241302221E+01 -0.82230455955E+01 -0.21935581973E+02  0.23821971739E+02  0.00000000000E+00 0.  1.
</event>
<event>
 8    1  0.6019723E-011  0.9118800E+02  0.7816164E-02  0.1184000E+00
        -11   -1    0    0    0    0  0.00000000000E+00  0.00000000000E+00  0.45593999997E+02  0.45594000000E+02  0.51100000000E-03 0. -1.
         11   -1    0    0    0    0 -0.00000000000E+00 -0.00000000000E+00 -0.45593999997E+02  0.45594000000E+02  0.51100000000E-03 0.  1.
         23    2    1    2    0    0 -0.88817841970E-15  0.17763568394E-14  0.00000000000E+00  0.91188000000E+02  0.91188000000E+02 0.  0.
    9900012    2    3    3    0    0 -0.76793169790E+01  0.12812944943E+02 -0.40748983299E+02  0.47787272964E+02  0.20000008750E+02 0.  0.
         12    1    3    3    0    0  0.76793169790E+01 -0.12812944943E+02  0.40748983299E+02  0.43400727036E+02  0.00000000000E+00 0. -1.
         11    1    4    4    0    0  0.80922834248E+00  0.10427892097E+02 -0.17321690773E+02  0.20234543622E+02  0.51100000000E-03 0. -1.
        -11    1    4    4    0    0 -0.11321602921E+02  0.22294198600E+01 -0.17232145224E+02  0.20738752009E+02  0.51100000000E-03 0.  1.
        -12    1    4    4    0    0  0.28330575996E+01  0.15563298544E+00 -0.61951473025E+01  0.68139773325E+01  0.00000000000E+00 0.  1.
</event>
<event>
 8    1  0.6019723E-011  0.9118800E+02  0.7816164E-02  0.1184000E+00
        -11   -1    0    0    0    0  0.00000000000E+00  0.00000000000E+00  0.45593999997E+02  0.45594000000E+02  0.51100000000E-03 0. -1.
         11   -1    0    0    0    0 -0.00000000000E+00 -0.00000000000E+00 -0.45593999997E+02  0.45594000000E+02  0.51100000000E-03 0.  1.
         23    2    1    2    0    0  0.00000000000E+00  0.00000000000E+00  0.00000000000E+00  0.91188000000E+02  0.91188000000E+02 0.  0.
    9900012    2    3    3    0    0  0.15724231641E+02 -0.35831422035E+02 -0.18774478560E+02  0.47787270617E+02  0.19999998053E+02 0.  0.
         12    1    3    3    0    0 -0.15724231641E+02  0.35831422035E+02  0.18774478560E+02  0.43400729383E+02  0.00000000000E+00 0. -1.
         11    1    4    4    0    0 -0.20613837465E+01  0.63560737123E+00 -0.38553499318E+01  0.44178074922E+01  0.51100000000E-03 0. -1.
        -11    1    4    4    0    0  0.12182540296E+02 -0.28352667262E+02 -0.11513060754E+02  0.32936888091E+02  0.51100000000E-03 0.  1.
         12    1    4    4    0    0  0.56030750907E+01 -0.81143621441E+01 -0.34060678750E+01  0.10432575034E+02  0.00000000000E+00 0. -1.
</event>
<event>
 8    1  0.6019723E-011  0.9118800E+02  0.7816164E-02  0.1184000E+00
        -11   -1    0    0    0    0  0.00000000000E+00  0.00000000000E+00  0.45593999997E+02  0.45594000000E+02  0.51100000000E-03 0. -1.
         11   -1    0    0    0    0 -0.00000000000E+00 -0.00000000000E+00 -0.45593999997E+02  0.45594000000E+02  0.51100000000E-03 0.  1.
         23    2    1    2    0    0 -0.17763568394E-14  0.71054273576E-14  0.35527136788E-14  0.91188000000E+02  0.91188000000E+02 0.  0.
    9900012    2    3    3    0    0 -0.12234248818E+02  0.35631464397E+02  0.21548671464E+02  0.47787270270E+02  0.19999996470E+02 0.  0.
        -12    1    3    3    0    0  0.12234248818E+02 -0.35631464397E+02 -0.21548671464E+02  0.43400729730E+02  0.00000000000E+00 0.  1.
         11    1    4    4    0    0 -0.84310095149E+01  0.13460868307E+02  0.93823135532E+01  0.18447349536E+02  0.51100000000E-03 0. -1.
        -11    1    4    4    0    0  0.41718171226E+01  0.81037650747E+01  0.17795904323E-01  0.91145698442E+01  0.51100000000E-03 0.  1.
        -12    1    4    4    0    0 -0.79750564260E+01  0.14066831016E+02  0.12148562006E+02  0.20225350890E+02  0.00000000000E+00 0.  1.
</event>
<event>
 8    1  0.6019723E-011  0.9118800E+02  0.7816164E-02  0.1184000E+00
        -11   -1    0    0    0    0  0.00000000000E+00  0.00000000000E+00  0.45593999997E+02  0.45594000000E+02  0.51100000000E-03 0. -1.
         11   -1    0    0    0    0 -0.00000000000E+00 -0.00000000000E+00 -0.45593999997E+02  0.45594000000E+02  0.51100000000E-03 0.  1.
         23    2    1    2    0    0  0.00000000000E+00 -0.35527136788E-14  0.00000000000E+00  0.91188000000E+02  0.91188000000E+02 0.  0.
    9900012    2    3    3    0    0 -0.38366457198E+02 -0.17460936637E+02  0.10332164987E+02  0.47787274436E+02  0.20000015465E+02 0.  0.
        -12    1    3    3    0    0  0.38366457198E+02  0.17460936637E+02 -0.10332164987E+02  0.43400725564E+02  0.00000000000E+00 0.  1.
         11    1    4    4    0    0 -0.95987605488E+01 -0.49133008699E+01  0.19072137894E+01  0.10950533969E+02  0.51100000000E-03 0. -1.
        -11    1    4    4    0    0 -0.29457343123E+02 -0.85140461375E+01  0.10284606308E+02  0.32341879548E+02  0.51100000000E-03 0.  1.
        -12    1    4    4    0    0  0.68964647401E+00 -0.40335896291E+01 -0.18596551103E+01  0.44948609194E+01  0.00000000000E+00 0.  1.
</event>
<event>
 8    1  0.6019723E-011  0.9118800E+02  0.7816164E-02  0.1184000E+00
        -11   -1    0    0    0    0  0.00000000000E+00  0.00000000000E+00  0.45593999997E+02  0.45594000000E+02  0.51100000000E-03 0. -1.
         11   -1    0    0    0    0 -0.00000000000E+00 -0.00000000000E+00 -0.45593999997E+02  0.45594000000E+02  0.51100000000E-03 0.  1.
         23    2    1    2    0    0  0.17763568394E-14  0.00000000000E+00 -0.35527136788E-14  0.91188000000E+02  0.91188000000E+02 0.  0.
    9900012    2    3    3    0    0 -0.88740234318E+01 -0.29548726477E+02  0.30524540870E+02  0.47787272776E+02  0.20000007893E+02 0.  0.
        -12    1    3    3    0    0  0.88740234318E+01  0.29548726477E+02 -0.30524540870E+02  0.43400727224E+02  0.00000000000E+00 0.  1.
         11    1    4    4    0    0  0.18297488713E+01 -0.48209647566E+01  0.16722100178E+02  0.17499094741E+02  0.51100000000E-03 0. -1.
        -11    1    4    4    0    0 -0.49186355483E+01 -0.11262418563E+02  0.68048091875E+01  0.14047792563E+02  0.51100000000E-03 0.  1.
         12    1    4    4    0    0 -0.57851367547E+01 -0.13465343156E+02  0.69976315044E+01  0.16240385472E+02  0.00000000000E+00 0. -1.
</event>
<event>
 8    1  0.6019723E-011  0.9118800E+02  0.7816164E-02  0.1184000E+00
        -11   -1    0    0    0    0  0.00000000000E+00  0.00000000000E+00  0.45593999997E+02  0.45594000000E+02  0.51100000000E-03 0. -1.
         11   -1    0    0    0    0 -0.00000000000E+00 -0.00000000000E+00 -0.45593999997E+02  0.45594000000E+02  0.51100000000E-03 0.  1.
         23    2    1    2    0    0  0.00000000000E+00  0.00000000000E+00  0.00000000000E+00  0.91188000000E+02  0.91188000000E+02 0.  0.
    9900012    2    3    3    0    0 -0.23645896411E+02 -0.10106277155E+02  0.34962240613E+02  0.47787268166E+02  0.19999986877E+02 0.  0.
        -12    1    3    3    0    0  0.23645896411E+02  0.10106277155E+02 -0.34962240613E+02  0.43400731834E+02  0.00000000000E+00 0.  1.
         11    1    4    4    0    0 -0.22553675600E+02 -0.13592982026E+02  0.35075365051E+02  0.43860217477E+02  0.51100000000E-03 0. -1.
        -11    1    4    4    0    0 -0.19326590084E+00  0.23712520876E+01 -0.52512603233E+00  0.24363796465E+01  0.51100000000E-03 0.  1.
         12    1    4    4    0    0 -0.89895491013E+00  0.11154527834E+01  0.41200159431E+00  0.14906710422E+01  0.00000000000E+00 0. -1.
</event>
<event>
 8    1  0.6019723E-011  0.9118800E+02  0.7816164E-02  0.1184000E+00
        -11   -1    0    0    0    0  0.00000000000E+00  0.00000000000E+00  0.45593999997E+02  0.45594000000E+02  0.51100000000E-03 0. -1.
         11   -1    0    0    0    0 -0.00000000000E+00 -0.00000000000E+00 -0.45593999997E+02  0.45594000000E+02  0.51100000000E-03 0.  1.
         23    2    1    2    0    0  0.11102230246E-15  0.88817841970E-15 -0.14210854715E-13  0.91188000000E+02  0.91188000000E+02 0.  0.
    9900012    2    3    3    0    0  0.61785365196E+00 -0.79300150905E+01  0.42665637212E+02  0.47787268656E+02  0.19999989112E+02 0.  0.
        -12    1    3    3    0    0 -0.61785365196E+00  0.79300150905E+01 -0.42665637212E+02  0.43400731344E+02  0.00000000000E+00 0.  1.
         11    1    4    4    0    0 -0.22745317702E+01  0.44556154468E+01  0.20182585701E+02  0.20793334740E+02  0.51100000000E-03 0. -1.
        -11    1    4    4    0    0  0.19392331448E+01 -0.75900242321E+01  0.61935186956E+01  0.99864291480E+01  0.51100000000E-03 0.  1.
        -12    1    4    4    0    0  0.95315227731E+00 -0.47956063053E+01  0.16289532815E+02  0.17007504768E+02  0.00000000000E+00 0.  1.
</event>
<event>
 8    1  0.6019723E-011  0.9118800E+02  0.7816164E-02  0.1184000E+00
        -11   -1    0    0    0    0  0.00000000000E+00  0.00000000000E+00  0.45593999997E+02  0.45594000000E+02  0.51100000000E-03 0. -1.
         11   -1    0    0    0    0 -0.00000000000E+00 -0.00000000000E+00 -0.45593999997E+02  0.45594000000E+02  0.51100000000E-03 0.  1.
         23    2    1    2    0    0  0.00000000000E+00  0.35527136788E-14  0.00000000000E+00  0.91188000000E+02  0.91188000000E+02 0.  0.
    9900012    2    3    3    0    0  0.15197707410E+02  0.27123237830E+02  0.30281704467E+02  0.47787286108E+02  0.20000068681E+02 0.  0.
        -12    1    3    3    0    0 -0.15197707410E+02 -0.27123237830E+02 -0.30281704467E+02  0.43400713892E+02  0.00000000000E+00 0.  1.
         11    1    4    4    0    0  0.11650991089E+02  0.19905829891E+02  0.10857774245E+02  0.25492722860E+02  0.51100000000E-03 0. -1.
        -11    1    4    4    0    0  0.13105670748E+01  0.49729231378E+01  0.18175707433E+02  0.18889253335E+02  0.51100000000E-03 0.  1.
        -12    1    4    4    0    0  0.22361492464E+01  0.22444848014E+01  0.12482227890E+01  0.34053099135E+01  0.00000000000E+00 0.  1.
</event>
<event>
 8    1  0.6019723E-011  0.9118800E+02  0.7816164E-02  0.1184000E+00
        -11   -1    0    0    0    0  0.00000000000E+00  0.00000000000E+00  0.45593999997E+02  0.45594000000E+02  0.51100000000E-03 0.  1.
         11   -1    0    0    0    0 -0.00000000000E+00 -0.00000000000E+00 -0.45593999997E+02  0.45594000000E+02  0.51100000000E-03 0. -1.
         23    2    1    2    0    0  0.00000000000E+00  0.00000000000E+00  0.00000000000E+00  0.91188000000E+02  0.91188000000E+02 0.  0.
    9900012    2    3    3    0    0  0.23160757322E+02  0.34196576968E+02 -0.13334031987E+02  0.47787274601E+02  0.20000016218E+02 0.  0.
         12    1    3    3    0    0 -0.23160757322E+02 -0.34196576968E+02  0.13334031987E+02  0.43400725399E+02  0.00000000000E+00 0. -1.
         11    1    4    4    0    0  0.16391003922E+02  0.12757790681E+02 -0.15497017735E+01  0.20828533517E+02  0.51100000000E-03 0. -1.
        -11    1    4    4    0    0  0.80469437994E+01  0.10530645007E+02 -0.68449604438E+01  0.14916476545E+02  0.51100000000E-03 0.  1.
         12    1    4    4    0    0 -0.12771903993E+01  0.10908141281E+02 -0.49393697697E+01  0.12042264540E+02  0.00000000000E+00 0. -1.
</event>
<event>
 8    1  0.6019723E-011  0.9118800E+02  0.7816164E-02  0.1184000E+00
        -11   -1    0    0    0    0  0.00000000000E+00  0.00000000000E+00  0.45593999997E+02  0.45594000000E+02  0.51100000000E-03 0. -1.
         11   -1    0    0    0    0 -0.00000000000E+00 -0.00000000000E+00 -0.45593999997E+02  0.45594000000E+02  0.51100000000E-03 0.  1.
         23    2    1    2    0    0 -0.35527136788E-14 -0.35527136788E-14  0.00000000000E+00  0.91188000000E+02  0.91188000000E+02 0.  0.
    9900012    2    3    3    0    0  0.19222725588E+02  0.16065439615E+02 -0.35440248579E+02  0.47787277098E+02  0.20000027602E+02 0.  0.
         12    1    3    3    0    0 -0.19222725588E+02 -0.16065439615E+02  0.35440248579E+02  0.43400722902E+02  0.00000000000E+00 0. -1.
         11    1    4    4    0    0  0.36643312419E+01  0.16770893220E+01 -0.80980708628E+00  0.41104427769E+01  0.51100000000E-03 0. -1.
        -11    1    4    4    0    0  0.11269789033E+02  0.13780016167E+02 -0.14141325015E+02  0.22734864500E+02  0.51100000000E-03 0.  1.
        -12    1    4    4    0    0  0.42886053130E+01  0.60833412532E+00 -0.20489116478E+02  0.20941969821E+02  0.00000000000E+00 0.  1.
</event>
<event>
 8    1  0.6019723E-011  0.9118800E+02  0.7816164E-02  0.1184000E+00
        -11   -1    0    0    0    0  0.00000000000E+00  0.00000000000E+00  0.45593999997E+02  0.45594000000E+02  0.51100000000E-03 0. -1.
         11   -1    0    0    0    0 -0.00000000000E+00 -0.00000000000E+00 -0.45593999997E+02  0.45594000000E+02  0.51100000000E-03 0.  1.
         23    2    1    2    0    0 -0.35527136788E-14  0.17763568394E-14  0.71054273576E-14  0.91188000000E+02  0.91188000000E+02 0.  0.
    9900012    2    3    3    0    0  0.14050451031E+02 -0.15555367668E+02 -0.38003138775E+02  0.47787271962E+02  0.20000004184E+02 0.  0.
         12    1    3    3    0    0 -0.14050451031E+02  0.15555367668E+02  0.38003138775E+02  0.43400728038E+02  0.00000000000E+00 0. -1.
         11    1    4    4    0    0 -0.13338065871E+01  0.21121065678E+01 -0.19538038256E+01  0.31713378590E+01  0.51100000000E-03 0. -1.
        -11    1    4    4    0    0  0.17373185114E+02 -0.15759744593E+02 -0.31138809872E+02  0.38984902092E+02  0.51100000000E-03 0.  1.
        -12    1    4    4    0    0 -0.19889274957E+01 -0.19077296423E+01 -0.49105250774E+01  0.56310320108E+01  0.00000000000E+00 0.  1.
</event>
<event>
 8    1  0.6019723E-011  0.9118800E+02  0.7816164E-02  0.1184000E+00
        -11   -1    0    0    0    0  0.00000000000E+00  0.00000000000E+00  0.45593999997E+02  0.45594000000E+02  0.51100000000E-03 0. -1.
         11   -1    0    0    0    0 -0.00000000000E+00 -0.00000000000E+00 -0.45593999997E+02  0.45594000000E+02  0.51100000000E-03 0.  1.
         23    2    1    2    0    0  0.00000000000E+00 -0.35527136788E-14  0.00000000000E+00  0.91188000000E+02  0.91188000000E+02 0.  0.
    9900012    2    3    3    0    0  0.28341393007E+01  0.30601920538E+02 -0.30644960423E+02  0.47787268606E+02  0.19999988884E+02 0.  0.
         12    1    3    3    0    0 -0.28341393007E+01 -0.30601920538E+02  0.30644960423E+02  0.43400731394E+02  0.00000000000E+00 0. -1.
         11    1    4    4    0    0  0.32123118763E+01 -0.18675138708E+01 -0.12673267422E+01  0.39258977293E+01  0.51100000000E-03 0. -1.
        -11    1    4    4    0    0 -0.38218941347E+00  0.18942590289E+02 -0.18787048585E+02  0.26681847582E+02  0.51100000000E-03 0.  1.
         12    1    4    4    0    0  0.40168378629E-02  0.13526844120E+02 -0.10590585096E+02  0.17179523295E+02  0.00000000000E+00 0. -1.
</event>
<event>
 8    1  0.6019723E-011  0.9118800E+02  0.7816164E-02  0.1184000E+00
        -11   -1    0    0    0    0  0.00000000000E+00  0.00000000000E+00  0.45593999997E+02  0.45594000000E+02  0.51100000000E-03 0. -1.
         11   -1    0    0    0    0 -0.00000000000E+00 -0.00000000000E+00 -0.45593999997E+02  0.45594000000E+02  0.51100000000E-03 0.  1.
         23    2    1    2    0    0 -0.35527136788E-14  0.71054273576E-14 -0.88817841970E-15  0.91188000000E+02  0.91188000000E+02 0.  0.
    9900012    2    3    3    0    0  0.22781879292E+02 -0.36095910529E+02  0.78545823522E+01  0.47787271378E+02  0.20000001520E+02 0.  0.
        -12    1    3    3    0    0 -0.22781879292E+02  0.36095910529E+02 -0.78545823522E+01  0.43400728622E+02  0.00000000000E+00 0.  1.
         11    1    4    4    0    0  0.98530116138E+01 -0.20308575178E+02  0.99873272650E+01  0.24683329795E+02  0.51100000000E-03 0. -1.
        -11    1    4    4    0    0  0.20917011826E+00 -0.66878652370E+01 -0.32223371023E+01  0.74266244169E+01  0.51100000000E-03 0.  1.
         12    1    4    4    0    0  0.12719697560E+02 -0.90994701143E+01  0.10895921895E+01  0.15677317166E+02  0.00000000000E+00 0. -1.
</event>
<event>
 8    1  0.6019723E-011  0.9118800E+02  0.7816164E-02  0.1184000E+00
        -11   -1    0    0    0    0  0.00000000000E+00  0.00000000000E+00  0.45593999997E+02  0.45594000000E+02  0.51100000000E-03 0. -1.
         11   -1    0    0    0    0 -0.00000000000E+00 -0.00000000000E+00 -0.45593999997E+02  0.45594000000E+02  0.51100000000E-03 0.  1.
         23    2    1    2    0    0  0.35527136788E-14  0.00000000000E+00  0.00000000000E+00  0.91188000000E+02  0.91188000000E+02 0.  0.
    9900012    2    3    3    0    0 -0.29359924961E+02  0.23649920977E+02  0.21501175496E+02  0.47787256877E+02  0.19999935403E+02 0.  0.
        -12    1    3    3    0    0  0.29359924961E+02 -0.23649920977E+02 -0.21501175496E+02  0.43400743123E+02  0.00000000000E+00 0.  1.
         11    1    4    4    0    0 -0.14449145566E+02  0.14978891813E+02  0.36222531692E+01  0.21125002386E+02  0.51100000000E-03 0. -1.
        -11    1    4    4    0    0 -0.16143978131E+02  0.88863692337E+01  0.16001909659E+02  0.24406079182E+02  0.51100000000E-03 0.  1.
        -12    1    4    4    0    0  0.12331987356E+01 -0.21534006968E+00  0.18770126677E+01  0.22561753083E+01  0.00000000000E+00 0.  1.
</event>
<event>
 8    1  0.6019723E-011  0.9118800E+02  0.7816164E-02  0.1184000E+00
        -11   -1    0    0    0    0  0.00000000000E+00  0.00000000000E+00  0.45593999997E+02  0.45594000000E+02  0.51100000000E-03 0. -1.
         11   -1    0    0    0    0 -0.00000000000E+00 -0.00000000000E+00 -0.45593999997E+02  0.45594000000E+02  0.51100000000E-03 0.  1.
         23    2    1    2    0    0  0.88817841970E-15  0.71054273576E-14  0.00000000000E+00  0.91188000000E+02  0.91188000000E+02 0.  0.
    9900012    2    3    3    0    0 -0.58042514024E+01  0.39236231955E+02  0.17619652936E+02  0.47787269568E+02  0.19999993270E+02 0.  0.
        -12    1    3    3    0    0  0.58042514024E+01 -0.39236231955E+02 -0.17619652936E+02  0.43400730432E+02  0.00000000000E+00 0.  1.
         11    1    4    4    0    0 -0.11812673572E+02  0.14116083003E+02  0.66566053904E+01  0.19573284136E+02  0.51100000000E-03 0. -1.
        -11    1    4    4    0    0  0.44460005640E+01  0.18035026360E+02  0.92885234503E+01  0.20767902277E+02  0.51100000000E-03 0.  1.
         12    1    4    4    0    0  0.15624216058E+01  0.70851225921E+01  0.16745240953E+01  0.74460831560E+01  0.00000000000E+00 0. -1.
</event>
<event>
 8    1  0.6019723E-011  0.9118800E+02  0.7816164E-02  0.1184000E+00
        -11   -1    0    0    0    0  0.00000000000E+00  0.00000000000E+00  0.45593999997E+02  0.45594000000E+02  0.51100000000E-03 0. -1.
         11   -1    0    0    0    0 -0.00000000000E+00 -0.00000000000E+00 -0.45593999997E+02  0.45594000000E+02  0.51100000000E-03 0.  1.
         23    2    1    2    0    0  0.00000000000E+00 -0.88817841970E-15  0.00000000000E+00  0.91188000000E+02  0.91188000000E+02 0.  0.
    9900012    2    3    3    0    0  0.23938728366E+01 -0.34583359618E+01 -0.43196442698E+02  0.47787269862E+02  0.19999994609E+02 0.  0.
         12    1    3    3    0    0 -0.23938728366E+01  0.34583359618E+01  0.43196442698E+02  0.43400730138E+02  0.00000000000E+00 0. -1.
         11    1    4    4    0    0  0.55505472637E+01  0.24083273887E+01 -0.16723777303E+02  0.17784637845E+02  0.51100000000E-03 0. -1.
        -11    1    4    4    0    0 -0.16628490120E+01 -0.80568976241E+01 -0.26049806324E+02  0.27317962515E+02  0.51100000000E-03 0.  1.
        -12    1    4    4    0    0 -0.14938254150E+01  0.21902342736E+01 -0.42285907048E+00  0.26846695025E+01  0.00000000000E+00 0.  1.
</event>
<event>
 8    1  0.6019723E-011  0.9118800E+02  0.7816164E-02  0.1184000E+00
        -11   -1    0    0    0    0  0.00000000000E+00  0.00000000000E+00  0.45593999997E+02  0.45594000000E+02  0.51100000000E-03 0. -1.
         11   -1    0    0    0    0 -0.00000000000E+00 -0.00000000000E+00 -0.45593999997E+02  0.45594000000E+02  0.51100000000E-03 0.  1.
         23    2    1    2    0    0 -0.35527136788E-14 -0.88817841970E-15 -0.71054273576E-14  0.91188000000E+02  0.91188000000E+02 0.  0.
    9900012    2    3    3    0    0  0.21994892756E+02  0.24999891287E+01  0.37330924822E+02  0.47787271884E+02  0.20000003826E+02 0.  0.
        -12    1    3    3    0    0 -0.21994892756E+02 -0.24999891287E+01 -0.37330924822E+02  0.43400728116E+02  0.00000000000E+00 0.  1.
         11    1    4    4    0    0  0.20475186013E+02  0.11198676648E+01  0.26298010038E+02  0.33347753718E+02  0.51100000000E-03 0. -1.
        -11    1    4    4    0    0 -0.20067487962E+01 -0.30049790537E+01  0.34427220436E+01  0.49909192715E+01  0.51100000000E-03 0.  1.
         12    1    4    4    0    0  0.35264555390E+01  0.43851005176E+01  0.75901927404E+01  0.94485988937E+01  0.00000000000E+00 0. -1.
</event>
<event>
 8    1  0.7436320E-011  0.9118800E+02  0.7816164E-02  0.1184000E+00
        -11   -1    0    0    0    0  0.00000000000E+00  0.00000000000E+00  0.45593999997E+02  0.45594000000E+02  0.51100000000E-03 0. -1.
         11   -1    0    0    0    0 -0.00000000000E+00 -0.00000000000E+00 -0.45593999997E+02  0.45594000000E+02  0.51100000000E-03 0.  1.
         23    2    1    2    0    0  0.00000000000E+00  0.71054273576E-14 -0.71054273576E-14  0.91188000000E+02  0.91188000000E+02 0.  0.
    9900012    2    3    3    0    0  0.10453589309E+01  0.35029685146E+02 -0.25601793103E+02  0.47787269283E+02  0.19999991969E+02 0.  0.
         12    1    3    3    0    0 -0.10453589309E+01 -0.35029685146E+02  0.25601793103E+02  0.43400730717E+02  0.00000000000E+00 0. -1.
         11    1    4    4    0    0  0.45883628368E+01  0.14420666462E+01 -0.27207769131E+01  0.55258716060E+01  0.51100000000E-03 0. -1.
        -11    1    4    4    0    0  0.96656412557E-01  0.27753287304E+02 -0.21819105539E+02  0.35303366205E+02  0.51100000000E-03 0.  1.
         12    1    4    4    0    0 -0.36396603184E+01  0.58343311955E+01 -0.10619106508E+01  0.69580314717E+01  0.00000000000E+00 0. -1.
</event>
<event>
 8    1  0.6019723E-011  0.9118800E+02  0.7816164E-02  0.1184000E+00
        -11   -1    0    0    0    0  0.00000000000E+00  0.00000000000E+00  0.45593999997E+02  0.45594000000E+02  0.51100000000E-03 0. -1.
         11   -1    0    0    0    0 -0.00000000000E+00 -0.00000000000E+00 -0.45593999997E+02  0.45594000000E+02  0.51100000000E-03 0.  1.
         23    2    1    2    0    0  0.00000000000E+00 -0.71054273576E-14  0.00000000000E+00  0.91188000000E+02  0.91188000000E+02 0.  0.
    9900012    2    3    3    0    0  0.69585134343E+01 -0.32383383534E+02  0.28044956804E+02  0.47787262213E+02  0.19999959734E+02 0.  0.
        -12    1    3    3    0    0 -0.69585134343E+01  0.32383383534E+02 -0.28044956804E+02  0.43400737787E+02  0.00000000000E+00 0.  1.
         11    1    4    4    0    0  0.30616674173E+01 -0.23073141369E+02  0.13257751077E+02  0.26786407446E+02  0.51100000000E-03 0. -1.
        -11    1    4    4    0    0  0.38668847231E+01  0.63746892504E+00  0.81466469610E+01  0.90402998324E+01  0.51100000000E-03 0.  1.
        -12    1    4    4    0    0  0.29961293931E-01 -0.99477110899E+01  0.66405587667E+01  0.11960554934E+02  0.00000000000E+00 0.  1.
</event>
<event>
 8    1  0.6019723E-011  0.9118800E+02  0.7816164E-02  0.1184000E+00
        -11   -1    0    0    0    0  0.00000000000E+00  0.00000000000E+00  0.45593999997E+02  0.45594000000E+02  0.51100000000E-03 0. -1.
         11   -1    0    0    0    0 -0.00000000000E+00 -0.00000000000E+00 -0.45593999997E+02  0.45594000000E+02  0.51100000000E-03 0.  1.
         23    2    1    2    0    0 -0.17763568394E-14  0.00000000000E+00  0.71054273576E-14  0.91188000000E+02  0.91188000000E+02 0.  0.
    9900012    2    3    3    0    0 -0.10590138345E+02 -0.19258919956E+02  0.37424128611E+02  0.47787280762E+02  0.20000044308E+02 0.  0.
        -12    1    3    3    0    0  0.10590138345E+02  0.19258919956E+02 -0.37424128611E+02  0.43400719238E+02  0.00000000000E+00 0.  1.
         11    1    4    4    0    0 -0.10231139738E+02 -0.15062679125E+02  0.16803034839E+02  0.24777055976E+02  0.51100000000E-03 0. -1.
        -11    1    4    4    0    0  0.94556671409E+00 -0.24373384199E+01  0.36919304524E+00  0.26402686889E+01  0.51100000000E-03 0.  1.
         12    1    4    4    0    0 -0.13045653205E+01 -0.17589024111E+01  0.20251900727E+02  0.20369956097E+02  0.00000000000E+00 0. -1.
</event>
<event>
 8    1  0.6019723E-011  0.9118800E+02  0.7816164E-02  0.1184000E+00
        -11   -1    0    0    0    0  0.00000000000E+00  0.00000000000E+00  0.45593999997E+02  0.45594000000E+02  0.51100000000E-03 0. -1.
         11   -1    0    0    0    0 -0.00000000000E+00 -0.00000000000E+00 -0.45593999997E+02  0.45594000000E+02  0.51100000000E-03 0.  1.
         23    2    1    2    0    0  0.00000000000E+00  0.00000000000E+00  0.00000000000E+00  0.91188000000E+02  0.91188000000E+02 0.  0.
    9900012    2    3    3    0    0 -0.35495406949E+02 -0.11973413190E+02 -0.21916582050E+02  0.47787272971E+02  0.20000008783E+02 0.  0.
         12    1    3    3    0    0  0.35495406949E+02  0.11973413190E+02  0.21916582050E+02  0.43400727029E+02  0.00000000000E+00 0. -1.
         11    1    4    4    0    0 -0.17278449333E+02 -0.55043291987E+01 -0.24986140862E+01  0.18305341403E+02  0.51100000000E-03 0. -1.
        -11    1    4    4    0    0 -0.14632290807E+02 -0.95361757096E+01 -0.15386657326E+02  0.23276421662E+02  0.51100000000E-03 0.  1.
        -12    1    4    4    0    0 -0.35846668097E+01  0.30670917179E+01 -0.40313106371E+01  0.62055099062E+01  0.00000000000E+00 0.  1.
</event>
<event>
 8    1  0.6019723E-011  0.9118800E+02  0.7816164E-02  0.1184000E+00
        -11   -1    0    0    0    0  0.00000000000E+00  0.00000000000E+00  0.45593999997E+02  0.45594000000E+02  0.51100000000E-03 0. -1.
         11   -1    0    0    0    0 -0.00000000000E+00 -0.00000000000E+00 -0.45593999997E+02  0.45594000000E+02  0.51100000000E-03 0.  1.
         23    2    1    2    0    0 -0.17763568394E-14  0.17763568394E-14  0.00000000000E+00  0.91188000000E+02  0.91188000000E+02 0.  0.
    9900012    2    3    3    0    0  0.75342450984E+01 -0.84513314848E+01 -0.41897893499E+02  0.47787270366E+02  0.19999996908E+02 0.  0.
         12    1    3    3    0    0 -0.75342450984E+01  0.84513314848E+01  0.41897893499E+02  0.43400729634E+02  0.00000000000E+00 0. -1.
         11    1    4    4    0    0  0.29957301606E+01  0.80788588093E+00 -0.46398689406E+00  0.31372540367E+01  0.51100000000E-03 0. -1.
        -11    1    4    4    0    0 -0.27630763862E+01 -0.59808950272E+01 -0.29860123697E+02  0.30578304137E+02  0.51100000000E-03 0.  1.
        -12    1    4    4    0    0  0.73015913240E+01 -0.32783223385E+01 -0.11573782908E+02  0.14071712192E+02  0.00000000000E+00 0.  1.
</event>
<event>
 8    1  0.6019723E-011  0.9118800E+02  0.7816164E-02  0.1184000E+00
        -11   -1    0    0    0    0  0.00000000000E+00  0.00000000000E+00  0.45593999997E+02  0.45594000000E+02  0.51100000000E-03 0.  1.
         11   -1    0    0    0    0 -0.00000000000E+00 -0.00000000000E+00 -0.45593999997E+02  0.45594000000E+02  0.51100000000E-03 0. -1.
         23    2    1    2    0    0  0.35527136788E-14 -0.71054273576E-14  0.00000000000E+00  0.91188000000E+02  0.91188000000E+02 0.  0.
    9900012    2    3    3    0    0  0.14820257890E+02 -0.33240632134E+02 -0.23644085234E+02  0.47787280707E+02  0.20000044056E+02 0.  0.
         12    1    3    3    0    0 -0.14820257890E+02  0.33240632134E+02  0.23644085234E+02  0.43400719293E+02  0.00000000000E+00 0. -1.
         11    1    4    4    0    0  0.13217775952E+02 -0.10643810348E+02 -0.96828797050E+01  0.19538640165E+02  0.51100000000E-03 0. -1.
        -11    1    4    4    0    0 -0.10107101438E+01 -0.13821804309E+02 -0.13069787377E+02  0.19049492163E+02  0.51100000000E-03 0.  1.
        -12    1    4    4    0    0  0.26131920817E+01 -0.87750174769E+01 -0.89141815233E+00  0.91991483790E+01  0.00000000000E+00 0.  1.
</event>
<event>
 8    1  0.6019723E-011  0.9118800E+02  0.7816164E-02  0.1184000E+00
        -11   -1    0    0    0    0  0.00000000000E+00  0.00000000000E+00  0.45593999997E+02  0.45594000000E+02  0.51100000000E-03 0. -1.
         11   -1    0    0    0    0 -0.00000000000E+00 -0.00000000000E+00 -0.45593999997E+02  0.45594000000E+02  0.51100000000E-03 0.  1.
         23    2    1    2    0    0  0.00000000000E+00  0.00000000000E+00 -0.35527136788E-14  0.91188000000E+02  0.91188000000E+02 0.  0.
    9900012    2    3    3    0    0 -0.75897942455E+01  0.32150460761E+02 -0.28149003682E+02  0.47787268300E+02  0.19999987487E+02 0.  0.
         12    1    3    3    0    0  0.75897942455E+01 -0.32150460761E+02  0.28149003682E+02  0.43400731700E+02  0.00000000000E+00 0. -1.
         11    1    4    4    0    0  0.27189918968E+01  0.68497192821E+01 -0.68596912365E+01  0.10068114784E+02  0.51100000000E-03 0. -1.
        -11    1    4    4    0    0 -0.11310419058E+02  0.92135424117E+01 -0.13249421492E+02  0.19706905215E+02  0.51100000000E-03 0.  1.
        -12    1    4    4    0    0  0.10016329153E+01  0.16087199067E+02 -0.80398909533E+01  0.18012248301E+02  0.00000000000E+00 0.  1.
</event>
<event>
 8    1  0.6019723E-011  0.9118800E+02  0.7816164E-02  0.1184000E+00
        -11   -1    0    0    0    0  0.00000000000E+00  0.00000000000E+00  0.45593999997E+02  0.45594000000E+02  0.51100000000E-03 0. -1.
         11   -1    0    0    0    0 -0.00000000000E+00 -0.00000000000E+00 -0.45593999997E+02  0.45594000000E+02  0.51100000000E-03 0.  1.
         23    2    1    2    0    0  0.88817841970E-15  0.00000000000E+00  0.71054273576E-14  0.91188000000E+02  0.91188000000E+02 0.  0.
    9900012    2    3    3    0    0  0.40244642334E+01  0.25913920453E+02 -0.34581738078E+02  0.47787260443E+02  0.19999951666E+02 0.  0.
         12    1    3    3    0    0 -0.40244642334E+01 -0.25913920453E+02  0.34581738078E+02  0.43400739557E+02  0.00000000000E+00 0. -1.
         11    1    4    4    0    0  0.92015853398E+01  0.58732748146E+01 -0.81332546974E+01  0.13613021782E+02  0.51100000000E-03 0. -1.
        -11    1    4    4    0    0 -0.21055700362E+01  0.92593293522E+01 -0.72678599720E+01  0.11957859092E+02  0.51100000000E-03 0.  1.
         12    1    4    4    0    0 -0.30715510702E+01  0.10781316286E+02 -0.19180623408E+02  0.22216379569E+02  0.00000000000E+00 0. -1.
</event>
<event>
 8    1  0.6019723E-011  0.9118800E+02  0.7816164E-02  0.1184000E+00
        -11   -1    0    0    0    0  0.00000000000E+00  0.00000000000E+00  0.45593999997E+02  0.45594000000E+02  0.51100000000E-03 0. -1.
         11   -1    0    0    0    0 -0.00000000000E+00 -0.00000000000E+00 -0.45593999997E+02  0.45594000000E+02  0.51100000000E-03 0.  1.
         23    2    1    2    0    0  0.22204460493E-15  0.17763568394E-14  0.00000000000E+00  0.91188000000E+02  0.91188000000E+02 0.  0.
    9900012    2    3    3    0    0 -0.17288960092E+01 -0.89087428653E+01  0.42441356999E+02  0.47787267693E+02  0.19999984719E+02 0.  0.
        -12    1    3    3    0    0  0.17288960092E+01  0.89087428653E+01 -0.42441356999E+02  0.43400732307E+02  0.00000000000E+00 0.  1.
         11    1    4    4    0    0 -0.36216668917E+01 -0.12641082724E+02  0.30547302033E+02  0.33257346636E+02  0.51100000000E-03 0. -1.
        -11    1    4    4    0    0 -0.16231920719E+01  0.45123416949E+00  0.84460907151E+01  0.86124800962E+01  0.51100000000E-03 0.  1.
         12    1    4    4    0    0  0.35159629544E+01  0.32811056897E+01  0.34479642509E+01  0.59174409603E+01  0.00000000000E+00 0. -1.
</event>
<event>
 8    1  0.6019723E-011  0.9118800E+02  0.7816164E-02  0.1184000E+00
        -11   -1    0    0    0    0  0.00000000000E+00  0.00000000000E+00  0.45593999997E+02  0.45594000000E+02  0.51100000000E-03 0. -1.
         11   -1    0    0    0    0 -0.00000000000E+00 -0.00000000000E+00 -0.45593999997E+02  0.45594000000E+02  0.51100000000E-03 0.  1.
         23    2    1    2    0    0  0.00000000000E+00 -0.35527136788E-14 -0.71054273576E-14  0.91188000000E+02  0.91188000000E+02 0.  0.
    9900012    2    3    3    0    0  0.82690458058E+01  0.18704540095E+02  0.38280368752E+02  0.47787267627E+02  0.19999984419E+02 0.  0.
        -12    1    3    3    0    0 -0.82690458058E+01 -0.18704540095E+02 -0.38280368752E+02  0.43400732373E+02  0.00000000000E+00 0.  1.
         11    1    4    4    0    0  0.59528393618E+00  0.76637087183E+01  0.23731812622E+02  0.24945655431E+02  0.51100000000E-03 0. -1.
        -11    1    4    4    0    0 -0.25030151742E+00  0.53863367381E+01  0.67362115368E-01  0.53925700943E+01  0.51100000000E-03 0.  1.
        -12    1    4    4    0    0  0.79240633870E+01  0.56544946383E+01  0.14481194015E+02  0.17449042102E+02  0.00000000000E+00 0.  1.
</event>
<event>
 8    1  0.6019723E-011  0.9118800E+02  0.7816164E-02  0.1184000E+00
        -11   -1    0    0    0    0  0.00000000000E+00  0.00000000000E+00  0.45593999997E+02  0.45594000000E+02  0.51100000000E-03 0. -1.
         11   -1    0    0    0    0 -0.00000000000E+00 -0.00000000000E+00 -0.45593999997E+02  0.45594000000E+02  0.51100000000E-03 0.  1.
         23    2    1    2    0    0  0.17763568394E-14  0.88817841970E-15  0.00000000000E+00  0.91188000000E+02  0.91188000000E+02 0.  0.
    9900012    2    3    3    0    0  0.14027307264E+02  0.72913357384E+01  0.40418989699E+02  0.47787266663E+02  0.19999980023E+02 0.  0.
        -12    1    3    3    0    0 -0.14027307264E+02 -0.72913357384E+01 -0.40418989699E+02  0.43400733337E+02  0.00000000000E+00 0.  1.
         11    1    4    4    0    0  0.10334610091E+02  0.11712730547E+02  0.17224813835E+02  0.23252665105E+02  0.51100000000E-03 0. -1.
        -11    1    4    4    0    0  0.39692835621E+01 -0.29098377126E+01  0.90026214170E+01  0.10260095523E+02  0.51100000000E-03 0.  1.
         12    1    4    4    0    0 -0.27658638908E+00 -0.15115570964E+01  0.14191554447E+02  0.14274506034E+02  0.00000000000E+00 0. -1.
</event>
<event>
 8    1  0.6019723E-011  0.9118800E+02  0.7816164E-02  0.1184000E+00
        -11   -1    0    0    0    0  0.00000000000E+00  0.00000000000E+00  0.45593999997E+02  0.45594000000E+02  0.51100000000E-03 0. -1.
         11   -1    0    0    0    0 -0.00000000000E+00 -0.00000000000E+00 -0.45593999997E+02  0.45594000000E+02  0.51100000000E-03 0.  1.
         23    2    1    2    0    0 -0.17763568394E-14  0.00000000000E+00 -0.17763568394E-14  0.91188000000E+02  0.91188000000E+02 0.  0.
    9900012    2    3    3    0    0 -0.15104265187E+02 -0.38840073669E+02 -0.12121602131E+02  0.47787269734E+02  0.19999994024E+02 0.  0.
         12    1    3    3    0    0  0.15104265187E+02  0.38840073669E+02  0.12121602131E+02  0.43400730266E+02  0.00000000000E+00 0. -1.
         11    1    4    4    0    0 -0.48351797100E+00  0.16096829513E+01 -0.22057441819E+01  0.27731167464E+01  0.51100000000E-03 0. -1.
        -11    1    4    4    0    0 -0.11630322139E+02 -0.19210489290E+02 -0.53295228592E+01  0.23080535219E+02  0.51100000000E-03 0.  1.
         12    1    4    4    0    0 -0.29904250768E+01 -0.21239267330E+02 -0.45863350902E+01  0.21933617769E+02  0.00000000000E+00 0. -1.
</event>
<event>
 8    1  0.7005283E-011  0.9118800E+02  0.7816164E-02  0.1184000E+00
        -11   -1    0    0    0    0  0.00000000000E+00  0.00000000000E+00  0.45593999997E+02  0.45594000000E+02  0.51100000000E-03 0. -1.
         11   -1    0    0    0    0 -0.00000000000E+00 -0.00000000000E+00 -0.45593999997E+02  0.45594000000E+02  0.51100000000E-03 0.  1.
         23    2    1    2    0    0  0.00000000000E+00  0.00000000000E+00  0.00000000000E+00  0.91188000000E+02  0.91188000000E+02 0.  0.
    9900012    2    3    3    0    0  0.10925788064E+02  0.31799399668E+02 -0.27441726116E+02  0.47787274242E+02  0.20000014581E+02 0.  0.
         12    1    3    3    0    0 -0.10925788064E+02 -0.31799399668E+02  0.27441726116E+02  0.43400725758E+02  0.00000000000E+00 0. -1.
         11    1    4    4    0    0  0.20155237768E+01 -0.88476778995E+00 -0.66254593376E+01  0.69815372113E+01  0.51100000000E-03 0.  1.
        -11    1    4    4    0    0  0.89935043906E+01  0.15617973749E+02 -0.11131348058E+02  0.21182802815E+02  0.51100000000E-03 0. -1.
         12    1    4    4    0    0 -0.83240103690E-01  0.17066193709E+02 -0.96849187200E+01  0.19622934216E+02  0.00000000000E+00 0. -1.
</event>
<event>
 8    1  0.6019723E-011  0.9118800E+02  0.7816164E-02  0.1184000E+00
        -11   -1    0    0    0    0  0.00000000000E+00  0.00000000000E+00  0.45593999997E+02  0.45594000000E+02  0.51100000000E-03 0.  1.
         11   -1    0    0    0    0 -0.00000000000E+00 -0.00000000000E+00 -0.45593999997E+02  0.45594000000E+02  0.51100000000E-03 0. -1.
         23    2    1    2    0    0  0.00000000000E+00 -0.35527136788E-14  0.00000000000E+00  0.91188000000E+02  0.91188000000E+02 0.  0.
    9900012    2    3    3    0    0  0.37758887135E+02  0.19832648063E+02 -0.80346686985E+01  0.47787269730E+02  0.19999994008E+02 0.  0.
        -12    1    3    3    0    0 -0.37758887135E+02 -0.19832648063E+02  0.80346686985E+01  0.43400730270E+02  0.00000000000E+00 0.  1.
         11    1    4    4    0    0 -0.20703948007E+00  0.49148403790E+01 -0.35353279739E+01  0.60578102843E+01  0.51100000000E-03 0. -1.
        -11    1    4    4    0    0  0.17541593633E+02  0.60179719283E+01  0.16466294109E+01  0.18618133150E+02  0.51100000000E-03 0.  1.
         12    1    4    4    0    0  0.20424332982E+02  0.88998357556E+01 -0.61459701355E+01  0.23111326296E+02  0.00000000000E+00 0. -1.
</event>
<event>
 8    1  0.6019723E-011  0.9118800E+02  0.7816164E-02  0.1184000E+00
        -11   -1    0    0    0    0  0.00000000000E+00  0.00000000000E+00  0.45593999997E+02  0.45594000000E+02  0.51100000000E-03 0. -1.
         11   -1    0    0    0    0 -0.00000000000E+00 -0.00000000000E+00 -0.45593999997E+02  0.45594000000E+02  0.51100000000E-03 0.  1.
         23    2    1    2    0    0  0.00000000000E+00  0.00000000000E+00  0.00000000000E+00  0.91188000000E+02  0.91188000000E+02 0.  0.
    9900012    2    3    3    0    0 -0.59334779138E+01 -0.27957314820E+02  0.32662050680E+02  0.47787226197E+02  0.19999795522E+02 0.  0.
        -12    1    3    3    0    0  0.59334779138E+01  0.27957314820E+02 -0.32662050680E+02  0.43400773803E+02  0.00000000000E+00 0.  1.
         11    1    4    4    0    0  0.59999410703E+00  0.10298921681E+01  0.92503822321E+01  0.93268559820E+01  0.51100000000E-03 0. -1.
        -11    1    4    4    0    0 -0.15061842075E+01 -0.18613555830E+02  0.11753685527E+02  0.22065406754E+02  0.51100000000E-03 0.  1.
        -12    1    4    4    0    0 -0.50272878133E+01 -0.10373651158E+02  0.11657982921E+02  0.16394963461E+02  0.00000000000E+00 0.  1.
</event>
<event>
 8    1  0.6019723E-011  0.9118800E+02  0.7816164E-02  0.1184000E+00
        -11   -1    0    0    0    0  0.00000000000E+00  0.00000000000E+00  0.45593999997E+02  0.45594000000E+02  0.51100000000E-03 0. -1.
         11   -1    0    0    0    0 -0.00000000000E+00 -0.00000000000E+00 -0.45593999997E+02  0.45594000000E+02  0.51100000000E-03 0.  1.
         23    2    1    2    0    0  0.00000000000E+00 -0.17763568394E-14  0.35527136788E-14  0.91188000000E+02  0.91188000000E+02 0.  0.
    9900012    2    3    3    0    0 -0.29082451247E+02  0.10537677360E+02 -0.30443252206E+02  0.47787271670E+02  0.20000002853E+02 0.  0.
         12    1    3    3    0    0  0.29082451247E+02 -0.10537677360E+02  0.30443252206E+02  0.43400728330E+02  0.00000000000E+00 0. -1.
         11    1    4    4    0    0 -0.15857049332E+02  0.48962959761E+01 -0.23355187624E+02  0.28651082301E+02  0.51100000000E-03 0. -1.
        -11    1    4    4    0    0  0.51689865505E+00  0.19513622367E+01 -0.41385295014E+01  0.46046091575E+01  0.51100000000E-03 0.  1.
         12    1    4    4    0    0 -0.13742300570E+02  0.36900191472E+01 -0.29495350807E+01  0.14531580212E+02  0.00000000000E+00 0. -1.
</event>
<event>
 8    1  0.6019723E-011  0.9118800E+02  0.7816164E-02  0.1184000E+00
        -11   -1    0    0    0    0  0.00000000000E+00  0.00000000000E+00  0.45593999997E+02  0.45594000000E+02  0.51100000000E-03 0. -1.
         11   -1    0    0    0    0 -0.00000000000E+00 -0.00000000000E+00 -0.45593999997E+02  0.45594000000E+02  0.51100000000E-03 0.  1.
         23    2    1    2    0    0  0.00000000000E+00  0.44408920985E-15  0.00000000000E+00  0.91188000000E+02  0.91188000000E+02 0.  0.
    9900012    2    3    3    0    0  0.12958431243E+02  0.10973172569E+01  0.41406500628E+02  0.47787270286E+02  0.19999996541E+02 0.  0.
        -12    1    3    3    0    0 -0.12958431243E+02 -0.10973172569E+01 -0.41406500628E+02  0.43400729714E+02  0.00000000000E+00 0.  1.
         11    1    4    4    0    0  0.72851006133E+01  0.76568550760E+01  0.21273179934E+02  0.23753911370E+02  0.51100000000E-03 0. -1.
        -11    1    4    4    0    0 -0.10656221002E+01 -0.41653104963E+01  0.24267198540E+01  0.49370367127E+01  0.51100000000E-03 0.  1.
        -12    1    4    4    0    0  0.67389527302E+01 -0.23942273227E+01  0.17706600840E+02  0.19096322203E+02  0.00000000000E+00 0.  1.
</event>
<event>
 8    1  0.6019723E-011  0.9118800E+02  0.7816164E-02  0.1184000E+00
        -11   -1    0    0    0    0  0.00000000000E+00  0.00000000000E+00  0.45593999997E+02  0.45594000000E+02  0.51100000000E-03 0. -1.
         11   -1    0    0    0    0 -0.00000000000E+00 -0.00000000000E+00 -0.45593999997E+02  0.45594000000E+02  0.51100000000E-03 0.  1.
         23    2    1    2    0    0  0.00000000000E+00  0.00000000000E+00  0.00000000000E+00  0.91188000000E+02  0.91188000000E+02 0.  0.
    9900012    2    3    3    0    0 -0.43180516888E+01 -0.30093335640E+02  0.30973674615E+02  0.47787274897E+02  0.20000017564E+02 0.  0.
        -12    1    3    3    0    0  0.43180516888E+01  0.30093335640E+02 -0.30973674615E+02  0.43400725103E+02  0.00000000000E+00 0.  1.
         11    1    4    4    0    0 -0.29928599987E+00 -0.46409370746E+01  0.59122427247E+01  0.75221328981E+01  0.51100000000E-03 0.  1.
        -11    1    4    4    0    0 -0.40102183396E+01 -0.98551331294E+01  0.21904135503E+02  0.24351522592E+02  0.51100000000E-03 0. -1.
        -12    1    4    4    0    0 -0.85473493299E-02 -0.15597265436E+02  0.31572963867E+01  0.15913619407E+02  0.00000000000E+00 0.  1.
</event>
<event>
 8    1  0.6019723E-011  0.9118800E+02  0.7816164E-02  0.1184000E+00
        -11   -1    0    0    0    0  0.00000000000E+00  0.00000000000E+00  0.45593999997E+02  0.45594000000E+02  0.51100000000E-03 0. -1.
         11   -1    0    0    0    0 -0.00000000000E+00 -0.00000000000E+00 -0.45593999997E+02  0.45594000000E+02  0.51100000000E-03 0.  1.
         23    2    1    2    0    0  0.00000000000E+00  0.00000000000E+00  0.35527136788E-14  0.91188000000E+02  0.91188000000E+02 0.  0.
    9900012    2    3    3    0    0 -0.17602675926E+02  0.31729161541E+02  0.23812370136E+02  0.47787275774E+02  0.20000021565E+02 0.  0.
        -12    1    3    3    0    0  0.17602675926E+02 -0.31729161541E+02 -0.23812370136E+02  0.43400724226E+02  0.00000000000E+00 0.  1.
         11    1    4    4    0    0 -0.68032976945E+01  0.10982445136E+02  0.96424199370E+01  0.16120645867E+02  0.51100000000E-03 0. -1.
        -11    1    4    4    0    0 -0.25624005822E+01  0.18948037482E+02  0.13077772901E+02  0.23165106637E+02  0.51100000000E-03 0.  1.
        -12    1    4    4    0    0 -0.82369776491E+01  0.17986789228E+01  0.10921772972E+01  0.85015232698E+01  0.00000000000E+00 0.  1.
</event>
<event>
 8    1  0.6019723E-011  0.9118800E+02  0.7816164E-02  0.1184000E+00
        -11   -1    0    0    0    0  0.00000000000E+00  0.00000000000E+00  0.45593999997E+02  0.45594000000E+02  0.51100000000E-03 0. -1.
         11   -1    0    0    0    0 -0.00000000000E+00 -0.00000000000E+00 -0.45593999997E+02  0.45594000000E+02  0.51100000000E-03 0.  1.
         23    2    1    2    0    0  0.00000000000E+00  0.00000000000E+00  0.35527136788E-14  0.91188000000E+02  0.91188000000E+02 0.  0.
    9900012    2    3    3    0    0 -0.10453096876E+02  0.37241008784E+02  0.19684086714E+02  0.47787271443E+02  0.20000001815E+02 0.  0.
        -12    1    3    3    0    0  0.10453096876E+02 -0.37241008784E+02 -0.19684086714E+02  0.43400728557E+02  0.00000000000E+00 0.  1.
         11    1    4    4    0    0 -0.44529363367E+01  0.16740203084E+02  0.22775294134E+01  0.17471410412E+02  0.51100000000E-03 0. -1.
        -11    1    4    4    0    0 -0.77067252683E+01  0.67253122439E+01  0.11022824497E+02  0.15037489794E+02  0.51100000000E-03 0.  1.
        -12    1    4    4    0    0  0.17065647289E+01  0.13775493456E+02  0.63837328035E+01  0.15278371237E+02  0.00000000000E+00 0.  1.
</event>
<event>
 8    1  0.6019723E-011  0.9118800E+02  0.7816164E-02  0.1184000E+00
        -11   -1    0    0    0    0  0.00000000000E+00  0.00000000000E+00  0.45593999997E+02  0.45594000000E+02  0.51100000000E-03 0. -1.
         11   -1    0    0    0    0 -0.00000000000E+00 -0.00000000000E+00 -0.45593999997E+02  0.45594000000E+02  0.51100000000E-03 0.  1.
         23    2    1    2    0    0  0.00000000000E+00  0.00000000000E+00  0.71054273576E-14  0.91188000000E+02  0.91188000000E+02 0.  0.
    9900012    2    3    3    0    0 -0.47016552568E+01  0.25139450082E+02 -0.35064593123E+02  0.47787271855E+02  0.20000003697E+02 0.  0.
         12    1    3    3    0    0  0.47016552568E+01 -0.25139450082E+02  0.35064593123E+02  0.43400728145E+02  0.00000000000E+00 0. -1.
         11    1    4    4    0    0 -0.72573825968E+01  0.20126714423E+02 -0.24401685078E+02  0.32452988622E+02  0.51100000000E-03 0.  1.
        -11    1    4    4    0    0 -0.23200611436E+01  0.56279357169E+01 -0.54592615334E+01  0.81767891556E+01  0.51100000000E-03 0. -1.
         12    1    4    4    0    0  0.48757884837E+01 -0.61520005739E+00 -0.52036465116E+01  0.71574940772E+01  0.00000000000E+00 0. -1.
</event>
<event>
 8    1  0.6019723E-011  0.9118800E+02  0.7816164E-02  0.1184000E+00
        -11   -1    0    0    0    0  0.00000000000E+00  0.00000000000E+00  0.45593999997E+02  0.45594000000E+02  0.51100000000E-03 0. -1.
         11   -1    0    0    0    0 -0.00000000000E+00 -0.00000000000E+00 -0.45593999997E+02  0.45594000000E+02  0.51100000000E-03 0.  1.
         23    2    1    2    0    0  0.00000000000E+00  0.00000000000E+00 -0.71054273576E-14  0.91188000000E+02  0.91188000000E+02 0.  0.
    9900012    2    3    3    0    0  0.24295479813E+02 -0.97722441268E+01  0.34610053162E+02  0.47787275646E+02  0.20000020980E+02 0.  0.
        -12    1    3    3    0    0 -0.24295479813E+02  0.97722441268E+01 -0.34610053162E+02  0.43400724354E+02  0.00000000000E+00 0.  1.
         11    1    4    4    0    0  0.11463988773E+02 -0.10778491215E+02  0.18932572885E+02  0.24617904617E+02  0.51100000000E-03 0. -1.
        -11    1    4    4    0    0  0.10325018931E+02  0.54903127312E+01  0.90656821244E+01  0.14796490883E+02  0.51100000000E-03 0.  1.
        -12    1    4    4    0    0  0.25064721089E+01 -0.44840656431E+01  0.66117981525E+01  0.83728801456E+01  0.00000000000E+00 0.  1.
</event>
<event>
 8    1  0.6019723E-011  0.9118800E+02  0.7816164E-02  0.1184000E+00
        -11   -1    0    0    0    0  0.00000000000E+00  0.00000000000E+00  0.45593999997E+02  0.45594000000E+02  0.51100000000E-03 0. -1.
         11   -1    0    0    0    0 -0.00000000000E+00 -0.00000000000E+00 -0.45593999997E+02  0.45594000000E+02  0.51100000000E-03 0.  1.
         23    2    1    2    0    0  0.00000000000E+00  0.17763568394E-14  0.00000000000E+00  0.91188000000E+02  0.91188000000E+02 0.  0.
    9900012    2    3    3    0    0 -0.20471598652E+02 -0.96203658219E+01  0.37040347112E+02  0.47787249960E+02  0.19999903866E+02 0.  0.
        -12    1    3    3    0    0  0.20471598652E+02  0.96203658219E+01 -0.37040347112E+02  0.43400750040E+02  0.00000000000E+00 0.  1.
         11    1    4    4    0    0  0.19266425950E+01  0.24826418099E+01  0.55616022638E+01  0.63880264594E+01  0.51100000000E-03 0. -1.
        -11    1    4    4    0    0 -0.22239325969E+01 -0.40971261092E+01  0.28178396422E+01  0.54472505965E+01  0.51100000000E-03 0.  1.
         12    1    4    4    0    0 -0.20174308650E+02 -0.80058815226E+01  0.28660905206E+02  0.35951972904E+02  0.00000000000E+00 0. -1.
</event>
<event>
 8    1  0.6019723E-011  0.9118800E+02  0.7816164E-02  0.1184000E+00
        -11   -1    0    0    0    0  0.00000000000E+00  0.00000000000E+00  0.45593999997E+02  0.45594000000E+02  0.51100000000E-03 0. -1.
         11   -1    0    0    0    0 -0.00000000000E+00 -0.00000000000E+00 -0.45593999997E+02  0.45594000000E+02  0.51100000000E-03 0.  1.
         23    2    1    2    0    0 -0.44408920985E-15  0.00000000000E+00  0.00000000000E+00  0.91188000000E+02  0.91188000000E+02 0.  0.
    9900012    2    3    3    0    0  0.80524914718E+00  0.40265632160E+02 -0.16175713577E+02  0.47787271099E+02  0.20000000248E+02 0.  0.
         12    1    3    3    0    0 -0.80524914718E+00 -0.40265632160E+02  0.16175713577E+02  0.43400728901E+02  0.00000000000E+00 0. -1.
         11    1    4    4    0    0  0.63322930632E+01  0.17457230021E+02 -0.59370605414E+01  0.19496192028E+02  0.51100000000E-03 0.  1.
        -11    1    4    4    0    0 -0.62649341579E+01  0.22892266734E+02 -0.66806030381E+01  0.24656352801E+02  0.51100000000E-03 0. -1.
        -12    1    4    4    0    0  0.73789024195E+00 -0.83864594606E-01 -0.35580499974E+01  0.36347262708E+01  0.00000000000E+00 0.  1.
</event>
<event>
 8    1  0.6019723E-011  0.9118800E+02  0.7816164E-02  0.1184000E+00
        -11   -1    0    0    0    0  0.00000000000E+00  0.00000000000E+00  0.45593999997E+02  0.45594000000E+02  0.51100000000E-03 0. -1.
         11   -1    0    0    0    0 -0.00000000000E+00 -0.00000000000E+00 -0.45593999997E+02  0.45594000000E+02  0.51100000000E-03 0.  1.
         23    2    1    2    0    0  0.00000000000E+00  0.44408920985E-15  0.00000000000E+00  0.91188000000E+02  0.91188000000E+02 0.  0.
    9900012    2    3    3    0    0  0.31863548376E+02  0.39214267883E+01  0.29205478168E+02  0.47787271225E+02  0.20000000824E+02 0.  0.
        -12    1    3    3    0    0 -0.31863548376E+02 -0.39214267883E+01 -0.29205478168E+02  0.43400728775E+02  0.00000000000E+00 0.  1.
         11    1    4    4    0    0  0.24757444509E+02  0.23771153101E+01  0.21575381768E+02  0.32925352459E+02  0.51100000000E-03 0. -1.
        -11    1    4    4    0    0  0.13836740131E+01  0.55568537999E+01  0.40102619559E+01  0.69910928434E+01  0.51100000000E-03 0.  1.
        -12    1    4    4    0    0  0.57224298536E+01 -0.40125423218E+01  0.36198344440E+01  0.78708259234E+01  0.00000000000E+00 0.  1.
</event>
<event>
 8    1  0.6019723E-011  0.9118800E+02  0.7816164E-02  0.1184000E+00
        -11   -1    0    0    0    0  0.00000000000E+00  0.00000000000E+00  0.45593999997E+02  0.45594000000E+02  0.51100000000E-03 0. -1.
         11   -1    0    0    0    0 -0.00000000000E+00 -0.00000000000E+00 -0.45593999997E+02  0.45594000000E+02  0.51100000000E-03 0.  1.
         23    2    1    2    0    0  0.00000000000E+00  0.17763568394E-14  0.00000000000E+00  0.91188000000E+02  0.91188000000E+02 0.  0.
    9900012    2    3    3    0    0  0.43572219768E+01 -0.15860838434E+02 -0.40163064252E+02  0.47787270637E+02  0.19999998141E+02 0.  0.
         12    1    3    3    0    0 -0.43572219768E+01  0.15860838434E+02  0.40163064252E+02  0.43400729363E+02  0.00000000000E+00 0. -1.
         11    1    4    4    0    0 -0.95246165496E+00  0.27488161585E+01 -0.14995534971E+01  0.32728938922E+01  0.51100000000E-03 0. -1.
        -11    1    4    4    0    0  0.60272826123E+01 -0.14543342418E+02 -0.20282135156E+02  0.25674928454E+02  0.51100000000E-03 0.  1.
        -12    1    4    4    0    0 -0.71759898062E+00 -0.40663121755E+01 -0.18381375599E+02  0.18839448291E+02  0.00000000000E+00 0.  1.
</event>
<event>
 8    1  0.6019723E-011  0.9118800E+02  0.7816164E-02  0.1184000E+00
        -11   -1    0    0    0    0  0.00000000000E+00  0.00000000000E+00  0.45593999997E+02  0.45594000000E+02  0.51100000000E-03 0. -1.
         11   -1    0    0    0    0 -0.00000000000E+00 -0.00000000000E+00 -0.45593999997E+02  0.45594000000E+02  0.51100000000E-03 0.  1.
         23    2    1    2    0    0  0.35527136788E-14  0.00000000000E+00  0.00000000000E+00  0.91188000000E+02  0.91188000000E+02 0.  0.
    9900012    2    3    3    0    0 -0.20467131347E+02 -0.11462023912E+02  0.36514955312E+02  0.47787269370E+02  0.19999992367E+02 0.  0.
        -12    1    3    3    0    0  0.20467131347E+02  0.11462023912E+02 -0.36514955312E+02  0.43400730630E+02  0.00000000000E+00 0.  1.
         11    1    4    4    0    0 -0.85942633913E+01 -0.13052878437E+01  0.16835039148E+01  0.88543393478E+01  0.51100000000E-03 0.  1.
        -11    1    4    4    0    0 -0.70235642221E+01 -0.17026070590E+01  0.19164455311E+02  0.20481837633E+02  0.51100000000E-03 0. -1.
         12    1    4    4    0    0 -0.48493037341E+01 -0.84541290097E+01  0.15666996086E+02  0.18451092390E+02  0.00000000000E+00 0. -1.
</event>
<event>
 8    1  0.6019723E-011  0.9118800E+02  0.7816164E-02  0.1184000E+00
        -11   -1    0    0    0    0  0.00000000000E+00  0.00000000000E+00  0.45593999997E+02  0.45594000000E+02  0.51100000000E-03 0. -1.
         11   -1    0    0    0    0 -0.00000000000E+00 -0.00000000000E+00 -0.45593999997E+02  0.45594000000E+02  0.51100000000E-03 0.  1.
         23    2    1    2    0    0  0.00000000000E+00  0.00000000000E+00  0.00000000000E+00  0.91188000000E+02  0.91188000000E+02 0.  0.
    9900012    2    3    3    0    0 -0.39903851756E+02 -0.11710001731E+02 -0.12416997169E+02  0.47787270234E+02  0.19999996305E+02 0.  0.
         12    1    3    3    0    0  0.39903851756E+02  0.11710001731E+02  0.12416997169E+02  0.43400729766E+02  0.00000000000E+00 0. -1.
         11    1    4    4    0    0 -0.10173359904E+02 -0.80042931528E+00  0.40063805223E+01  0.10963075480E+02  0.51100000000E-03 0. -1.
        -11    1    4    4    0    0 -0.19931731148E+02 -0.42107497682E+01 -0.13975695256E+02  0.24704744044E+02  0.51100000000E-03 0.  1.
        -12    1    4    4    0    0 -0.97987607042E+01 -0.66988226471E+01 -0.24476824353E+01  0.12119450710E+02  0.00000000000E+00 0.  1.
</event>
<event>
 8    1  0.6019723E-011  0.9118800E+02  0.7816164E-02  0.1184000E+00
        -11   -1    0    0    0    0  0.00000000000E+00  0.00000000000E+00  0.45593999997E+02  0.45594000000E+02  0.51100000000E-03 0.  1.
         11   -1    0    0    0    0 -0.00000000000E+00 -0.00000000000E+00 -0.45593999997E+02  0.45594000000E+02  0.51100000000E-03 0. -1.
         23    2    1    2    0    0 -0.71054273576E-14  0.00000000000E+00  0.22204460493E-15  0.91188000000E+02  0.91188000000E+02 0.  0.
    9900012    2    3    3    0    0 -0.42818987488E+02 -0.69980296724E+01  0.10888532498E+01  0.47787266017E+02  0.19999977080E+02 0.  0.
         12    1    3    3    0    0  0.42818987488E+02  0.69980296724E+01 -0.10888532498E+01  0.43400733983E+02  0.00000000000E+00 0. -1.
         11    1    4    4    0    0 -0.45053963096E+01 -0.30799381718E+01  0.36861604485E+01  0.65857721006E+01  0.51100000000E-03 0. -1.
        -11    1    4    4    0    0 -0.39555897075E+02 -0.43708162827E+01 -0.25553591334E+01  0.39878601893E+02  0.51100000000E-03 0.  1.
        -12    1    4    4    0    0  0.12423058958E+01  0.45272478211E+00 -0.41948065289E-01  0.13228920240E+01  0.00000000000E+00 0.  1.
</event>
<event>
 8    1  0.8413229E-011  0.9118800E+02  0.7816164E-02  0.1184000E+00
        -11   -1    0    0    0    0  0.00000000000E+00  0.00000000000E+00  0.45593999997E+02  0.45594000000E+02  0.51100000000E-03 0. -1.
         11   -1    0    0    0    0 -0.00000000000E+00 -0.00000000000E+00 -0.45593999997E+02  0.45594000000E+02  0.51100000000E-03 0.  1.
         23    2    1    2    0    0  0.44408920985E-15  0.44408920985E-15 -0.71054273576E-14  0.91188000000E+02  0.91188000000E+02 0.  0.
    9900012    2    3    3    0    0  0.29246863649E+01  0.33474408011E+01 -0.43172493904E+02  0.47787269820E+02  0.19999994419E+02 0.  0.
         12    1    3    3    0    0 -0.29246863649E+01 -0.33474408011E+01  0.43172493904E+02  0.43400730180E+02  0.00000000000E+00 0. -1.
         11    1    4    4    0    0 -0.10291004041E+01  0.56878993537E+01 -0.25528903583E+01  0.63188999155E+01  0.51100000000E-03 0. -1.
        -11    1    4    4    0    0  0.58293246385E+01 -0.14485508181E+01 -0.25008445019E+02  0.25719674332E+02  0.51100000000E-03 0.  1.
         12    1    4    4    0    0 -0.18755378696E+01 -0.89190773457E+00 -0.15611158527E+02  0.15748695573E+02  0.00000000000E+00 0. -1.
</event>
<event>
 8    1  0.6019723E-011  0.9118800E+02  0.7816164E-02  0.1184000E+00
        -11   -1    0    0    0    0  0.00000000000E+00  0.00000000000E+00  0.45593999997E+02  0.45594000000E+02  0.51100000000E-03 0. -1.
         11   -1    0    0    0    0 -0.00000000000E+00 -0.00000000000E+00 -0.45593999997E+02  0.45594000000E+02  0.51100000000E-03 0.  1.
         23    2    1    2    0    0 -0.35527136788E-14  0.00000000000E+00 -0.71054273576E-14  0.91188000000E+02  0.91188000000E+02 0.  0.
    9900012    2    3    3    0    0 -0.18986000407E+02 -0.15320568386E+02 -0.35894783684E+02  0.47787268176E+02  0.19999986921E+02 0.  0.
         12    1    3    3    0    0  0.18986000407E+02  0.15320568386E+02  0.35894783684E+02  0.43400731824E+02  0.00000000000E+00 0. -1.
         11    1    4    4    0    0 -0.88999143471E+01 -0.32431962790E+01 -0.33098899193E+01  0.10034050480E+02  0.51100000000E-03 0. -1.
        -11    1    4    4    0    0 -0.23206136790E+01 -0.44186766812E+01 -0.21984063266E+02  0.22543491065E+02  0.51100000000E-03 0.  1.
        -12    1    4    4    0    0 -0.77654723809E+01 -0.76586954260E+01 -0.10600830499E+02  0.15209726631E+02  0.00000000000E+00 0.  1.
</event>
<event>
 8    1  0.6019723E-011  0.9118800E+02  0.7816164E-02  0.1184000E+00
        -11   -1    0    0    0    0  0.00000000000E+00  0.00000000000E+00  0.45593999997E+02  0.45594000000E+02  0.51100000000E-03 0. -1.
         11   -1    0    0    0    0 -0.00000000000E+00 -0.00000000000E+00 -0.45593999997E+02  0.45594000000E+02  0.51100000000E-03 0.  1.
         23    2    1    2    0    0  0.00000000000E+00  0.00000000000E+00  0.00000000000E+00  0.91188000000E+02  0.91188000000E+02 0.  0.
    9900012    2    3    3    0    0 -0.84938395292E+01 -0.23808943489E+02 -0.35279084762E+02  0.47787252061E+02  0.19999913448E+02 0.  0.
         12    1    3    3    0    0  0.84938395292E+01  0.23808943489E+02  0.35279084762E+02  0.43400747939E+02  0.00000000000E+00 0. -1.
         11    1    4    4    0    0 -0.86696771582E+01 -0.89531104232E+01 -0.24174669957E+02  0.27198091038E+02  0.51100000000E-03 0. -1.
        -11    1    4    4    0    0 -0.29892766665E+01 -0.10541956842E+02 -0.39336882221E+01  0.11642273503E+02  0.51100000000E-03 0.  1.
         12    1    4    4    0    0  0.31651142955E+01 -0.43138762243E+01 -0.71707265823E+01  0.89468875202E+01  0.00000000000E+00 0. -1.
</event>
<event>
 8    1  0.6019723E-011  0.9118800E+02  0.7816164E-02  0.1184000E+00
        -11   -1    0    0    0    0  0.00000000000E+00  0.00000000000E+00  0.45593999997E+02  0.45594000000E+02  0.51100000000E-03 0. -1.
         11   -1    0    0    0    0 -0.00000000000E+00 -0.00000000000E+00 -0.45593999997E+02  0.45594000000E+02  0.51100000000E-03 0.  1.
         23    2    1    2    0    0  0.00000000000E+00  0.35527136788E-14  0.00000000000E+00  0.91188000000E+02  0.91188000000E+02 0.  0.
    9900012    2    3    3    0    0  0.26851981141E+02 -0.27579776426E+02 -0.20048663162E+02  0.47787287408E+02  0.20000074609E+02 0.  0.
         12    1    3    3    0    0 -0.26851981141E+02  0.27579776426E+02  0.20048663162E+02  0.43400712592E+02  0.00000000000E+00 0. -1.
         11    1    4    4    0    0  0.48048352565E+00 -0.23125076677E+01  0.53670663352E+00  0.24221086687E+01  0.51100000000E-03 0. -1.
        -11    1    4    4    0    0  0.10694909949E+01 -0.57587915683E+01  0.20547368127E+01  0.62072083054E+01  0.51100000000E-03 0.  1.
        -12    1    4    4    0    0  0.25302006621E+02 -0.19508477190E+02 -0.22640106608E+02  0.39157970434E+02  0.00000000000E+00 0.  1.
</event>
<event>
 8    1  0.6019723E-011  0.9118800E+02  0.7816164E-02  0.1184000E+00
        -11   -1    0    0    0    0  0.00000000000E+00  0.00000000000E+00  0.45593999997E+02  0.45594000000E+02  0.51100000000E-03 0. -1.
         11   -1    0    0    0    0 -0.00000000000E+00 -0.00000000000E+00 -0.45593999997E+02  0.45594000000E+02  0.51100000000E-03 0.  1.
         23    2    1    2    0    0  0.44408920985E-15  0.00000000000E+00  0.00000000000E+00  0.91188000000E+02  0.91188000000E+02 0.  0.
    9900012    2    3    3    0    0 -0.29077352747E+01  0.36382304888E+02  0.23483956958E+02  0.47787271114E+02  0.20000000317E+02 0.  0.
        -12    1    3    3    0    0  0.29077352747E+01 -0.36382304888E+02 -0.23483956958E+02  0.43400728886E+02  0.00000000000E+00 0.  1.
         11    1    4    4    0    0  0.15801804457E+01  0.75924699865E+00 -0.26992329098E+01  0.32185842864E+01  0.51100000000E-03 0.  1.
        -11    1    4    4    0    0 -0.50605702796E+01  0.31979032679E+02  0.23403593809E+02  0.39949919976E+02  0.51100000000E-03 0. -1.
         12    1    4    4    0    0  0.57265455918E+00  0.36440252111E+01  0.27795960590E+01  0.46187668521E+01  0.00000000000E+00 0. -1.
</event>
<event>
 8    1  0.6019723E-011  0.9118800E+02  0.7816164E-02  0.1184000E+00
        -11   -1    0    0    0    0  0.00000000000E+00  0.00000000000E+00  0.45593999997E+02  0.45594000000E+02  0.51100000000E-03 0. -1.
         11   -1    0    0    0    0 -0.00000000000E+00 -0.00000000000E+00 -0.45593999997E+02  0.45594000000E+02  0.51100000000E-03 0.  1.
         23    2    1    2    0    0  0.22204460493E-14  0.00000000000E+00 -0.35527136788E-14  0.91188000000E+02  0.91188000000E+02 0.  0.
    9900012    2    3    3    0    0 -0.38674831787E+01 -0.39246721283E+02 -0.18120720138E+02  0.47787273556E+02  0.20000011451E+02 0.  0.
         12    1    3    3    0    0  0.38674831787E+01  0.39246721283E+02  0.18120720138E+02  0.43400726444E+02  0.00000000000E+00 0. -1.
         11    1    4    4    0    0  0.67889427832E+01 -0.12704148673E+02 -0.11063197659E+01  0.14446767157E+02  0.51100000000E-03 0. -1.
        -11    1    4    4    0    0 -0.68541044448E+01 -0.14904950497E+02 -0.10414032057E+02  0.19431632999E+02  0.51100000000E-03 0.  1.
         12    1    4    4    0    0 -0.38023215171E+01 -0.11637622113E+02 -0.66003683147E+01  0.13908873400E+02  0.00000000000E+00 0. -1.
</event>
<event>
 8    1  0.6019723E-011  0.9118800E+02  0.7816164E-02  0.1184000E+00
        -11   -1    0    0    0    0  0.00000000000E+00  0.00000000000E+00  0.45593999997E+02  0.45594000000E+02  0.51100000000E-03 0. -1.
         11   -1    0    0    0    0 -0.00000000000E+00 -0.00000000000E+00 -0.45593999997E+02  0.45594000000E+02  0.51100000000E-03 0.  1.
         23    2    1    2    0    0 -0.35527136788E-14 -0.71054273576E-14 -0.88817841970E-15  0.91188000000E+02  0.91188000000E+02 0.  0.
    9900012    2    3    3    0    0 -0.26380915915E+02 -0.34025858300E+02 -0.54691350876E+01  0.47787271939E+02  0.20000004080E+02 0.  0.
        -12    1    3    3    0    0  0.26380915915E+02  0.34025858300E+02  0.54691350876E+01  0.43400728061E+02  0.00000000000E+00 0.  1.
         11    1    4    4    0    0 -0.10454427634E+02 -0.93500419446E+01 -0.40839771925E+01  0.14608121422E+02  0.51100000000E-03 0. -1.
        -11    1    4    4    0    0 -0.70989721975E+01 -0.77128651463E+01 -0.77378555045E+01  0.13029125185E+02  0.51100000000E-03 0.  1.
         12    1    4    4    0    0 -0.88275160834E+01 -0.16962951210E+02  0.63526976093E+01  0.20150025331E+02  0.00000000000E+00 0. -1.
</event>
<event>
 8    1  0.6019723E-011  0.9118800E+02  0.7816164E-02  0.1184000E+00
        -11   -1    0    0    0    0  0.00000000000E+00  0.00000000000E+00  0.45593999997E+02  0.45594000000E+02  0.51100000000E-03 0. -1.
         11   -1    0    0    0    0 -0.00000000000E+00 -0.00000000000E+00 -0.45593999997E+02  0.45594000000E+02  0.51100000000E-03 0.  1.
         23    2    1    2    0    0  0.00000000000E+00 -0.88817841970E-15  0.00000000000E+00  0.91188000000E+02  0.91188000000E+02 0.  0.
    9900012    2    3    3    0    0 -0.35718313897E+02 -0.60471796706E+01  0.23900983021E+02  0.47787270524E+02  0.19999997628E+02 0.  0.
        -12    1    3    3    0    0  0.35718313897E+02  0.60471796706E+01 -0.23900983021E+02  0.43400729476E+02  0.00000000000E+00 0.  1.
         11    1    4    4    0    0 -0.14137582145E+02 -0.52637726629E+01  0.14193915880E+02  0.20713420283E+02  0.51100000000E-03 0. -1.
        -11    1    4    4    0    0 -0.20172918381E+01 -0.32175066047E+01 -0.18473387042E+01  0.42230884031E+01  0.51100000000E-03 0.  1.
        -12    1    4    4    0    0 -0.19563439915E+02  0.24340995971E+01  0.11554405846E+02  0.22850761839E+02  0.00000000000E+00 0.  1.
</event>
<event>
 8    1  0.6019723E-011  0.9118800E+02  0.7816164E-02  0.1184000E+00
        -11   -1    0    0    0    0  0.00000000000E+00  0.00000000000E+00  0.45593999997E+02  0.45594000000E+02  0.51100000000E-03 0. -1.
         11   -1    0    0    0    0 -0.00000000000E+00 -0.00000000000E+00 -0.45593999997E+02  0.45594000000E+02  0.51100000000E-03 0.  1.
         23    2    1    2    0    0 -0.35527136788E-14  0.00000000000E+00  0.17763568394E-14  0.91188000000E+02  0.91188000000E+02 0.  0.
    9900012    2    3    3    0    0 -0.25451713337E+02  0.33768055535E+02  0.97750426518E+01  0.47787277134E+02  0.20000027765E+02 0.  0.
        -12    1    3    3    0    0  0.25451713337E+02 -0.33768055535E+02 -0.97750426518E+01  0.43400722866E+02  0.00000000000E+00 0.  1.
         11    1    4    4    0    0 -0.55712056445E+01  0.36677557859E+01  0.20810963737E+01  0.69872546265E+01  0.51100000000E-03 0. -1.
        -11    1    4    4    0    0 -0.12029670033E+02  0.13403926827E+02  0.12267557353E+02  0.21791539165E+02  0.51100000000E-03 0.  1.
        -12    1    4    4    0    0 -0.78508376602E+01  0.16696372922E+02 -0.45736110752E+01  0.19008483343E+02  0.00000000000E+00 0.  1.
</event>
<event>
 8    1  0.6019723E-011  0.9118800E+02  0.7816164E-02  0.1184000E+00
        -11   -1    0    0    0    0  0.00000000000E+00  0.00000000000E+00  0.45593999997E+02  0.45594000000E+02  0.51100000000E-03 0. -1.
         11   -1    0    0    0    0 -0.00000000000E+00 -0.00000000000E+00 -0.45593999997E+02  0.45594000000E+02  0.51100000000E-03 0.  1.
         23    2    1    2    0    0  0.33306690739E-15  0.00000000000E+00  0.00000000000E+00  0.91188000000E+02  0.91188000000E+02 0.  0.
    9900012    2    3    3    0    0 -0.73883435784E+00 -0.23801649797E+02  0.36284432866E+02  0.47787257176E+02  0.19999936768E+02 0.  0.
        -12    1    3    3    0    0  0.73883435784E+00  0.23801649797E+02 -0.36284432866E+02  0.43400742824E+02  0.00000000000E+00 0.  1.
         11    1    4    4    0    0 -0.40999361406E+00 -0.48646785536E+01  0.66563758333E+01  0.82547278386E+01  0.51100000000E-03 0. -1.
        -11    1    4    4    0    0 -0.48906203541E+01  0.84202929938E+00  0.10626921257E+02  0.11728539400E+02  0.51100000000E-03 0.  1.
        -12    1    4    4    0    0  0.45617796103E+01 -0.19779000542E+02  0.19001135776E+02  0.27803989937E+02  0.00000000000E+00 0.  1.
</event>
<event>
 8    1  0.6019723E-011  0.9118800E+02  0.7816164E-02  0.1184000E+00
        -11   -1    0    0    0    0  0.00000000000E+00  0.00000000000E+00  0.45593999997E+02  0.45594000000E+02  0.51100000000E-03 0. -1.
         11   -1    0    0    0    0 -0.00000000000E+00 -0.00000000000E+00 -0.45593999997E+02  0.45594000000E+02  0.51100000000E-03 0.  1.
         23    2    1    2    0    0  0.00000000000E+00  0.35527136788E-14  0.35527136788E-14  0.91188000000E+02  0.91188000000E+02 0.  0.
    9900012    2    3    3    0    0  0.23818604423E+02  0.24212316863E+02  0.27019641380E+02  0.47787271609E+02  0.20000002576E+02 0.  0.
        -12    1    3    3    0    0 -0.23818604423E+02 -0.24212316863E+02 -0.27019641380E+02  0.43400728391E+02  0.00000000000E+00 0.  1.
         11    1    4    4    0    0  0.68004735361E+01  0.13733084163E+02  0.34551079919E+01  0.15709290641E+02  0.51100000000E-03 0. -1.
        -11    1    4    4    0    0  0.49333070124E+01  0.17289717832E+01  0.14928633404E+01  0.54364972841E+01  0.51100000000E-03 0.  1.
         12    1    4    4    0    0  0.12084823875E+02  0.87502609159E+01  0.22071670048E+02  0.26641483684E+02  0.00000000000E+00 0. -1.
</event>
<event>
 8    1  0.6019723E-011  0.9118800E+02  0.7816164E-02  0.1184000E+00
        -11   -1    0    0    0    0  0.00000000000E+00  0.00000000000E+00  0.45593999997E+02  0.45594000000E+02  0.51100000000E-03 0.  1.
         11   -1    0    0    0    0 -0.00000000000E+00 -0.00000000000E+00 -0.45593999997E+02  0.45594000000E+02  0.51100000000E-03 0. -1.
         23    2    1    2    0    0 -0.35527136788E-14  0.35527136788E-14  0.00000000000E+00  0.91188000000E+02  0.91188000000E+02 0.  0.
    9900012    2    3    3    0    0  0.22938802133E+02 -0.27474254543E+02 -0.24547911834E+02  0.47787270957E+02  0.19999999602E+02 0.  0.
         12    1    3    3    0    0 -0.22938802133E+02  0.27474254543E+02  0.24547911834E+02  0.43400729043E+02  0.00000000000E+00 0. -1.
         11    1    4    4    0    0  0.12878999432E+02 -0.10474908537E+02 -0.20468387135E+01  0.16726681805E+02  0.51100000000E-03 0. -1.
        -11    1    4    4    0    0  0.69895658527E+01 -0.61997646826E+01 -0.14592895409E+02  0.17327541938E+02  0.51100000000E-03 0.  1.
         12    1    4    4    0    0  0.30702368487E+01 -0.10799581323E+02 -0.79081777122E+01  0.13733047214E+02  0.00000000000E+00 0. -1.
</event>
<event>
 8    1  0.6019723E-011  0.9118800E+02  0.7816164E-02  0.1184000E+00
        -11   -1    0    0    0    0  0.00000000000E+00  0.00000000000E+00  0.45593999997E+02  0.45594000000E+02  0.51100000000E-03 0. -1.
         11   -1    0    0    0    0 -0.00000000000E+00 -0.00000000000E+00 -0.45593999997E+02  0.45594000000E+02  0.51100000000E-03 0.  1.
         23    2    1    2    0    0  0.00000000000E+00 -0.17763568394E-14  0.00000000000E+00  0.91188000000E+02  0.91188000000E+02 0.  0.
    9900012    2    3    3    0    0  0.35045605749E+02 -0.95110371847E+01  0.23769077658E+02  0.47787270013E+02  0.19999995297E+02 0.  0.
        -12    1    3    3    0    0 -0.35045605749E+02  0.95110371847E+01 -0.23769077658E+02  0.43400729987E+02  0.00000000000E+00 0.  1.
         11    1    4    4    0    0  0.33928946414E+02 -0.66902024729E+01  0.18166523785E+02  0.39063471436E+02  0.51100000000E-03 0.  1.
        -11    1    4    4    0    0  0.21009233697E+00 -0.16696664083E+01  0.66904306956E+01  0.68988251071E+01  0.51100000000E-03 0. -1.
         12    1    4    4    0    0  0.90656699806E+00 -0.11511683034E+01 -0.10878768226E+01  0.18249734699E+01  0.00000000000E+00 0. -1.
</event>
<event>
 8    1  0.6019723E-011  0.9118800E+02  0.7816164E-02  0.1184000E+00
        -11   -1    0    0    0    0  0.00000000000E+00  0.00000000000E+00  0.45593999997E+02  0.45594000000E+02  0.51100000000E-03 0. -1.
         11   -1    0    0    0    0 -0.00000000000E+00 -0.00000000000E+00 -0.45593999997E+02  0.45594000000E+02  0.51100000000E-03 0.  1.
         23    2    1    2    0    0  0.00000000000E+00 -0.71054273576E-14  0.00000000000E+00  0.91188000000E+02  0.91188000000E+02 0.  0.
    9900012    2    3    3    0    0  0.22972156254E+02 -0.33368459410E+02  0.15570765060E+02  0.47787276838E+02  0.20000026417E+02 0.  0.
        -12    1    3    3    0    0 -0.22972156254E+02  0.33368459410E+02 -0.15570765060E+02  0.43400723162E+02  0.00000000000E+00 0.  1.
         11    1    4    4    0    0  0.21260466824E+02 -0.21346405982E+02  0.14072837970E+02  0.33252387383E+02  0.51100000000E-03 0. -1.
        -11    1    4    4    0    0 -0.68743657284E+00  0.42412291173E+00 -0.13224346437E+01  0.15496073483E+01  0.51100000000E-03 0.  1.
         12    1    4    4    0    0  0.23991260029E+01 -0.12446176341E+02  0.28203617343E+01  0.12985282107E+02  0.00000000000E+00 0. -1.
</event>
<event>
 8    1  0.6019723E-011  0.9118800E+02  0.7816164E-02  0.1184000E+00
        -11   -1    0    0    0    0  0.00000000000E+00  0.00000000000E+00  0.45593999997E+02  0.45594000000E+02  0.51100000000E-03 0. -1.
         11   -1    0    0    0    0 -0.00000000000E+00 -0.00000000000E+00 -0.45593999997E+02  0.45594000000E+02  0.51100000000E-03 0.  1.
         23    2    1    2    0    0 -0.17763568394E-14  0.00000000000E+00  0.00000000000E+00  0.91188000000E+02  0.91188000000E+02 0.  0.
    9900012    2    3    3    0    0 -0.93391593060E+01 -0.33284388088E+02 -0.26240289818E+02  0.47787271934E+02  0.20000004055E+02 0.  0.
         12    1    3    3    0    0  0.93391593060E+01  0.33284388088E+02  0.26240289818E+02  0.43400728066E+02  0.00000000000E+00 0. -1.
         11    1    4    4    0    0  0.26637677866E+01 -0.56345469771E+01 -0.95404436771E+00  0.63050756835E+01  0.51100000000E-03 0. -1.
        -11    1    4    4    0    0 -0.11156974944E+02 -0.22963838546E+02 -0.13741254481E+02  0.28993758736E+02  0.51100000000E-03 0.  1.
        -12    1    4    4    0    0 -0.84595214838E+00 -0.46860025656E+01 -0.11544990969E+02  0.12488437515E+02  0.00000000000E+00 0.  1.
</event>
<event>
 8    1  0.6019723E-011  0.9118800E+02  0.7816164E-02  0.1184000E+00
        -11   -1    0    0    0    0  0.00000000000E+00  0.00000000000E+00  0.45593999997E+02  0.45594000000E+02  0.51100000000E-03 0. -1.
         11   -1    0    0    0    0 -0.00000000000E+00 -0.00000000000E+00 -0.45593999997E+02  0.45594000000E+02  0.51100000000E-03 0.  1.
         23    2    1    2    0    0 -0.35527136788E-14  0.00000000000E+00  0.00000000000E+00  0.91188000000E+02  0.91188000000E+02 0.  0.
    9900012    2    3    3    0    0 -0.19941106296E+02  0.14974246078E+02 -0.35521077014E+02  0.47787277907E+02  0.20000031291E+02 0.  0.
         12    1    3    3    0    0  0.19941106296E+02 -0.14974246078E+02  0.35521077014E+02  0.43400722093E+02  0.00000000000E+00 0. -1.
         11    1    4    4    0    0 -0.94371411823E+01  0.15701771695E+02 -0.18832008147E+02  0.26272605489E+02  0.51100000000E-03 0. -1.
        -11    1    4    4    0    0 -0.11179003275E+02  0.14390269114E+01 -0.13265525739E+02  0.17407328516E+02  0.51100000000E-03 0.  1.
         12    1    4    4    0    0  0.67503816155E+00 -0.21665525291E+01 -0.34235431281E+01  0.41073439022E+01  0.00000000000E+00 0. -1.
</event>
<event>
 8    1  0.6019723E-011  0.9118800E+02  0.7816164E-02  0.1184000E+00
        -11   -1    0    0    0    0  0.00000000000E+00  0.00000000000E+00  0.45593999997E+02  0.45594000000E+02  0.51100000000E-03 0. -1.
         11   -1    0    0    0    0 -0.00000000000E+00 -0.00000000000E+00 -0.45593999997E+02  0.45594000000E+02  0.51100000000E-03 0.  1.
         23    2    1    2    0    0 -0.17763568394E-14 -0.35527136788E-14  0.00000000000E+00  0.91188000000E+02  0.91188000000E+02 0.  0.
    9900012    2    3    3    0    0  0.98931600693E+01 -0.22353581062E+02 -0.35861762967E+02  0.47787271371E+02  0.20000001490E+02 0.  0.
         12    1    3    3    0    0 -0.98931600693E+01  0.22353581062E+02  0.35861762967E+02  0.43400728629E+02  0.00000000000E+00 0. -1.
         11    1    4    4    0    0 -0.33661620553E+01  0.27200908230E+00 -0.12951439504E+01  0.36169647547E+01  0.51100000000E-03 0. -1.
        -11    1    4    4    0    0  0.83263051321E+01 -0.14474039016E+02 -0.27991975810E+02  0.32594107943E+02  0.51100000000E-03 0.  1.
        -12    1    4    4    0    0  0.49330169925E+01 -0.81515511280E+01 -0.65746432064E+01  0.11576198674E+02  0.00000000000E+00 0.  1.
</event>
<event>
 8    1  0.6019723E-011  0.9118800E+02  0.7816164E-02  0.1184000E+00
        -11   -1    0    0    0    0  0.00000000000E+00  0.00000000000E+00  0.45593999997E+02  0.45594000000E+02  0.51100000000E-03 0. -1.
         11   -1    0    0    0    0 -0.00000000000E+00 -0.00000000000E+00 -0.45593999997E+02  0.45594000000E+02  0.51100000000E-03 0.  1.
         23    2    1    2    0    0  0.35527136788E-14  0.00000000000E+00  0.00000000000E+00  0.91188000000E+02  0.91188000000E+02 0.  0.
    9900012    2    3    3    0    0 -0.21689938497E+02  0.26440386143E+02 -0.26722211268E+02  0.47787262374E+02  0.19999960468E+02 0.  0.
         12    1    3    3    0    0  0.21689938497E+02 -0.26440386143E+02  0.26722211268E+02  0.43400737626E+02  0.00000000000E+00 0. -1.
         11    1    4    4    0    0 -0.10809031124E+01  0.12838620079E+01  0.91591334706E+00  0.19119494539E+01  0.51100000000E-03 0. -1.
        -11    1    4    4    0    0 -0.17689381248E+02  0.10167264242E+02 -0.10589941185E+02  0.22987699442E+02  0.51100000000E-03 0.  1.
        -12    1    4    4    0    0 -0.29196541375E+01  0.14989259893E+02 -0.17048183430E+02  0.22887613478E+02  0.00000000000E+00 0.  1.
</event>
<event>
 8    1  0.6019723E-011  0.9118800E+02  0.7816164E-02  0.1184000E+00
        -11   -1    0    0    0    0  0.00000000000E+00  0.00000000000E+00  0.45593999997E+02  0.45594000000E+02  0.51100000000E-03 0. -1.
         11   -1    0    0    0    0 -0.00000000000E+00 -0.00000000000E+00 -0.45593999997E+02  0.45594000000E+02  0.51100000000E-03 0.  1.
         23    2    1    2    0    0  0.35527136788E-14 -0.35527136788E-14  0.17763568394E-14  0.91188000000E+02  0.91188000000E+02 0.  0.
    9900012    2    3    3    0    0  0.30881753493E+02  0.26502268452E+02 -0.15085434207E+02  0.47787271238E+02  0.20000000882E+02 0.  0.
         12    1    3    3    0    0 -0.30881753493E+02 -0.26502268452E+02  0.15085434207E+02  0.43400728762E+02  0.00000000000E+00 0. -1.
         11    1    4    4    0    0  0.95187975872E+01 -0.38262527118E+00 -0.43674994002E+00  0.95364909886E+01  0.51100000000E-03 0. -1.
        -11    1    4    4    0    0  0.20660695621E+02  0.21399575305E+02 -0.13139221114E+02  0.32518384009E+02  0.51100000000E-03 0.  1.
         12    1    4    4    0    0  0.70226028439E+00  0.54853184175E+01 -0.15094631535E+01  0.57323962407E+01  0.00000000000E+00 0. -1.
</event>
<event>
 8    1  0.6019723E-011  0.9118800E+02  0.7816164E-02  0.1184000E+00
        -11   -1    0    0    0    0  0.00000000000E+00  0.00000000000E+00  0.45593999997E+02  0.45594000000E+02  0.51100000000E-03 0. -1.
         11   -1    0    0    0    0 -0.00000000000E+00 -0.00000000000E+00 -0.45593999997E+02  0.45594000000E+02  0.51100000000E-03 0.  1.
         23    2    1    2    0    0 -0.88817841970E-15 -0.35527136788E-14 -0.71054273576E-14  0.91188000000E+02  0.91188000000E+02 0.  0.
    9900012    2    3    3    0    0  0.55266321132E+01  0.17281454902E+02  0.39426269795E+02  0.47787273094E+02  0.20000009343E+02 0.  0.
        -12    1    3    3    0    0 -0.55266321132E+01 -0.17281454902E+02 -0.39426269795E+02  0.43400726906E+02  0.00000000000E+00 0.  1.
         11    1    4    4    0    0  0.73039389179E+01  0.75702792525E+01  0.32815098143E+02  0.34459937871E+02  0.51100000000E-03 0. -1.
        -11    1    4    4    0    0 -0.11781545416E+01  0.68190135226E+01  0.10075979999E+01  0.69930141953E+01  0.51100000000E-03 0.  1.
        -12    1    4    4    0    0 -0.59915226309E+00  0.28921621266E+01  0.56035736524E+01  0.63343210275E+01  0.00000000000E+00 0.  1.
</event>
<event>
 8    1  0.6019723E-011  0.9118800E+02  0.7816164E-02  0.1184000E+00
        -11   -1    0    0    0    0  0.00000000000E+00  0.00000000000E+00  0.45593999997E+02  0.45594000000E+02  0.51100000000E-03 0.  1.
         11   -1    0    0    0    0 -0.00000000000E+00 -0.00000000000E+00 -0.45593999997E+02  0.45594000000E+02  0.51100000000E-03 0. -1.
         23    2    1    2    0    0 -0.44408920985E-15  0.00000000000E+00 -0.35527136788E-14  0.91188000000E+02  0.91188000000E+02 0.  0.
    9900012    2    3    3    0    0  0.24659778616E+01  0.37836895709E+02  0.21116750416E+02  0.47787206553E+02  0.19999705955E+02 0.  0.
        -12    1    3    3    0    0 -0.24659778616E+01 -0.37836895709E+02 -0.21116750416E+02  0.43400793447E+02  0.00000000000E+00 0.  1.
         11    1    4    4    0    0 -0.11775094027E+00  0.14783890745E+02  0.12670151679E+02  0.19470748180E+02  0.51100000000E-03 0. -1.
        -11    1    4    4    0    0  0.71068944786E+01  0.57532113593E+01  0.26833449713E+01  0.95293090291E+01  0.51100000000E-03 0.  1.
        -12    1    4    4    0    0 -0.45231656767E+01  0.17299793605E+02  0.57632537657E+01  0.18787149344E+02  0.00000000000E+00 0.  1.
</event>
<event>
 8    1  0.6019723E-011  0.9118800E+02  0.7816164E-02  0.1184000E+00
        -11   -1    0    0    0    0  0.00000000000E+00  0.00000000000E+00  0.45593999997E+02  0.45594000000E+02  0.51100000000E-03 0. -1.
         11   -1    0    0    0    0 -0.00000000000E+00 -0.00000000000E+00 -0.45593999997E+02  0.45594000000E+02  0.51100000000E-03 0.  1.
         23    2    1    2    0    0 -0.35527136788E-14 -0.17763568394E-14  0.71054273576E-14  0.91188000000E+02  0.91188000000E+02 0.  0.
    9900012    2    3    3    0    0  0.22919768899E+02  0.13343737907E+02 -0.34354794947E+02  0.47787273236E+02  0.20000009994E+02 0.  0.
         12    1    3    3    0    0 -0.22919768899E+02 -0.13343737907E+02  0.34354794947E+02  0.43400726764E+02  0.00000000000E+00 0. -1.
         11    1    4    4    0    0  0.55935320245E+01  0.63044985107E+00 -0.30931307814E+01  0.64228129208E+01  0.51100000000E-03 0. -1.
        -11    1    4    4    0    0  0.58980714086E+01 -0.31966132078E+00 -0.34090898193E+00  0.59165571827E+01  0.51100000000E-03 0.  1.
        -12    1    4    4    0    0  0.11428165466E+02  0.13032949377E+02 -0.30920755184E+02  0.35447903133E+02  0.00000000000E+00 0.  1.
</event>
<event>
 8    1  0.6019723E-011  0.9118800E+02  0.7816164E-02  0.1184000E+00
        -11   -1    0    0    0    0  0.00000000000E+00  0.00000000000E+00  0.45593999997E+02  0.45594000000E+02  0.51100000000E-03 0. -1.
         11   -1    0    0    0    0 -0.00000000000E+00 -0.00000000000E+00 -0.45593999997E+02  0.45594000000E+02  0.51100000000E-03 0.  1.
         23    2    1    2    0    0  0.00000000000E+00  0.00000000000E+00  0.00000000000E+00  0.91188000000E+02  0.91188000000E+02 0.  0.
    9900012    2    3    3    0    0  0.15461024631E+02  0.12282135086E+02  0.38648793972E+02  0.47787269587E+02  0.19999993356E+02 0.  0.
        -12    1    3    3    0    0 -0.15461024631E+02 -0.12282135086E+02 -0.38648793972E+02  0.43400730413E+02  0.00000000000E+00 0.  1.
         11    1    4    4    0    0  0.93128530674E+01  0.14460045165E+02  0.35429278424E+02  0.39383447136E+02  0.51100000000E-03 0. -1.
        -11    1    4    4    0    0  0.48177537175E+01 -0.34469742104E+01  0.24340881630E+01  0.64044646565E+01  0.51100000000E-03 0.  1.
         12    1    4    4    0    0  0.13304178463E+01  0.12690641310E+01  0.78542738514E+00  0.19993577948E+01  0.00000000000E+00 0. -1.
</event>
<event>
 8    1  0.6019723E-011  0.9118800E+02  0.7816164E-02  0.1184000E+00
        -11   -1    0    0    0    0  0.00000000000E+00  0.00000000000E+00  0.45593999997E+02  0.45594000000E+02  0.51100000000E-03 0. -1.
         11   -1    0    0    0    0 -0.00000000000E+00 -0.00000000000E+00 -0.45593999997E+02  0.45594000000E+02  0.51100000000E-03 0.  1.
         23    2    1    2    0    0  0.00000000000E+00  0.88817841970E-15  0.00000000000E+00  0.91188000000E+02  0.91188000000E+02 0.  0.
    9900012    2    3    3    0    0 -0.12037318297E+02  0.48357579436E+01  0.41416685355E+02  0.47787269448E+02  0.19999992720E+02 0.  0.
        -12    1    3    3    0    0  0.12037318297E+02 -0.48357579436E+01 -0.41416685355E+02  0.43400730552E+02  0.00000000000E+00 0.  1.
         11    1    4    4    0    0 -0.16827950219E+02  0.50116623731E+01  0.28014713035E+02  0.33062377637E+02  0.51100000000E-03 0. -1.
        -11    1    4    4    0    0  0.25444793213E+01 -0.10800123074E+01  0.31499375720E+01  0.41908123997E+01  0.51100000000E-03 0.  1.
         12    1    4    4    0    0  0.22461526007E+01  0.90410787791E+00  0.10252034748E+02  0.10534079411E+02  0.00000000000E+00 0. -1.
</event>
<event>
 8    1  0.6019723E-011  0.9118800E+02  0.7816164E-02  0.1184000E+00
        -11   -1    0    0    0    0  0.00000000000E+00  0.00000000000E+00  0.45593999997E+02  0.45594000000E+02  0.51100000000E-03 0. -1.
         11   -1    0    0    0    0 -0.00000000000E+00 -0.00000000000E+00 -0.45593999997E+02  0.45594000000E+02  0.51100000000E-03 0.  1.
         23    2    1    2    0    0  0.35527136788E-14  0.00000000000E+00  0.35527136788E-14  0.91188000000E+02  0.91188000000E+02 0.  0.
    9900012    2    3    3    0    0 -0.17441653212E+02 -0.29793641720E+02 -0.26301147906E+02  0.47787277254E+02  0.20000028313E+02 0.  0.
         12    1    3    3    0    0  0.17441653212E+02  0.29793641720E+02  0.26301147906E+02  0.43400722746E+02  0.00000000000E+00 0. -1.
         11    1    4    4    0    0  0.15757205586E+01 -0.95885715755E+01 -0.37296485214E+01  0.10408356186E+02  0.51100000000E-03 0. -1.
        -11    1    4    4    0    0 -0.18205751217E+02 -0.18490453681E+02 -0.15876932289E+02  0.30420769778E+02  0.51100000000E-03 0.  1.
         12    1    4    4    0    0 -0.81162255327E+00 -0.17146164632E+01 -0.66945670959E+01  0.69581512908E+01  0.00000000000E+00 0. -1.
</event>
<event>
 8    1  0.6019723E-011  0.9118800E+02  0.7816164E-02  0.1184000E+00
        -11   -1    0    0    0    0  0.00000000000E+00  0.00000000000E+00  0.45593999997E+02  0.45594000000E+02  0.51100000000E-03 0. -1.
         11   -1    0    0    0    0 -0.00000000000E+00 -0.00000000000E+00 -0.45593999997E+02  0.45594000000E+02  0.51100000000E-03 0.  1.
         23    2    1    2    0    0  0.35527136788E-14  0.00000000000E+00  0.00000000000E+00  0.91188000000E+02  0.91188000000E+02 0.  0.
    9900012    2    3    3    0    0  0.18585782722E+02  0.26133072695E+01 -0.39132625362E+02  0.47787273486E+02  0.20000011132E+02 0.  0.
         12    1    3    3    0    0 -0.18585782722E+02 -0.26133072695E+01  0.39132625362E+02  0.43400726514E+02  0.00000000000E+00 0. -1.
         11    1    4    4    0    0  0.10816245930E+01 -0.72994066944E+00 -0.17293141573E+02  0.17342302929E+02  0.51100000000E-03 0. -1.
        -11    1    4    4    0    0  0.16614019627E+02  0.23620227496E+00 -0.21533083902E+02  0.27198440071E+02  0.51100000000E-03 0.  1.
        -12    1    4    4    0    0  0.89013850166E+00  0.31070456640E+01 -0.30639988612E+00  0.32465304866E+01  0.00000000000E+00 0.  1.
</event>
<event>
 8    1  0.6019723E-011  0.9118800E+02  0.7816164E-02  0.1184000E+00
        -11   -1    0    0    0    0  0.00000000000E+00  0.00000000000E+00  0.45593999997E+02  0.45594000000E+02  0.51100000000E-03 0. -1.
         11   -1    0    0    0    0 -0.00000000000E+00 -0.00000000000E+00 -0.45593999997E+02  0.45594000000E+02  0.51100000000E-03 0.  1.
         23    2    1    2    0    0 -0.71054273576E-14  0.00000000000E+00  0.35527136788E-14  0.91188000000E+02  0.91188000000E+02 0.  0.
    9900012    2    3    3    0    0 -0.35118569146E+02 -0.16812934738E+02  0.19173783074E+02  0.47787278454E+02  0.20000033782E+02 0.  0.
        -12    1    3    3    0    0  0.35118569146E+02  0.16812934738E+02 -0.19173783074E+02  0.43400721546E+02  0.00000000000E+00 0.  1.
         11    1    4    4    0    0 -0.18997413044E+02 -0.12881323006E+02  0.11806580132E+02  0.25811344782E+02  0.51100000000E-03 0. -1.
        -11    1    4    4    0    0  0.10942100006E+01 -0.32275914740E+01  0.18874121742E+01  0.38957627270E+01  0.51100000000E-03 0.  1.
        -12    1    4    4    0    0 -0.17215366102E+02 -0.70402025874E+00  0.54797907679E+01  0.18080170945E+02  0.00000000000E+00 0.  1.
</event>
<event>
 8    1  0.6019723E-011  0.9118800E+02  0.7816164E-02  0.1184000E+00
        -11   -1    0    0    0    0  0.00000000000E+00  0.00000000000E+00  0.45593999997E+02  0.45594000000E+02  0.51100000000E-03 0. -1.
         11   -1    0    0    0    0 -0.00000000000E+00 -0.00000000000E+00 -0.45593999997E+02  0.45594000000E+02  0.51100000000E-03 0.  1.
         23    2    1    2    0    0  0.00000000000E+00  0.00000000000E+00  0.00000000000E+00  0.91188000000E+02  0.91188000000E+02 0.  0.
    9900012    2    3    3    0    0 -0.29093991144E+02 -0.31677461738E+01 -0.32048845850E+02  0.47787268936E+02  0.19999990388E+02 0.  0.
         12    1    3    3    0    0  0.29093991144E+02  0.31677461738E+01  0.32048845850E+02  0.43400731064E+02  0.00000000000E+00 0. -1.
         11    1    4    4    0    0 -0.23033109980E+02  0.42788666204E+01 -0.16427448916E+02  0.28612828121E+02  0.51100000000E-03 0. -1.
        -11    1    4    4    0    0  0.41107541727E+00 -0.31705502539E+01 -0.61552122479E+01  0.69359937997E+01  0.51100000000E-03 0.  1.
        -12    1    4    4    0    0 -0.64719565816E+01 -0.42760625403E+01 -0.94661846865E+01  0.12238447016E+02  0.00000000000E+00 0.  1.
</event>
<event>
 8    1  0.6019723E-011  0.9118800E+02  0.7816164E-02  0.1184000E+00
        -11   -1    0    0    0    0  0.00000000000E+00  0.00000000000E+00  0.45593999997E+02  0.45594000000E+02  0.51100000000E-03 0. -1.
         11   -1    0    0    0    0 -0.00000000000E+00 -0.00000000000E+00 -0.45593999997E+02  0.45594000000E+02  0.51100000000E-03 0.  1.
         23    2    1    2    0    0  0.17763568394E-14  0.00000000000E+00  0.00000000000E+00  0.91188000000E+02  0.91188000000E+02 0.  0.
    9900012    2    3    3    0    0 -0.92002048622E+01  0.24470154532E+02  0.34643774584E+02  0.47787270170E+02  0.19999996014E+02 0.  0.
        -12    1    3    3    0    0  0.92002048622E+01 -0.24470154532E+02 -0.34643774584E+02  0.43400729830E+02  0.00000000000E+00 0.  1.
         11    1    4    4    0    0  0.38257426394E+01  0.47857572781E+01  0.54162711121E+01  0.81777608481E+01  0.51100000000E-03 0. -1.
        -11    1    4    4    0    0 -0.13657450963E+02  0.10086577230E+02  0.16696313087E+02  0.23812431165E+02  0.51100000000E-03 0.  1.
        -12    1    4    4    0    0  0.63150346166E+00  0.95978200239E+01  0.12531190385E+02  0.15797078157E+02  0.00000000000E+00 0.  1.
</event>
<event>
 8    1  0.6019723E-011  0.9118800E+02  0.7816164E-02  0.1184000E+00
        -11   -1    0    0    0    0  0.00000000000E+00  0.00000000000E+00  0.45593999997E+02  0.45594000000E+02  0.51100000000E-03 0. -1.
         11   -1    0    0    0    0 -0.00000000000E+00 -0.00000000000E+00 -0.45593999997E+02  0.45594000000E+02  0.51100000000E-03 0.  1.
         23    2    1    2    0    0  0.11102230246E-15  0.00000000000E+00  0.22204460493E-15  0.91188000000E+02  0.91188000000E+02 0.  0.
    9900012    2    3    3    0    0 -0.48210733750E+00 -0.43382945576E+02  0.11442926606E+01  0.47787288024E+02  0.20000077417E+02 0.  0.
        -12    1    3    3    0    0  0.48210733750E+00  0.43382945576E+02 -0.11442926606E+01  0.43400711976E+02  0.00000000000E+00 0.  1.
         11    1    4    4    0    0 -0.21064744175E+01 -0.57175441078E+01 -0.15885907666E+01  0.62969171807E+01  0.51100000000E-03 0. -1.
        -11    1    4    4    0    0  0.21513406687E+01 -0.32963017648E+02 -0.39857086056E+01  0.33272731666E+02  0.51100000000E-03 0.  1.
        -12    1    4    4    0    0 -0.52697358871E+00 -0.47023838195E+01  0.67185920327E+01  0.82176391775E+01  0.00000000000E+00 0.  1.
</event>
<event>
 8    1  0.6019723E-011  0.9118800E+02  0.7816164E-02  0.1184000E+00
        -11   -1    0    0    0    0  0.00000000000E+00  0.00000000000E+00  0.45593999997E+02  0.45594000000E+02  0.51100000000E-03 0.  1.
         11   -1    0    0    0    0 -0.00000000000E+00 -0.00000000000E+00 -0.45593999997E+02  0.45594000000E+02  0.51100000000E-03 0. -1.
         23    2    1    2    0    0  0.00000000000E+00  0.00000000000E+00 -0.17763568394E-14  0.91188000000E+02  0.91188000000E+02 0.  0.
    9900012    2    3    3    0    0  0.52923574387E+01 -0.41872506576E+02  0.10114731228E+02  0.47787266803E+02  0.19999980662E+02 0.  0.
        -12    1    3    3    0    0 -0.52923574387E+01  0.41872506576E+02 -0.10114731228E+02  0.43400733197E+02  0.00000000000E+00 0.  1.
         11    1    4    4    0    0  0.33597753142E+01 -0.21861540821E+02  0.14814220314E+01  0.22167761925E+02  0.51100000000E-03 0. -1.
        -11    1    4    4    0    0 -0.22048235678E+01 -0.14275794811E+02 -0.18730169074E-01  0.14445065438E+02  0.51100000000E-03 0.  1.
        -12    1    4    4    0    0  0.41374056922E+01 -0.57351709440E+01  0.86520393657E+01  0.11174439440E+02  0.00000000000E+00 0.  1.
</event>
<event>
 8    1  0.6019723E-011  0.9118800E+02  0.7816164E-02  0.1184000E+00
        -11   -1    0    0    0    0  0.00000000000E+00  0.00000000000E+00  0.45593999997E+02  0.45594000000E+02  0.51100000000E-03 0. -1.
         11   -1    0    0    0    0 -0.00000000000E+00 -0.00000000000E+00 -0.45593999997E+02  0.45594000000E+02  0.51100000000E-03 0.  1.
         23    2    1    2    0    0 -0.35527136788E-14  0.17763568394E-14  0.00000000000E+00  0.91188000000E+02  0.91188000000E+02 0.  0.
    9900012    2    3    3    0    0 -0.25589024832E+02  0.11805381764E+02  0.33006950553E+02  0.47787262503E+02  0.19999961057E+02 0.  0.
        -12    1    3    3    0    0  0.25589024832E+02 -0.11805381764E+02 -0.33006950553E+02  0.43400737497E+02  0.00000000000E+00 0.  1.
         11    1    4    4    0    0  0.46774957841E+00  0.35564583271E+01  0.13390762536E+02  0.13862889564E+02  0.51100000000E-03 0. -1.
        -11    1    4    4    0    0 -0.34195563311E+01  0.25256304244E+01  0.39760350578E+01  0.58207413260E+01  0.51100000000E-03 0.  1.
         12    1    4    4    0    0 -0.22637218079E+02  0.57232930127E+01  0.15640152960E+02  0.28103631614E+02  0.00000000000E+00 0. -1.
</event>
<event>
 8    1  0.6019723E-011  0.9118800E+02  0.7816164E-02  0.1184000E+00
        -11   -1    0    0    0    0  0.00000000000E+00  0.00000000000E+00  0.45593999997E+02  0.45594000000E+02  0.51100000000E-03 0. -1.
         11   -1    0    0    0    0 -0.00000000000E+00 -0.00000000000E+00 -0.45593999997E+02  0.45594000000E+02  0.51100000000E-03 0.  1.
         23    2    1    2    0    0  0.22204460493E-15  0.00000000000E+00 -0.71054273576E-14  0.91188000000E+02  0.91188000000E+02 0.  0.
    9900012    2    3    3    0    0 -0.16561933918E+01 -0.33504635151E+02 -0.27537579018E+02  0.47787287894E+02  0.20000076824E+02 0.  0.
         12    1    3    3    0    0  0.16561933918E+01  0.33504635151E+02  0.27537579018E+02  0.43400712106E+02  0.00000000000E+00 0. -1.
         11    1    4    4    0    0 -0.17433854606E+01 -0.14700078150E+01  0.97012662432E-02  0.22804407943E+01  0.51100000000E-03 0. -1.
        -11    1    4    4    0    0 -0.38149777752E+00  0.20745650930E+01 -0.16236394157E+01  0.26618726665E+01  0.51100000000E-03 0.  1.
        -12    1    4    4    0    0  0.46868984631E+00 -0.34109192429E+02 -0.25923640869E+02  0.42844974433E+02  0.00000000000E+00 0.  1.
</event>
<event>
 8    1  0.6019723E-011  0.9118800E+02  0.7816164E-02  0.1184000E+00
        -11   -1    0    0    0    0  0.00000000000E+00  0.00000000000E+00  0.45593999997E+02  0.45594000000E+02  0.51100000000E-03 0. -1.
         11   -1    0    0    0    0 -0.00000000000E+00 -0.00000000000E+00 -0.45593999997E+02  0.45594000000E+02  0.51100000000E-03 0.  1.
         23    2    1    2    0    0 -0.35527136788E-14  0.00000000000E+00  0.00000000000E+00  0.91188000000E+02  0.91188000000E+02 0.  0.
    9900012    2    3    3    0    0 -0.30073171276E+02  0.52744074614E+01  0.30844905905E+02  0.47787271608E+02  0.20000002570E+02 0.  0.
        -12    1    3    3    0    0  0.30073171276E+02 -0.52744074614E+01 -0.30844905905E+02  0.43400728392E+02  0.00000000000E+00 0.  1.
         11    1    4    4    0    0 -0.13748869381E+02  0.77961105770E+00  0.76412995519E+01  0.15748925733E+02  0.51100000000E-03 0. -1.
        -11    1    4    4    0    0 -0.10968520439E+02 -0.24480692509E+01  0.19527176185E+02  0.22530248416E+02  0.51100000000E-03 0.  1.
        -12    1    4    4    0    0 -0.53557814561E+01  0.69428656546E+01  0.36764301680E+01  0.95080974586E+01  0.00000000000E+00 0.  1.
</event>
<event>
 8    1  0.6019723E-011  0.9118800E+02  0.7816164E-02  0.1184000E+00
        -11   -1    0    0    0    0  0.00000000000E+00  0.00000000000E+00  0.45593999997E+02  0.45594000000E+02  0.51100000000E-03 0. -1.
         11   -1    0    0    0    0 -0.00000000000E+00 -0.00000000000E+00 -0.45593999997E+02  0.45594000000E+02  0.51100000000E-03 0.  1.
         23    2    1    2    0    0  0.00000000000E+00  0.35527136788E-14  0.71054273576E-14  0.91188000000E+02  0.91188000000E+02 0.  0.
    9900012    2    3    3    0    0 -0.25200955801E+02 -0.18826966760E+02  0.29901191166E+02  0.47787261714E+02  0.19999957459E+02 0.  0.
        -12    1    3    3    0    0  0.25200955801E+02  0.18826966760E+02 -0.29901191166E+02  0.43400738286E+02  0.00000000000E+00 0.  1.
         11    1    4    4    0    0 -0.93695397046E+01 -0.11505576852E+02  0.77510574841E+01  0.16740533604E+02  0.51100000000E-03 0. -1.
        -11    1    4    4    0    0 -0.24745383521E+01 -0.52888178311E-01  0.13140525317E+02  0.13371594635E+02  0.51100000000E-03 0.  1.
         12    1    4    4    0    0 -0.13356877744E+02 -0.72685017293E+01  0.90096083643E+01  0.17675133475E+02  0.00000000000E+00 0. -1.
</event>
<event>
 8    1  0.6019723E-011  0.9118800E+02  0.7816164E-02  0.1184000E+00
        -11   -1    0    0    0    0  0.00000000000E+00  0.00000000000E+00  0.45593999997E+02  0.45594000000E+02  0.51100000000E-03 0. -1.
         11   -1    0    0    0    0 -0.00000000000E+00 -0.00000000000E+00 -0.45593999997E+02  0.45594000000E+02  0.51100000000E-03 0.  1.
         23    2    1    2    0    0  0.00000000000E+00  0.00000000000E+00  0.35527136788E-14  0.91188000000E+02  0.91188000000E+02 0.  0.
    9900012    2    3    3    0    0 -0.10532685494E+02 -0.35945979276E+02 -0.21921935865E+02  0.47787283855E+02  0.20000058410E+02 0.  0.
         12    1    3    3    0    0  0.10532685494E+02  0.35945979276E+02  0.21921935865E+02  0.43400716145E+02  0.00000000000E+00 0. -1.
         11    1    4    4    0    0 -0.70919398050E+01 -0.10196769527E+02  0.36837367016E+00  0.12425997683E+02  0.51100000000E-03 0. -1.
        -11    1    4    4    0    0 -0.63066725250E+01 -0.19364253728E+02 -0.17783814630E+02  0.27037242903E+02  0.51100000000E-03 0.  1.
         12    1    4    4    0    0  0.28659268362E+01 -0.63849560208E+01 -0.45064949054E+01  0.83240432694E+01  0.00000000000E+00 0. -1.
</event>
<event>
 8    1  0.6019723E-011  0.9118800E+02  0.7816164E-02  0.1184000E+00
        -11   -1    0    0    0    0  0.00000000000E+00  0.00000000000E+00  0.45593999997E+02  0.45594000000E+02  0.51100000000E-03 0. -1.
         11   -1    0    0    0    0 -0.00000000000E+00 -0.00000000000E+00 -0.45593999997E+02  0.45594000000E+02  0.51100000000E-03 0.  1.
         23    2    1    2    0    0  0.00000000000E+00  0.00000000000E+00  0.00000000000E+00  0.91188000000E+02  0.91188000000E+02 0.  0.
    9900012    2    3    3    0    0 -0.39425556724E+02  0.12805130745E+02  0.12855960835E+02  0.47787290036E+02  0.20000086590E+02 0.  0.
        -12    1    3    3    0    0  0.39425556724E+02 -0.12805130745E+02 -0.12855960835E+02  0.43400709964E+02  0.00000000000E+00 0.  1.
         11    1    4    4    0    0 -0.65222908901E+01  0.57529093801E+01 -0.32803647524E+01  0.92950006972E+01  0.51100000000E-03 0. -1.
        -11    1    4    4    0    0 -0.23393123710E+01  0.34148908615E+01  0.24194961553E+01  0.47945619061E+01  0.51100000000E-03 0.  1.
         12    1    4    4    0    0 -0.30563953463E+02  0.36373305033E+01  0.13716829432E+02  0.33697727433E+02  0.00000000000E+00 0. -1.
</event>
<event>
 8    1  0.6019723E-011  0.9118800E+02  0.7816164E-02  0.1184000E+00
        -11   -1    0    0    0    0  0.00000000000E+00  0.00000000000E+00  0.45593999997E+02  0.45594000000E+02  0.51100000000E-03 0. -1.
         11   -1    0    0    0    0 -0.00000000000E+00 -0.00000000000E+00 -0.45593999997E+02  0.45594000000E+02  0.51100000000E-03 0.  1.
         23    2    1    2    0    0 -0.66613381478E-15 -0.35527136788E-14 -0.71054273576E-14  0.91188000000E+02  0.91188000000E+02 0.  0.
    9900012    2    3    3    0    0 -0.18256146186E+01 -0.18656899759E+02 -0.39143462930E+02  0.47787268814E+02  0.19999989829E+02 0.  0.
         12    1    3    3    0    0  0.18256146186E+01  0.18656899759E+02  0.39143462930E+02  0.43400731186E+02  0.00000000000E+00 0. -1.
         11    1    4    4    0    0  0.27486509347E+01 -0.21884631103E+01 -0.25233803069E+02  0.25477230429E+02  0.51100000000E-03 0. -1.
        -11    1    4    4    0    0 -0.43076179366E+01 -0.91618662391E+01 -0.84005514130E+01  0.13155403056E+02  0.51100000000E-03 0.  1.
         12    1    4    4    0    0 -0.26664761678E+00 -0.73065704092E+01 -0.55091084477E+01  0.91546353278E+01  0.00000000000E+00 0. -1.
</event>
<event>
 8    1  0.6019723E-011  0.9118800E+02  0.7816164E-02  0.1184000E+00
        -11   -1    0    0    0    0  0.00000000000E+00  0.00000000000E+00  0.45593999997E+02  0.45594000000E+02  0.51100000000E-03 0.  1.
         11   -1    0    0    0    0 -0.00000000000E+00 -0.00000000000E+00 -0.45593999997E+02  0.45594000000E+02  0.51100000000E-03 0. -1.
         23    2    1    2    0    0  0.00000000000E+00 -0.49960036108E-15  0.00000000000E+00  0.91188000000E+02  0.91188000000E+02 0.  0.
    9900012    2    3    3    0    0  0.41889731248E+02  0.13174974585E+00  0.11351486948E+02  0.47787271919E+02  0.20000003989E+02 0.  0.
        -12    1    3    3    0    0 -0.41889731248E+02 -0.13174974585E+00 -0.11351486948E+02  0.43400728081E+02  0.00000000000E+00 0.  1.
         11    1    4    4    0    0  0.61902841323E+01  0.58809459737E+01 -0.19667002294E+01  0.87620233529E+01  0.51100000000E-03 0. -1.
        -11    1    4    4    0    0  0.23541189349E+02 -0.12733377669E+01  0.10270890075E+02  0.25715757197E+02  0.51100000000E-03 0.  1.
         12    1    4    4    0    0  0.12158257767E+02 -0.44758584609E+01  0.30472971026E+01  0.13309491370E+02  0.00000000000E+00 0. -1.
</event>
<event>
 8    1  0.6019723E-011  0.9118800E+02  0.7816164E-02  0.1184000E+00
        -11   -1    0    0    0    0  0.00000000000E+00  0.00000000000E+00  0.45593999997E+02  0.45594000000E+02  0.51100000000E-03 0. -1.
         11   -1    0    0    0    0 -0.00000000000E+00 -0.00000000000E+00 -0.45593999997E+02  0.45594000000E+02  0.51100000000E-03 0.  1.
         23    2    1    2    0    0  0.00000000000E+00  0.00000000000E+00  0.71054273576E-14  0.91188000000E+02  0.91188000000E+02 0.  0.
    9900012    2    3    3    0    0 -0.18431950551E+02  0.13822172623E+02 -0.36780891293E+02  0.47787271648E+02  0.20000002754E+02 0.  0.
         12    1    3    3    0    0  0.18431950551E+02 -0.13822172623E+02  0.36780891293E+02  0.43400728352E+02  0.00000000000E+00 0. -1.
         11    1    4    4    0    0 -0.43102668600E+01  0.35934152658E+00 -0.29796811137E+01  0.52522401447E+01  0.51100000000E-03 0. -1.
        -11    1    4    4    0    0 -0.17100034359E+02  0.12334336544E+02 -0.22679330132E+02  0.30966095145E+02  0.51100000000E-03 0.  1.
        -12    1    4    4    0    0  0.29783506687E+01  0.11284945520E+01 -0.11121880048E+02  0.11568936358E+02  0.00000000000E+00 0.  1.
</event>
<event>
 8    1  0.6019723E-011  0.9118800E+02  0.7816164E-02  0.1184000E+00
        -11   -1    0    0    0    0  0.00000000000E+00  0.00000000000E+00  0.45593999997E+02  0.45594000000E+02  0.51100000000E-03 0. -1.
         11   -1    0    0    0    0 -0.00000000000E+00 -0.00000000000E+00 -0.45593999997E+02  0.45594000000E+02  0.51100000000E-03 0.  1.
         23    2    1    2    0    0  0.00000000000E+00  0.00000000000E+00 -0.35527136788E-14  0.91188000000E+02  0.91188000000E+02 0.  0.
    9900012    2    3    3    0    0 -0.19759396434E+02  0.24975835464E+02  0.29485538070E+02  0.47787273510E+02  0.20000011241E+02 0.  0.
        -12    1    3    3    0    0  0.19759396434E+02 -0.24975835464E+02 -0.29485538070E+02  0.43400726490E+02  0.00000000000E+00 0.  1.
         11    1    4    4    0    0 -0.60811855396E+01  0.21296404822E+02  0.19754876744E+02  0.29677817160E+02  0.51100000000E-03 0. -1.
        -11    1    4    4    0    0 -0.12246073489E+01  0.16795930706E+01  0.34287336261E+01  0.40096022972E+01  0.51100000000E-03 0.  1.
         12    1    4    4    0    0 -0.12453603546E+02  0.19998375715E+01  0.63019276997E+01  0.14099854053E+02  0.00000000000E+00 0. -1.
</event>
<event>
 8    1  0.6019723E-011  0.9118800E+02  0.7816164E-02  0.1184000E+00
        -11   -1    0    0    0    0  0.00000000000E+00  0.00000000000E+00  0.45593999997E+02  0.45594000000E+02  0.51100000000E-03 0. -1.
         11   -1    0    0    0    0 -0.00000000000E+00 -0.00000000000E+00 -0.45593999997E+02  0.45594000000E+02  0.51100000000E-03 0.  1.
         23    2    1    2    0    0  0.00000000000E+00 -0.17763568394E-14  0.00000000000E+00  0.91188000000E+02  0.91188000000E+02 0.  0.
    9900012    2    3    3    0    0 -0.33213449557E+02  0.14719663180E+02 -0.23744924926E+02  0.47787272179E+02  0.20000005174E+02 0.  0.
         12    1    3    3    0    0  0.33213449557E+02 -0.14719663180E+02  0.23744924926E+02  0.43400727821E+02  0.00000000000E+00 0. -1.
         11    1    4    4    0    0 -0.23991710180E+01 -0.51741477554E+00  0.22263313315E+01  0.33136522271E+01  0.51100000000E-03 0. -1.
        -11    1    4    4    0    0 -0.20002163833E+02  0.76263756357E+01 -0.21934152364E+02  0.30648902159E+02  0.51100000000E-03 0.  1.
        -12    1    4    4    0    0 -0.10812114707E+02  0.76107023197E+01 -0.40371038930E+01  0.13824717793E+02  0.00000000000E+00 0.  1.
</event>
<event>
 8    1  0.6019723E-011  0.9118800E+02  0.7816164E-02  0.1184000E+00
        -11   -1    0    0    0    0  0.00000000000E+00  0.00000000000E+00  0.45593999997E+02  0.45594000000E+02  0.51100000000E-03 0. -1.
         11   -1    0    0    0    0 -0.00000000000E+00 -0.00000000000E+00 -0.45593999997E+02  0.45594000000E+02  0.51100000000E-03 0.  1.
         23    2    1    2    0    0  0.35527136788E-14  0.00000000000E+00  0.00000000000E+00  0.91188000000E+02  0.91188000000E+02 0.  0.
    9900012    2    3    3    0    0 -0.30775704114E+02 -0.66490566499E+01  0.29870903533E+02  0.47787253510E+02  0.19999920052E+02 0.  0.
        -12    1    3    3    0    0  0.30775704114E+02  0.66490566499E+01 -0.29870903533E+02  0.43400746490E+02  0.00000000000E+00 0.  1.
         11    1    4    4    0    0 -0.13019553364E+02 -0.75299820720E+01  0.51887033916E+01  0.15910123914E+02  0.51100000000E-03 0. -1.
        -11    1    4    4    0    0 -0.55980294543E+01  0.10376696164E+00  0.15904933419E+02  0.16861660911E+02  0.51100000000E-03 0.  1.
         12    1    4    4    0    0 -0.12158121295E+02  0.77715846051E+00  0.87772667223E+01  0.15015468685E+02  0.00000000000E+00 0. -1.
</event>
<event>
 8    1  0.6019723E-011  0.9118800E+02  0.7816164E-02  0.1184000E+00
        -11   -1    0    0    0    0  0.00000000000E+00  0.00000000000E+00  0.45593999997E+02  0.45594000000E+02  0.51100000000E-03 0.  1.
         11   -1    0    0    0    0 -0.00000000000E+00 -0.00000000000E+00 -0.45593999997E+02  0.45594000000E+02  0.51100000000E-03 0. -1.
         23    2    1    2    0    0  0.00000000000E+00 -0.35527136788E-14  0.00000000000E+00  0.91188000000E+02  0.91188000000E+02 0.  0.
    9900012    2    3    3    0    0 -0.25066665981E+02  0.17978209483E+02 -0.30529813002E+02  0.47787271417E+02  0.20000001700E+02 0.  0.
         12    1    3    3    0    0  0.25066665981E+02 -0.17978209483E+02  0.30529813002E+02  0.43400728583E+02  0.00000000000E+00 0. -1.
         11    1    4    4    0    0 -0.17133589374E+02  0.43693502285E+01 -0.20482738635E+02  0.27059077747E+02  0.51100000000E-03 0. -1.
        -11    1    4    4    0    0  0.16964335323E+01  0.42387787804E+01 -0.15075519250E+01  0.48081020524E+01  0.51100000000E-03 0.  1.
         12    1    4    4    0    0 -0.96295101388E+01  0.93700804736E+01 -0.85395224415E+01  0.15920091618E+02  0.00000000000E+00 0. -1.
</event>
<event>
 8    1  0.6019723E-011  0.9118800E+02  0.7816164E-02  0.1184000E+00
        -11   -1    0    0    0    0  0.00000000000E+00  0.00000000000E+00  0.45593999997E+02  0.45594000000E+02  0.51100000000E-03 0. -1.
         11   -1    0    0    0    0 -0.00000000000E+00 -0.00000000000E+00 -0.45593999997E+02  0.45594000000E+02  0.51100000000E-03 0.  1.
         23    2    1    2    0    0  0.00000000000E+00 -0.44408920985E-15  0.00000000000E+00  0.91188000000E+02  0.91188000000E+02 0.  0.
    9900012    2    3    3    0    0  0.15800849482E+02  0.32724375862E+01 -0.40289540466E+02  0.47787276929E+02  0.20000026830E+02 0.  0.
         12    1    3    3    0    0 -0.15800849482E+02 -0.32724375862E+01  0.40289540466E+02  0.43400723071E+02  0.00000000000E+00 0. -1.
         11    1    4    4    0    0 -0.29836568214E+01  0.28207159434E+01 -0.36929303035E+01  0.55223528454E+01  0.51100000000E-03 0. -1.
        -11    1    4    4    0    0  0.14533309062E+02 -0.38632409689E+01 -0.27332253951E+02  0.31196054388E+02  0.51100000000E-03 0.  1.
        -12    1    4    4    0    0  0.42511972411E+01  0.43149626116E+01 -0.92643562119E+01  0.11068869696E+02  0.00000000000E+00 0.  1.
</event>
<event>
 8    1  0.6019723E-011  0.9118800E+02  0.7816164E-02  0.1184000E+00
        -11   -1    0    0    0    0  0.00000000000E+00  0.00000000000E+00  0.45593999997E+02  0.45594000000E+02  0.51100000000E-03 0. -1.
         11   -1    0    0    0    0 -0.00000000000E+00 -0.00000000000E+00 -0.45593999997E+02  0.45594000000E+02  0.51100000000E-03 0.  1.
         23    2    1    2    0    0 -0.35527136788E-14  0.71054273576E-14 -0.17763568394E-14  0.91188000000E+02  0.91188000000E+02 0.  0.
    9900012    2    3    3    0    0  0.24399831874E+02 -0.34490236702E+02  0.99345544194E+01  0.47787267348E+02  0.19999983145E+02 0.  0.
        -12    1    3    3    0    0 -0.24399831874E+02  0.34490236702E+02 -0.99345544194E+01  0.43400732652E+02  0.00000000000E+00 0.  1.
         11    1    4    4    0    0  0.16180813264E+02 -0.14298034713E+02  0.85977492922E+01  0.23241639523E+02  0.51100000000E-03 0. -1.
        -11    1    4    4    0    0  0.73510723349E+01 -0.21561970748E+02  0.66487395244E+00  0.22790324804E+02  0.51100000000E-03 0.  1.
         12    1    4    4    0    0  0.86794627522E+00  0.13697687598E+01  0.67193117480E+00  0.17553030210E+01  0.00000000000E+00 0. -1.
</event>
<event>
 8    1  0.7818733E-011  0.9118800E+02  0.7816164E-02  0.1184000E+00
        -11   -1    0    0    0    0  0.00000000000E+00  0.00000000000E+00  0.45593999997E+02  0.45594000000E+02  0.51100000000E-03 0. -1.
         11   -1    0    0    0    0 -0.00000000000E+00 -0.00000000000E+00 -0.45593999997E+02  0.45594000000E+02  0.51100000000E-03 0.  1.
         23    2    1    2    0    0  0.00000000000E+00  0.00000000000E+00  0.00000000000E+00  0.91188000000E+02  0.91188000000E+02 0.  0.
    9900012    2    3    3    0    0  0.15842587813E+02 -0.13363461583E+02 -0.38132058406E+02  0.47787267606E+02  0.19999984322E+02 0.  0.
         12    1    3    3    0    0 -0.15842587813E+02  0.13363461583E+02  0.38132058406E+02  0.43400732394E+02  0.00000000000E+00 0. -1.
         11    1    4    4    0    0  0.22717016413E+01 -0.12515719025E+02 -0.10180064323E+02  0.16292254631E+02  0.51100000000E-03 0. -1.
        -11    1    4    4    0    0  0.89302919511E+01 -0.21859029638E+01 -0.21903719471E+02  0.23755025006E+02  0.51100000000E-03 0.  1.
         12    1    4    4    0    0  0.46405942203E+01  0.13381604061E+01 -0.60482746115E+01  0.77399879694E+01  0.00000000000E+00 0. -1.
</event>
<event>
 8    1  0.6019723E-011  0.9118800E+02  0.7816164E-02  0.1184000E+00
        -11   -1    0    0    0    0  0.00000000000E+00  0.00000000000E+00  0.45593999997E+02  0.45594000000E+02  0.51100000000E-03 0. -1.
         11   -1    0    0    0    0 -0.00000000000E+00 -0.00000000000E+00 -0.45593999997E+02  0.45594000000E+02  0.51100000000E-03 0.  1.
         23    2    1    2    0    0  0.00000000000E+00 -0.35527136788E-14  0.00000000000E+00  0.91188000000E+02  0.91188000000E+02 0.  0.
    9900012    2    3    3    0    0 -0.91323047225E+01 -0.24762832914E+02  0.34453248448E+02  0.47787271757E+02  0.20000003247E+02 0.  0.
        -12    1    3    3    0    0  0.91323047225E+01  0.24762832914E+02 -0.34453248448E+02  0.43400728243E+02  0.00000000000E+00 0.  1.
         11    1    4    4    0    0 -0.12573236376E+02 -0.16465369163E+02  0.28834614952E+02  0.35505347123E+02  0.51100000000E-03 0. -1.
        -11    1    4    4    0    0  0.92395889381E+00 -0.25955608696E-01 -0.10235194870E+01  0.13791178820E+01  0.51100000000E-03 0.  1.
         12    1    4    4    0    0  0.25169727592E+01 -0.82715081422E+01  0.66421529827E+01  0.10902806752E+02  0.00000000000E+00 0. -1.
</event>
<event>
 8    1  0.6019723E-011  0.9118800E+02  0.7816164E-02  0.1184000E+00
        -11   -1    0    0    0    0  0.00000000000E+00  0.00000000000E+00  0.45593999997E+02  0.45594000000E+02  0.51100000000E-03 0.  1.
         11   -1    0    0    0    0 -0.00000000000E+00 -0.00000000000E+00 -0.45593999997E+02  0.45594000000E+02  0.51100000000E-03 0. -1.
         23    2    1    2    0    0 -0.44408920985E-15  0.00000000000E+00 -0.11102230246E-14  0.91188000000E+02  0.91188000000E+02 0.  0.
    9900012    2    3    3    0    0 -0.21468521352E+01  0.43317734804E+02  0.16083373602E+01  0.47787287198E+02  0.20000073650E+02 0.  0.
         12    1    3    3    0    0  0.21468521352E+01 -0.43317734804E+02 -0.16083373602E+01  0.43400712802E+02  0.00000000000E+00 0. -1.
         11    1    4    4    0    0  0.27576719877E+01  0.69987054831E+00  0.12926485241E+01  0.31249822470E+01  0.51100000000E-03 0. -1.
        -11    1    4    4    0    0 -0.46985262816E+01  0.30090230071E+02 -0.53334333981E+01  0.30918337714E+02  0.51100000000E-03 0.  1.
        -12    1    4    4    0    0 -0.20599784129E+00  0.12527634185E+02  0.56491222342E+01  0.13743967237E+02  0.00000000000E+00 0.  1.
</event>
<event>
 8    1  0.6019723E-011  0.9118800E+02  0.7816164E-02  0.1184000E+00
        -11   -1    0    0    0    0  0.00000000000E+00  0.00000000000E+00  0.45593999997E+02  0.45594000000E+02  0.51100000000E-03 0. -1.
         11   -1    0    0    0    0 -0.00000000000E+00 -0.00000000000E+00 -0.45593999997E+02  0.45594000000E+02  0.51100000000E-03 0.  1.
         23    2    1    2    0    0  0.00000000000E+00 -0.55511151231E-15  0.71054273576E-14  0.91188000000E+02  0.91188000000E+02 0.  0.
    9900012    2    3    3    0    0 -0.82886907389E+01 -0.46656806607E+00 -0.42599337631E+02  0.47787266751E+02  0.19999980426E+02 0.  0.
         12    1    3    3    0    0  0.82886907389E+01  0.46656806607E+00  0.42599337631E+02  0.43400733249E+02  0.00000000000E+00 0. -1.
         11    1    4    4    0    0 -0.87821408035E+01  0.23985957194E+01 -0.59771559511E+01  0.10890622206E+02  0.51100000000E-03 0. -1.
        -11    1    4    4    0    0 -0.34249836503E+00 -0.34456653984E+01 -0.29364538431E+02  0.29567990001E+02  0.51100000000E-03 0.  1.
         12    1    4    4    0    0  0.83594842957E+00  0.58050161287E+00 -0.72576432486E+01  0.73286545439E+01  0.00000000000E+00 0. -1.
</event>
<event>
 8    1  0.6019723E-011  0.9118800E+02  0.7816164E-02  0.1184000E+00
        -11   -1    0    0    0    0  0.00000000000E+00  0.00000000000E+00  0.45593999997E+02  0.45594000000E+02  0.51100000000E-03 0. -1.
         11   -1    0    0    0    0 -0.00000000000E+00 -0.00000000000E+00 -0.45593999997E+02  0.45594000000E+02  0.51100000000E-03 0.  1.
         23    2    1    2    0    0 -0.88817841970E-15  0.00000000000E+00  0.00000000000E+00  0.91188000000E+02  0.91188000000E+02 0.  0.
    9900012    2    3    3    0    0  0.72656595213E+01 -0.20584613003E+01  0.42738699213E+02  0.47787268651E+02  0.19999989089E+02 0.  0.
        -12    1    3    3    0    0 -0.72656595213E+01  0.20584613003E+01 -0.42738699213E+02  0.43400731349E+02  0.00000000000E+00 0.  1.
         11    1    4    4    0    0 -0.61324020971E+01  0.10973532623E+01  0.15074249120E+02  0.16310840765E+02  0.51100000000E-03 0. -1.
        -11    1    4    4    0    0  0.66286601654E+00  0.55633335196E-01 -0.18064495226E+00  0.68928896971E+00  0.51100000000E-03 0.  1.
         12    1    4    4    0    0  0.12735195602E+02 -0.32114478977E+01  0.27845095045E+02  0.30787138916E+02  0.00000000000E+00 0. -1.
</event>
<event>
 8    1  0.6019723E-011  0.9118800E+02  0.7816164E-02  0.1184000E+00
        -11   -1    0    0    0    0  0.00000000000E+00  0.00000000000E+00  0.45593999997E+02  0.45594000000E+02  0.51100000000E-03 0.  1.
         11   -1    0    0    0    0 -0.00000000000E+00 -0.00000000000E+00 -0.45593999997E+02  0.45594000000E+02  0.51100000000E-03 0. -1.
         23    2    1    2    0    0  0.00000000000E+00 -0.35527136788E-14  0.44408920985E-15  0.91188000000E+02  0.91188000000E+02 0.  0.
    9900012    2    3    3    0    0  0.35278797788E+02 -0.25273603905E+02  0.52445295261E+00  0.47787266382E+02  0.19999978741E+02 0.  0.
         12    1    3    3    0    0 -0.35278797788E+02  0.25273603905E+02 -0.52445295261E+00  0.43400733618E+02  0.00000000000E+00 0. -1.
         11    1    4    4    0    0  0.19132587890E+02 -0.61503690554E+01  0.67977659646E+01  0.21215385485E+02  0.51100000000E-03 0. -1.
        -11    1    4    4    0    0  0.78540840243E+01 -0.59004572140E+01 -0.20416922119E+00  0.98256662129E+01  0.51100000000E-03 0.  1.
         12    1    4    4    0    0  0.82921258737E+01 -0.13222777635E+02 -0.60691437908E+01  0.16746214684E+02  0.00000000000E+00 0. -1.
</event>
<event>
 8    1  0.6019723E-011  0.9118800E+02  0.7816164E-02  0.1184000E+00
        -11   -1    0    0    0    0  0.00000000000E+00  0.00000000000E+00  0.45593999997E+02  0.45594000000E+02  0.51100000000E-03 0.  1.
         11   -1    0    0    0    0 -0.00000000000E+00 -0.00000000000E+00 -0.45593999997E+02  0.45594000000E+02  0.51100000000E-03 0. -1.
         23    2    1    2    0    0  0.00000000000E+00  0.17763568394E-14  0.00000000000E+00  0.91188000000E+02  0.91188000000E+02 0.  0.
    9900012    2    3    3    0    0 -0.33913840575E+02 -0.12863850032E+02 -0.23832668066E+02  0.47787270890E+02  0.19999999294E+02 0.  0.
         12    1    3    3    0    0  0.33913840575E+02  0.12863850032E+02  0.23832668066E+02  0.43400729110E+02  0.00000000000E+00 0. -1.
         11    1    4    4    0    0 -0.69151153265E+01  0.17670222860E+01 -0.12304416691E+02  0.14224621545E+02  0.51100000000E-03 0. -1.
        -11    1    4    4    0    0 -0.96319635869E+01 -0.91806161945E+01 -0.44043488675E+01  0.14016302132E+02  0.51100000000E-03 0.  1.
         12    1    4    4    0    0 -0.17366761661E+02 -0.54502561234E+01 -0.71239025080E+01  0.19546347212E+02  0.00000000000E+00 0. -1.
</event>
<event>
 8    1  0.6019723E-011  0.9118800E+02  0.7816164E-02  0.1184000E+00
        -11   -1    0    0    0    0  0.00000000000E+00  0.00000000000E+00  0.45593999997E+02  0.45594000000E+02  0.51100000000E-03 0. -1.
         11   -1    0    0    0    0 -0.00000000000E+00 -0.00000000000E+00 -0.45593999997E+02  0.45594000000E+02  0.51100000000E-03 0.  1.
         23    2    1    2    0    0  0.35527136788E-14 -0.71054273576E-14  0.17763568394E-14  0.91188000000E+02  0.91188000000E+02 0.  0.
    9900012    2    3    3    0    0  0.26384976699E+02 -0.31796032151E+02  0.13284148842E+02  0.47787271130E+02  0.20000000391E+02 0.  0.
        -12    1    3    3    0    0 -0.26384976699E+02  0.31796032151E+02 -0.13284148842E+02  0.43400728870E+02  0.00000000000E+00 0.  1.
         11    1    4    4    0    0  0.21811957767E+02 -0.17965681140E+02  0.90572851974E+00  0.28272735009E+02  0.51100000000E-03 0. -1.
        -11    1    4    4    0    0  0.44423493854E+01 -0.89635934559E+01  0.98046999042E+01  0.14007591377E+02  0.51100000000E-03 0.  1.
        -12    1    4    4    0    0  0.13066954676E+00 -0.48667575552E+01  0.25737204185E+01  0.55069447450E+01  0.00000000000E+00 0.  1.
</event>
<event>
 8    1  0.6019723E-011  0.9118800E+02  0.7816164E-02  0.1184000E+00
        -11   -1    0    0    0    0  0.00000000000E+00  0.00000000000E+00  0.45593999997E+02  0.45594000000E+02  0.51100000000E-03 0. -1.
         11   -1    0    0    0    0 -0.00000000000E+00 -0.00000000000E+00 -0.45593999997E+02  0.45594000000E+02  0.51100000000E-03 0.  1.
         23    2    1    2    0    0 -0.83266726847E-16  0.17763568394E-14  0.71054273576E-14  0.91188000000E+02  0.91188000000E+02 0.  0.
    9900012    2    3    3    0    0 -0.16175608708E+00 -0.42475281809E+01 -0.43192076163E+02  0.47787273002E+02  0.20000008924E+02 0.  0.
         12    1    3    3    0    0  0.16175608708E+00  0.42475281809E+01  0.43192076163E+02  0.43400726998E+02  0.00000000000E+00 0. -1.
         11    1    4    4    0    0 -0.41352817074E+01 -0.49914725922E+01 -0.48016650397E+01  0.80666809068E+01  0.51100000000E-03 0. -1.
        -11    1    4    4    0    0  0.12817378235E+01  0.33108292215E+01 -0.32887384719E+02  0.33078459999E+02  0.51100000000E-03 0.  1.
        -12    1    4    4    0    0  0.26917877968E+01 -0.25668848102E+01 -0.55030264047E+01  0.66421320961E+01  0.00000000000E+00 0.  1.
</event>
<event>
 8    1  0.6019723E-011  0.9118800E+02  0.7816164E-02  0.1184000E+00
        -11   -1    0    0    0    0  0.00000000000E+00  0.00000000000E+00  0.45593999997E+02  0.45594000000E+02  0.51100000000E-03 0. -1.
         11   -1    0    0    0    0 -0.00000000000E+00 -0.00000000000E+00 -0.45593999997E+02  0.45594000000E+02  0.51100000000E-03 0.  1.
         23    2    1    2    0    0  0.00000000000E+00  0.00000000000E+00  0.00000000000E+00  0.91188000000E+02  0.91188000000E+02 0.  0.
    9900012    2    3    3    0    0 -0.28013641640E+02 -0.47808606518E+01  0.32802458315E+02  0.47787285512E+02  0.20000065964E+02 0.  0.
        -12    1    3    3    0    0  0.28013641640E+02  0.47808606518E+01 -0.32802458315E+02  0.43400714488E+02  0.00000000000E+00 0.  1.
         11    1    4    4    0    0 -0.16944620303E+02 -0.10199640469E+02  0.23288517727E+02  0.30553361207E+02  0.51100000000E-03 0. -1.
        -11    1    4    4    0    0 -0.11600229234E+02  0.59430451338E+01  0.99242918487E+01  0.16382205978E+02  0.51100000000E-03 0.  1.
        -12    1    4    4    0    0  0.53120789670E+00 -0.52426531696E+00 -0.41035125981E+00  0.85171832698E+00  0.00000000000E+00 0.  1.
</event>
<event>
 8    1  0.6019723E-011  0.9118800E+02  0.7816164E-02  0.1184000E+00
        -11   -1    0    0    0    0  0.00000000000E+00  0.00000000000E+00  0.45593999997E+02  0.45594000000E+02  0.51100000000E-03 0.  1.
         11   -1    0    0    0    0 -0.00000000000E+00 -0.00000000000E+00 -0.45593999997E+02  0.45594000000E+02  0.51100000000E-03 0. -1.
         23    2    1    2    0    0  0.00000000000E+00  0.00000000000E+00  0.00000000000E+00  0.91188000000E+02  0.91188000000E+02 0.  0.
    9900012    2    3    3    0    0 -0.13098115443E+02 -0.33977647773E+02 -0.23613142430E+02  0.47787289502E+02  0.20000084156E+02 0.  0.
        -12    1    3    3    0    0  0.13098115443E+02  0.33977647773E+02  0.23613142430E+02  0.43400710498E+02  0.00000000000E+00 0.  1.
         11    1    4    4    0    0 -0.21061898274E+01 -0.57969443785E+01 -0.98493981456E+01  0.11621155012E+02  0.51100000000E-03 0. -1.
        -11    1    4    4    0    0 -0.11320847306E+02 -0.11445460312E+02 -0.10183690051E+02  0.19049086299E+02  0.51100000000E-03 0.  1.
        -12    1    4    4    0    0  0.32892169110E+00 -0.16735243082E+02 -0.35800542327E+01  0.17117048192E+02  0.00000000000E+00 0.  1.
</event>
<event>
 8    1  0.6019723E-011  0.9118800E+02  0.7816164E-02  0.1184000E+00
        -11   -1    0    0    0    0  0.00000000000E+00  0.00000000000E+00  0.45593999997E+02  0.45594000000E+02  0.51100000000E-03 0. -1.
         11   -1    0    0    0    0 -0.00000000000E+00 -0.00000000000E+00 -0.45593999997E+02  0.45594000000E+02  0.51100000000E-03 0.  1.
         23    2    1    2    0    0  0.35527136788E-14 -0.44408920985E-15  0.35527136788E-14  0.91188000000E+02  0.91188000000E+02 0.  0.
    9900012    2    3    3    0    0 -0.31584683723E+02  0.22945413081E+01 -0.29677703506E+02  0.47787271307E+02  0.20000001197E+02 0.  0.
         12    1    3    3    0    0  0.31584683723E+02 -0.22945413081E+01  0.29677703506E+02  0.43400728693E+02  0.00000000000E+00 0. -1.
         11    1    4    4    0    0  0.14035459245E+01 -0.27289094022E+01 -0.61372875597E+01  0.68617189201E+01  0.51100000000E-03 0. -1.
        -11    1    4    4    0    0 -0.21906084787E+02  0.42768636535E+01 -0.16766615155E+02  0.27915721331E+02  0.51100000000E-03 0.  1.
         12    1    4    4    0    0 -0.11082144861E+02  0.74658705680E+00 -0.67738007918E+01  0.13009831056E+02  0.00000000000E+00 0. -1.
</event>
<event>
 8    1  0.6019723E-011  0.9118800E+02  0.7816164E-02  0.1184000E+00
        -11   -1    0    0    0    0  0.00000000000E+00  0.00000000000E+00  0.45593999997E+02  0.45594000000E+02  0.51100000000E-03 0. -1.
         11   -1    0    0    0    0 -0.00000000000E+00 -0.00000000000E+00 -0.45593999997E+02  0.45594000000E+02  0.51100000000E-03 0.  1.
         23    2    1    2    0    0  0.00000000000E+00  0.35527136788E-14  0.00000000000E+00  0.91188000000E+02  0.91188000000E+02 0.  0.
    9900012    2    3    3    0    0  0.19892484221E+02  0.20607019382E+02 -0.32607715155E+02  0.47787271159E+02  0.20000000524E+02 0.  0.
         12    1    3    3    0    0 -0.19892484221E+02 -0.20607019382E+02  0.32607715155E+02  0.43400728841E+02  0.00000000000E+00 0. -1.
         11    1    4    4    0    0 -0.19174651113E+00  0.31201537441E+01  0.16261479995E+01  0.35237031215E+01  0.51100000000E-03 0. -1.
        -11    1    4    4    0    0  0.15664040135E+02  0.17427261726E+02 -0.26660253309E+02  0.35494234903E+02  0.51100000000E-03 0.  1.
        -12    1    4    4    0    0  0.44201905976E+01  0.59603911913E-01 -0.75736098448E+01  0.87693331347E+01  0.00000000000E+00 0.  1.
</event>
<event>
 8    1  0.6019723E-011  0.9118800E+02  0.7816164E-02  0.1184000E+00
        -11   -1    0    0    0    0  0.00000000000E+00  0.00000000000E+00  0.45593999997E+02  0.45594000000E+02  0.51100000000E-03 0. -1.
         11   -1    0    0    0    0 -0.00000000000E+00 -0.00000000000E+00 -0.45593999997E+02  0.45594000000E+02  0.51100000000E-03 0.  1.
         23    2    1    2    0    0 -0.55511151231E-15  0.00000000000E+00  0.00000000000E+00  0.91188000000E+02  0.91188000000E+02 0.  0.
    9900012    2    3    3    0    0  0.55864371679E+00  0.72304848079E+01  0.42790557156E+02  0.47787265270E+02  0.19999973672E+02 0.  0.
        -12    1    3    3    0    0 -0.55864371679E+00 -0.72304848079E+01 -0.42790557156E+02  0.43400734730E+02  0.00000000000E+00 0.  1.
         11    1    4    4    0    0 -0.63231584537E+01  0.33496648303E+01  0.35375410298E+02  0.36091858380E+02  0.51100000000E-03 0. -1.
        -11    1    4    4    0    0  0.50357050974E+01  0.45619503779E+00  0.33316332963E+01  0.60552638607E+01  0.51100000000E-03 0.  1.
        -12    1    4    4    0    0  0.18460970731E+01  0.34246249398E+01  0.40835135620E+01  0.56401430295E+01  0.00000000000E+00 0.  1.
</event>
<event>
 8    1  0.6019723E-011  0.9118800E+02  0.7816164E-02  0.1184000E+00
        -11   -1    0    0    0    0  0.00000000000E+00  0.00000000000E+00  0.45593999997E+02  0.45594000000E+02  0.51100000000E-03 0. -1.
         11   -1    0    0    0    0 -0.00000000000E+00 -0.00000000000E+00 -0.45593999997E+02  0.45594000000E+02  0.51100000000E-03 0.  1.
         23    2    1    2    0    0  0.00000000000E+00  0.00000000000E+00  0.00000000000E+00  0.91188000000E+02  0.91188000000E+02 0.  0.
    9900012    2    3    3    0    0  0.15104881505E+02 -0.40879925851E+01  0.40481526529E+02  0.47787272831E+02  0.20000008148E+02 0.  0.
        -12    1    3    3    0    0 -0.15104881505E+02  0.40879925851E+01 -0.40481526529E+02  0.43400727169E+02  0.00000000000E+00 0.  1.
         11    1    4    4    0    0  0.84126765859E+00 -0.21996356132E+01  0.75112626018E+01  0.78717973957E+01  0.51100000000E-03 0. -1.
        -11    1    4    4    0    0  0.53334536913E+01 -0.50852628870E+01  0.28485950745E+02  0.29423715215E+02  0.51100000000E-03 0.  1.
        -12    1    4    4    0    0  0.89301601553E+01  0.31969059150E+01  0.44843131816E+01  0.10491760221E+02  0.00000000000E+00 0.  1.
</event>
<event>
 8    1  0.6019723E-011  0.9118800E+02  0.7816164E-02  0.1184000E+00
        -11   -1    0    0    0    0  0.00000000000E+00  0.00000000000E+00  0.45593999997E+02  0.45594000000E+02  0.51100000000E-03 0. -1.
         11   -1    0    0    0    0 -0.00000000000E+00 -0.00000000000E+00 -0.45593999997E+02  0.45594000000E+02  0.51100000000E-03 0.  1.
         23    2    1    2    0    0  0.00000000000E+00 -0.17763568394E-14  0.00000000000E+00  0.91188000000E+02  0.91188000000E+02 0.  0.
    9900012    2    3    3    0    0  0.11365556607E+02  0.14975984412E+02 -0.39117349134E+02  0.47787274322E+02  0.20000014943E+02 0.  0.
         12    1    3    3    0    0 -0.11365556607E+02 -0.14975984412E+02  0.39117349134E+02  0.43400725678E+02  0.00000000000E+00 0. -1.
         11    1    4    4    0    0 -0.11836519922E+00  0.26920764308E+01 -0.37957276549E+01  0.46549795404E+01  0.51100000000E-03 0. -1.
        -11    1    4    4    0    0 -0.24786540745E+00  0.11801883914E+02 -0.11048226926E+02  0.16168154491E+02  0.51100000000E-03 0.  1.
        -12    1    4    4    0    0  0.11731787214E+02  0.48202406713E+00 -0.24273394554E+02  0.26964140290E+02  0.00000000000E+00 0.  1.
</event>
<event>
 8    1  0.6019723E-011  0.9118800E+02  0.7816164E-02  0.1184000E+00
        -11   -1    0    0    0    0  0.00000000000E+00  0.00000000000E+00  0.45593999997E+02  0.45594000000E+02  0.51100000000E-03 0. -1.
         11   -1    0    0    0    0 -0.00000000000E+00 -0.00000000000E+00 -0.45593999997E+02  0.45594000000E+02  0.51100000000E-03 0.  1.
         23    2    1    2    0    0  0.35527136788E-14 -0.35527136788E-14  0.00000000000E+00  0.91188000000E+02  0.91188000000E+02 0.  0.
    9900012    2    3    3    0    0  0.27837550382E+02 -0.30092070726E+02  0.14253468059E+02  0.47787270933E+02  0.19999999490E+02 0.  0.
        -12    1    3    3    0    0 -0.27837550382E+02  0.30092070726E+02 -0.14253468059E+02  0.43400729067E+02  0.00000000000E+00 0.  1.
         11    1    4    4    0    0  0.96907281747E+00  0.15309111658E+01  0.11870438974E+01  0.21660712358E+01  0.51100000000E-03 0. -1.
        -11    1    4    4    0    0  0.10135378545E+02 -0.20150194044E+02  0.23535800083E+01  0.22678085399E+02  0.51100000000E-03 0.  1.
        -12    1    4    4    0    0  0.16733099020E+02 -0.11472787848E+02  0.10712844153E+02  0.22943114298E+02  0.00000000000E+00 0.  1.
</event>
<event>
 8    1  0.6019723E-011  0.9118800E+02  0.7816164E-02  0.1184000E+00
        -11   -1    0    0    0    0  0.00000000000E+00  0.00000000000E+00  0.45593999997E+02  0.45594000000E+02  0.51100000000E-03 0.  1.
         11   -1    0    0    0    0 -0.00000000000E+00 -0.00000000000E+00 -0.45593999997E+02  0.45594000000E+02  0.51100000000E-03 0. -1.
         23    2    1    2    0    0  0.00000000000E+00  0.00000000000E+00  0.00000000000E+00  0.91188000000E+02  0.91188000000E+02 0.  0.
    9900012    2    3    3    0    0 -0.30705904076E+01 -0.40390806995E+02  0.15581295773E+02  0.47787278887E+02  0.20000035758E+02 0.  0.
        -12    1    3    3    0    0  0.30705904076E+01  0.40390806995E+02 -0.15581295773E+02  0.43400721113E+02  0.00000000000E+00 0.  1.
         11    1    4    4    0    0 -0.18061377836E+01 -0.28016789314E+02  0.44809550671E+01  0.28430293276E+02  0.51100000000E-03 0. -1.
        -11    1    4    4    0    0 -0.29712618155E+01 -0.25390888379E+01 -0.62518452408E+00  0.39580582175E+01  0.51100000000E-03 0.  1.
         12    1    4    4    0    0  0.17068091916E+01 -0.98349288430E+01  0.11725525230E+02  0.15398927394E+02  0.00000000000E+00 0. -1.
</event>
<event>
 8    1  0.7769378E-011  0.9118800E+02  0.7816164E-02  0.1184000E+00
        -11   -1    0    0    0    0  0.00000000000E+00  0.00000000000E+00  0.45593999997E+02  0.45594000000E+02  0.51100000000E-03 0. -1.
         11   -1    0    0    0    0 -0.00000000000E+00 -0.00000000000E+00 -0.45593999997E+02  0.45594000000E+02  0.51100000000E-03 0.  1.
         23    2    1    2    0    0 -0.35527136788E-14  0.00000000000E+00  0.00000000000E+00  0.91188000000E+02  0.91188000000E+02 0.  0.
    9900012    2    3    3    0    0  0.24553608240E+02  0.24403627071E+02 -0.26176459854E+02  0.47787265648E+02  0.19999975396E+02 0.  0.
         12    1    3    3    0    0 -0.24553608240E+02 -0.24403627071E+02  0.26176459854E+02  0.43400734352E+02  0.00000000000E+00 0. -1.
         11    1    4    4    0    0  0.58036761397E+01  0.98701643602E+01 -0.14651727048E+00  0.11450950563E+02  0.51100000000E-03 0. -1.
        -11    1    4    4    0    0  0.11095498005E+02  0.11785193891E+02 -0.12111962328E+02  0.20216342466E+02  0.51100000000E-03 0.  1.
         12    1    4    4    0    0  0.76544340957E+01  0.27482688198E+01 -0.13917980256E+02  0.16119972619E+02  0.00000000000E+00 0. -1.
</event>
<event>
 8    1  0.6019723E-011  0.9118800E+02  0.7816164E-02  0.1184000E+00
        -11   -1    0    0    0    0  0.00000000000E+00  0.00000000000E+00  0.45593999997E+02  0.45594000000E+02  0.51100000000E-03 0. -1.
         11   -1    0    0    0    0 -0.00000000000E+00 -0.00000000000E+00 -0.45593999997E+02  0.45594000000E+02  0.51100000000E-03 0.  1.
         23    2    1    2    0    0  0.00000000000E+00  0.00000000000E+00 -0.71054273576E-14  0.91188000000E+02  0.91188000000E+02 0.  0.
    9900012    2    3    3    0    0  0.46863705715E+01  0.18989498034E+02  0.38743518298E+02  0.47787270572E+02  0.19999997848E+02 0.  0.
        -12    1    3    3    0    0 -0.46863705715E+01 -0.18989498034E+02 -0.38743518298E+02  0.43400729428E+02  0.00000000000E+00 0.  1.
         11    1    4    4    0    0 -0.27164856131E+01  0.14322427146E+01  0.18450901933E+02  0.18704715867E+02  0.51100000000E-03 0. -1.
        -11    1    4    4    0    0  0.20482860226E+01  0.56193797115E+01  0.14695420155E+01  0.61589331843E+01  0.51100000000E-03 0.  1.
         12    1    4    4    0    0  0.53545701619E+01  0.11937875608E+02  0.18823074350E+02  0.22923621521E+02  0.00000000000E+00 0. -1.
</event>
<event>
 8    1  0.7181399E-011  0.9118800E+02  0.7816164E-02  0.1184000E+00
        -11   -1    0    0    0    0  0.00000000000E+00  0.00000000000E+00  0.45593999997E+02  0.45594000000E+02  0.51100000000E-03 0. -1.
         11   -1    0    0    0    0 -0.00000000000E+00 -0.00000000000E+00 -0.45593999997E+02  0.45594000000E+02  0.51100000000E-03 0.  1.
         23    2    1    2    0    0 -0.17763568394E-14  0.00000000000E+00  0.00000000000E+00  0.91188000000E+02  0.91188000000E+02 0.  0.
    9900012    2    3    3    0    0 -0.13119616544E+02 -0.17315366353E+02 -0.37572261921E+02  0.47787295904E+02  0.20000113342E+02 0.  0.
         12    1    3    3    0    0  0.13119616544E+02  0.17315366353E+02  0.37572261921E+02  0.43400704096E+02  0.00000000000E+00 0. -1.
         11    1    4    4    0    0 -0.12939801690E+01 -0.44425305521E+01  0.11001986172E+01  0.47561433581E+01  0.51100000000E-03 0. -1.
        -11    1    4    4    0    0 -0.43434967518E+01 -0.97861624620E+01 -0.20162470484E+02  0.22828932433E+02  0.51100000000E-03 0.  1.
         12    1    4    4    0    0 -0.74821396230E+01 -0.30866733385E+01 -0.18509990055E+02  0.20202220112E+02  0.00000000000E+00 0. -1.
</event>
<event>
 8    1  0.6019723E-011  0.9118800E+02  0.7816164E-02  0.1184000E+00
        -11   -1    0    0    0    0  0.00000000000E+00  0.00000000000E+00  0.45593999997E+02  0.45594000000E+02  0.51100000000E-03 0. -1.
         11   -1    0    0    0    0 -0.00000000000E+00 -0.00000000000E+00 -0.45593999997E+02  0.45594000000E+02  0.51100000000E-03 0.  1.
         23    2    1    2    0    0 -0.35527136788E-14  0.00000000000E+00  0.00000000000E+00  0.91188000000E+02  0.91188000000E+02 0.  0.
    9900012    2    3    3    0    0 -0.25638701337E+02 -0.19435971140E+02  0.29129422185E+02  0.47787271697E+02  0.20000002975E+02 0.  0.
        -12    1    3    3    0    0  0.25638701337E+02  0.19435971140E+02 -0.29129422185E+02  0.43400728303E+02  0.00000000000E+00 0.  1.
         11    1    4    4    0    0  0.17057878884E+01 -0.26369176757E+00 -0.49670979645E+00  0.17960975897E+01  0.51100000000E-03 0. -1.
        -11    1    4    4    0    0 -0.21651841725E+02 -0.18026501786E+02  0.19319741960E+02  0.34161519966E+02  0.51100000000E-03 0.  1.
         12    1    4    4    0    0 -0.56926475007E+01 -0.11457775871E+01  0.10306390021E+02  0.11829654142E+02  0.00000000000E+00 0. -1.
</event>
<event>
 8    1  0.6019723E-011  0.9118800E+02  0.7816164E-02  0.1184000E+00
        -11   -1    0    0    0    0  0.00000000000E+00  0.00000000000E+00  0.45593999997E+02  0.45594000000E+02  0.51100000000E-03 0. -1.
         11   -1    0    0    0    0 -0.00000000000E+00 -0.00000000000E+00 -0.45593999997E+02  0.45594000000E+02  0.51100000000E-03 0.  1.
         23    2    1    2    0    0 -0.35527136788E-14  0.00000000000E+00  0.35527136788E-14  0.91188000000E+02  0.91188000000E+02 0.  0.
    9900012    2    3    3    0    0 -0.19565594038E+02 -0.25645033284E+02  0.29036921329E+02  0.47787274171E+02  0.20000014254E+02 0.  0.
        -12    1    3    3    0    0  0.19565594038E+02  0.25645033284E+02 -0.29036921329E+02  0.43400725829E+02  0.00000000000E+00 0.  1.
         11    1    4    4    0    0 -0.73311280986E+01 -0.20862704823E+02  0.24635230363E+02  0.33104266599E+02  0.51100000000E-03 0. -1.
        -11    1    4    4    0    0 -0.11572786922E+02 -0.50098167607E+01  0.51830014462E+01  0.13634191042E+02  0.51100000000E-03 0.  1.
         12    1    4    4    0    0 -0.66167901789E+00  0.22748829974E+00 -0.78131047945E+00  0.10488165304E+01  0.00000000000E+00 0. -1.
</event>
<event>
 8    1  0.6019723E-011  0.9118800E+02  0.7816164E-02  0.1184000E+00
        -11   -1    0    0    0    0  0.00000000000E+00  0.00000000000E+00  0.45593999997E+02  0.45594000000E+02  0.51100000000E-03 0. -1.
         11   -1    0    0    0    0 -0.00000000000E+00 -0.00000000000E+00 -0.45593999997E+02  0.45594000000E+02  0.51100000000E-03 0.  1.
         23    2    1    2    0    0  0.17763568394E-14  0.00000000000E+00  0.71054273576E-14  0.91188000000E+02  0.91188000000E+02 0.  0.
    9900012    2    3    3    0    0  0.12418383030E+02 -0.40135104352E+01  0.41392013921E+02  0.47787270518E+02  0.19999997601E+02 0.  0.
        -12    1    3    3    0    0 -0.12418383030E+02  0.40135104352E+01 -0.41392013921E+02  0.43400729482E+02  0.00000000000E+00 0.  1.
         11    1    4    4    0    0  0.96100250556E+01 -0.44876513363E+01  0.86365929634E+01  0.13677804442E+02  0.51100000000E-03 0. -1.
        -11    1    4    4    0    0  0.76525660718E+00 -0.92207878394E+00 -0.61052516740E-01  0.11998227492E+01  0.51100000000E-03 0.  1.
         12    1    4    4    0    0  0.20431013674E+01  0.13962196850E+01  0.32816473474E+02  0.32909643327E+02  0.00000000000E+00 0. -1.
</event>
<event>
 8    1  0.6019723E-011  0.9118800E+02  0.7816164E-02  0.1184000E+00
        -11   -1    0    0    0    0  0.00000000000E+00  0.00000000000E+00  0.45593999997E+02  0.45594000000E+02  0.51100000000E-03 0. -1.
         11   -1    0    0    0    0 -0.00000000000E+00 -0.00000000000E+00 -0.45593999997E+02  0.45594000000E+02  0.51100000000E-03 0.  1.
         23    2    1    2    0    0 -0.35527136788E-14  0.00000000000E+00 -0.35527136788E-14  0.91188000000E+02  0.91188000000E+02 0.  0.
    9900012    2    3    3    0    0  0.30779729299E+02 -0.18851021161E+02  0.24101261948E+02  0.47787267725E+02  0.19999984867E+02 0.  0.
        -12    1    3    3    0    0 -0.30779729299E+02  0.18851021161E+02 -0.24101261948E+02  0.43400732275E+02  0.00000000000E+00 0.  1.
         11    1    4    4    0    0  0.19063085555E+02 -0.69277547403E+01  0.20487041097E+02  0.28829045593E+02  0.51100000000E-03 0. -1.
        -11    1    4    4    0    0  0.30659976426E+01 -0.89161377392E+01  0.23099408957E+01  0.97074034083E+01  0.51100000000E-03 0.  1.
        -12    1    4    4    0    0  0.86506461009E+01 -0.30071286816E+01  0.13042799554E+01  0.92508187244E+01  0.00000000000E+00 0.  1.
</event>
<event>
 8    1  0.6019723E-011  0.9118800E+02  0.7816164E-02  0.1184000E+00
        -11   -1    0    0    0    0  0.00000000000E+00  0.00000000000E+00  0.45593999997E+02  0.45594000000E+02  0.51100000000E-03 0. -1.
         11   -1    0    0    0    0 -0.00000000000E+00 -0.00000000000E+00 -0.45593999997E+02  0.45594000000E+02  0.51100000000E-03 0.  1.
         23    2    1    2    0    0  0.00000000000E+00  0.33306690739E-15  0.00000000000E+00  0.91188000000E+02  0.91188000000E+02 0.  0.
    9900012    2    3    3    0    0 -0.11426701476E+02 -0.54890906866E+00  0.41865892516E+02  0.47787265399E+02  0.19999974259E+02 0.  0.
        -12    1    3    3    0    0  0.11426701476E+02  0.54890906866E+00 -0.41865892516E+02  0.43400734601E+02  0.00000000000E+00 0.  1.
         11    1    4    4    0    0  0.40562451266E+01 -0.26565392893E+01  0.37746380914E+01  0.61447716398E+01  0.51100000000E-03 0.  1.
        -11    1    4    4    0    0 -0.14545499485E+02  0.12084025618E+01  0.29072118872E+02  0.32530291852E+02  0.51100000000E-03 0. -1.
         12    1    4    4    0    0 -0.93744711802E+00  0.89922765883E+00  0.90191355522E+01  0.91122019068E+01  0.00000000000E+00 0. -1.
</event>
<event>
 8    1  0.6019723E-011  0.9118800E+02  0.7816164E-02  0.1184000E+00
        -11   -1    0    0    0    0  0.00000000000E+00  0.00000000000E+00  0.45593999997E+02  0.45594000000E+02  0.51100000000E-03 0. -1.
         11   -1    0    0    0    0 -0.00000000000E+00 -0.00000000000E+00 -0.45593999997E+02  0.45594000000E+02  0.51100000000E-03 0.  1.
         23    2    1    2    0    0  0.44408920985E-15  0.22204460493E-15  0.00000000000E+00  0.91188000000E+02  0.91188000000E+02 0.  0.
    9900012    2    3    3    0    0  0.37237620395E+01 -0.16230386387E+01  0.43210216379E+02  0.47787268927E+02  0.19999990346E+02 0.  0.
        -12    1    3    3    0    0 -0.37237620395E+01  0.16230386387E+01 -0.43210216379E+02  0.43400731073E+02  0.00000000000E+00 0.  1.
         11    1    4    4    0    0  0.30095569507E+01  0.27822323134E+01  0.59760726134E+01  0.72464952789E+01  0.51100000000E-03 0. -1.
        -11    1    4    4    0    0  0.31808222058E+01 -0.14883143726E+01  0.36477933439E+02  0.36646586988E+02  0.51100000000E-03 0.  1.
        -12    1    4    4    0    0 -0.24666171169E+01 -0.29169565796E+01  0.75621032629E+00  0.38941866604E+01  0.00000000000E+00 0.  1.
</event>
<event>
 8    1  0.6019723E-011  0.9118800E+02  0.7816164E-02  0.1184000E+00
        -11   -1    0    0    0    0  0.00000000000E+00  0.00000000000E+00  0.45593999997E+02  0.45594000000E+02  0.51100000000E-03 0. -1.
         11   -1    0    0    0    0 -0.00000000000E+00 -0.00000000000E+00 -0.45593999997E+02  0.45594000000E+02  0.51100000000E-03 0.  1.
         23    2    1    2    0    0  0.17763568394E-14  0.00000000000E+00  0.00000000000E+00  0.91188000000E+02  0.91188000000E+02 0.  0.
    9900012    2    3    3    0    0 -0.11965184502E+02 -0.11677988954E+02  0.40050993752E+02  0.47787272279E+02  0.20000005631E+02 0.  0.
        -12    1    3    3    0    0  0.11965184502E+02  0.11677988954E+02 -0.40050993752E+02  0.43400727721E+02  0.00000000000E+00 0.  1.
         11    1    4    4    0    0 -0.12004969926E+02 -0.36560618462E+01  0.22174587110E+02  0.25479372145E+02  0.51100000000E-03 0. -1.
        -11    1    4    4    0    0 -0.50298466471E+01 -0.61392372357E+01  0.10623670700E+02  0.13260918918E+02  0.51100000000E-03 0.  1.
         12    1    4    4    0    0  0.50696320718E+01 -0.18826898724E+01  0.72527359413E+01  0.90469812166E+01  0.00000000000E+00 0. -1.
</event>
<event>
 8    1  0.6019723E-011  0.9118800E+02  0.7816164E-02  0.1184000E+00
        -11   -1    0    0    0    0  0.00000000000E+00  0.00000000000E+00  0.45593999997E+02  0.45594000000E+02  0.51100000000E-03 0. -1.
         11   -1    0    0    0    0 -0.00000000000E+00 -0.00000000000E+00 -0.45593999997E+02  0.45594000000E+02  0.51100000000E-03 0.  1.
         23    2    1    2    0    0 -0.35527136788E-14  0.00000000000E+00  0.00000000000E+00  0.91188000000E+02  0.91188000000E+02 0.  0.
    9900012    2    3    3    0    0 -0.30150232874E+02  0.17399120513E+02  0.25920213978E+02  0.47787269249E+02  0.19999991816E+02 0.  0.
        -12    1    3    3    0    0  0.30150232874E+02 -0.17399120513E+02 -0.25920213978E+02  0.43400730751E+02  0.00000000000E+00 0.  1.
         11    1    4    4    0    0 -0.18974433947E+02  0.72617570157E+01  0.15943625601E+02  0.25825596918E+02  0.51100000000E-03 0. -1.
        -11    1    4    4    0    0 -0.22406022562E+01 -0.97101676278E+00 -0.21439814032E+01  0.32495889805E+01  0.51100000000E-03 0.  1.
        -12    1    4    4    0    0 -0.89351966710E+01  0.11108380260E+02  0.12120569780E+02  0.18712083351E+02  0.00000000000E+00 0.  1.
</event>
<event>
 8    1  0.6019723E-011  0.9118800E+02  0.7816164E-02  0.1184000E+00
        -11   -1    0    0    0    0  0.00000000000E+00  0.00000000000E+00  0.45593999997E+02  0.45594000000E+02  0.51100000000E-03 0. -1.
         11   -1    0    0    0    0 -0.00000000000E+00 -0.00000000000E+00 -0.45593999997E+02  0.45594000000E+02  0.51100000000E-03 0.  1.
         23    2    1    2    0    0 -0.17763568394E-14  0.00000000000E+00  0.00000000000E+00  0.91188000000E+02  0.91188000000E+02 0.  0.
    9900012    2    3    3    0    0 -0.13340583423E+02  0.14574125274E+02 -0.38642556836E+02  0.47787268527E+02  0.19999988520E+02 0.  0.
         12    1    3    3    0    0  0.13340583423E+02 -0.14574125274E+02  0.38642556836E+02  0.43400731473E+02  0.00000000000E+00 0. -1.
         11    1    4    4    0    0 -0.25752073751E+01 -0.10465119277E+01 -0.11303101585E+02  0.11639887712E+02  0.51100000000E-03 0. -1.
        -11    1    4    4    0    0 -0.62615604409E+01  0.16856296197E+02 -0.16752852510E+02  0.24576409992E+02  0.51100000000E-03 0.  1.
        -12    1    4    4    0    0 -0.45038156070E+01 -0.12356589945E+01 -0.10586602741E+02  0.11570970823E+02  0.00000000000E+00 0.  1.
</event>
<event>
 8    1  0.6019723E-011  0.9118800E+02  0.7816164E-02  0.1184000E+00
        -11   -1    0    0    0    0  0.00000000000E+00  0.00000000000E+00  0.45593999997E+02  0.45594000000E+02  0.51100000000E-03 0. -1.
         11   -1    0    0    0    0 -0.00000000000E+00 -0.00000000000E+00 -0.45593999997E+02  0.45594000000E+02  0.51100000000E-03 0.  1.
         23    2    1    2    0    0  0.00000000000E+00  0.00000000000E+00  0.00000000000E+00  0.91188000000E+02  0.91188000000E+02 0.  0.
    9900012    2    3    3    0    0  0.13458921481E+02  0.20499196302E+02  0.35808711182E+02  0.47787269442E+02  0.19999992696E+02 0.  0.
        -12    1    3    3    0    0 -0.13458921481E+02 -0.20499196302E+02 -0.35808711182E+02  0.43400730558E+02  0.00000000000E+00 0.  1.
         11    1    4    4    0    0  0.17790733848E+01 -0.48049006428E+00  0.29080421604E+01  0.34427724697E+01  0.51100000000E-03 0. -1.
        -11    1    4    4    0    0  0.72083483622E+01 -0.10057636930E+01  0.87339583685E+01  0.11368987455E+02  0.51100000000E-03 0.  1.
        -12    1    4    4    0    0  0.44714997339E+01  0.21985450059E+02  0.24166710653E+02  0.32975509517E+02  0.00000000000E+00 0.  1.
</event>
<event>
 8    1  0.6019723E-011  0.9118800E+02  0.7816164E-02  0.1184000E+00
        -11   -1    0    0    0    0  0.00000000000E+00  0.00000000000E+00  0.45593999997E+02  0.45594000000E+02  0.51100000000E-03 0. -1.
         11   -1    0    0    0    0 -0.00000000000E+00 -0.00000000000E+00 -0.45593999997E+02  0.45594000000E+02  0.51100000000E-03 0.  1.
         23    2    1    2    0    0  0.35527136788E-14  0.00000000000E+00  0.00000000000E+00  0.91188000000E+02  0.91188000000E+02 0.  0.
    9900012    2    3    3    0    0  0.20681549862E+02  0.18190093014E+02 -0.33541276565E+02  0.47787271640E+02  0.20000002716E+02 0.  0.
         12    1    3    3    0    0 -0.20681549862E+02 -0.18190093014E+02  0.33541276565E+02  0.43400728360E+02  0.00000000000E+00 0. -1.
         11    1    4    4    0    0  0.11171006525E+02  0.78985420227E+01 -0.51150284395E+01  0.14606227065E+02  0.51100000000E-03 0. -1.
        -11    1    4    4    0    0  0.47449220685E+01  0.21661299493E+01 -0.28906811032E+01  0.59634253491E+01  0.51100000000E-03 0.  1.
         12    1    4    4    0    0  0.47656212680E+01  0.81254210423E+01 -0.25535567022E+02  0.27217619226E+02  0.00000000000E+00 0. -1.
</event>
<event>
 8    1  0.6019723E-011  0.9118800E+02  0.7816164E-02  0.1184000E+00
        -11   -1    0    0    0    0  0.00000000000E+00  0.00000000000E+00  0.45593999997E+02  0.45594000000E+02  0.51100000000E-03 0.  1.
         11   -1    0    0    0    0 -0.00000000000E+00 -0.00000000000E+00 -0.45593999997E+02  0.45594000000E+02  0.51100000000E-03 0. -1.
         23    2    1    2    0    0  0.35527136788E-14  0.00000000000E+00  0.00000000000E+00  0.91188000000E+02  0.91188000000E+02 0.  0.
    9900012    2    3    3    0    0  0.21067642931E+02 -0.32826466296E+02 -0.19031569863E+02  0.47787272822E+02  0.20000008105E+02 0.  0.
         12    1    3    3    0    0 -0.21067642931E+02  0.32826466296E+02  0.19031569863E+02  0.43400727178E+02  0.00000000000E+00 0. -1.
         11    1    4    4    0    0 -0.21456125605E+01 -0.32462867067E+01  0.10888229722E+01  0.40407383444E+01  0.51100000000E-03 0. -1.
        -11    1    4    4    0    0  0.20197539789E+02 -0.26864700750E+02 -0.14014538685E+02  0.36415107507E+02  0.51100000000E-03 0.  1.
        -12    1    4    4    0    0  0.30157157023E+01 -0.27154788391E+01 -0.61058541505E+01  0.73314269709E+01  0.00000000000E+00 0.  1.
</event>
<event>
 8    1  0.6019723E-011  0.9118800E+02  0.7816164E-02  0.1184000E+00
        -11   -1    0    0    0    0  0.00000000000E+00  0.00000000000E+00  0.45593999997E+02  0.45594000000E+02  0.51100000000E-03 0.  1.
         11   -1    0    0    0    0 -0.00000000000E+00 -0.00000000000E+00 -0.45593999997E+02  0.45594000000E+02  0.51100000000E-03 0. -1.
         23    2    1    2    0    0 -0.35527136788E-14  0.00000000000E+00  0.72164496601E-15  0.91188000000E+02  0.91188000000E+02 0.  0.
    9900012    2    3    3    0    0 -0.30055187936E+02  0.31308874106E+02 -0.25200655396E+00  0.47787269281E+02  0.19999991959E+02 0.  0.
         12    1    3    3    0    0  0.30055187936E+02 -0.31308874106E+02  0.25200655396E+00  0.43400730719E+02  0.00000000000E+00 0. -1.
         11    1    4    4    0    0 -0.57916113755E+01  0.41200229430E+01 -0.49850804778E+01  0.86814963576E+01  0.51100000000E-03 0. -1.
        -11    1    4    4    0    0 -0.56290966363E+01  0.15247925852E+02  0.48888874309E+01  0.16973131482E+02  0.51100000000E-03 0.  1.
        -12    1    4    4    0    0 -0.18634479924E+02  0.11940925311E+02 -0.15581350702E+00  0.22132641442E+02  0.00000000000E+00 0.  1.
</event>
<event>
 8    1  0.6019723E-011  0.9118800E+02  0.7816164E-02  0.1184000E+00
        -11   -1    0    0    0    0  0.00000000000E+00  0.00000000000E+00  0.45593999997E+02  0.45594000000E+02  0.51100000000E-03 0. -1.
         11   -1    0    0    0    0 -0.00000000000E+00 -0.00000000000E+00 -0.45593999997E+02  0.45594000000E+02  0.51100000000E-03 0.  1.
         23    2    1    2    0    0  0.00000000000E+00  0.17763568394E-14  0.00000000000E+00  0.91188000000E+02  0.91188000000E+02 0.  0.
    9900012    2    3    3    0    0 -0.23484611842E+02  0.10666591634E+02 -0.34904443331E+02  0.47787270344E+02  0.19999996805E+02 0.  0.
         12    1    3    3    0    0  0.23484611842E+02 -0.10666591634E+02  0.34904443331E+02  0.43400729656E+02  0.00000000000E+00 0. -1.
         11    1    4    4    0    0  0.14425662145E+00  0.28409841382E+01 -0.83354723193E+01  0.88075024776E+01  0.51100000000E-03 0. -1.
        -11    1    4    4    0    0 -0.18550873896E+02  0.46422589099E-01 -0.13489817248E+02  0.22937136853E+02  0.51100000000E-03 0.  1.
        -12    1    4    4    0    0 -0.50779945670E+01  0.77791849065E+01 -0.13079153764E+02  0.16042631013E+02  0.00000000000E+00 0.  1.
</event>
<event>
 8    1  0.6019723E-011  0.9118800E+02  0.7816164E-02  0.1184000E+00
        -11   -1    0    0    0    0  0.00000000000E+00  0.00000000000E+00  0.45593999997E+02  0.45594000000E+02  0.51100000000E-03 0. -1.
         11   -1    0    0    0    0 -0.00000000000E+00 -0.00000000000E+00 -0.45593999997E+02  0.45594000000E+02  0.51100000000E-03 0.  1.
         23    2    1    2    0    0  0.00000000000E+00  0.00000000000E+00  0.35527136788E-14  0.91188000000E+02  0.91188000000E+02 0.  0.
    9900012    2    3    3    0    0  0.70463532627E+01  0.32317776923E+02  0.28098633876E+02  0.47787273909E+02  0.20000013060E+02 0.  0.
        -12    1    3    3    0    0 -0.70463532627E+01 -0.32317776923E+02 -0.28098633876E+02  0.43400726091E+02  0.00000000000E+00 0.  1.
         11    1    4    4    0    0  0.49056806582E+01  0.14018913791E+02  0.96405730116E+01  0.17706956115E+02  0.51100000000E-03 0. -1.
        -11    1    4    4    0    0 -0.15969320834E+01  0.17796036851E+02  0.92286274776E+01  0.20110113999E+02  0.51100000000E-03 0.  1.
        -12    1    4    4    0    0  0.37376046878E+01  0.50282628091E+00  0.92294333865E+01  0.99702037947E+01  0.00000000000E+00 0.  1.
</event>
<event>
 8    1  0.6019723E-011  0.9118800E+02  0.7816164E-02  0.1184000E+00
        -11   -1    0    0    0    0  0.00000000000E+00  0.00000000000E+00  0.45593999997E+02  0.45594000000E+02  0.51100000000E-03 0. -1.
         11   -1    0    0    0    0 -0.00000000000E+00 -0.00000000000E+00 -0.45593999997E+02  0.45594000000E+02  0.51100000000E-03 0.  1.
         23    2    1    2    0    0  0.00000000000E+00  0.35527136788E-14  0.00000000000E+00  0.91188000000E+02  0.91188000000E+02 0.  0.
    9900012    2    3    3    0    0  0.18391900926E+02 -0.18928989628E+02  0.34453657220E+02  0.47787272312E+02  0.20000005779E+02 0.  0.
        -12    1    3    3    0    0 -0.18391900926E+02  0.18928989628E+02 -0.34453657220E+02  0.43400727688E+02  0.00000000000E+00 0.  1.
         11    1    4    4    0    0  0.81173719124E+01 -0.25765898200E+01  0.17509459710E+02  0.19470791495E+02  0.51100000000E-03 0. -1.
        -11    1    4    4    0    0  0.77115411548E+01 -0.18026474905E+02  0.14244508163E+02  0.24234844286E+02  0.51100000000E-03 0.  1.
        -12    1    4    4    0    0  0.25629878583E+01  0.16740750977E+01  0.26996893479E+01  0.40816365308E+01  0.00000000000E+00 0.  1.
</event>
<event>
 8    1  0.6019723E-011  0.9118800E+02  0.7816164E-02  0.1184000E+00
        -11   -1    0    0    0    0  0.00000000000E+00  0.00000000000E+00  0.45593999997E+02  0.45594000000E+02  0.51100000000E-03 0. -1.
         11   -1    0    0    0    0 -0.00000000000E+00 -0.00000000000E+00 -0.45593999997E+02  0.45594000000E+02  0.51100000000E-03 0.  1.
         23    2    1    2    0    0  0.11102230246E-15  0.00000000000E+00  0.00000000000E+00  0.91188000000E+02  0.91188000000E+02 0.  0.
    9900012    2    3    3    0    0 -0.84429700465E+00  0.13837843078E+02  0.41126929976E+02  0.47787272958E+02  0.20000008725E+02 0.  0.
        -12    1    3    3    0    0  0.84429700465E+00 -0.13837843078E+02 -0.41126929976E+02  0.43400727042E+02  0.00000000000E+00 0.  1.
         11    1    4    4    0    0  0.19192867602E+01  0.15764072378E+02  0.35582444180E+02  0.38965368902E+02  0.51100000000E-03 0. -1.
        -11    1    4    4    0    0 -0.17487627780E+01 -0.28708541089E+01  0.27465107081E+00  0.33727448821E+01  0.51100000000E-03 0.  1.
         12    1    4    4    0    0 -0.10148209869E+01  0.94462480926E+00  0.52698347254E+01  0.54491591735E+01  0.00000000000E+00 0. -1.
</event>
<event>
 8    1  0.6019723E-011  0.9118800E+02  0.7816164E-02  0.1184000E+00
        -11   -1    0    0    0    0  0.00000000000E+00  0.00000000000E+00  0.45593999997E+02  0.45594000000E+02  0.51100000000E-03 0. -1.
         11   -1    0    0    0    0 -0.00000000000E+00 -0.00000000000E+00 -0.45593999997E+02  0.45594000000E+02  0.51100000000E-03 0.  1.
         23    2    1    2    0    0 -0.30531133177E-15  0.00000000000E+00  0.00000000000E+00  0.91188000000E+02  0.91188000000E+02 0.  0.
    9900012    2    3    3    0    0 -0.20334231307E+00 -0.32318937505E+02  0.28966673296E+02  0.47787271534E+02  0.20000002233E+02 0.  0.
        -12    1    3    3    0    0  0.20334231307E+00  0.32318937505E+02 -0.28966673296E+02  0.43400728466E+02  0.00000000000E+00 0.  1.
         11    1    4    4    0    0  0.32996222308E+01 -0.15283455299E+02  0.14951594925E+02  0.21633809276E+02  0.51100000000E-03 0. -1.
        -11    1    4    4    0    0 -0.85601016700E+01 -0.12972100616E+02  0.10692199651E+02  0.18864619493E+02  0.51100000000E-03 0.  1.
        -12    1    4    4    0    0  0.50571371262E+01 -0.40633815900E+01  0.33228787196E+01  0.72888427644E+01  0.00000000000E+00 0.  1.
</event>
<event>
 8    1  0.6019723E-011  0.9118800E+02  0.7816164E-02  0.1184000E+00
        -11   -1    0    0    0    0  0.00000000000E+00  0.00000000000E+00  0.45593999997E+02  0.45594000000E+02  0.51100000000E-03 0. -1.
         11   -1    0    0    0    0 -0.00000000000E+00 -0.00000000000E+00 -0.45593999997E+02  0.45594000000E+02  0.51100000000E-03 0.  1.
         23    2    1    2    0    0  0.00000000000E+00 -0.35527136788E-14  0.35527136788E-14  0.91188000000E+02  0.91188000000E+02 0.  0.
    9900012    2    3    3    0    0 -0.28233001734E+02 -0.22587849934E+02  0.24006456457E+02  0.47787270707E+02  0.19999998461E+02 0.  0.
        -12    1    3    3    0    0  0.28233001734E+02  0.22587849934E+02 -0.24006456457E+02  0.43400729293E+02  0.00000000000E+00 0.  1.
         11    1    4    4    0    0 -0.28613172768E+02 -0.19308937074E+02  0.22406731019E+02  0.41153496838E+02  0.51100000000E-03 0. -1.
        -11    1    4    4    0    0 -0.18615293470E+00  0.90687682775E+00 -0.12374569764E+01  0.15454379720E+01  0.51100000000E-03 0.  1.
         12    1    4    4    0    0  0.56632396840E+00 -0.41857896882E+01  0.28371824142E+01  0.50883358972E+01  0.00000000000E+00 0. -1.
</event>
<event>
 8    1  0.6019723E-011  0.9118800E+02  0.7816164E-02  0.1184000E+00
        -11   -1    0    0    0    0  0.00000000000E+00  0.00000000000E+00  0.45593999997E+02  0.45594000000E+02  0.51100000000E-03 0. -1.
         11   -1    0    0    0    0 -0.00000000000E+00 -0.00000000000E+00 -0.45593999997E+02  0.45594000000E+02  0.51100000000E-03 0.  1.
         23    2    1    2    0    0 -0.44408920985E-15 -0.27755575616E-16  0.00000000000E+00  0.91188000000E+02  0.91188000000E+02 0.  0.
    9900012    2    3    3    0    0 -0.27565451808E+01 -0.17209831782E+00  0.43312759565E+02  0.47787270740E+02  0.19999998611E+02 0.  0.
        -12    1    3    3    0    0  0.27565451808E+01  0.17209831782E+00 -0.43312759565E+02  0.43400729260E+02  0.00000000000E+00 0.  1.
         11    1    4    4    0    0 -0.40883802778E+01  0.35797583621E+00  0.26262818594E+02  0.26581546997E+02  0.51100000000E-03 0. -1.
        -11    1    4    4    0    0  0.52198715155E+00 -0.15898770604E+00 -0.20314966670E+01  0.21035034219E+01  0.51100000000E-03 0.  1.
        -12    1    4    4    0    0  0.80984794549E+00 -0.37108644799E+00  0.19081437638E+02  0.19102220321E+02  0.00000000000E+00 0.  1.
</event>
<event>
 8    1  0.6019723E-011  0.9118800E+02  0.7816164E-02  0.1184000E+00
        -11   -1    0    0    0    0  0.00000000000E+00  0.00000000000E+00  0.45593999997E+02  0.45594000000E+02  0.51100000000E-03 0. -1.
         11   -1    0    0    0    0 -0.00000000000E+00 -0.00000000000E+00 -0.45593999997E+02  0.45594000000E+02  0.51100000000E-03 0.  1.
         23    2    1    2    0    0  0.44408920985E-15  0.35527136788E-14  0.00000000000E+00  0.91188000000E+02  0.91188000000E+02 0.  0.
    9900012    2    3    3    0    0 -0.39933646520E+01 -0.23722860438E+02 -0.36123424885E+02  0.47787275421E+02  0.20000019953E+02 0.  0.
         12    1    3    3    0    0  0.39933646520E+01  0.23722860438E+02  0.36123424885E+02  0.43400724579E+02  0.00000000000E+00 0. -1.
         11    1    4    4    0    0 -0.10746216941E+02 -0.13299986394E+02 -0.14923700916E+02  0.22695542865E+02  0.51100000000E-03 0. -1.
        -11    1    4    4    0    0  0.29220543838E+01 -0.11558939815E+01 -0.73448511557E+01  0.79888254129E+01  0.51100000000E-03 0.  1.
         12    1    4    4    0    0  0.38307979057E+01 -0.92669800622E+01 -0.13854872813E+02  0.17102907143E+02  0.00000000000E+00 0. -1.
</event>
<event>
 8    1  0.6019723E-011  0.9118800E+02  0.7816164E-02  0.1184000E+00
        -11   -1    0    0    0    0  0.00000000000E+00  0.00000000000E+00  0.45593999997E+02  0.45594000000E+02  0.51100000000E-03 0. -1.
         11   -1    0    0    0    0 -0.00000000000E+00 -0.00000000000E+00 -0.45593999997E+02  0.45594000000E+02  0.51100000000E-03 0.  1.
         23    2    1    2    0    0  0.00000000000E+00  0.00000000000E+00  0.00000000000E+00  0.91188000000E+02  0.91188000000E+02 0.  0.
    9900012    2    3    3    0    0  0.20142088474E+02  0.16092425839E+02 -0.34913517250E+02  0.47787267469E+02  0.19999983698E+02 0.  0.
         12    1    3    3    0    0 -0.20142088474E+02 -0.16092425839E+02  0.34913517250E+02  0.43400732531E+02  0.00000000000E+00 0. -1.
         11    1    4    4    0    0  0.86307268407E+00  0.84134540625E+01 -0.35485702541E+01  0.91718839302E+01  0.51100000000E-03 0. -1.
        -11    1    4    4    0    0 -0.24262695242E-01  0.16572958086E+00 -0.53893072214E+01  0.53919094540E+01  0.51100000000E-03 0.  1.
         12    1    4    4    0    0  0.19303278485E+02  0.75132421958E+01 -0.25975639774E+02  0.33223474085E+02  0.00000000000E+00 0. -1.
</event>
<event>
 8    1  0.6019723E-011  0.9118800E+02  0.7816164E-02  0.1184000E+00
        -11   -1    0    0    0    0  0.00000000000E+00  0.00000000000E+00  0.45593999997E+02  0.45594000000E+02  0.51100000000E-03 0. -1.
         11   -1    0    0    0    0 -0.00000000000E+00 -0.00000000000E+00 -0.45593999997E+02  0.45594000000E+02  0.51100000000E-03 0.  1.
         23    2    1    2    0    0  0.00000000000E+00  0.00000000000E+00  0.35527136788E-14  0.91188000000E+02  0.91188000000E+02 0.  0.
    9900012    2    3    3    0    0 -0.11507259493E+02  0.28094299896E+02 -0.31014748466E+02  0.47787293438E+02  0.20000102101E+02 0.  0.
         12    1    3    3    0    0  0.11507259493E+02 -0.28094299896E+02  0.31014748466E+02  0.43400706562E+02  0.00000000000E+00 0. -1.
         11    1    4    4    0    0 -0.13587580356E+02  0.29497124896E+02 -0.24138252180E+02  0.40464279750E+02  0.51100000000E-03 0. -1.
        -11    1    4    4    0    0  0.98032408663E+00 -0.76827843805E+00 -0.35711735120E+01  0.37821379651E+01  0.51100000000E-03 0.  1.
         12    1    4    4    0    0  0.10999967771E+01 -0.63454656200E+00 -0.33053227737E+01  0.35408757232E+01  0.00000000000E+00 0. -1.
</event>
<event>
 8    1  0.6019723E-011  0.9118800E+02  0.7816164E-02  0.1184000E+00
        -11   -1    0    0    0    0  0.00000000000E+00  0.00000000000E+00  0.45593999997E+02  0.45594000000E+02  0.51100000000E-03 0. -1.
         11   -1    0    0    0    0 -0.00000000000E+00 -0.00000000000E+00 -0.45593999997E+02  0.45594000000E+02  0.51100000000E-03 0.  1.
         23    2    1    2    0    0  0.00000000000E+00  0.00000000000E+00  0.00000000000E+00  0.91188000000E+02  0.91188000000E+02 0.  0.
    9900012    2    3    3    0    0  0.35660423759E+01 -0.33303579491E+02 -0.27600404503E+02  0.47787223580E+02  0.19999783590E+02 0.  0.
         12    1    3    3    0    0 -0.35660423759E+01  0.33303579491E+02  0.27600404503E+02  0.43400776420E+02  0.00000000000E+00 0. -1.
         11    1    4    4    0    0  0.27913293741E+01  0.20477247499E+01 -0.29588603044E+01  0.45540697061E+01  0.51100000000E-03 0. -1.
        -11    1    4    4    0    0  0.71134414744E-01 -0.27393100213E+02 -0.17413611491E+02  0.32459526564E+02  0.51100000000E-03 0.  1.
        -12    1    4    4    0    0  0.70357858704E+00 -0.79582040282E+01 -0.72279327077E+01  0.10773627310E+02  0.00000000000E+00 0.  1.
</event>
<event>
 8    1  0.6019723E-011  0.9118800E+02  0.7816164E-02  0.1184000E+00
        -11   -1    0    0    0    0  0.00000000000E+00  0.00000000000E+00  0.45593999997E+02  0.45594000000E+02  0.51100000000E-03 0.  1.
         11   -1    0    0    0    0 -0.00000000000E+00 -0.00000000000E+00 -0.45593999997E+02  0.45594000000E+02  0.51100000000E-03 0. -1.
         23    2    1    2    0    0 -0.35527136788E-14  0.00000000000E+00  0.00000000000E+00  0.91188000000E+02  0.91188000000E+02 0.  0.
    9900012    2    3    3    0    0  0.23803863203E+02 -0.25486633207E+02 -0.25834683754E+02  0.47787271201E+02  0.20000000712E+02 0.  0.
         12    1    3    3    0    0 -0.23803863203E+02  0.25486633207E+02  0.25834683754E+02  0.43400728799E+02  0.00000000000E+00 0. -1.
         11    1    4    4    0    0  0.20415497561E+01 -0.96194174242E+01 -0.12625935261E+02  0.16003604546E+02  0.51100000000E-03 0. -1.
        -11    1    4    4    0    0  0.22181125455E+02 -0.15181820015E+02 -0.14286119561E+02  0.30439829136E+02  0.51100000000E-03 0.  1.
         12    1    4    4    0    0 -0.41881200809E+00 -0.68539576797E+00  0.10773710685E+01  0.13438375185E+01  0.00000000000E+00 0. -1.
</event>
<event>
 8    1  0.6019723E-011  0.9118800E+02  0.7816164E-02  0.1184000E+00
        -11   -1    0    0    0    0  0.00000000000E+00  0.00000000000E+00  0.45593999997E+02  0.45594000000E+02  0.51100000000E-03 0. -1.
         11   -1    0    0    0    0 -0.00000000000E+00 -0.00000000000E+00 -0.45593999997E+02  0.45594000000E+02  0.51100000000E-03 0.  1.
         23    2    1    2    0    0  0.35527136788E-14  0.00000000000E+00  0.35527136788E-14  0.91188000000E+02  0.91188000000E+02 0.  0.
    9900012    2    3    3    0    0  0.22194931220E+02 -0.19304435699E+02  0.31911551159E+02  0.47787270665E+02  0.19999998268E+02 0.  0.
        -12    1    3    3    0    0 -0.22194931220E+02  0.19304435699E+02 -0.31911551159E+02  0.43400729335E+02  0.00000000000E+00 0.  1.
         11    1    4    4    0    0  0.43717574897E+01 -0.32605792869E+01  0.17769777231E+02  0.18587862275E+02  0.51100000000E-03 0.  1.
        -11    1    4    4    0    0  0.97197965169E+01 -0.43499849914E+01  0.28164440154E+01  0.11014952152E+02  0.51100000000E-03 0. -1.
         12    1    4    4    0    0  0.81033772129E+01 -0.11693871421E+02  0.11325329912E+02  0.18184456238E+02  0.00000000000E+00 0. -1.
</event>
<event>
 8    1  0.6019723E-011  0.9118800E+02  0.7816164E-02  0.1184000E+00
        -11   -1    0    0    0    0  0.00000000000E+00  0.00000000000E+00  0.45593999997E+02  0.45594000000E+02  0.51100000000E-03 0. -1.
         11   -1    0    0    0    0 -0.00000000000E+00 -0.00000000000E+00 -0.45593999997E+02  0.45594000000E+02  0.51100000000E-03 0.  1.
         23    2    1    2    0    0  0.17763568394E-14  0.00000000000E+00  0.00000000000E+00  0.91188000000E+02  0.91188000000E+02 0.  0.
    9900012    2    3    3    0    0 -0.11219140312E+02 -0.34052524804E+02  0.24457714839E+02  0.47787269937E+02  0.19999994950E+02 0.  0.
        -12    1    3    3    0    0  0.11219140312E+02  0.34052524804E+02 -0.24457714839E+02  0.43400730063E+02  0.00000000000E+00 0.  1.
         11    1    4    4    0    0  0.18935446265E+01 -0.57229752839E+01  0.74187369491E+01  0.95590593436E+01  0.51100000000E-03 0. -1.
        -11    1    4    4    0    0  0.83899192906E+00 -0.10799442914E+01 -0.18165543658E+01  0.22737759684E+01  0.51100000000E-03 0.  1.
         12    1    4    4    0    0 -0.13951676867E+02 -0.27249605229E+02  0.18855532255E+02  0.35954434625E+02  0.00000000000E+00 0. -1.
</event>
<event>
 8    1  0.6019723E-011  0.9118800E+02  0.7816164E-02  0.1184000E+00
        -11   -1    0    0    0    0  0.00000000000E+00  0.00000000000E+00  0.45593999997E+02  0.45594000000E+02  0.51100000000E-03 0. -1.
         11   -1    0    0    0    0 -0.00000000000E+00 -0.00000000000E+00 -0.45593999997E+02  0.45594000000E+02  0.51100000000E-03 0.  1.
         23    2    1    2    0    0  0.00000000000E+00 -0.17763568394E-14  0.00000000000E+00  0.91188000000E+02  0.91188000000E+02 0.  0.
    9900012    2    3    3    0    0  0.27204711165E+02  0.12637120698E+02  0.31366063422E+02  0.47787273466E+02  0.20000011041E+02 0.  0.
        -12    1    3    3    0    0 -0.27204711165E+02 -0.12637120698E+02 -0.31366063422E+02  0.43400726534E+02  0.00000000000E+00 0.  1.
         11    1    4    4    0    0  0.87063705931E+01  0.80395754223E+01  0.16732051914E+02  0.20503590500E+02  0.51100000000E-03 0. -1.
        -11    1    4    4    0    0  0.18003776591E+02  0.22003420572E+01  0.72994097116E+01  0.19551441356E+02  0.51100000000E-03 0.  1.
        -12    1    4    4    0    0  0.49456398047E+00  0.23972032185E+01  0.73346017959E+01  0.77322416094E+01  0.00000000000E+00 0.  1.
</event>
<event>
 8    1  0.6019723E-011  0.9118800E+02  0.7816164E-02  0.1184000E+00
        -11   -1    0    0    0    0  0.00000000000E+00  0.00000000000E+00  0.45593999997E+02  0.45594000000E+02  0.51100000000E-03 0. -1.
         11   -1    0    0    0    0 -0.00000000000E+00 -0.00000000000E+00 -0.45593999997E+02  0.45594000000E+02  0.51100000000E-03 0.  1.
         23    2    1    2    0    0  0.00000000000E+00 -0.35527136788E-14  0.00000000000E+00  0.91188000000E+02  0.91188000000E+02 0.  0.
    9900012    2    3    3    0    0 -0.29166078196E+02 -0.19258379753E+02  0.25730878910E+02  0.47787269159E+02  0.19999991405E+02 0.  0.
        -12    1    3    3    0    0  0.29166078196E+02  0.19258379753E+02 -0.25730878910E+02  0.43400730841E+02  0.00000000000E+00 0.  1.
         11    1    4    4    0    0 -0.45380108837E+01 -0.61246151179E-01  0.27772518595E+01  0.53207538962E+01  0.51100000000E-03 0. -1.
        -11    1    4    4    0    0 -0.17384495944E+02 -0.27546565282E+01  0.13366552239E+02  0.22101437755E+02  0.51100000000E-03 0.  1.
        -12    1    4    4    0    0 -0.72435713684E+01 -0.16442477073E+02  0.95870748115E+01  0.20365077508E+02  0.00000000000E+00 0.  1.
</event>
<event>
 8    1  0.6019723E-011  0.9118800E+02  0.7816164E-02  0.1184000E+00
        -11   -1    0    0    0    0  0.00000000000E+00  0.00000000000E+00  0.45593999997E+02  0.45594000000E+02  0.51100000000E-03 0.  1.
         11   -1    0    0    0    0 -0.00000000000E+00 -0.00000000000E+00 -0.45593999997E+02  0.45594000000E+02  0.51100000000E-03 0. -1.
         23    2    1    2    0    0 -0.88817841970E-15  0.00000000000E+00  0.11102230246E-15  0.91188000000E+02  0.91188000000E+02 0.  0.
    9900012    2    3    3    0    0  0.52536513469E+01  0.43073438170E+02 -0.83749006467E+00  0.47787270538E+02  0.19999997691E+02 0.  0.
        -12    1    3    3    0    0 -0.52536513469E+01 -0.43073438170E+02  0.83749006467E+00  0.43400729462E+02  0.00000000000E+00 0.  1.
         11    1    4    4    0    0 -0.48880462676E+01  0.13965059302E+02 -0.45586447436E+01  0.15482154881E+02  0.51100000000E-03 0. -1.
        -11    1    4    4    0    0  0.64271957685E+01  0.75085138429E+01  0.31760109175E+01  0.10381409884E+02  0.51100000000E-03 0.  1.
         12    1    4    4    0    0  0.37145018459E+01  0.21599865025E+02  0.54514376137E+00  0.21923705772E+02  0.00000000000E+00 0. -1.
</event>
<event>
 8    1  0.6019723E-011  0.9118800E+02  0.7816164E-02  0.1184000E+00
        -11   -1    0    0    0    0  0.00000000000E+00  0.00000000000E+00  0.45593999997E+02  0.45594000000E+02  0.51100000000E-03 0.  1.
         11   -1    0    0    0    0 -0.00000000000E+00 -0.00000000000E+00 -0.45593999997E+02  0.45594000000E+02  0.51100000000E-03 0. -1.
         23    2    1    2    0    0  0.00000000000E+00 -0.17763568394E-14  0.00000000000E+00  0.91188000000E+02  0.91188000000E+02 0.  0.
    9900012    2    3    3    0    0  0.14703999484E+02  0.98648099238E+01  0.39624507799E+02  0.47787266204E+02  0.19999977932E+02 0.  0.
        -12    1    3    3    0    0 -0.14703999484E+02 -0.98648099238E+01 -0.39624507799E+02  0.43400733796E+02  0.00000000000E+00 0.  1.
         11    1    4    4    0    0  0.11295235857E+02  0.65848603249E+01  0.33220358943E+02  0.35700630066E+02  0.51100000000E-03 0. -1.
        -11    1    4    4    0    0  0.11433495241E+01  0.21994010438E+00 -0.23045927511E+01  0.25820088678E+01  0.51100000000E-03 0.  1.
        -12    1    4    4    0    0  0.22654141029E+01  0.30600094945E+01  0.87087416077E+01  0.95046272706E+01  0.00000000000E+00 0.  1.
</event>
<event>
 8    1  0.6019723E-011  0.9118800E+02  0.7816164E-02  0.1184000E+00
        -11   -1    0    0    0    0  0.00000000000E+00  0.00000000000E+00  0.45593999997E+02  0.45594000000E+02  0.51100000000E-03 0. -1.
         11   -1    0    0    0    0 -0.00000000000E+00 -0.00000000000E+00 -0.45593999997E+02  0.45594000000E+02  0.51100000000E-03 0.  1.
         23    2    1    2    0    0  0.00000000000E+00  0.17763568394E-14  0.35527136788E-14  0.91188000000E+02  0.91188000000E+02 0.  0.
    9900012    2    3    3    0    0 -0.29402597632E+02  0.65309242578E+01 -0.31248315208E+02  0.47787275092E+02  0.20000018456E+02 0.  0.
         12    1    3    3    0    0  0.29402597632E+02 -0.65309242578E+01  0.31248315208E+02  0.43400724908E+02  0.00000000000E+00 0. -1.
         11    1    4    4    0    0 -0.26773801662E+01 -0.42795102412E+01 -0.24657380650E+00  0.50540450495E+01  0.51100000000E-03 0. -1.
        -11    1    4    4    0    0 -0.14347572674E+02  0.39138246880E+01 -0.12488392880E+02  0.19419856393E+02  0.51100000000E-03 0.  1.
         12    1    4    4    0    0 -0.12377644791E+02  0.68966098110E+01 -0.18513348522E+02  0.23313373650E+02  0.00000000000E+00 0. -1.
</event>
<event>
 8    1  0.6019723E-011  0.9118800E+02  0.7816164E-02  0.1184000E+00
        -11   -1    0    0    0    0  0.00000000000E+00  0.00000000000E+00  0.45593999997E+02  0.45594000000E+02  0.51100000000E-03 0. -1.
         11   -1    0    0    0    0 -0.00000000000E+00 -0.00000000000E+00 -0.45593999997E+02  0.45594000000E+02  0.51100000000E-03 0.  1.
         23    2    1    2    0    0  0.00000000000E+00  0.35527136788E-14 -0.35527136788E-14  0.91188000000E+02  0.91188000000E+02 0.  0.
    9900012    2    3    3    0    0 -0.32453044653E+02 -0.22706689903E+02  0.17743431050E+02  0.47787271676E+02  0.20000002880E+02 0.  0.
        -12    1    3    3    0    0  0.32453044653E+02  0.22706689903E+02 -0.17743431050E+02  0.43400728324E+02  0.00000000000E+00 0.  1.
         11    1    4    4    0    0 -0.13443215096E+02 -0.16341031676E+02  0.14134197358E+02  0.25446510244E+02  0.51100000000E-03 0. -1.
        -11    1    4    4    0    0 -0.19556562846E+02 -0.58837126758E+01  0.19339834815E+01  0.20513837222E+02  0.51100000000E-03 0.  1.
        -12    1    4    4    0    0  0.54673328910E+00 -0.48194555158E+00  0.16752502100E+01  0.18269242103E+01  0.00000000000E+00 0.  1.
</event>
<event>
 8    1  0.6019723E-011  0.9118800E+02  0.7816164E-02  0.1184000E+00
        -11   -1    0    0    0    0  0.00000000000E+00  0.00000000000E+00  0.45593999997E+02  0.45594000000E+02  0.51100000000E-03 0. -1.
         11   -1    0    0    0    0 -0.00000000000E+00 -0.00000000000E+00 -0.45593999997E+02  0.45594000000E+02  0.51100000000E-03 0.  1.
         23    2    1    2    0    0  0.88817841970E-15  0.00000000000E+00 -0.71054273576E-14  0.91188000000E+02  0.91188000000E+02 0.  0.
    9900012    2    3    3    0    0  0.41652648304E+01 -0.59238397622E+01 -0.42792263357E+02  0.47787318993E+02  0.20000218615E+02 0.  0.
         12    1    3    3    0    0 -0.41652648304E+01  0.59238397622E+01  0.42792263357E+02  0.43400681007E+02  0.00000000000E+00 0. -1.
         11    1    4    4    0    0 -0.53507050797E+01 -0.32138139152E+01 -0.13325610501E+02  0.14714976732E+02  0.51100000000E-03 0. -1.
        -11    1    4    4    0    0  0.91626740373E+01  0.27327940806E+01 -0.18605925230E+02  0.20918967779E+02  0.51100000000E-03 0.  1.
         12    1    4    4    0    0  0.35329587271E+00 -0.54428199276E+01 -0.10860727626E+02  0.12153374482E+02  0.00000000000E+00 0. -1.
</event>
<event>
 8    1  0.6019723E-011  0.9118800E+02  0.7816164E-02  0.1184000E+00
        -11   -1    0    0    0    0  0.00000000000E+00  0.00000000000E+00  0.45593999997E+02  0.45594000000E+02  0.51100000000E-03 0. -1.
         11   -1    0    0    0    0 -0.00000000000E+00 -0.00000000000E+00 -0.45593999997E+02  0.45594000000E+02  0.51100000000E-03 0.  1.
         23    2    1    2    0    0  0.00000000000E+00  0.17763568394E-14  0.00000000000E+00  0.91188000000E+02  0.91188000000E+02 0.  0.
    9900012    2    3    3    0    0 -0.23775543442E+02 -0.95256491367E+01  0.35037251237E+02  0.47787269227E+02  0.19999991712E+02 0.  0.
        -12    1    3    3    0    0  0.23775543442E+02  0.95256491367E+01 -0.35037251237E+02  0.43400730773E+02  0.00000000000E+00 0.  1.
         11    1    4    4    0    0 -0.43878487511E+01 -0.11601146784E+02  0.13393685851E+02  0.18254606111E+02  0.51100000000E-03 0. -1.
        -11    1    4    4    0    0 -0.10795573929E+02  0.54176182782E+00  0.84804364557E+01  0.13738840019E+02  0.51100000000E-03 0.  1.
        -12    1    4    4    0    0 -0.85921207619E+01  0.15337358190E+01  0.13163128930E+02  0.15793823096E+02  0.00000000000E+00 0.  1.
</event>
<event>
 8    1  0.6019723E-011  0.9118800E+02  0.7816164E-02  0.1184000E+00
        -11   -1    0    0    0    0  0.00000000000E+00  0.00000000000E+00  0.45593999997E+02  0.45594000000E+02  0.51100000000E-03 0. -1.
         11   -1    0    0    0    0 -0.00000000000E+00 -0.00000000000E+00 -0.45593999997E+02  0.45594000000E+02  0.51100000000E-03 0.  1.
         23    2    1    2    0    0 -0.35527136788E-14  0.00000000000E+00  0.00000000000E+00  0.91188000000E+02  0.91188000000E+02 0.  0.
    9900012    2    3    3    0    0  0.24933025569E+02  0.90684669443E+01 -0.34347202997E+02  0.47787271775E+02  0.20000003330E+02 0.  0.
         12    1    3    3    0    0 -0.24933025569E+02 -0.90684669443E+01  0.34347202997E+02  0.43400728225E+02  0.00000000000E+00 0. -1.
         11    1    4    4    0    0  0.24182331965E+02  0.15696928965E+01 -0.29783854091E+02  0.38396967066E+02  0.51100000000E-03 0.  1.
        -11    1    4    4    0    0  0.18106638205E+01  0.62919292207E+01 -0.32194471516E+01  0.72960069224E+01  0.51100000000E-03 0. -1.
        -12    1    4    4    0    0 -0.10599702160E+01  0.12068448272E+01 -0.13439017541E+01  0.20942977870E+01  0.00000000000E+00 0.  1.
</event>
<event>
 8    1  0.6019723E-011  0.9118800E+02  0.7816164E-02  0.1184000E+00
        -11   -1    0    0    0    0  0.00000000000E+00  0.00000000000E+00  0.45593999997E+02  0.45594000000E+02  0.51100000000E-03 0. -1.
         11   -1    0    0    0    0 -0.00000000000E+00 -0.00000000000E+00 -0.45593999997E+02  0.45594000000E+02  0.51100000000E-03 0.  1.
         23    2    1    2    0    0  0.00000000000E+00 -0.71054273576E-14  0.35527136788E-14  0.91188000000E+02  0.91188000000E+02 0.  0.
    9900012    2    3    3    0    0 -0.20720267597E+02 -0.27871837541E+02  0.26027953618E+02  0.47787272048E+02  0.20000004575E+02 0.  0.
        -12    1    3    3    0    0  0.20720267597E+02  0.27871837541E+02 -0.26027953618E+02  0.43400727952E+02  0.00000000000E+00 0.  1.
         11    1    4    4    0    0 -0.66070156289E+01 -0.34451914079E+01  0.11395072674E+02  0.13615053466E+02  0.51100000000E-03 0. -1.
        -11    1    4    4    0    0 -0.74445717351E+01 -0.93892589824E+01 -0.25567654411E+00  0.11985207688E+02  0.51100000000E-03 0.  1.
        -12    1    4    4    0    0 -0.66686802335E+01 -0.15037387151E+02  0.14888557488E+02  0.22187010895E+02  0.00000000000E+00 0.  1.
</event>
<event>
 8    1  0.6019723E-011  0.9118800E+02  0.7816164E-02  0.1184000E+00
        -11   -1    0    0    0    0  0.00000000000E+00  0.00000000000E+00  0.45593999997E+02  0.45594000000E+02  0.51100000000E-03 0. -1.
         11   -1    0    0    0    0 -0.00000000000E+00 -0.00000000000E+00 -0.45593999997E+02  0.45594000000E+02  0.51100000000E-03 0.  1.
         23    2    1    2    0    0  0.00000000000E+00  0.88817841970E-15 -0.35527136788E-14  0.91188000000E+02  0.91188000000E+02 0.  0.
    9900012    2    3    3    0    0  0.30810153345E+02 -0.27700227411E+01  0.30441500707E+02  0.47787267974E+02  0.19999985999E+02 0.  0.
        -12    1    3    3    0    0 -0.30810153345E+02  0.27700227411E+01 -0.30441500707E+02  0.43400732026E+02  0.00000000000E+00 0.  1.
         11    1    4    4    0    0  0.10821949608E+02  0.22550731806E+01  0.10088615797E+01  0.11100349108E+02  0.51100000000E-03 0. -1.
        -11    1    4    4    0    0  0.14270361061E+01  0.77265525919E-02 -0.11534604290E+00  0.14317111156E+01  0.51100000000E-03 0.  1.
         12    1    4    4    0    0  0.18561167631E+02 -0.50328224743E+01  0.29547985170E+02  0.35255207750E+02  0.00000000000E+00 0. -1.
</event>
<event>
 8    1  0.6019723E-011  0.9118800E+02  0.7816164E-02  0.1184000E+00
        -11   -1    0    0    0    0  0.00000000000E+00  0.00000000000E+00  0.45593999997E+02  0.45594000000E+02  0.51100000000E-03 0.  1.
         11   -1    0    0    0    0 -0.00000000000E+00 -0.00000000000E+00 -0.45593999997E+02  0.45594000000E+02  0.51100000000E-03 0. -1.
         23    2    1    2    0    0  0.00000000000E+00  0.00000000000E+00  0.00000000000E+00  0.91188000000E+02  0.91188000000E+02 0.  0.
    9900012    2    3    3    0    0  0.30364940452E+02  0.20202663338E+02  0.23525432057E+02  0.47787272263E+02  0.20000005558E+02 0.  0.
        -12    1    3    3    0    0 -0.30364940452E+02 -0.20202663338E+02 -0.23525432057E+02  0.43400727737E+02  0.00000000000E+00 0.  1.
         11    1    4    4    0    0  0.64327838208E+01  0.93616879246E+01  0.38265250020E+01  0.11986000264E+02  0.51100000000E-03 0. -1.
        -11    1    4    4    0    0 -0.19141531777E+01  0.28931169348E+00  0.17674077871E+01  0.26213382443E+01  0.51100000000E-03 0.  1.
        -12    1    4    4    0    0  0.25846309809E+02  0.10551663720E+02  0.17931499268E+02  0.33179933755E+02  0.00000000000E+00 0.  1.
</event>
<event>
 8    1  0.6019723E-011  0.9118800E+02  0.7816164E-02  0.1184000E+00
        -11   -1    0    0    0    0  0.00000000000E+00  0.00000000000E+00  0.45593999997E+02  0.45594000000E+02  0.51100000000E-03 0. -1.
         11   -1    0    0    0    0 -0.00000000000E+00 -0.00000000000E+00 -0.45593999997E+02  0.45594000000E+02  0.51100000000E-03 0.  1.
         23    2    1    2    0    0  0.88817841970E-15 -0.88817841970E-15  0.00000000000E+00  0.91188000000E+02  0.91188000000E+02 0.  0.
    9900012    2    3    3    0    0 -0.61322971521E+01 -0.40014516660E+01  0.42778557729E+02  0.47787289347E+02  0.20000083449E+02 0.  0.
        -12    1    3    3    0    0  0.61322971521E+01  0.40014516660E+01 -0.42778557729E+02  0.43400710653E+02  0.00000000000E+00 0.  1.
         11    1    4    4    0    0 -0.46619676596E+01  0.42314232006E+01  0.21562883282E+02  0.22463232636E+02  0.51100000000E-03 0. -1.
        -11    1    4    4    0    0  0.23165860093E+01 -0.84211115246E+01  0.90326191463E+01  0.12564628882E+02  0.51100000000E-03 0.  1.
        -12    1    4    4    0    0 -0.37869155018E+01  0.18823665807E+00  0.12183055301E+02  0.12759427829E+02  0.00000000000E+00 0.  1.
</event>
<event>
 8    1  0.6019723E-011  0.9118800E+02  0.7816164E-02  0.1184000E+00
        -11   -1    0    0    0    0  0.00000000000E+00  0.00000000000E+00  0.45593999997E+02  0.45594000000E+02  0.51100000000E-03 0. -1.
         11   -1    0    0    0    0 -0.00000000000E+00 -0.00000000000E+00 -0.45593999997E+02  0.45594000000E+02  0.51100000000E-03 0.  1.
         23    2    1    2    0    0  0.00000000000E+00 -0.66613381478E-15  0.00000000000E+00  0.91188000000E+02  0.91188000000E+02 0.  0.
    9900012    2    3    3    0    0 -0.30300917346E+02 -0.82692793875E+00 -0.31061125854E+02  0.47787274878E+02  0.20000017478E+02 0.  0.
         12    1    3    3    0    0  0.30300917346E+02  0.82692793875E+00  0.31061125854E+02  0.43400725122E+02  0.00000000000E+00 0. -1.
         11    1    4    4    0    0 -0.80963629915E+01 -0.66666119645E+01 -0.86837887001E+01  0.13616276849E+02  0.51100000000E-03 0. -1.
        -11    1    4    4    0    0 -0.72255685102E+01  0.65756007635E+01 -0.42768361379E+01  0.10664834425E+02  0.51100000000E-03 0.  1.
        -12    1    4    4    0    0 -0.14978985844E+02 -0.73591673779E+00 -0.18100501016E+02  0.23506163604E+02  0.00000000000E+00 0.  1.
</event>
<event>
 8    1  0.6019723E-011  0.9118800E+02  0.7816164E-02  0.1184000E+00
        -11   -1    0    0    0    0  0.00000000000E+00  0.00000000000E+00  0.45593999997E+02  0.45594000000E+02  0.51100000000E-03 0. -1.
         11   -1    0    0    0    0 -0.00000000000E+00 -0.00000000000E+00 -0.45593999997E+02  0.45594000000E+02  0.51100000000E-03 0.  1.
         23    2    1    2    0    0 -0.35527136788E-14  0.00000000000E+00  0.00000000000E+00  0.91188000000E+02  0.91188000000E+02 0.  0.
    9900012    2    3    3    0    0 -0.26417735555E+02  0.21201553945E+02 -0.27133384499E+02  0.47787271943E+02  0.20000004096E+02 0.  0.
         12    1    3    3    0    0  0.26417735555E+02 -0.21201553945E+02  0.27133384499E+02  0.43400728057E+02  0.00000000000E+00 0. -1.
         11    1    4    4    0    0  0.56280991123E-01 -0.14346366294E+01  0.11394923596E+01  0.18329737879E+01  0.51100000000E-03 0. -1.
        -11    1    4    4    0    0 -0.22348961657E+02  0.22998961983E+02 -0.24573589976E+02  0.40401604721E+02  0.51100000000E-03 0.  1.
        -12    1    4    4    0    0 -0.41250548890E+01 -0.36277140882E+00 -0.36992868825E+01  0.55526934340E+01  0.00000000000E+00 0.  1.
</event>
<event>
 8    1  0.6019723E-011  0.9118800E+02  0.7816164E-02  0.1184000E+00
        -11   -1    0    0    0    0  0.00000000000E+00  0.00000000000E+00  0.45593999997E+02  0.45594000000E+02  0.51100000000E-03 0. -1.
         11   -1    0    0    0    0 -0.00000000000E+00 -0.00000000000E+00 -0.45593999997E+02  0.45594000000E+02  0.51100000000E-03 0.  1.
         23    2    1    2    0    0  0.00000000000E+00 -0.88817841970E-15  0.00000000000E+00  0.91188000000E+02  0.91188000000E+02 0.  0.
    9900012    2    3    3    0    0  0.41597735894E+02 -0.63220861602E+01  0.10643447815E+02  0.47787269750E+02  0.19999994096E+02 0.  0.
        -12    1    3    3    0    0 -0.41597735894E+02  0.63220861602E+01 -0.10643447815E+02  0.43400730250E+02  0.00000000000E+00 0.  1.
         11    1    4    4    0    0  0.23022579784E+02 -0.12904453512E+02  0.55313369118E+01  0.26965900479E+02  0.51100000000E-03 0. -1.
        -11    1    4    4    0    0  0.58506116166E+01  0.35103116969E+01  0.15679091853E+00  0.68246998580E+01  0.51100000000E-03 0.  1.
         12    1    4    4    0    0  0.12724544492E+02  0.30720556546E+01  0.49553199847E+01  0.13996669412E+02  0.00000000000E+00 0. -1.
</event>
<event>
 8    1  0.6019723E-011  0.9118800E+02  0.7816164E-02  0.1184000E+00
        -11   -1    0    0    0    0  0.00000000000E+00  0.00000000000E+00  0.45593999997E+02  0.45594000000E+02  0.51100000000E-03 0. -1.
         11   -1    0    0    0    0 -0.00000000000E+00 -0.00000000000E+00 -0.45593999997E+02  0.45594000000E+02  0.51100000000E-03 0.  1.
         23    2    1    2    0    0  0.00000000000E+00  0.00000000000E+00  0.35527136788E-14  0.91188000000E+02  0.91188000000E+02 0.  0.
    9900012    2    3    3    0    0  0.11495460853E+02 -0.29394174553E+02  0.29790272528E+02  0.47787268956E+02  0.19999990477E+02 0.  0.
        -12    1    3    3    0    0 -0.11495460853E+02  0.29394174553E+02 -0.29790272528E+02  0.43400731044E+02  0.00000000000E+00 0.  1.
         11    1    4    4    0    0  0.17606325781E+01 -0.77025513294E+01  0.20513816546E+02  0.21982852262E+02  0.51100000000E-03 0. -1.
        -11    1    4    4    0    0  0.45847960470E+01 -0.14681661855E+02  0.58981622812E+01  0.16473004224E+02  0.51100000000E-03 0.  1.
         12    1    4    4    0    0  0.51500322278E+01 -0.70099613689E+01  0.33782937010E+01  0.93314124692E+01  0.00000000000E+00 0. -1.
</event>
<event>
 8    1  0.6019723E-011  0.9118800E+02  0.7816164E-02  0.1184000E+00
        -11   -1    0    0    0    0  0.00000000000E+00  0.00000000000E+00  0.45593999997E+02  0.45594000000E+02  0.51100000000E-03 0. -1.
         11   -1    0    0    0    0 -0.00000000000E+00 -0.00000000000E+00 -0.45593999997E+02  0.45594000000E+02  0.51100000000E-03 0.  1.
         23    2    1    2    0    0  0.44408920985E-15  0.00000000000E+00  0.00000000000E+00  0.91188000000E+02  0.91188000000E+02 0.  0.
    9900012    2    3    3    0    0  0.22540832201E+01 -0.20214161701E+02 -0.38339666093E+02  0.47787271659E+02  0.20000002800E+02 0.  0.
         12    1    3    3    0    0 -0.22540832201E+01  0.20214161701E+02  0.38339666093E+02  0.43400728341E+02  0.00000000000E+00 0. -1.
         11    1    4    4    0    0  0.19985643907E+01 -0.20262430045E+02 -0.26278361387E+02  0.33243234024E+02  0.51100000000E-03 0.  1.
        -11    1    4    4    0    0 -0.23951976276E+01  0.32022033970E+01 -0.62747895079E+01  0.74407030515E+01  0.51100000000E-03 0. -1.
         12    1    4    4    0    0  0.26507164570E+01 -0.31539350533E+01 -0.57865151979E+01  0.71033345826E+01  0.00000000000E+00 0. -1.
</event>
<event>
 8    1  0.6019723E-011  0.9118800E+02  0.7816164E-02  0.1184000E+00
        -11   -1    0    0    0    0  0.00000000000E+00  0.00000000000E+00  0.45593999997E+02  0.45594000000E+02  0.51100000000E-03 0. -1.
         11   -1    0    0    0    0 -0.00000000000E+00 -0.00000000000E+00 -0.45593999997E+02  0.45594000000E+02  0.51100000000E-03 0.  1.
         23    2    1    2    0    0 -0.35527136788E-14  0.00000000000E+00 -0.35527136788E-14  0.91188000000E+02  0.91188000000E+02 0.  0.
    9900012    2    3    3    0    0  0.22805617385E+02  0.26550962242E+02 -0.25662710540E+02  0.47787257005E+02  0.19999935988E+02 0.  0.
         12    1    3    3    0    0 -0.22805617385E+02 -0.26550962242E+02  0.25662710540E+02  0.43400742995E+02  0.00000000000E+00 0. -1.
         11    1    4    4    0    0  0.25088614384E+01  0.65025842842E+00  0.27247715795E+01  0.37605321648E+01  0.51100000000E-03 0. -1.
        -11    1    4    4    0    0  0.28949687797E+01  0.87631738450E+01 -0.77717553454E+01  0.12065415098E+02  0.51100000000E-03 0.  1.
         12    1    4    4    0    0  0.17401787166E+02  0.17137529969E+02 -0.20615726774E+02  0.31961309742E+02  0.00000000000E+00 0. -1.
</event>
<event>
 8    1  0.6019723E-011  0.9118800E+02  0.7816164E-02  0.1184000E+00
        -11   -1    0    0    0    0  0.00000000000E+00  0.00000000000E+00  0.45593999997E+02  0.45594000000E+02  0.51100000000E-03 0. -1.
         11   -1    0    0    0    0 -0.00000000000E+00 -0.00000000000E+00 -0.45593999997E+02  0.45594000000E+02  0.51100000000E-03 0.  1.
         23    2    1    2    0    0  0.00000000000E+00  0.00000000000E+00  0.00000000000E+00  0.91188000000E+02  0.91188000000E+02 0.  0.
    9900012    2    3    3    0    0 -0.48633748653E+01 -0.26875145133E+02  0.33729785092E+02  0.47787259876E+02  0.19999949079E+02 0.  0.
        -12    1    3    3    0    0  0.48633748653E+01  0.26875145133E+02 -0.33729785092E+02  0.43400740124E+02  0.00000000000E+00 0.  1.
         11    1    4    4    0    0  0.42683921330E+01 -0.46177911529E+01  0.10284889291E+02  0.12054962237E+02  0.51100000000E-03 0. -1.
        -11    1    4    4    0    0 -0.83121063032E+01 -0.22802055964E+02  0.24361362078E+02  0.34387509796E+02  0.51100000000E-03 0.  1.
        -12    1    4    4    0    0 -0.81966069505E+00  0.54470198425E+00 -0.91646627789E+00  0.13447878439E+01  0.00000000000E+00 0.  1.
</event>
<event>
 8    1  0.6019723E-011  0.9118800E+02  0.7816164E-02  0.1184000E+00
        -11   -1    0    0    0    0  0.00000000000E+00  0.00000000000E+00  0.45593999997E+02  0.45594000000E+02  0.51100000000E-03 0. -1.
         11   -1    0    0    0    0 -0.00000000000E+00 -0.00000000000E+00 -0.45593999997E+02  0.45594000000E+02  0.51100000000E-03 0.  1.
         23    2    1    2    0    0 -0.35527136788E-14  0.00000000000E+00  0.35527136788E-14  0.91188000000E+02  0.91188000000E+02 0.  0.
    9900012    2    3    3    0    0 -0.29104133550E+02  0.16729144870E+02  0.27508332603E+02  0.47787271430E+02  0.20000001758E+02 0.  0.
        -12    1    3    3    0    0  0.29104133550E+02 -0.16729144870E+02 -0.27508332603E+02  0.43400728570E+02  0.00000000000E+00 0.  1.
         11    1    4    4    0    0 -0.13765757266E+02  0.13129757937E+02  0.19997511624E+02  0.27600490720E+02  0.51100000000E-03 0. -1.
        -11    1    4    4    0    0 -0.11508497997E+02 -0.21297320750E+01  0.59122963910E+01  0.13112457196E+02  0.51100000000E-03 0.  1.
        -12    1    4    4    0    0 -0.38298782876E+01  0.57291190086E+01  0.15985245883E+01  0.70743235134E+01  0.00000000000E+00 0.  1.
</event>
<event>
 8    1  0.6019723E-011  0.9118800E+02  0.7816164E-02  0.1184000E+00
        -11   -1    0    0    0    0  0.00000000000E+00  0.00000000000E+00  0.45593999997E+02  0.45594000000E+02  0.51100000000E-03 0. -1.
         11   -1    0    0    0    0 -0.00000000000E+00 -0.00000000000E+00 -0.45593999997E+02  0.45594000000E+02  0.51100000000E-03 0.  1.
         23    2    1    2    0    0  0.00000000000E+00  0.35527136788E-14 -0.17763568394E-14  0.91188000000E+02  0.91188000000E+02 0.  0.
    9900012    2    3    3    0    0 -0.28222511598E+02  0.29303926666E+02  0.15112681376E+02  0.47787269392E+02  0.19999992464E+02 0.  0.
        -12    1    3    3    0    0  0.28222511598E+02 -0.29303926666E+02 -0.15112681376E+02  0.43400730608E+02  0.00000000000E+00 0.  1.
         11    1    4    4    0    0 -0.19648485205E+01  0.10178615518E+02  0.81270622890E+01  0.13172470736E+02  0.51100000000E-03 0.  1.
        -11    1    4    4    0    0 -0.23810862681E+02  0.18575193078E+02  0.88733122222E+01  0.31475874087E+02  0.51100000000E-03 0. -1.
        -12    1    4    4    0    0 -0.24468003968E+01  0.55011807002E+00 -0.18876931355E+01  0.31389245685E+01  0.00000000000E+00 0.  1.
</event>
<event>
 8    1  0.6019723E-011  0.9118800E+02  0.7816164E-02  0.1184000E+00
        -11   -1    0    0    0    0  0.00000000000E+00  0.00000000000E+00  0.45593999997E+02  0.45594000000E+02  0.51100000000E-03 0. -1.
         11   -1    0    0    0    0 -0.00000000000E+00 -0.00000000000E+00 -0.45593999997E+02  0.45594000000E+02  0.51100000000E-03 0.  1.
         23    2    1    2    0    0  0.88817841970E-15  0.00000000000E+00  0.00000000000E+00  0.91188000000E+02  0.91188000000E+02 0.  0.
    9900012    2    3    3    0    0  0.45394662559E+01  0.24071237392E+02 -0.35827249474E+02  0.47787273873E+02  0.20000012898E+02 0.  0.
         12    1    3    3    0    0 -0.45394662559E+01 -0.24071237392E+02  0.35827249474E+02  0.43400726127E+02  0.00000000000E+00 0. -1.
         11    1    4    4    0    0  0.47537694300E+01  0.17163670683E+02 -0.89454721809E+01  0.19930162767E+02  0.51100000000E-03 0. -1.
        -11    1    4    4    0    0 -0.86730816999E+00  0.64455161840E+01 -0.23670310790E+02  0.24547515465E+02  0.51100000000E-03 0.  1.
         12    1    4    4    0    0  0.65300499591E+00  0.46205052456E+00 -0.32114665031E+01  0.33095956418E+01  0.00000000000E+00 0. -1.
</event>
<event>
 8    1  0.6019723E-011  0.9118800E+02  0.7816164E-02  0.1184000E+00
        -11   -1    0    0    0    0  0.00000000000E+00  0.00000000000E+00  0.45593999997E+02  0.45594000000E+02  0.51100000000E-03 0. -1.
         11   -1    0    0    0    0 -0.00000000000E+00 -0.00000000000E+00 -0.45593999997E+02  0.45594000000E+02  0.51100000000E-03 0.  1.
         23    2    1    2    0    0  0.71054273576E-14  0.00000000000E+00  0.00000000000E+00  0.91188000000E+02  0.91188000000E+02 0.  0.
    9900012    2    3    3    0    0  0.39939428889E+02 -0.16947840088E+02  0.11123015704E+01  0.47787257167E+02  0.19999936728E+02 0.  0.
        -12    1    3    3    0    0 -0.39939428889E+02  0.16947840088E+02 -0.11123015704E+01  0.43400742833E+02  0.00000000000E+00 0.  1.
         11    1    4    4    0    0  0.19714777983E+02 -0.17341201177E+02 -0.41756171157E+00  0.26259552304E+02  0.51100000000E-03 0. -1.
        -11    1    4    4    0    0  0.47901364248E+01  0.18299562809E+01 -0.22067707798E+01  0.55824711817E+01  0.51100000000E-03 0.  1.
         12    1    4    4    0    0  0.15434514482E+02 -0.14365951918E+01  0.37366340618E+01  0.15945233681E+02  0.00000000000E+00 0. -1.
</event>
<event>
 8    1  0.6019723E-011  0.9118800E+02  0.7816164E-02  0.1184000E+00
        -11   -1    0    0    0    0  0.00000000000E+00  0.00000000000E+00  0.45593999997E+02  0.45594000000E+02  0.51100000000E-03 0. -1.
         11   -1    0    0    0    0 -0.00000000000E+00 -0.00000000000E+00 -0.45593999997E+02  0.45594000000E+02  0.51100000000E-03 0.  1.
         23    2    1    2    0    0  0.00000000000E+00  0.35527136788E-14 -0.35527136788E-14  0.91188000000E+02  0.91188000000E+02 0.  0.
    9900012    2    3    3    0    0 -0.37422289100E+02  0.18131278994E+02 -0.12427877524E+02  0.47787272596E+02  0.20000007076E+02 0.  0.
         12    1    3    3    0    0  0.37422289100E+02 -0.18131278994E+02  0.12427877524E+02  0.43400727404E+02  0.00000000000E+00 0. -1.
         11    1    4    4    0    0 -0.21919110915E+02  0.96882634285E+01 -0.98431509607E+01  0.25907479474E+02  0.51100000000E-03 0.  1.
        -11    1    4    4    0    0 -0.48344247437E+01 -0.50996628589E+00  0.41662236298E+01  0.64022767677E+01  0.51100000000E-03 0. -1.
        -12    1    4    4    0    0 -0.10668753441E+02  0.89529818516E+01 -0.67509501931E+01  0.15477516355E+02  0.00000000000E+00 0.  1.
</event>
<event>
 8    1  0.6019723E-011  0.9118800E+02  0.7816164E-02  0.1184000E+00
        -11   -1    0    0    0    0  0.00000000000E+00  0.00000000000E+00  0.45593999997E+02  0.45594000000E+02  0.51100000000E-03 0. -1.
         11   -1    0    0    0    0 -0.00000000000E+00 -0.00000000000E+00 -0.45593999997E+02  0.45594000000E+02  0.51100000000E-03 0.  1.
         23    2    1    2    0    0  0.00000000000E+00 -0.71054273576E-14  0.17763568394E-14  0.91188000000E+02  0.91188000000E+02 0.  0.
    9900012    2    3    3    0    0 -0.26096276148E+01  0.41570119067E+02 -0.12195824443E+02  0.47787273170E+02  0.20000009691E+02 0.  0.
         12    1    3    3    0    0  0.26096276148E+01 -0.41570119067E+02  0.12195824443E+02  0.43400726830E+02  0.00000000000E+00 0. -1.
         11    1    4    4    0    0  0.40101664964E+01  0.14201307682E+02  0.37831668845E+01  0.15233874331E+02  0.51100000000E-03 0. -1.
        -11    1    4    4    0    0 -0.80370342492E+00  0.65957615637E+01 -0.24063002441E+01  0.70668444815E+01  0.51100000000E-03 0.  1.
         12    1    4    4    0    0 -0.58160906862E+01  0.20773049822E+02 -0.13572691084E+02  0.25486554357E+02  0.00000000000E+00 0. -1.
</event>
<event>
 8    1  0.6019723E-011  0.9118800E+02  0.7816164E-02  0.1184000E+00
        -11   -1    0    0    0    0  0.00000000000E+00  0.00000000000E+00  0.45593999997E+02  0.45594000000E+02  0.51100000000E-03 0. -1.
         11   -1    0    0    0    0 -0.00000000000E+00 -0.00000000000E+00 -0.45593999997E+02  0.45594000000E+02  0.51100000000E-03 0.  1.
         23    2    1    2    0    0 -0.35527136788E-14 -0.88817841970E-15  0.00000000000E+00  0.91188000000E+02  0.91188000000E+02 0.  0.
    9900012    2    3    3    0    0  0.28162790354E+02  0.56638621641E+01  0.32533045465E+02  0.47787295600E+02  0.20000111960E+02 0.  0.
        -12    1    3    3    0    0 -0.28162790354E+02 -0.56638621641E+01 -0.32533045465E+02  0.43400704400E+02  0.00000000000E+00 0.  1.
         11    1    4    4    0    0  0.19105095832E+02  0.44957473804E+01  0.13910798644E+02  0.24056740229E+02  0.51100000000E-03 0. -1.
        -11    1    4    4    0    0  0.57872051314E+01 -0.34347620839E+01  0.16282660570E+02  0.17618580229E+02  0.51100000000E-03 0.  1.
         12    1    4    4    0    0  0.32704893903E+01  0.46028768676E+01  0.23395862516E+01  0.61119751422E+01  0.00000000000E+00 0. -1.
</event>
<event>
 8    1  0.6019723E-011  0.9118800E+02  0.7816164E-02  0.1184000E+00
        -11   -1    0    0    0    0  0.00000000000E+00  0.00000000000E+00  0.45593999997E+02  0.45594000000E+02  0.51100000000E-03 0. -1.
         11   -1    0    0    0    0 -0.00000000000E+00 -0.00000000000E+00 -0.45593999997E+02  0.45594000000E+02  0.51100000000E-03 0.  1.
         23    2    1    2    0    0  0.00000000000E+00 -0.35527136788E-14 -0.71054273576E-14  0.91188000000E+02  0.91188000000E+02 0.  0.
    9900012    2    3    3    0    0  0.55426076223E+01  0.29196868689E+02  0.31629821724E+02  0.47787271172E+02  0.20000000583E+02 0.  0.
        -12    1    3    3    0    0 -0.55426076223E+01 -0.29196868689E+02 -0.31629821724E+02  0.43400728828E+02  0.00000000000E+00 0.  1.
         11    1    4    4    0    0  0.60015937579E+01  0.18441840983E+02  0.16060536188E+02  0.25180576827E+02  0.51100000000E-03 0. -1.
        -11    1    4    4    0    0 -0.49935883061E+01  0.17533117484E+01  0.94048301412E+01  0.10791703133E+02  0.51100000000E-03 0.  1.
        -12    1    4    4    0    0  0.45346021705E+01  0.90017159578E+01  0.61644553951E+01  0.11814991212E+02  0.00000000000E+00 0.  1.
</event>
<event>
 8    1  0.6019723E-011  0.9118800E+02  0.7816164E-02  0.1184000E+00
        -11   -1    0    0    0    0  0.00000000000E+00  0.00000000000E+00  0.45593999997E+02  0.45594000000E+02  0.51100000000E-03 0. -1.
         11   -1    0    0    0    0 -0.00000000000E+00 -0.00000000000E+00 -0.45593999997E+02  0.45594000000E+02  0.51100000000E-03 0.  1.
         23    2    1    2    0    0  0.10658141036E-13  0.00000000000E+00 -0.17763568394E-14  0.91188000000E+02  0.91188000000E+02 0.  0.
    9900012    2    3    3    0    0 -0.25059863076E+02  0.34880454817E+02  0.62434319011E+01  0.47787270657E+02  0.19999998233E+02 0.  0.
        -12    1    3    3    0    0  0.25059863076E+02 -0.34880454817E+02 -0.62434319011E+01  0.43400729343E+02  0.00000000000E+00 0.  1.
         11    1    4    4    0    0 -0.23026178221E+02  0.31332704567E+02  0.29945319839E+01  0.38998852304E+02  0.51100000000E-03 0. -1.
        -11    1    4    4    0    0  0.58688986424E+00 -0.17809843735E+01 -0.25660345606E+00  0.18926676005E+01  0.51100000000E-03 0.  1.
        -12    1    4    4    0    0 -0.26205747189E+01  0.53287346230E+01  0.35055033732E+01  0.68957507524E+01  0.00000000000E+00 0.  1.
</event>
<event>
 8    1  0.6019723E-011  0.9118800E+02  0.7816164E-02  0.1184000E+00
        -11   -1    0    0    0    0  0.00000000000E+00  0.00000000000E+00  0.45593999997E+02  0.45594000000E+02  0.51100000000E-03 0.  1.
         11   -1    0    0    0    0 -0.00000000000E+00 -0.00000000000E+00 -0.45593999997E+02  0.45594000000E+02  0.51100000000E-03 0. -1.
         23    2    1    2    0    0  0.00000000000E+00  0.00000000000E+00 -0.71054273576E-14  0.91188000000E+02  0.91188000000E+02 0.  0.
    9900012    2    3    3    0    0 -0.32162271925E+02  0.13261735653E+02 -0.25948732535E+02  0.47787284705E+02  0.20000062286E+02 0.  0.
         12    1    3    3    0    0  0.32162271925E+02 -0.13261735653E+02  0.25948732535E+02  0.43400715295E+02  0.00000000000E+00 0. -1.
         11    1    4    4    0    0 -0.16855201432E+02  0.66036883489E+01 -0.17668910646E+02  0.25296183878E+02  0.51100000000E-03 0.  1.
        -11    1    4    4    0    0  0.16801932650E+01 -0.12175594721E+01 -0.15671888381E+00  0.20808799931E+01  0.51100000000E-03 0. -1.
        -12    1    4    4    0    0 -0.16987263758E+02  0.78756067762E+01 -0.81231030059E+01  0.20410220835E+02  0.00000000000E+00 0.  1.
</event>
<event>
 8    1  0.6019723E-011  0.9118800E+02  0.7816164E-02  0.1184000E+00
        -11   -1    0    0    0    0  0.00000000000E+00  0.00000000000E+00  0.45593999997E+02  0.45594000000E+02  0.51100000000E-03 0. -1.
         11   -1    0    0    0    0 -0.00000000000E+00 -0.00000000000E+00 -0.45593999997E+02  0.45594000000E+02  0.51100000000E-03 0.  1.
         23    2    1    2    0    0  0.44408920985E-15  0.35527136788E-14  0.00000000000E+00  0.91188000000E+02  0.91188000000E+02 0.  0.
    9900012    2    3    3    0    0 -0.16549739290E+01  0.23237918559E+02 -0.36618089648E+02  0.47787259372E+02  0.19999946779E+02 0.  0.
         12    1    3    3    0    0  0.16549739290E+01 -0.23237918559E+02  0.36618089648E+02  0.43400740628E+02  0.00000000000E+00 0. -1.
         11    1    4    4    0    0  0.35932261388E+01  0.79205138423E+01 -0.22423196867E+02  0.24050895443E+02  0.51100000000E-03 0. -1.
        -11    1    4    4    0    0  0.23779719483E+01  0.66111026839E+01 -0.78590125896E+01  0.10541608437E+02  0.51100000000E-03 0.  1.
         12    1    4    4    0    0 -0.76261720161E+01  0.87063020323E+01 -0.63358801911E+01  0.13194755492E+02  0.00000000000E+00 0. -1.
</event>
<event>
 8    1  0.6019723E-011  0.9118800E+02  0.7816164E-02  0.1184000E+00
        -11   -1    0    0    0    0  0.00000000000E+00  0.00000000000E+00  0.45593999997E+02  0.45594000000E+02  0.51100000000E-03 0. -1.
         11   -1    0    0    0    0 -0.00000000000E+00 -0.00000000000E+00 -0.45593999997E+02  0.45594000000E+02  0.51100000000E-03 0.  1.
         23    2    1    2    0    0  0.44408920985E-15  0.00000000000E+00  0.00000000000E+00  0.91188000000E+02  0.91188000000E+02 0.  0.
    9900012    2    3    3    0    0  0.19289477578E+01  0.90633592862E+01 -0.42399977722E+02  0.47787269225E+02  0.19999991703E+02 0.  0.
         12    1    3    3    0    0 -0.19289477578E+01 -0.90633592862E+01  0.42399977722E+02  0.43400730775E+02  0.00000000000E+00 0. -1.
         11    1    4    4    0    0 -0.12495407220E+01  0.13240831356E+02 -0.29184662124E+02  0.32072191546E+02  0.51100000000E-03 0.  1.
        -11    1    4    4    0    0  0.44133419201E+01 -0.99237335251E+00 -0.10201967905E+02  0.11159862955E+02  0.51100000000E-03 0. -1.
         12    1    4    4    0    0 -0.12348534403E+01 -0.31850987175E+01 -0.30133476924E+01  0.45552147232E+01  0.00000000000E+00 0. -1.
</event>
<event>
 8    1  0.6019723E-011  0.9118800E+02  0.7816164E-02  0.1184000E+00
        -11   -1    0    0    0    0  0.00000000000E+00  0.00000000000E+00  0.45593999997E+02  0.45594000000E+02  0.51100000000E-03 0. -1.
         11   -1    0    0    0    0 -0.00000000000E+00 -0.00000000000E+00 -0.45593999997E+02  0.45594000000E+02  0.51100000000E-03 0.  1.
         23    2    1    2    0    0  0.00000000000E+00  0.00000000000E+00  0.35527136788E-14  0.91188000000E+02  0.91188000000E+02 0.  0.
    9900012    2    3    3    0    0 -0.69016919949E+01 -0.37283841804E+02 -0.21116419783E+02  0.47787292673E+02  0.20000098614E+02 0.  0.
         12    1    3    3    0    0  0.69016919949E+01  0.37283841804E+02  0.21116419783E+02  0.43400707327E+02  0.00000000000E+00 0. -1.
         11    1    4    4    0    0 -0.39288794300E+01  0.29987184844E+00 -0.90292269232E+00  0.40424356953E+01  0.51100000000E-03 0. -1.
        -11    1    4    4    0    0 -0.44410357839E+01 -0.24162240892E+02 -0.88984261047E+01  0.26128885762E+02  0.51100000000E-03 0.  1.
         12    1    4    4    0    0  0.14682232191E+01 -0.13421472760E+02 -0.11315070986E+02  0.17615971216E+02  0.00000000000E+00 0. -1.
</event>
<event>
 8    1  0.6019723E-011  0.9118800E+02  0.7816164E-02  0.1184000E+00
        -11   -1    0    0    0    0  0.00000000000E+00  0.00000000000E+00  0.45593999997E+02  0.45594000000E+02  0.51100000000E-03 0. -1.
         11   -1    0    0    0    0 -0.00000000000E+00 -0.00000000000E+00 -0.45593999997E+02  0.45594000000E+02  0.51100000000E-03 0.  1.
         23    2    1    2    0    0  0.00000000000E+00 -0.17763568394E-14  0.00000000000E+00  0.91188000000E+02  0.91188000000E+02 0.  0.
    9900012    2    3    3    0    0  0.10046387681E+02  0.84154034771E+01  0.41374801487E+02  0.47787272826E+02  0.20000008122E+02 0.  0.
        -12    1    3    3    0    0 -0.10046387681E+02 -0.84154034771E+01 -0.41374801487E+02  0.43400727174E+02  0.00000000000E+00 0.  1.
         11    1    4    4    0    0  0.61563769389E+01  0.91533256507E+01  0.96189963375E+01  0.14635895541E+02  0.51100000000E-03 0. -1.
        -11    1    4    4    0    0  0.23349189828E+01 -0.13789804637E+01  0.20535775554E+01  0.34015606436E+01  0.51100000000E-03 0.  1.
         12    1    4    4    0    0  0.15550917591E+01  0.64105829008E+00  0.29702227595E+02  0.29749816641E+02  0.00000000000E+00 0. -1.
</event>
<event>
 8    1  0.6019723E-011  0.9118800E+02  0.7816164E-02  0.1184000E+00
        -11   -1    0    0    0    0  0.00000000000E+00  0.00000000000E+00  0.45593999997E+02  0.45594000000E+02  0.51100000000E-03 0. -1.
         11   -1    0    0    0    0 -0.00000000000E+00 -0.00000000000E+00 -0.45593999997E+02  0.45594000000E+02  0.51100000000E-03 0.  1.
         23    2    1    2    0    0 -0.88817841970E-15  0.35527136788E-14 -0.71054273576E-14  0.91188000000E+02  0.91188000000E+02 0.  0.
    9900012    2    3    3    0    0 -0.16923528154E+01  0.24630419864E+02 -0.35694551418E+02  0.47787278328E+02  0.20000033211E+02 0.  0.
         12    1    3    3    0    0  0.16923528154E+01 -0.24630419864E+02  0.35694551418E+02  0.43400721672E+02  0.00000000000E+00 0. -1.
         11    1    4    4    0    0 -0.32017037383E+01  0.62821430867E+01 -0.13488468093E+01  0.71788311420E+01  0.51100000000E-03 0. -1.
        -11    1    4    4    0    0  0.78767152011E+00  0.17349551330E+02 -0.35101436633E+02  0.39162969904E+02  0.51100000000E-03 0.  1.
        -12    1    4    4    0    0  0.72167940276E+00  0.99872544721E+00  0.75573202490E+00  0.14454772820E+01  0.00000000000E+00 0.  1.
</event>
<event>
 8    1  0.6019723E-011  0.9118800E+02  0.7816164E-02  0.1184000E+00
        -11   -1    0    0    0    0  0.00000000000E+00  0.00000000000E+00  0.45593999997E+02  0.45594000000E+02  0.51100000000E-03 0. -1.
         11   -1    0    0    0    0 -0.00000000000E+00 -0.00000000000E+00 -0.45593999997E+02  0.45594000000E+02  0.51100000000E-03 0.  1.
         23    2    1    2    0    0  0.35527136788E-14  0.00000000000E+00 -0.35527136788E-14  0.91188000000E+02  0.91188000000E+02 0.  0.
    9900012    2    3    3    0    0 -0.21824571315E+02 -0.35572562762E+02  0.11912362250E+02  0.47787268337E+02  0.19999987654E+02 0.  0.
        -12    1    3    3    0    0  0.21824571315E+02  0.35572562762E+02 -0.11912362250E+02  0.43400731663E+02  0.00000000000E+00 0.  1.
         11    1    4    4    0    0 -0.18327113575E+02 -0.30519591684E+02  0.38937988789E+01  0.35811872871E+02  0.51100000000E-03 0. -1.
        -11    1    4    4    0    0 -0.32506176903E+00 -0.53737165070E+01  0.65109636600E+01  0.84483810458E+01  0.51100000000E-03 0.  1.
         12    1    4    4    0    0 -0.31723959710E+01  0.32074542914E+00  0.15075997114E+01  0.35270144197E+01  0.00000000000E+00 0. -1.
</event>
<event>
 8    1  0.6019723E-011  0.9118800E+02  0.7816164E-02  0.1184000E+00
        -11   -1    0    0    0    0  0.00000000000E+00  0.00000000000E+00  0.45593999997E+02  0.45594000000E+02  0.51100000000E-03 0. -1.
         11   -1    0    0    0    0 -0.00000000000E+00 -0.00000000000E+00 -0.45593999997E+02  0.45594000000E+02  0.51100000000E-03 0.  1.
         23    2    1    2    0    0  0.00000000000E+00  0.00000000000E+00 -0.24980018054E-15  0.91188000000E+02  0.91188000000E+02 0.  0.
    9900012    2    3    3    0    0 -0.16935715272E+02  0.39959669832E+02 -0.17216908866E+00  0.47787270663E+02  0.19999998259E+02 0.  0.
        -12    1    3    3    0    0  0.16935715272E+02 -0.39959669832E+02  0.17216908866E+00  0.43400729337E+02  0.00000000000E+00 0.  1.
         11    1    4    4    0    0 -0.56105900208E+01  0.22379966870E+02 -0.78351961936E+01  0.24366615217E+02  0.51100000000E-03 0. -1.
        -11    1    4    4    0    0 -0.33951837151E+01  0.10883708755E+02  0.60828698071E+01  0.12922217073E+02  0.51100000000E-03 0.  1.
        -12    1    4    4    0    0 -0.79299415363E+01  0.66959942065E+01  0.15801572978E+01  0.10498438373E+02  0.00000000000E+00 0.  1.
</event>
<event>
 8    1  0.6019723E-011  0.9118800E+02  0.7816164E-02  0.1184000E+00
        -11   -1    0    0    0    0  0.00000000000E+00  0.00000000000E+00  0.45593999997E+02  0.45594000000E+02  0.51100000000E-03 0.  1.
         11   -1    0    0    0    0 -0.00000000000E+00 -0.00000000000E+00 -0.45593999997E+02  0.45594000000E+02  0.51100000000E-03 0. -1.
         23    2    1    2    0    0 -0.88817841970E-15  0.00000000000E+00 -0.35527136788E-14  0.91188000000E+02  0.91188000000E+02 0.  0.
    9900012    2    3    3    0    0  0.43362737776E+01  0.34913384086E+02 -0.25414082654E+02  0.47787271253E+02  0.20000000952E+02 0.  0.
         12    1    3    3    0    0 -0.43362737776E+01 -0.34913384086E+02  0.25414082654E+02  0.43400728747E+02  0.00000000000E+00 0. -1.
         11    1    4    4    0    0  0.32828248400E+01  0.49370510580E+01 -0.62370879222E+01  0.86053865741E+01  0.51100000000E-03 0.  1.
        -11    1    4    4    0    0  0.57217288118E+01  0.15682069491E+02 -0.27615899492E+01  0.16920161448E+02  0.51100000000E-03 0. -1.
        -12    1    4    4    0    0 -0.46682798742E+01  0.14294263537E+02 -0.16415404783E+02  0.22261723232E+02  0.00000000000E+00 0.  1.
</event>
<event>
 8    1  0.6019723E-011  0.9118800E+02  0.7816164E-02  0.1184000E+00
        -11   -1    0    0    0    0  0.00000000000E+00  0.00000000000E+00  0.45593999997E+02  0.45594000000E+02  0.51100000000E-03 0. -1.
         11   -1    0    0    0    0 -0.00000000000E+00 -0.00000000000E+00 -0.45593999997E+02  0.45594000000E+02  0.51100000000E-03 0.  1.
         23    2    1    2    0    0  0.35527136788E-14 -0.88817841970E-15 -0.71054273576E-14  0.91188000000E+02  0.91188000000E+02 0.  0.
    9900012    2    3    3    0    0  0.25356242201E+02  0.28192335359E+01  0.35110345526E+02  0.47787268909E+02  0.19999990263E+02 0.  0.
        -12    1    3    3    0    0 -0.25356242201E+02 -0.28192335359E+01 -0.35110345526E+02  0.43400731091E+02  0.00000000000E+00 0.  1.
         11    1    4    4    0    0 -0.18199616549E+01 -0.79100438714E+00 -0.66324953057E+00  0.20923308932E+01  0.51100000000E-03 0.  1.
        -11    1    4    4    0    0  0.46726427018E+01  0.21210651050E+01  0.31050724665E+01  0.59978314649E+01  0.51100000000E-03 0. -1.
         12    1    4    4    0    0  0.22503561154E+02  0.14891728181E+01  0.32668522590E+02  0.39697106551E+02  0.00000000000E+00 0. -1.
</event>
<event>
 8    1  0.6019723E-011  0.9118800E+02  0.7816164E-02  0.1184000E+00
        -11   -1    0    0    0    0  0.00000000000E+00  0.00000000000E+00  0.45593999997E+02  0.45594000000E+02  0.51100000000E-03 0. -1.
         11   -1    0    0    0    0 -0.00000000000E+00 -0.00000000000E+00 -0.45593999997E+02  0.45594000000E+02  0.51100000000E-03 0.  1.
         23    2    1    2    0    0  0.00000000000E+00  0.35527136788E-14 -0.71054273576E-14  0.91188000000E+02  0.91188000000E+02 0.  0.
    9900012    2    3    3    0    0  0.88523785521E+00 -0.24088332920E+02  0.36091438132E+02  0.47787270336E+02  0.19999996770E+02 0.  0.
        -12    1    3    3    0    0 -0.88523785521E+00  0.24088332920E+02 -0.36091438132E+02  0.43400729664E+02  0.00000000000E+00 0.  1.
         11    1    4    4    0    0  0.24120037261E+01 -0.17129747264E+02  0.22820579671E+02  0.28636076199E+02  0.51100000000E-03 0. -1.
        -11    1    4    4    0    0 -0.63770369728E+01 -0.49542816340E+01  0.54860110470E+01  0.97625726390E+01  0.51100000000E-03 0.  1.
        -12    1    4    4    0    0  0.48502711019E+01 -0.20043040223E+01  0.77848474135E+01  0.93886214977E+01  0.00000000000E+00 0.  1.
</event>
<event>
 8    1  0.6019723E-011  0.9118800E+02  0.7816164E-02  0.1184000E+00
        -11   -1    0    0    0    0  0.00000000000E+00  0.00000000000E+00  0.45593999997E+02  0.45594000000E+02  0.51100000000E-03 0. -1.
         11   -1    0    0    0    0 -0.00000000000E+00 -0.00000000000E+00 -0.45593999997E+02  0.45594000000E+02  0.51100000000E-03 0.  1.
         23    2    1    2    0    0  0.17763568394E-14  0.22204460493E-15  0.00000000000E+00  0.91188000000E+02  0.91188000000E+02 0.  0.
    9900012    2    3    3    0    0 -0.12163291474E+02 -0.13341214715E+01  0.41640095366E+02  0.47787273259E+02  0.20000010097E+02 0.  0.
        -12    1    3    3    0    0  0.12163291474E+02  0.13341214715E+01 -0.41640095366E+02  0.43400726741E+02  0.00000000000E+00 0.  1.
         11    1    4    4    0    0 -0.63490973015E+00 -0.34500960787E+01  0.16549592518E+02  0.16917307294E+02  0.51100000000E-03 0. -1.
        -11    1    4    4    0    0 -0.51170406146E+01  0.13362454715E+01  0.34984817157E+00  0.53001934508E+01  0.51100000000E-03 0.  1.
        -12    1    4    4    0    0 -0.64113411293E+01  0.77972913572E+00  0.24740654676E+02  0.25569772514E+02  0.00000000000E+00 0.  1.
</event>
<event>
 8    1  0.6019723E-011  0.9118800E+02  0.7816164E-02  0.1184000E+00
        -11   -1    0    0    0    0  0.00000000000E+00  0.00000000000E+00  0.45593999997E+02  0.45594000000E+02  0.51100000000E-03 0. -1.
         11   -1    0    0    0    0 -0.00000000000E+00 -0.00000000000E+00 -0.45593999997E+02  0.45594000000E+02  0.51100000000E-03 0.  1.
         23    2    1    2    0    0  0.17763568394E-14  0.00000000000E+00  0.71054273576E-14  0.91188000000E+02  0.91188000000E+02 0.  0.
    9900012    2    3    3    0    0 -0.12756048552E+02 -0.16597850910E+02  0.38018648216E+02  0.47787273720E+02  0.20000012199E+02 0.  0.
        -12    1    3    3    0    0  0.12756048552E+02  0.16597850910E+02 -0.38018648216E+02  0.43400726280E+02  0.00000000000E+00 0.  1.
         11    1    4    4    0    0 -0.93594239695E+01 -0.94002302319E+01  0.24276404374E+02  0.27664181807E+02  0.51100000000E-03 0. -1.
        -11    1    4    4    0    0 -0.17684669958E+01  0.31065897715E+01  0.11161659464E+01  0.37448901459E+01  0.51100000000E-03 0.  1.
        -12    1    4    4    0    0 -0.16281575862E+01 -0.10304210450E+02  0.12626077895E+02  0.16378201767E+02  0.00000000000E+00 0.  1.
</event>
<event>
 8    1  0.6019723E-011  0.9118800E+02  0.7816164E-02  0.1184000E+00
        -11   -1    0    0    0    0  0.00000000000E+00  0.00000000000E+00  0.45593999997E+02  0.45594000000E+02  0.51100000000E-03 0. -1.
         11   -1    0    0    0    0 -0.00000000000E+00 -0.00000000000E+00 -0.45593999997E+02  0.45594000000E+02  0.51100000000E-03 0.  1.
         23    2    1    2    0    0  0.00000000000E+00 -0.17763568394E-14 -0.71054273576E-14  0.91188000000E+02  0.91188000000E+02 0.  0.
    9900012    2    3    3    0    0 -0.21059576617E+02 -0.15259250965E+02 -0.34745831418E+02  0.47787270648E+02  0.19999998194E+02 0.  0.
         12    1    3    3    0    0  0.21059576617E+02  0.15259250965E+02  0.34745831418E+02  0.43400729352E+02  0.00000000000E+00 0. -1.
         11    1    4    4    0    0 -0.36331744408E+01  0.52904761513E+00  0.16090668558E+01  0.40086087741E+01  0.51100000000E-03 0. -1.
        -11    1    4    4    0    0 -0.17167628913E+02 -0.16345849579E+02 -0.34797945965E+02  0.42104766055E+02  0.51100000000E-03 0.  1.
         12    1    4    4    0    0 -0.25877326392E+00  0.55755099912E+00 -0.15569523093E+01  0.16738958188E+01  0.00000000000E+00 0. -1.
</event>
<event>
 8    1  0.6019723E-011  0.9118800E+02  0.7816164E-02  0.1184000E+00
        -11   -1    0    0    0    0  0.00000000000E+00  0.00000000000E+00  0.45593999997E+02  0.45594000000E+02  0.51100000000E-03 0. -1.
         11   -1    0    0    0    0 -0.00000000000E+00 -0.00000000000E+00 -0.45593999997E+02  0.45594000000E+02  0.51100000000E-03 0.  1.
         23    2    1    2    0    0  0.00000000000E+00  0.35527136788E-14 -0.35527136788E-14  0.91188000000E+02  0.91188000000E+02 0.  0.
    9900012    2    3    3    0    0  0.21483319871E+02 -0.25073595306E+02  0.28167448523E+02  0.47787269931E+02  0.19999994922E+02 0.  0.
        -12    1    3    3    0    0 -0.21483319871E+02  0.25073595306E+02 -0.28167448523E+02  0.43400730069E+02  0.00000000000E+00 0.  1.
         11    1    4    4    0    0  0.17764141106E+02 -0.14352451177E+02  0.19850608699E+02  0.30258952890E+02  0.51100000000E-03 0. -1.
        -11    1    4    4    0    0 -0.13916717214E+01 -0.66288813747E+00 -0.18032234963E+01  0.23722955342E+01  0.51100000000E-03 0.  1.
        -12    1    4    4    0    0  0.51108504864E+01 -0.10058255992E+02  0.10120063320E+02  0.15156021506E+02  0.00000000000E+00 0.  1.
</event>
<event>
 8    1  0.6019723E-011  0.9118800E+02  0.7816164E-02  0.1184000E+00
        -11   -1    0    0    0    0  0.00000000000E+00  0.00000000000E+00  0.45593999997E+02  0.45594000000E+02  0.51100000000E-03 0. -1.
         11   -1    0    0    0    0 -0.00000000000E+00 -0.00000000000E+00 -0.45593999997E+02  0.45594000000E+02  0.51100000000E-03 0.  1.
         23    2    1    2    0    0  0.00000000000E+00  0.35527136788E-14  0.00000000000E+00  0.91188000000E+02  0.91188000000E+02 0.  0.
    9900012    2    3    3    0    0 -0.26392988510E+02 -0.86555726836E+01 -0.33348375182E+02  0.47787275257E+02  0.20000019206E+02 0.  0.
         12    1    3    3    0    0  0.26392988510E+02  0.86555726836E+01  0.33348375182E+02  0.43400724743E+02  0.00000000000E+00 0. -1.
         11    1    4    4    0    0 -0.29865208818E+01 -0.63982027921E+00 -0.12029488953E+01  0.32826457733E+01  0.51100000000E-03 0. -1.
        -11    1    4    4    0    0 -0.82556178634E+01  0.57606322767E+01 -0.13256317896E+02  0.16645422042E+02  0.51100000000E-03 0.  1.
        -12    1    4    4    0    0 -0.15150849765E+02 -0.13776384681E+02 -0.18889108390E+02  0.27859207441E+02  0.00000000000E+00 0.  1.
</event>
<event>
 8    1  0.6019723E-011  0.9118800E+02  0.7816164E-02  0.1184000E+00
        -11   -1    0    0    0    0  0.00000000000E+00  0.00000000000E+00  0.45593999997E+02  0.45594000000E+02  0.51100000000E-03 0. -1.
         11   -1    0    0    0    0 -0.00000000000E+00 -0.00000000000E+00 -0.45593999997E+02  0.45594000000E+02  0.51100000000E-03 0.  1.
         23    2    1    2    0    0  0.00000000000E+00  0.00000000000E+00  0.35527136788E-14  0.91188000000E+02  0.91188000000E+02 0.  0.
    9900012    2    3    3    0    0  0.42080211575E+01  0.33244195597E+02 -0.27581504692E+02  0.47787269776E+02  0.19999994215E+02 0.  0.
         12    1    3    3    0    0 -0.42080211575E+01 -0.33244195597E+02  0.27581504692E+02  0.43400730224E+02  0.00000000000E+00 0. -1.
         11    1    4    4    0    0  0.64272589988E+01  0.26053652093E+01 -0.77170433031E+01  0.10375468361E+02  0.51100000000E-03 0. -1.
        -11    1    4    4    0    0 -0.14469841821E+00  0.29102393243E+02 -0.18583342019E+02  0.34529854199E+02  0.51100000000E-03 0.  1.
         12    1    4    4    0    0 -0.20745394231E+01  0.15364371441E+01 -0.12811193697E+01  0.28819472159E+01  0.00000000000E+00 0. -1.
</event>
<event>
 8    1  0.6019723E-011  0.9118800E+02  0.7816164E-02  0.1184000E+00
        -11   -1    0    0    0    0  0.00000000000E+00  0.00000000000E+00  0.45593999997E+02  0.45594000000E+02  0.51100000000E-03 0. -1.
         11   -1    0    0    0    0 -0.00000000000E+00 -0.00000000000E+00 -0.45593999997E+02  0.45594000000E+02  0.51100000000E-03 0.  1.
         23    2    1    2    0    0  0.44408920985E-15 -0.17763568394E-14 -0.71054273576E-14  0.91188000000E+02  0.91188000000E+02 0.  0.
    9900012    2    3    3    0    0  0.39755866831E+01 -0.88679225515E+01 -0.42298678436E+02  0.47787268010E+02  0.19999986166E+02 0.  0.
         12    1    3    3    0    0 -0.39755866831E+01  0.88679225515E+01  0.42298678436E+02  0.43400731990E+02  0.00000000000E+00 0. -1.
         11    1    4    4    0    0 -0.46119343949E+01 -0.27243222481E+01 -0.38311446536E+01  0.65855554202E+01  0.51100000000E-03 0. -1.
        -11    1    4    4    0    0 -0.17220948688E+01 -0.15484725945E+01 -0.14803899751E+02  0.14983952289E+02  0.51100000000E-03 0.  1.
         12    1    4    4    0    0  0.10309615947E+02 -0.45951277089E+01 -0.23663634031E+02  0.26217760301E+02  0.00000000000E+00 0. -1.
</event>
<event>
 8    1  0.6019723E-011  0.9118800E+02  0.7816164E-02  0.1184000E+00
        -11   -1    0    0    0    0  0.00000000000E+00  0.00000000000E+00  0.45593999997E+02  0.45594000000E+02  0.51100000000E-03 0. -1.
         11   -1    0    0    0    0 -0.00000000000E+00 -0.00000000000E+00 -0.45593999997E+02  0.45594000000E+02  0.51100000000E-03 0.  1.
         23    2    1    2    0    0  0.35527136788E-14  0.35527136788E-14 -0.35527136788E-14  0.91188000000E+02  0.91188000000E+02 0.  0.
    9900012    2    3    3    0    0 -0.24840614657E+02 -0.21271655283E+02  0.28532165150E+02  0.47787263795E+02  0.19999966947E+02 0.  0.
        -12    1    3    3    0    0  0.24840614657E+02  0.21271655283E+02 -0.28532165150E+02  0.43400736205E+02  0.00000000000E+00 0.  1.
         11    1    4    4    0    0 -0.92431559391E+01  0.73910289962E+00  0.40004694091E+01  0.10098809859E+02  0.51100000000E-03 0. -1.
        -11    1    4    4    0    0 -0.12687289724E+02 -0.13901529144E+02  0.21454708990E+02  0.28539873356E+02  0.51100000000E-03 0.  1.
         12    1    4    4    0    0 -0.29101689936E+01 -0.81092290386E+01  0.30769867515E+01  0.91485805806E+01  0.00000000000E+00 0. -1.
</event>
<event>
 8    1  0.6019723E-011  0.9118800E+02  0.7816164E-02  0.1184000E+00
        -11   -1    0    0    0    0  0.00000000000E+00  0.00000000000E+00  0.45593999997E+02  0.45594000000E+02  0.51100000000E-03 0. -1.
         11   -1    0    0    0    0 -0.00000000000E+00 -0.00000000000E+00 -0.45593999997E+02  0.45594000000E+02  0.51100000000E-03 0.  1.
         23    2    1    2    0    0 -0.17763568394E-14  0.17763568394E-14 -0.71054273576E-14  0.91188000000E+02  0.91188000000E+02 0.  0.
    9900012    2    3    3    0    0 -0.73870824865E+01  0.10340610154E+02 -0.41498511745E+02  0.47787266331E+02  0.19999978508E+02 0.  0.
         12    1    3    3    0    0  0.73870824865E+01 -0.10340610154E+02  0.41498511745E+02  0.43400733669E+02  0.00000000000E+00 0. -1.
         11    1    4    4    0    0 -0.32152299654E+01  0.53993458736E+00 -0.25215809461E+02  0.25425701173E+02  0.51100000000E-03 0. -1.
        -11    1    4    4    0    0 -0.45248080213E+01  0.58283839811E+01 -0.16791624757E+02  0.18341281572E+02  0.51100000000E-03 0.  1.
         12    1    4    4    0    0  0.35295550017E+00  0.39722915858E+01  0.50892247357E+00  0.40202835860E+01  0.00000000000E+00 0. -1.
</event>
<event>
 8    1  0.6019723E-011  0.9118800E+02  0.7816164E-02  0.1184000E+00
        -11   -1    0    0    0    0  0.00000000000E+00  0.00000000000E+00  0.45593999997E+02  0.45594000000E+02  0.51100000000E-03 0. -1.
         11   -1    0    0    0    0 -0.00000000000E+00 -0.00000000000E+00 -0.45593999997E+02  0.45594000000E+02  0.51100000000E-03 0.  1.
         23    2    1    2    0    0  0.00000000000E+00  0.00000000000E+00 -0.71054273576E-14  0.91188000000E+02  0.91188000000E+02 0.  0.
    9900012    2    3    3    0    0  0.13432036472E+02 -0.13357552433E+02 -0.39048425985E+02  0.47787269791E+02  0.19999994286E+02 0.  0.
         12    1    3    3    0    0 -0.13432036472E+02  0.13357552433E+02  0.39048425985E+02  0.43400730209E+02  0.00000000000E+00 0. -1.
         11    1    4    4    0    0 -0.15505265919E+01 -0.17916928122E-01 -0.20775285334E+01  0.25924079148E+01  0.51100000000E-03 0. -1.
        -11    1    4    4    0    0  0.10535101288E+02  0.13423540036E+01 -0.14002120313E+02  0.17574118668E+02  0.51100000000E-03 0.  1.
        -12    1    4    4    0    0  0.44474617753E+01 -0.14681989508E+02 -0.22968777138E+02  0.27620743208E+02  0.00000000000E+00 0.  1.
</event>
<event>
 8    1  0.6019723E-011  0.9118800E+02  0.7816164E-02  0.1184000E+00
        -11   -1    0    0    0    0  0.00000000000E+00  0.00000000000E+00  0.45593999997E+02  0.45594000000E+02  0.51100000000E-03 0. -1.
         11   -1    0    0    0    0 -0.00000000000E+00 -0.00000000000E+00 -0.45593999997E+02  0.45594000000E+02  0.51100000000E-03 0.  1.
         23    2    1    2    0    0  0.44408920985E-15  0.00000000000E+00  0.00000000000E+00  0.91188000000E+02  0.91188000000E+02 0.  0.
    9900012    2    3    3    0    0  0.81275674646E+00 -0.26676081196E+02  0.34224984107E+02  0.47787269377E+02  0.19999992396E+02 0.  0.
        -12    1    3    3    0    0 -0.81275674646E+00  0.26676081196E+02 -0.34224984107E+02  0.43400730623E+02  0.00000000000E+00 0.  1.
         11    1    4    4    0    0  0.17190938436E+01 -0.18944535263E+01  0.13602808248E+02  0.13841265488E+02  0.51100000000E-03 0. -1.
        -11    1    4    4    0    0 -0.55841338400E+01 -0.12956630318E+02  0.91241038348E+01  0.16801966879E+02  0.51100000000E-03 0.  1.
         12    1    4    4    0    0  0.46777967429E+01 -0.11824997352E+02  0.11498072024E+02  0.17144037010E+02  0.00000000000E+00 0. -1.
</event>
<event>
 8    1  0.6019723E-011  0.9118800E+02  0.7816164E-02  0.1184000E+00
        -11   -1    0    0    0    0  0.00000000000E+00  0.00000000000E+00  0.45593999997E+02  0.45594000000E+02  0.51100000000E-03 0. -1.
         11   -1    0    0    0    0 -0.00000000000E+00 -0.00000000000E+00 -0.45593999997E+02  0.45594000000E+02  0.51100000000E-03 0.  1.
         23    2    1    2    0    0  0.88817841970E-15  0.00000000000E+00  0.71054273576E-14  0.91188000000E+02  0.91188000000E+02 0.  0.
    9900012    2    3    3    0    0  0.36166579525E+01  0.52784593478E+01  0.42926458090E+02  0.47787272448E+02  0.20000006400E+02 0.  0.
        -12    1    3    3    0    0 -0.36166579525E+01 -0.52784593478E+01 -0.42926458090E+02  0.43400727552E+02  0.00000000000E+00 0.  1.
         11    1    4    4    0    0 -0.94563670804E+00  0.71250314747E+01  0.14825880365E+02  0.16476256588E+02  0.51100000000E-03 0. -1.
        -11    1    4    4    0    0 -0.77935040041E+00 -0.41793784790E+01  0.23510640845E+02  0.23891940581E+02  0.51100000000E-03 0.  1.
        -12    1    4    4    0    0  0.53416450609E+01  0.23328063521E+01  0.45899368806E+01  0.74190752794E+01  0.00000000000E+00 0.  1.
</event>
<event>
 8    1  0.6019723E-011  0.9118800E+02  0.7816164E-02  0.1184000E+00
        -11   -1    0    0    0    0  0.00000000000E+00  0.00000000000E+00  0.45593999997E+02  0.45594000000E+02  0.51100000000E-03 0. -1.
         11   -1    0    0    0    0 -0.00000000000E+00 -0.00000000000E+00 -0.45593999997E+02  0.45594000000E+02  0.51100000000E-03 0.  1.
         23    2    1    2    0    0  0.00000000000E+00 -0.44408920985E-15  0.00000000000E+00  0.91188000000E+02  0.91188000000E+02 0.  0.
    9900012    2    3    3    0    0 -0.16533228285E+02 -0.35908920090E+01 -0.39967242391E+02  0.47787278724E+02  0.20000035015E+02 0.  0.
         12    1    3    3    0    0  0.16533228285E+02  0.35908920090E+01  0.39967242391E+02  0.43400721276E+02  0.00000000000E+00 0. -1.
         11    1    4    4    0    0 -0.45262880175E+01  0.38836342400E+01 -0.14308825739E+02  0.15502012528E+02  0.51100000000E-03 0. -1.
        -11    1    4    4    0    0 -0.67797262805E+01 -0.61133371394E+01 -0.40059381721E+01  0.99692086104E+01  0.51100000000E-03 0.  1.
        -12    1    4    4    0    0 -0.52272139869E+01 -0.13611891097E+01 -0.21652478480E+02  0.22316057586E+02  0.00000000000E+00 0.  1.
</event>
<event>
 8    1  0.6019723E-011  0.9118800E+02  0.7816164E-02  0.1184000E+00
        -11   -1    0    0    0    0  0.00000000000E+00  0.00000000000E+00  0.45593999997E+02  0.45594000000E+02  0.51100000000E-03 0.  1.
         11   -1    0    0    0    0 -0.00000000000E+00 -0.00000000000E+00 -0.45593999997E+02  0.45594000000E+02  0.51100000000E-03 0. -1.
         23    2    1    2    0    0 -0.13322676296E-14  0.00000000000E+00  0.00000000000E+00  0.91188000000E+02  0.91188000000E+02 0.  0.
    9900012    2    3    3    0    0 -0.33304867381E+01 -0.23730676636E+02 -0.36185438813E+02  0.47787272614E+02  0.20000007158E+02 0.  0.
         12    1    3    3    0    0  0.33304867381E+01  0.23730676636E+02  0.36185438813E+02  0.43400727386E+02  0.00000000000E+00 0. -1.
         11    1    4    4    0    0 -0.19918129363E+01  0.16569803069E+01 -0.31051166360E+01  0.40440885370E+01  0.51100000000E-03 0. -1.
        -11    1    4    4    0    0  0.31221438634E+01 -0.18906550778E+02 -0.16098767788E+02  0.25027500258E+02  0.51100000000E-03 0.  1.
        -12    1    4    4    0    0 -0.44608176652E+01 -0.64811061650E+01 -0.16981554389E+02  0.18715683820E+02  0.00000000000E+00 0.  1.
</event>
<event>
 8    1  0.6019723E-011  0.9118800E+02  0.7816164E-02  0.1184000E+00
        -11   -1    0    0    0    0  0.00000000000E+00  0.00000000000E+00  0.45593999997E+02  0.45594000000E+02  0.51100000000E-03 0. -1.
         11   -1    0    0    0    0 -0.00000000000E+00 -0.00000000000E+00 -0.45593999997E+02  0.45594000000E+02  0.51100000000E-03 0.  1.
         23    2    1    2    0    0  0.00000000000E+00  0.44408920985E-15  0.17763568394E-14  0.91188000000E+02  0.91188000000E+02 0.  0.
    9900012    2    3    3    0    0  0.40625946500E+02  0.14833625866E+01 -0.15197220080E+02  0.47787269687E+02  0.19999993809E+02 0.  0.
         12    1    3    3    0    0 -0.40625946500E+02 -0.14833625866E+01  0.15197220080E+02  0.43400730313E+02  0.00000000000E+00 0. -1.
         11    1    4    4    0    0  0.15879481115E+02  0.30713453550E+01 -0.15395691108E+02  0.22329764614E+02  0.51100000000E-03 0. -1.
        -11    1    4    4    0    0  0.98207658723E+01  0.20399946757E+01  0.97439876773E+00  0.10077622429E+02  0.51100000000E-03 0.  1.
         12    1    4    4    0    0  0.14925699513E+02 -0.36279774442E+01 -0.77592773936E+00  0.15379882644E+02  0.00000000000E+00 0. -1.
</event>
<event>
 8    1  0.6019723E-011  0.9118800E+02  0.7816164E-02  0.1184000E+00
        -11   -1    0    0    0    0  0.00000000000E+00  0.00000000000E+00  0.45593999997E+02  0.45594000000E+02  0.51100000000E-03 0. -1.
         11   -1    0    0    0    0 -0.00000000000E+00 -0.00000000000E+00 -0.45593999997E+02  0.45594000000E+02  0.51100000000E-03 0.  1.
         23    2    1    2    0    0  0.00000000000E+00  0.35527136788E-14 -0.71054273576E-14  0.91188000000E+02  0.91188000000E+02 0.  0.
    9900012    2    3    3    0    0 -0.12947576995E+02 -0.12567124500E+02 -0.39472152022E+02  0.47787272432E+02  0.20000006325E+02 0.  0.
         12    1    3    3    0    0  0.12947576995E+02  0.12567124500E+02  0.39472152022E+02  0.43400727568E+02  0.00000000000E+00 0. -1.
         11    1    4    4    0    0  0.10271221364E+00  0.50073640279E+00  0.22997490343E+00  0.56051356918E+00  0.51100000000E-03 0. -1.
        -11    1    4    4    0    0 -0.50773317680E+01  0.37997921771E+01 -0.61375711380E+01  0.88253894082E+01  0.51100000000E-03 0.  1.
        -12    1    4    4    0    0 -0.79729574403E+01 -0.16867653080E+02 -0.33564555787E+02  0.38401369454E+02  0.00000000000E+00 0.  1.
</event>
<event>
 8    1  0.6019723E-011  0.9118800E+02  0.7816164E-02  0.1184000E+00
        -11   -1    0    0    0    0  0.00000000000E+00  0.00000000000E+00  0.45593999997E+02  0.45594000000E+02  0.51100000000E-03 0. -1.
         11   -1    0    0    0    0 -0.00000000000E+00 -0.00000000000E+00 -0.45593999997E+02  0.45594000000E+02  0.51100000000E-03 0.  1.
         23    2    1    2    0    0  0.00000000000E+00  0.00000000000E+00  0.71054273576E-14  0.91188000000E+02  0.91188000000E+02 0.  0.
    9900012    2    3    3    0    0 -0.27658150590E+02 -0.80219865318E+01  0.32469952546E+02  0.47787269818E+02  0.19999994409E+02 0.  0.
        -12    1    3    3    0    0  0.27658150590E+02  0.80219865318E+01 -0.32469952546E+02  0.43400730182E+02  0.00000000000E+00 0.  1.
         11    1    4    4    0    0 -0.66340895734E+01 -0.53441616153E+01  0.27918218548E+01  0.89646794348E+01  0.51100000000E-03 0. -1.
        -11    1    4    4    0    0 -0.22724046484E+02 -0.26134181465E+01  0.29125527444E+02  0.37033884379E+02  0.51100000000E-03 0.  1.
        -12    1    4    4    0    0  0.16999854674E+01 -0.64406769942E-01  0.55260324671E+00  0.17887060043E+01  0.00000000000E+00 0.  1.
</event>
<event>
 8    1  0.6019723E-011  0.9118800E+02  0.7816164E-02  0.1184000E+00
        -11   -1    0    0    0    0  0.00000000000E+00  0.00000000000E+00  0.45593999997E+02  0.45594000000E+02  0.51100000000E-03 0. -1.
         11   -1    0    0    0    0 -0.00000000000E+00 -0.00000000000E+00 -0.45593999997E+02  0.45594000000E+02  0.51100000000E-03 0.  1.
         23    2    1    2    0    0 -0.35527136788E-14 -0.88817841970E-15  0.00000000000E+00  0.91188000000E+02  0.91188000000E+02 0.  0.
    9900012    2    3    3    0    0  0.26181744823E+02  0.65907349907E+01 -0.33980896645E+02  0.47787275507E+02  0.20000020346E+02 0.  0.
         12    1    3    3    0    0 -0.26181744823E+02 -0.65907349907E+01  0.33980896645E+02  0.43400724493E+02  0.00000000000E+00 0. -1.
         11    1    4    4    0    0  0.19356977907E+02  0.13608029508E+01 -0.15454033434E+02  0.24806683132E+02  0.51100000000E-03 0. -1.
        -11    1    4    4    0    0  0.51635568345E+01  0.16971780971E+01 -0.16825074489E+01  0.56897771708E+01  0.51100000000E-03 0.  1.
         12    1    4    4    0    0  0.16612100813E+01  0.35327539428E+01 -0.16844355763E+02  0.17290815204E+02  0.00000000000E+00 0. -1.
</event>
<event>
 8    1  0.6019723E-011  0.9118800E+02  0.7816164E-02  0.1184000E+00
        -11   -1    0    0    0    0  0.00000000000E+00  0.00000000000E+00  0.45593999997E+02  0.45594000000E+02  0.51100000000E-03 0. -1.
         11   -1    0    0    0    0 -0.00000000000E+00 -0.00000000000E+00 -0.45593999997E+02  0.45594000000E+02  0.51100000000E-03 0.  1.
         23    2    1    2    0    0  0.00000000000E+00  0.00000000000E+00  0.00000000000E+00  0.91188000000E+02  0.91188000000E+02 0.  0.
    9900012    2    3    3    0    0  0.13392040117E+01  0.14627008341E+02 -0.40839679825E+02  0.47787282395E+02  0.20000051754E+02 0.  0.
         12    1    3    3    0    0 -0.13392040117E+01 -0.14627008341E+02  0.40839679825E+02  0.43400717605E+02  0.00000000000E+00 0. -1.
         11    1    4    4    0    0 -0.72891106251E+01  0.86263146779E+01 -0.10943443810E+02  0.15725883165E+02  0.51100000000E-03 0. -1.
        -11    1    4    4    0    0  0.75630100003E+01  0.60616052394E+01 -0.21328657952E+02  0.23427629599E+02  0.51100000000E-03 0.  1.
        -12    1    4    4    0    0  0.10653046365E+01 -0.60911575950E-01 -0.85675780629E+01  0.86337696316E+01  0.00000000000E+00 0.  1.
</event>
<event>
 8    1  0.6019723E-011  0.9118800E+02  0.7816164E-02  0.1184000E+00
        -11   -1    0    0    0    0  0.00000000000E+00  0.00000000000E+00  0.45593999997E+02  0.45594000000E+02  0.51100000000E-03 0. -1.
         11   -1    0    0    0    0 -0.00000000000E+00 -0.00000000000E+00 -0.45593999997E+02  0.45594000000E+02  0.51100000000E-03 0.  1.
         23    2    1    2    0    0  0.00000000000E+00  0.00000000000E+00  0.71054273576E-14  0.91188000000E+02  0.91188000000E+02 0.  0.
    9900012    2    3    3    0    0  0.66857718015E+01 -0.35051015279E+01 -0.42739184731E+02  0.47787271978E+02  0.20000004258E+02 0.  0.
         12    1    3    3    0    0 -0.66857718015E+01  0.35051015279E+01  0.42739184731E+02  0.43400728022E+02  0.00000000000E+00 0. -1.
         11    1    4    4    0    0 -0.63495948201E+01  0.24389241214E+00 -0.17180317328E+02  0.18317754820E+02  0.51100000000E-03 0. -1.
        -11    1    4    4    0    0  0.10342142816E+02 -0.44834141259E+01 -0.16442477592E+02  0.19935295078E+02  0.51100000000E-03 0.  1.
        -12    1    4    4    0    0  0.26932238059E+01  0.73442018583E+00 -0.91163898118E+01  0.95342220804E+01  0.00000000000E+00 0.  1.
</event>
<event>
 8    1  0.6019723E-011  0.9118800E+02  0.7816164E-02  0.1184000E+00
        -11   -1    0    0    0    0  0.00000000000E+00  0.00000000000E+00  0.45593999997E+02  0.45594000000E+02  0.51100000000E-03 0. -1.
         11   -1    0    0    0    0 -0.00000000000E+00 -0.00000000000E+00 -0.45593999997E+02  0.45594000000E+02  0.51100000000E-03 0.  1.
         23    2    1    2    0    0 -0.22204460493E-15  0.35527136788E-14 -0.71054273576E-14  0.91188000000E+02  0.91188000000E+02 0.  0.
    9900012    2    3    3    0    0  0.15677454726E+01  0.25473136964E+02 -0.35103835547E+02  0.47787334075E+02  0.20000287380E+02 0.  0.
         12    1    3    3    0    0 -0.15677454726E+01 -0.25473136964E+02  0.35103835547E+02  0.43400665925E+02  0.00000000000E+00 0. -1.
         11    1    4    4    0    0 -0.33177574467E+01  0.19865775183E+01 -0.17707146548E+02  0.18124487409E+02  0.51100000000E-03 0. -1.
        -11    1    4    4    0    0  0.38188341369E+01  0.15524087225E+02 -0.11282688532E+02  0.19567315583E+02  0.51100000000E-03 0.  1.
         12    1    4    4    0    0  0.10666687824E+01  0.79624722199E+01 -0.61140004661E+01  0.10095531083E+02  0.00000000000E+00 0. -1.
</event>
<event>
 8    1  0.6019723E-011  0.9118800E+02  0.7816164E-02  0.1184000E+00
        -11   -1    0    0    0    0  0.00000000000E+00  0.00000000000E+00  0.45593999997E+02  0.45594000000E+02  0.51100000000E-03 0. -1.
         11   -1    0    0    0    0 -0.00000000000E+00 -0.00000000000E+00 -0.45593999997E+02  0.45594000000E+02  0.51100000000E-03 0.  1.
         23    2    1    2    0    0  0.00000000000E+00  0.00000000000E+00  0.00000000000E+00  0.91188000000E+02  0.91188000000E+02 0.  0.
    9900012    2    3    3    0    0  0.10543101619E+02 -0.23937469846E+02  0.34633271056E+02  0.47787275139E+02  0.20000018671E+02 0.  0.
        -12    1    3    3    0    0 -0.10543101619E+02  0.23937469846E+02 -0.34633271056E+02  0.43400724861E+02  0.00000000000E+00 0.  1.
         11    1    4    4    0    0  0.47462146437E+01 -0.12383726281E+02  0.20033484417E+02  0.24025480811E+02  0.51100000000E-03 0. -1.
        -11    1    4    4    0    0  0.63763783126E+01 -0.13122442473E+01  0.78811382958E+00  0.65575383353E+01  0.51100000000E-03 0.  1.
        -12    1    4    4    0    0 -0.57949133758E+00 -0.10241499317E+02  0.13811672810E+02  0.17204255993E+02  0.00000000000E+00 0.  1.
</event>
<event>
 8    1  0.6019723E-011  0.9118800E+02  0.7816164E-02  0.1184000E+00
        -11   -1    0    0    0    0  0.00000000000E+00  0.00000000000E+00  0.45593999997E+02  0.45594000000E+02  0.51100000000E-03 0. -1.
         11   -1    0    0    0    0 -0.00000000000E+00 -0.00000000000E+00 -0.45593999997E+02  0.45594000000E+02  0.51100000000E-03 0.  1.
         23    2    1    2    0    0 -0.35527136788E-14  0.00000000000E+00  0.00000000000E+00  0.91188000000E+02  0.91188000000E+02 0.  0.
    9900012    2    3    3    0    0 -0.29907275871E+02  0.88890520158E+01  0.30168925630E+02  0.47787257271E+02  0.19999937201E+02 0.  0.
        -12    1    3    3    0    0  0.29907275871E+02 -0.88890520158E+01 -0.30168925630E+02  0.43400742729E+02  0.00000000000E+00 0.  1.
         11    1    4    4    0    0 -0.15785522405E+02  0.10654648038E+00  0.14483525037E+02  0.21423505024E+02  0.51100000000E-03 0. -1.
        -11    1    4    4    0    0  0.16080345220E+01  0.17597764380E+01 -0.80569711636E+00  0.25162941482E+01  0.51100000000E-03 0.  1.
        -12    1    4    4    0    0 -0.15729787988E+02  0.70227290974E+01  0.16491097709E+02  0.23847458099E+02  0.00000000000E+00 0.  1.
</event>
<event>
 8    1  0.6019723E-011  0.9118800E+02  0.7816164E-02  0.1184000E+00
        -11   -1    0    0    0    0  0.00000000000E+00  0.00000000000E+00  0.45593999997E+02  0.45594000000E+02  0.51100000000E-03 0. -1.
         11   -1    0    0    0    0 -0.00000000000E+00 -0.00000000000E+00 -0.45593999997E+02  0.45594000000E+02  0.51100000000E-03 0.  1.
         23    2    1    2    0    0  0.00000000000E+00  0.00000000000E+00  0.00000000000E+00  0.91188000000E+02  0.91188000000E+02 0.  0.
    9900012    2    3    3    0    0 -0.30572248050E+01  0.78028564880E+01  0.42583957098E+02  0.47787255824E+02  0.19999930604E+02 0.  0.
        -12    1    3    3    0    0  0.30572248050E+01 -0.78028564880E+01 -0.42583957098E+02  0.43400744176E+02  0.00000000000E+00 0.  1.
         11    1    4    4    0    0 -0.64799284124E+01  0.11752699909E+02  0.34888236721E+02  0.37380536233E+02  0.51100000000E-03 0. -1.
        -11    1    4    4    0    0  0.19523257819E+01 -0.56817286348E+00  0.18762472537E+00  0.20419597597E+01  0.51100000000E-03 0.  1.
         12    1    4    4    0    0  0.14703778255E+01 -0.33816705571E+01  0.75080956523E+01  0.83647598310E+01  0.00000000000E+00 0. -1.
</event>
<event>
 8    1  0.6019723E-011  0.9118800E+02  0.7816164E-02  0.1184000E+00
        -11   -1    0    0    0    0  0.00000000000E+00  0.00000000000E+00  0.45593999997E+02  0.45594000000E+02  0.51100000000E-03 0. -1.
         11   -1    0    0    0    0 -0.00000000000E+00 -0.00000000000E+00 -0.45593999997E+02  0.45594000000E+02  0.51100000000E-03 0.  1.
         23    2    1    2    0    0  0.00000000000E+00 -0.35527136788E-14  0.00000000000E+00  0.91188000000E+02  0.91188000000E+02 0.  0.
    9900012    2    3    3    0    0 -0.13092704056E+02 -0.24048659431E+02 -0.33672934417E+02  0.47787269221E+02  0.19999991685E+02 0.  0.
         12    1    3    3    0    0  0.13092704056E+02  0.24048659431E+02  0.33672934417E+02  0.43400730779E+02  0.00000000000E+00 0. -1.
         11    1    4    4    0    0  0.32554827958E+01 -0.51459184337E+01 -0.50827266882E+01  0.79317561490E+01  0.51100000000E-03 0. -1.
        -11    1    4    4    0    0 -0.18130348336E+02 -0.17080735625E+02 -0.27439073381E+02  0.37058923467E+02  0.51100000000E-03 0.  1.
        -12    1    4    4    0    0  0.17821614841E+01 -0.18220053720E+01 -0.11511343486E+01  0.27965896051E+01  0.00000000000E+00 0.  1.
</event>
<event>
 8    1  0.6019723E-011  0.9118800E+02  0.7816164E-02  0.1184000E+00
        -11   -1    0    0    0    0  0.00000000000E+00  0.00000000000E+00  0.45593999997E+02  0.45594000000E+02  0.51100000000E-03 0. -1.
         11   -1    0    0    0    0 -0.00000000000E+00 -0.00000000000E+00 -0.45593999997E+02  0.45594000000E+02  0.51100000000E-03 0.  1.
         23    2    1    2    0    0  0.00000000000E+00 -0.88817841970E-15  0.00000000000E+00  0.91188000000E+02  0.91188000000E+02 0.  0.
    9900012    2    3    3    0    0 -0.40038448992E+02  0.61068216659E+01 -0.15596549702E+02  0.47787273840E+02  0.20000012747E+02 0.  0.
         12    1    3    3    0    0  0.40038448992E+02 -0.61068216659E+01  0.15596549702E+02  0.43400726160E+02  0.00000000000E+00 0. -1.
         11    1    4    4    0    0 -0.10505757912E+02 -0.33792564128E+01 -0.95345831129E+01  0.14584190022E+02  0.51100000000E-03 0. -1.
        -11    1    4    4    0    0 -0.83954344822E+01  0.15219584852E+01  0.27391429550E+01  0.89611708032E+01  0.51100000000E-03 0.  1.
         12    1    4    4    0    0 -0.21137256598E+02  0.79641195935E+01 -0.88011095445E+01  0.24241913015E+02  0.00000000000E+00 0. -1.
</event>
<event>
 8    1  0.6019723E-011  0.9118800E+02  0.7816164E-02  0.1184000E+00
        -11   -1    0    0    0    0  0.00000000000E+00  0.00000000000E+00  0.45593999997E+02  0.45594000000E+02  0.51100000000E-03 0. -1.
         11   -1    0    0    0    0 -0.00000000000E+00 -0.00000000000E+00 -0.45593999997E+02  0.45594000000E+02  0.51100000000E-03 0.  1.
         23    2    1    2    0    0  0.00000000000E+00  0.00000000000E+00  0.00000000000E+00  0.91188000000E+02  0.91188000000E+02 0.  0.
    9900012    2    3    3    0    0  0.16243354092E+02 -0.16650992570E+02  0.36640430886E+02  0.47787270960E+02  0.19999999614E+02 0.  0.
        -12    1    3    3    0    0 -0.16243354092E+02  0.16650992570E+02 -0.36640430886E+02  0.43400729040E+02  0.00000000000E+00 0.  1.
         11    1    4    4    0    0  0.59388892599E+01 -0.22316913862E+01  0.80275978557E+01  0.10231968514E+02  0.51100000000E-03 0. -1.
        -11    1    4    4    0    0  0.14582859102E+02 -0.12796290391E+02  0.25410014253E+02  0.31969886643E+02  0.51100000000E-03 0.  1.
        -12    1    4    4    0    0 -0.42783942705E+01 -0.16230107922E+01  0.32028187770E+01  0.55854158022E+01  0.00000000000E+00 0.  1.
</event>
<event>
 8    1  0.6019723E-011  0.9118800E+02  0.7816164E-02  0.1184000E+00
        -11   -1    0    0    0    0  0.00000000000E+00  0.00000000000E+00  0.45593999997E+02  0.45594000000E+02  0.51100000000E-03 0. -1.
         11   -1    0    0    0    0 -0.00000000000E+00 -0.00000000000E+00 -0.45593999997E+02  0.45594000000E+02  0.51100000000E-03 0.  1.
         23    2    1    2    0    0  0.00000000000E+00  0.35527136788E-14  0.00000000000E+00  0.91188000000E+02  0.91188000000E+02 0.  0.
    9900012    2    3    3    0    0 -0.95874016419E+01 -0.31057292929E+02  0.28760208457E+02  0.47787270688E+02  0.19999998375E+02 0.  0.
        -12    1    3    3    0    0  0.95874016419E+01  0.31057292929E+02 -0.28760208457E+02  0.43400729312E+02  0.00000000000E+00 0.  1.
         11    1    4    4    0    0 -0.44980979274E+01 -0.22826008769E+02  0.27757422263E+02  0.36217869239E+02  0.51100000000E-03 0. -1.
        -11    1    4    4    0    0 -0.46693011703E+01 -0.23148897312E+01 -0.10047247806E+01  0.53075945618E+01  0.51100000000E-03 0.  1.
        -12    1    4    4    0    0 -0.42000254420E+00 -0.59163944294E+01  0.20075109745E+01  0.62618068873E+01  0.00000000000E+00 0.  1.
</event>
<event>
 8    1  0.6019723E-011  0.9118800E+02  0.7816164E-02  0.1184000E+00
        -11   -1    0    0    0    0  0.00000000000E+00  0.00000000000E+00  0.45593999997E+02  0.45594000000E+02  0.51100000000E-03 0. -1.
         11   -1    0    0    0    0 -0.00000000000E+00 -0.00000000000E+00 -0.45593999997E+02  0.45594000000E+02  0.51100000000E-03 0.  1.
         23    2    1    2    0    0  0.00000000000E+00  0.00000000000E+00  0.00000000000E+00  0.91188000000E+02  0.91188000000E+02 0.  0.
    9900012    2    3    3    0    0 -0.44997121370E+01 -0.10300157765E+02 -0.41919955791E+02  0.47787270135E+02  0.19999995852E+02 0.  0.
         12    1    3    3    0    0  0.44997121370E+01  0.10300157765E+02  0.41919955791E+02  0.43400729865E+02  0.00000000000E+00 0. -1.
         11    1    4    4    0    0 -0.48499480322E+00  0.12627860204E+01 -0.15540440401E+01  0.20603159060E+01  0.51100000000E-03 0. -1.
        -11    1    4    4    0    0 -0.94439693262E+01 -0.35811771917E+01 -0.29556439196E+02  0.31234539935E+02  0.51100000000E-03 0.  1.
        -12    1    4    4    0    0  0.54292519924E+01 -0.79817665939E+01 -0.10809472555E+02  0.14492414294E+02  0.00000000000E+00 0.  1.
</event>
<event>
 8    1  0.6019723E-011  0.9118800E+02  0.7816164E-02  0.1184000E+00
        -11   -1    0    0    0    0  0.00000000000E+00  0.00000000000E+00  0.45593999997E+02  0.45594000000E+02  0.51100000000E-03 0. -1.
         11   -1    0    0    0    0 -0.00000000000E+00 -0.00000000000E+00 -0.45593999997E+02  0.45594000000E+02  0.51100000000E-03 0.  1.
         23    2    1    2    0    0  0.00000000000E+00 -0.71054273576E-14  0.35527136788E-14  0.91188000000E+02  0.91188000000E+02 0.  0.
    9900012    2    3    3    0    0 -0.92859241732E+01  0.33031240715E+02 -0.26576926253E+02  0.47787259684E+02  0.19999948204E+02 0.  0.
         12    1    3    3    0    0  0.92859241732E+01 -0.33031240715E+02  0.26576926253E+02  0.43400740316E+02  0.00000000000E+00 0. -1.
         11    1    4    4    0    0 -0.89232091273E+01  0.71805327464E+01 -0.31337110996E+01  0.11874504502E+02  0.51100000000E-03 0. -1.
        -11    1    4    4    0    0  0.34524321007E+01  0.16271451384E+02 -0.12007067647E+02  0.20514606779E+02  0.51100000000E-03 0.  1.
         12    1    4    4    0    0 -0.38151471466E+01  0.95792565841E+01 -0.11436147506E+02  0.15398148403E+02  0.00000000000E+00 0. -1.
</event>
<event>
 8    1  0.6019723E-011  0.9118800E+02  0.7816164E-02  0.1184000E+00
        -11   -1    0    0    0    0  0.00000000000E+00  0.00000000000E+00  0.45593999997E+02  0.45594000000E+02  0.51100000000E-03 0. -1.
         11   -1    0    0    0    0 -0.00000000000E+00 -0.00000000000E+00 -0.45593999997E+02  0.45594000000E+02  0.51100000000E-03 0.  1.
         23    2    1    2    0    0  0.00000000000E+00  0.00000000000E+00  0.00000000000E+00  0.91188000000E+02  0.91188000000E+02 0.  0.
    9900012    2    3    3    0    0 -0.11936626243E+02  0.13419273145E+02  0.39510296121E+02  0.47787269161E+02  0.19999991411E+02 0.  0.
        -12    1    3    3    0    0  0.11936626243E+02 -0.13419273145E+02 -0.39510296121E+02  0.43400730839E+02  0.00000000000E+00 0.  1.
         11    1    4    4    0    0 -0.91933922786E+01  0.59477322836E+01  0.22445411815E+02  0.24973796121E+02  0.51100000000E-03 0. -1.
        -11    1    4    4    0    0  0.24778998588E+01 -0.25366437636E+01  0.22952490298E+01  0.42240641169E+01  0.51100000000E-03 0.  1.
        -12    1    4    4    0    0 -0.52211338236E+01  0.10008184625E+02  0.14769635277E+02  0.18589408923E+02  0.00000000000E+00 0.  1.
</event>
<event>
 8    1  0.6019723E-011  0.9118800E+02  0.7816164E-02  0.1184000E+00
        -11   -1    0    0    0    0  0.00000000000E+00  0.00000000000E+00  0.45593999997E+02  0.45594000000E+02  0.51100000000E-03 0. -1.
         11   -1    0    0    0    0 -0.00000000000E+00 -0.00000000000E+00 -0.45593999997E+02  0.45594000000E+02  0.51100000000E-03 0.  1.
         23    2    1    2    0    0  0.00000000000E+00  0.00000000000E+00  0.00000000000E+00  0.91188000000E+02  0.91188000000E+02 0.  0.
    9900012    2    3    3    0    0  0.41060445707E+02  0.46081300201E+01 -0.13282623335E+02  0.47787272511E+02  0.20000006687E+02 0.  0.
         12    1    3    3    0    0 -0.41060445707E+02 -0.46081300201E+01  0.13282623335E+02  0.43400727489E+02  0.00000000000E+00 0. -1.
         11    1    4    4    0    0  0.74540402208E+01 -0.35854609906E+01 -0.10037500218E+02  0.13006523633E+02  0.51100000000E-03 0. -1.
        -11    1    4    4    0    0  0.19495680656E+02  0.48538565747E+01 -0.10843060405E+01  0.20120069774E+02  0.51100000000E-03 0.  1.
         12    1    4    4    0    0  0.14110724830E+02  0.33397344361E+01 -0.21608170762E+01  0.14660679103E+02  0.00000000000E+00 0. -1.
</event>
<event>
 8    1  0.6019723E-011  0.9118800E+02  0.7816164E-02  0.1184000E+00
        -11   -1    0    0    0    0  0.00000000000E+00  0.00000000000E+00  0.45593999997E+02  0.45594000000E+02  0.51100000000E-03 0. -1.
         11   -1    0    0    0    0 -0.00000000000E+00 -0.00000000000E+00 -0.45593999997E+02  0.45594000000E+02  0.51100000000E-03 0.  1.
         23    2    1    2    0    0  0.55511151231E-16  0.00000000000E+00  0.71054273576E-14  0.91188000000E+02  0.91188000000E+02 0.  0.
    9900012    2    3    3    0    0  0.49142699957E+00 -0.20387014213E+02 -0.38311257165E+02  0.47787259515E+02  0.19999947434E+02 0.  0.
         12    1    3    3    0    0 -0.49142699957E+00  0.20387014213E+02  0.38311257165E+02  0.43400740485E+02  0.00000000000E+00 0. -1.
         11    1    4    4    0    0  0.31915158543E+01  0.91972384050E+00 -0.62238619681E+01  0.70546526102E+01  0.51100000000E-03 0. -1.
        -11    1    4    4    0    0 -0.56465792402E+01 -0.88542014252E+01 -0.71524012405E+01  0.12705809056E+02  0.51100000000E-03 0.  1.
        -12    1    4    4    0    0  0.29464903854E+01 -0.12452536628E+02 -0.24934993957E+02  0.28026797849E+02  0.00000000000E+00 0.  1.
</event>
<event>
 8    1  0.6019723E-011  0.9118800E+02  0.7816164E-02  0.1184000E+00
        -11   -1    0    0    0    0  0.00000000000E+00  0.00000000000E+00  0.45593999997E+02  0.45594000000E+02  0.51100000000E-03 0. -1.
         11   -1    0    0    0    0 -0.00000000000E+00 -0.00000000000E+00 -0.45593999997E+02  0.45594000000E+02  0.51100000000E-03 0.  1.
         23    2    1    2    0    0  0.00000000000E+00  0.00000000000E+00  0.71054273576E-14  0.91188000000E+02  0.91188000000E+02 0.  0.
    9900012    2    3    3    0    0  0.19373619017E+02  0.15129956170E+02 -0.35768290571E+02  0.47787270768E+02  0.19999998740E+02 0.  0.
         12    1    3    3    0    0 -0.19373619017E+02 -0.15129956170E+02  0.35768290571E+02  0.43400729232E+02  0.00000000000E+00 0. -1.
         11    1    4    4    0    0  0.45700498282E+00 -0.94380033379E+00 -0.10922819744E+02  0.10973039873E+02  0.51100000000E-03 0. -1.
        -11    1    4    4    0    0  0.97563113682E+01  0.14688578772E+02 -0.18665997457E+02  0.25677994844E+02  0.51100000000E-03 0.  1.
        -12    1    4    4    0    0  0.91603026658E+01  0.13851777312E+01 -0.61794733699E+01  0.11136236052E+02  0.00000000000E+00 0.  1.
</event>
<event>
 8    1  0.6019723E-011  0.9118800E+02  0.7816164E-02  0.1184000E+00
        -11   -1    0    0    0    0  0.00000000000E+00  0.00000000000E+00  0.45593999997E+02  0.45594000000E+02  0.51100000000E-03 0. -1.
         11   -1    0    0    0    0 -0.00000000000E+00 -0.00000000000E+00 -0.45593999997E+02  0.45594000000E+02  0.51100000000E-03 0.  1.
         23    2    1    2    0    0 -0.35527136788E-14  0.71054273576E-14  0.00000000000E+00  0.91188000000E+02  0.91188000000E+02 0.  0.
    9900012    2    3    3    0    0  0.23106666821E+02 -0.30958304072E+02  0.19781019131E+02  0.47787270047E+02  0.19999995454E+02 0.  0.
        -12    1    3    3    0    0 -0.23106666821E+02  0.30958304072E+02 -0.19781019131E+02  0.43400729953E+02  0.00000000000E+00 0.  1.
         11    1    4    4    0    0  0.44076147353E+01  0.24170157297E+00  0.28955433521E+01  0.52791721766E+01  0.51100000000E-03 0.  1.
        -11    1    4    4    0    0  0.89495717258E+01 -0.34444262759E+01  0.43741197000E+01  0.10540010904E+02  0.51100000000E-03 0. -1.
        -12    1    4    4    0    0  0.97494803595E+01 -0.27755579369E+02  0.12511356079E+02  0.31968086967E+02  0.00000000000E+00 0.  1.
</event>
<event>
 8    1  0.6019723E-011  0.9118800E+02  0.7816164E-02  0.1184000E+00
        -11   -1    0    0    0    0  0.00000000000E+00  0.00000000000E+00  0.45593999997E+02  0.45594000000E+02  0.51100000000E-03 0. -1.
         11   -1    0    0    0    0 -0.00000000000E+00 -0.00000000000E+00 -0.45593999997E+02  0.45594000000E+02  0.51100000000E-03 0.  1.
         23    2    1    2    0    0  0.17763568394E-14 -0.35527136788E-14  0.00000000000E+00  0.91188000000E+02  0.91188000000E+02 0.  0.
    9900012    2    3    3    0    0  0.12910627442E+02 -0.30488417614E+02  0.28060567124E+02  0.47787270319E+02  0.19999996692E+02 0.  0.
        -12    1    3    3    0    0 -0.12910627442E+02  0.30488417614E+02 -0.28060567124E+02  0.43400729681E+02  0.00000000000E+00 0.  1.
         11    1    4    4    0    0  0.69659186759E+01 -0.22389668116E+02  0.26455970419E+02  0.35351656714E+02  0.51100000000E-03 0. -1.
        -11    1    4    4    0    0  0.24649468364E+01 -0.52456313017E+01 -0.25305613525E+01  0.63242668887E+01  0.51100000000E-03 0.  1.
        -12    1    4    4    0    0  0.34797619297E+01 -0.28531181962E+01  0.41351580569E+01  0.61113467161E+01  0.00000000000E+00 0.  1.
</event>
<event>
 8    1  0.6019723E-011  0.9118800E+02  0.7816164E-02  0.1184000E+00
        -11   -1    0    0    0    0  0.00000000000E+00  0.00000000000E+00  0.45593999997E+02  0.45594000000E+02  0.51100000000E-03 0. -1.
         11   -1    0    0    0    0 -0.00000000000E+00 -0.00000000000E+00 -0.45593999997E+02  0.45594000000E+02  0.51100000000E-03 0.  1.
         23    2    1    2    0    0  0.00000000000E+00  0.00000000000E+00  0.00000000000E+00  0.91188000000E+02  0.91188000000E+02 0.  0.
    9900012    2    3    3    0    0 -0.13143030238E+02  0.22281922935E+02 -0.34848237875E+02  0.47787274009E+02  0.20000013519E+02 0.  0.
         12    1    3    3    0    0  0.13143030238E+02 -0.22281922935E+02  0.34848237875E+02  0.43400725991E+02  0.00000000000E+00 0. -1.
         11    1    4    4    0    0 -0.98979902922E+01  0.19957585471E+02 -0.17360240038E+02  0.28242757728E+02  0.51100000000E-03 0. -1.
        -11    1    4    4    0    0 -0.22775284712E+01  0.50303609058E+01 -0.87559463734E+01  0.10351727582E+02  0.51100000000E-03 0.  1.
         12    1    4    4    0    0 -0.96751147502E+00 -0.27060234410E+01 -0.87320514632E+01  0.91927886995E+01  0.00000000000E+00 0. -1.
</event>
<event>
 8    1  0.6019723E-011  0.9118800E+02  0.7816164E-02  0.1184000E+00
        -11   -1    0    0    0    0  0.00000000000E+00  0.00000000000E+00  0.45593999997E+02  0.45594000000E+02  0.51100000000E-03 0. -1.
         11   -1    0    0    0    0 -0.00000000000E+00 -0.00000000000E+00 -0.45593999997E+02  0.45594000000E+02  0.51100000000E-03 0.  1.
         23    2    1    2    0    0 -0.17763568394E-14  0.00000000000E+00  0.00000000000E+00  0.91188000000E+02  0.91188000000E+02 0.  0.
    9900012    2    3    3    0    0 -0.15015018757E+02 -0.23312007234E+02 -0.33387465350E+02  0.47787270605E+02  0.19999997997E+02 0.  0.
         12    1    3    3    0    0  0.15015018757E+02  0.23312007234E+02  0.33387465350E+02  0.43400729395E+02  0.00000000000E+00 0. -1.
         11    1    4    4    0    0 -0.11197015259E+02 -0.11179356681E+02 -0.28624646125E+02  0.32706597691E+02  0.51100000000E-03 0.  1.
        -11    1    4    4    0    0  0.27581872652E+00 -0.31547782052E+01  0.13834128089E+01  0.34557969783E+01  0.51100000000E-03 0. -1.
         12    1    4    4    0    0 -0.40938222243E+01 -0.89778723482E+01 -0.61462320336E+01  0.11624875935E+02  0.00000000000E+00 0. -1.
</event>
<event>
 8    1  0.6019723E-011  0.9118800E+02  0.7816164E-02  0.1184000E+00
        -11   -1    0    0    0    0  0.00000000000E+00  0.00000000000E+00  0.45593999997E+02  0.45594000000E+02  0.51100000000E-03 0. -1.
         11   -1    0    0    0    0 -0.00000000000E+00 -0.00000000000E+00 -0.45593999997E+02  0.45594000000E+02  0.51100000000E-03 0.  1.
         23    2    1    2    0    0 -0.17763568394E-14 -0.88817841970E-15  0.00000000000E+00  0.91188000000E+02  0.91188000000E+02 0.  0.
    9900012    2    3    3    0    0 -0.10922588764E+02  0.70318618178E+01 -0.41411024112E+02  0.47787274846E+02  0.20000017332E+02 0.  0.
         12    1    3    3    0    0  0.10922588764E+02 -0.70318618178E+01  0.41411024112E+02  0.43400725154E+02  0.00000000000E+00 0. -1.
         11    1    4    4    0    0 -0.66974961288E-01  0.99459815784E+01 -0.88033697632E+01  0.13282558287E+02  0.51100000000E-03 0. -1.
        -11    1    4    4    0    0 -0.64226506766E+01 -0.18620273229E+01 -0.20801425076E+02  0.21849871233E+02  0.51100000000E-03 0.  1.
         12    1    4    4    0    0 -0.44329631261E+01 -0.10520924377E+01 -0.11806229273E+02  0.12654845325E+02  0.00000000000E+00 0. -1.
</event>
<event>
 8    1  0.6019723E-011  0.9118800E+02  0.7816164E-02  0.1184000E+00
        -11   -1    0    0    0    0  0.00000000000E+00  0.00000000000E+00  0.45593999997E+02  0.45594000000E+02  0.51100000000E-03 0. -1.
         11   -1    0    0    0    0 -0.00000000000E+00 -0.00000000000E+00 -0.45593999997E+02  0.45594000000E+02  0.51100000000E-03 0.  1.
         23    2    1    2    0    0  0.44408920985E-15  0.00000000000E+00  0.00000000000E+00  0.91188000000E+02  0.91188000000E+02 0.  0.
    9900012    2    3    3    0    0  0.24492122470E+01 -0.12012328439E+02 -0.41633260674E+02  0.47787273399E+02  0.20000010736E+02 0.  0.
         12    1    3    3    0    0 -0.24492122470E+01  0.12012328439E+02  0.41633260674E+02  0.43400726601E+02  0.00000000000E+00 0. -1.
         11    1    4    4    0    0  0.21840147130E+01 -0.30189896406E+01 -0.21483927738E+02  0.21804663951E+02  0.51100000000E-03 0. -1.
        -11    1    4    4    0    0  0.22490471203E+01 -0.12114153739E+02 -0.12865562668E+02  0.17813860805E+02  0.51100000000E-03 0.  1.
        -12    1    4    4    0    0 -0.19838495863E+01  0.31208149403E+01 -0.72837702683E+01  0.81687486431E+01  0.00000000000E+00 0.  1.
</event>
<event>
 8    1  0.6019723E-011  0.9118800E+02  0.7816164E-02  0.1184000E+00
        -11   -1    0    0    0    0  0.00000000000E+00  0.00000000000E+00  0.45593999997E+02  0.45594000000E+02  0.51100000000E-03 0. -1.
         11   -1    0    0    0    0 -0.00000000000E+00 -0.00000000000E+00 -0.45593999997E+02  0.45594000000E+02  0.51100000000E-03 0.  1.
         23    2    1    2    0    0  0.00000000000E+00  0.00000000000E+00 -0.71054273576E-14  0.91188000000E+02  0.91188000000E+02 0.  0.
    9900012    2    3    3    0    0 -0.97855895470E+01  0.20028455194E+02  0.37238776094E+02  0.47787271605E+02  0.20000002555E+02 0.  0.
        -12    1    3    3    0    0  0.97855895470E+01 -0.20028455194E+02 -0.37238776094E+02  0.43400728395E+02  0.00000000000E+00 0.  1.
         11    1    4    4    0    0 -0.30436049164E+01  0.60391860628E+01  0.22105367892E+02  0.23116716659E+02  0.51100000000E-03 0. -1.
        -11    1    4    4    0    0  0.19052555725E+01  0.76249811950E+01  0.28599217106E+01  0.83635811393E+01  0.51100000000E-03 0.  1.
        -12    1    4    4    0    0 -0.86472402031E+01  0.63642879361E+01  0.12273486492E+02  0.16306973807E+02  0.00000000000E+00 0.  1.
</event>
<event>
 8    1  0.6019723E-011  0.9118800E+02  0.7816164E-02  0.1184000E+00
        -11   -1    0    0    0    0  0.00000000000E+00  0.00000000000E+00  0.45593999997E+02  0.45594000000E+02  0.51100000000E-03 0. -1.
         11   -1    0    0    0    0 -0.00000000000E+00 -0.00000000000E+00 -0.45593999997E+02  0.45594000000E+02  0.51100000000E-03 0.  1.
         23    2    1    2    0    0  0.00000000000E+00  0.00000000000E+00  0.00000000000E+00  0.91188000000E+02  0.91188000000E+02 0.  0.
    9900012    2    3    3    0    0  0.67216787111E+01  0.26043853912E+02 -0.34061122863E+02  0.47787269798E+02  0.19999994319E+02 0.  0.
         12    1    3    3    0    0 -0.67216787111E+01 -0.26043853912E+02  0.34061122863E+02  0.43400730202E+02  0.00000000000E+00 0. -1.
         11    1    4    4    0    0  0.50899738017E+01  0.52478099810E+01 -0.19959563333E+02  0.21256328742E+02  0.51100000000E-03 0. -1.
        -11    1    4    4    0    0 -0.22956843617E+01  0.18455103229E+01 -0.30696366967E+01  0.42542619514E+01  0.51100000000E-03 0.  1.
         12    1    4    4    0    0  0.39273892711E+01  0.18950533608E+02 -0.11031922834E+02  0.22276679105E+02  0.00000000000E+00 0. -1.
</event>
<event>
 8    1  0.6019723E-011  0.9118800E+02  0.7816164E-02  0.1184000E+00
        -11   -1    0    0    0    0  0.00000000000E+00  0.00000000000E+00  0.45593999997E+02  0.45594000000E+02  0.51100000000E-03 0. -1.
         11   -1    0    0    0    0 -0.00000000000E+00 -0.00000000000E+00 -0.45593999997E+02  0.45594000000E+02  0.51100000000E-03 0.  1.
         23    2    1    2    0    0  0.71054273576E-14  0.00000000000E+00 -0.88817841970E-15  0.91188000000E+02  0.91188000000E+02 0.  0.
    9900012    2    3    3    0    0 -0.42158151420E+02  0.68172395369E+01  0.77357421192E+01  0.47787237424E+02  0.19999846709E+02 0.  0.
        -12    1    3    3    0    0  0.42158151420E+02 -0.68172395369E+01 -0.77357421192E+01  0.43400762576E+02  0.00000000000E+00 0.  1.
         11    1    4    4    0    0 -0.95507972854E+01  0.75156321436E+00 -0.17351397431E+01  0.97361843780E+01  0.51100000000E-03 0. -1.
        -11    1    4    4    0    0 -0.82952274567E+01 -0.48994123032E+01  0.54802962940E+01  0.11083712700E+02  0.51100000000E-03 0.  1.
        -12    1    4    4    0    0 -0.24312126678E+02  0.10965088626E+02  0.39905855684E+01  0.26967340346E+02  0.00000000000E+00 0.  1.
</event>
<event>
 8    1  0.6019723E-011  0.9118800E+02  0.7816164E-02  0.1184000E+00
        -11   -1    0    0    0    0  0.00000000000E+00  0.00000000000E+00  0.45593999997E+02  0.45594000000E+02  0.51100000000E-03 0. -1.
         11   -1    0    0    0    0 -0.00000000000E+00 -0.00000000000E+00 -0.45593999997E+02  0.45594000000E+02  0.51100000000E-03 0.  1.
         23    2    1    2    0    0 -0.17763568394E-14  0.00000000000E+00  0.00000000000E+00  0.91188000000E+02  0.91188000000E+02 0.  0.
    9900012    2    3    3    0    0  0.90066532608E+01 -0.16557280796E+02  0.39094247973E+02  0.47787267577E+02  0.19999984189E+02 0.  0.
        -12    1    3    3    0    0 -0.90066532608E+01  0.16557280796E+02 -0.39094247973E+02  0.43400732423E+02  0.00000000000E+00 0.  1.
         11    1    4    4    0    0  0.67780699182E+00 -0.98291923055E+01  0.78824443246E+01  0.12617661134E+02  0.51100000000E-03 0. -1.
        -11    1    4    4    0    0  0.67637880977E+01  0.22922576763E+00  0.24350953352E+02  0.25273905580E+02  0.51100000000E-03 0.  1.
        -12    1    4    4    0    0  0.15650581713E+01 -0.69573142585E+01  0.68608502965E+01  0.98957008625E+01  0.00000000000E+00 0.  1.
</event>
<event>
 8    1  0.6019723E-011  0.9118800E+02  0.7816164E-02  0.1184000E+00
        -11   -1    0    0    0    0  0.00000000000E+00  0.00000000000E+00  0.45593999997E+02  0.45594000000E+02  0.51100000000E-03 0. -1.
         11   -1    0    0    0    0 -0.00000000000E+00 -0.00000000000E+00 -0.45593999997E+02  0.45594000000E+02  0.51100000000E-03 0.  1.
         23    2    1    2    0    0  0.00000000000E+00  0.00000000000E+00  0.00000000000E+00  0.91188000000E+02  0.91188000000E+02 0.  0.
    9900012    2    3    3    0    0 -0.35758211602E+02  0.17209371295E+02 -0.17573041130E+02  0.47787263464E+02  0.19999965437E+02 0.  0.
         12    1    3    3    0    0  0.35758211602E+02 -0.17209371295E+02  0.17573041130E+02  0.43400736536E+02  0.00000000000E+00 0. -1.
         11    1    4    4    0    0 -0.29707674832E+01 -0.23621164013E+01  0.18823152155E+01  0.42365273709E+01  0.51100000000E-03 0. -1.
        -11    1    4    4    0    0 -0.25458574870E+02  0.13318714755E+02 -0.11110712593E+02  0.30805439970E+02  0.51100000000E-03 0.  1.
        -12    1    4    4    0    0 -0.73288692480E+01  0.62527729411E+01 -0.83446437524E+01  0.12745296123E+02  0.00000000000E+00 0.  1.
</event>
<event>
 8    1  0.6019723E-011  0.9118800E+02  0.7816164E-02  0.1184000E+00
        -11   -1    0    0    0    0  0.00000000000E+00  0.00000000000E+00  0.45593999997E+02  0.45594000000E+02  0.51100000000E-03 0.  1.
         11   -1    0    0    0    0 -0.00000000000E+00 -0.00000000000E+00 -0.45593999997E+02  0.45594000000E+02  0.51100000000E-03 0. -1.
         23    2    1    2    0    0  0.00000000000E+00 -0.71054273576E-14  0.35527136788E-14  0.91188000000E+02  0.91188000000E+02 0.  0.
    9900012    2    3    3    0    0  0.88839841619E+01  0.32099907727E+02 -0.27826142461E+02  0.47787268958E+02  0.19999990488E+02 0.  0.
         12    1    3    3    0    0 -0.88839841619E+01 -0.32099907727E+02  0.27826142461E+02  0.43400731042E+02  0.00000000000E+00 0. -1.
         11    1    4    4    0    0 -0.21419588618E+01 -0.95214910606E+00 -0.23094351702E+01  0.32906027947E+01  0.51100000000E-03 0. -1.
        -11    1    4    4    0    0  0.10037368415E+02  0.28732350929E+02 -0.26013573071E+02  0.40037516641E+02  0.51100000000E-03 0.  1.
        -12    1    4    4    0    0  0.98857460887E+00  0.43197059047E+01  0.49686578014E+00  0.44591495224E+01  0.00000000000E+00 0.  1.
</event>
<event>
 8    1  0.6019723E-011  0.9118800E+02  0.7816164E-02  0.1184000E+00
        -11   -1    0    0    0    0  0.00000000000E+00  0.00000000000E+00  0.45593999997E+02  0.45594000000E+02  0.51100000000E-03 0. -1.
         11   -1    0    0    0    0 -0.00000000000E+00 -0.00000000000E+00 -0.45593999997E+02  0.45594000000E+02  0.51100000000E-03 0.  1.
         23    2    1    2    0    0  0.88817841970E-15  0.00000000000E+00  0.00000000000E+00  0.91188000000E+02  0.91188000000E+02 0.  0.
    9900012    2    3    3    0    0  0.42699201505E+01  0.26246647217E+02 -0.34300212355E+02  0.47787271022E+02  0.19999999899E+02 0.  0.
         12    1    3    3    0    0 -0.42699201505E+01 -0.26246647217E+02  0.34300212355E+02  0.43400728978E+02  0.00000000000E+00 0. -1.
         11    1    4    4    0    0 -0.34454781646E+01  0.45762771301E+00 -0.34004303358E+01  0.48624756695E+01  0.51100000000E-03 0. -1.
        -11    1    4    4    0    0  0.20009336998E+01  0.21256241899E+02 -0.17248381189E+02  0.27447007291E+02  0.51100000000E-03 0.  1.
        -12    1    4    4    0    0  0.57144646152E+01  0.45327776047E+01 -0.13651400830E+02  0.15477788062E+02  0.00000000000E+00 0.  1.
</event>
<event>
 8    1  0.6019723E-011  0.9118800E+02  0.7816164E-02  0.1184000E+00
        -11   -1    0    0    0    0  0.00000000000E+00  0.00000000000E+00  0.45593999997E+02  0.45594000000E+02  0.51100000000E-03 0. -1.
         11   -1    0    0    0    0 -0.00000000000E+00 -0.00000000000E+00 -0.45593999997E+02  0.45594000000E+02  0.51100000000E-03 0.  1.
         23    2    1    2    0    0  0.17763568394E-14  0.00000000000E+00 -0.35527136788E-14  0.91188000000E+02  0.91188000000E+02 0.  0.
    9900012    2    3    3    0    0  0.14552781355E+02  0.30762248761E+02  0.26935548460E+02  0.47787272301E+02  0.20000005728E+02 0.  0.
        -12    1    3    3    0    0 -0.14552781355E+02 -0.30762248761E+02 -0.26935548460E+02  0.43400727699E+02  0.00000000000E+00 0.  1.
         11    1    4    4    0    0 -0.34659708060E+01  0.62618520793E+00  0.11863697658E+01  0.37165218989E+01  0.51100000000E-03 0. -1.
        -11    1    4    4    0    0  0.23076701681E+01  0.13783811616E+01  0.37019252578E+01  0.45748800101E+01  0.51100000000E-03 0.  1.
         12    1    4    4    0    0  0.15711081993E+02  0.28757682391E+02  0.22047253437E+02  0.39495870392E+02  0.00000000000E+00 0. -1.
</event>
<event>
 8    1  0.6019723E-011  0.9118800E+02  0.7816164E-02  0.1184000E+00
        -11   -1    0    0    0    0  0.00000000000E+00  0.00000000000E+00  0.45593999997E+02  0.45594000000E+02  0.51100000000E-03 0. -1.
         11   -1    0    0    0    0 -0.00000000000E+00 -0.00000000000E+00 -0.45593999997E+02  0.45594000000E+02  0.51100000000E-03 0.  1.
         23    2    1    2    0    0 -0.88817841970E-15 -0.35527136788E-14  0.35527136788E-14  0.91188000000E+02  0.91188000000E+02 0.  0.
    9900012    2    3    3    0    0 -0.39499216293E+01 -0.29697499761E+02  0.31401908636E+02  0.47787271447E+02  0.20000001834E+02 0.  0.
        -12    1    3    3    0    0  0.39499216293E+01  0.29697499761E+02 -0.31401908636E+02  0.43400728553E+02  0.00000000000E+00 0.  1.
         11    1    4    4    0    0  0.17408154981E+01 -0.10337622069E+02  0.23783902746E+02  0.25991746742E+02  0.51100000000E-03 0. -1.
        -11    1    4    4    0    0 -0.41431038268E+01 -0.14235957813E+02  0.40742805737E+01  0.15376201307E+02  0.51100000000E-03 0.  1.
         12    1    4    4    0    0 -0.15476333006E+01 -0.51239198792E+01  0.35437253169E+01  0.64193233976E+01  0.00000000000E+00 0. -1.
</event>
<event>
 8    1  0.6019723E-011  0.9118800E+02  0.7816164E-02  0.1184000E+00
        -11   -1    0    0    0    0  0.00000000000E+00  0.00000000000E+00  0.45593999997E+02  0.45594000000E+02  0.51100000000E-03 0. -1.
         11   -1    0    0    0    0 -0.00000000000E+00 -0.00000000000E+00 -0.45593999997E+02  0.45594000000E+02  0.51100000000E-03 0.  1.
         23    2    1    2    0    0 -0.71054273576E-14  0.00000000000E+00  0.00000000000E+00  0.91188000000E+02  0.91188000000E+02 0.  0.
    9900012    2    3    3    0    0  0.31645313518E+02 -0.97531610127E+01 -0.28054834042E+02  0.47787265784E+02  0.19999976015E+02 0.  0.
         12    1    3    3    0    0 -0.31645313518E+02  0.97531610127E+01  0.28054834042E+02  0.43400734216E+02  0.00000000000E+00 0. -1.
         11    1    4    4    0    0  0.16487121874E+01  0.28609435444E+01 -0.39428659367E+01  0.51429020890E+01  0.51100000000E-03 0. -1.
        -11    1    4    4    0    0  0.18987619610E+02 -0.14148150944E+02 -0.13401155131E+02  0.27208286104E+02  0.51100000000E-03 0.  1.
        -12    1    4    4    0    0  0.11008981720E+02  0.15340463868E+01 -0.10710812974E+02  0.15436077591E+02  0.00000000000E+00 0.  1.
</event>
<event>
 8    1  0.6019723E-011  0.9118800E+02  0.7816164E-02  0.1184000E+00
        -11   -1    0    0    0    0  0.00000000000E+00  0.00000000000E+00  0.45593999997E+02  0.45594000000E+02  0.51100000000E-03 0. -1.
         11   -1    0    0    0    0 -0.00000000000E+00 -0.00000000000E+00 -0.45593999997E+02  0.45594000000E+02  0.51100000000E-03 0.  1.
         23    2    1    2    0    0  0.00000000000E+00  0.00000000000E+00  0.00000000000E+00  0.91188000000E+02  0.91188000000E+02 0.  0.
    9900012    2    3    3    0    0  0.53691946656E+01 -0.19002173083E+02  0.38648576483E+02  0.47787270773E+02  0.19999998762E+02 0.  0.
        -12    1    3    3    0    0 -0.53691946656E+01  0.19002173083E+02 -0.38648576483E+02  0.43400729227E+02  0.00000000000E+00 0.  1.
         11    1    4    4    0    0  0.12125103494E+01 -0.68741119539E+01  0.29139879038E+02  0.29964247815E+02  0.51100000000E-03 0. -1.
        -11    1    4    4    0    0  0.81715225738E+00  0.10825597813E+01  0.14796786354E+01  0.20072674503E+01  0.51100000000E-03 0.  1.
         12    1    4    4    0    0  0.33395320588E+01 -0.13210620911E+02  0.80290188100E+01  0.15815755508E+02  0.00000000000E+00 0. -1.
</event>
<event>
 8    1  0.6019723E-011  0.9118800E+02  0.7816164E-02  0.1184000E+00
        -11   -1    0    0    0    0  0.00000000000E+00  0.00000000000E+00  0.45593999997E+02  0.45594000000E+02  0.51100000000E-03 0. -1.
         11   -1    0    0    0    0 -0.00000000000E+00 -0.00000000000E+00 -0.45593999997E+02  0.45594000000E+02  0.51100000000E-03 0.  1.
         23    2    1    2    0    0 -0.66613381478E-15  0.00000000000E+00  0.00000000000E+00  0.91188000000E+02  0.91188000000E+02 0.  0.
    9900012    2    3    3    0    0  0.16583627638E+01 -0.20733773744E+02 -0.38091778921E+02  0.47787272332E+02  0.20000005872E+02 0.  0.
         12    1    3    3    0    0 -0.16583627638E+01  0.20733773744E+02  0.38091778921E+02  0.43400727668E+02  0.00000000000E+00 0. -1.
         11    1    4    4    0    0  0.69922389860E+01 -0.86865635251E+01 -0.20286477182E+02  0.23149275337E+02  0.51100000000E-03 0. -1.
        -11    1    4    4    0    0 -0.73564831192E+01 -0.12866031825E+02 -0.15961679128E+02  0.21781364044E+02  0.51100000000E-03 0.  1.
        -12    1    4    4    0    0  0.20226068970E+01  0.81882160623E+00 -0.18436226110E+01  0.28566329506E+01  0.00000000000E+00 0.  1.
</event>
<event>
 8    1  0.8125170E-011  0.9118800E+02  0.7816164E-02  0.1184000E+00
        -11   -1    0    0    0    0  0.00000000000E+00  0.00000000000E+00  0.45593999997E+02  0.45594000000E+02  0.51100000000E-03 0. -1.
         11   -1    0    0    0    0 -0.00000000000E+00 -0.00000000000E+00 -0.45593999997E+02  0.45594000000E+02  0.51100000000E-03 0.  1.
         23    2    1    2    0    0  0.00000000000E+00  0.00000000000E+00  0.71054273576E-14  0.91188000000E+02  0.91188000000E+02 0.  0.
    9900012    2    3    3    0    0  0.63985265192E+01 -0.19491282317E+02 -0.38246204354E+02  0.47787269874E+02  0.19999994661E+02 0.  0.
         12    1    3    3    0    0 -0.63985265192E+01  0.19491282317E+02  0.38246204354E+02  0.43400730126E+02  0.00000000000E+00 0. -1.
         11    1    4    4    0    0  0.70851789461E+01 -0.13889589818E+01 -0.25050166431E+01  0.76422559755E+01  0.51100000000E-03 0. -1.
        -11    1    4    4    0    0  0.25306632066E+00 -0.10957622884E+02 -0.19326566863E+02  0.22218229650E+02  0.51100000000E-03 0.  1.
         12    1    4    4    0    0 -0.93971874765E+00 -0.71447004520E+01 -0.16414620849E+02  0.17926784248E+02  0.00000000000E+00 0. -1.
</event>
<event>
 8    1  0.6019723E-011  0.9118800E+02  0.7816164E-02  0.1184000E+00
        -11   -1    0    0    0    0  0.00000000000E+00  0.00000000000E+00  0.45593999997E+02  0.45594000000E+02  0.51100000000E-03 0. -1.
         11   -1    0    0    0    0 -0.00000000000E+00 -0.00000000000E+00 -0.45593999997E+02  0.45594000000E+02  0.51100000000E-03 0.  1.
         23    2    1    2    0    0  0.00000000000E+00  0.88817841970E-15  0.71054273576E-14  0.91188000000E+02  0.91188000000E+02 0.  0.
    9900012    2    3    3    0    0  0.63408711342E+01 -0.36316401304E+01 -0.42781156059E+02  0.47787276843E+02  0.20000026439E+02 0.  0.
         12    1    3    3    0    0 -0.63408711342E+01  0.36316401304E+01  0.42781156059E+02  0.43400723157E+02  0.00000000000E+00 0. -1.
         11    1    4    4    0    0  0.60463895330E+01 -0.94511525773E+01 -0.14696661222E+02  0.18489861080E+02  0.51100000000E-03 0. -1.
        -11    1    4    4    0    0  0.58111074644E+00  0.74076051861E+00 -0.17788191482E+02  0.17813089915E+02  0.51100000000E-03 0.  1.
         12    1    4    4    0    0 -0.28662914522E+00  0.50787519282E+01 -0.10296303355E+02  0.11484325849E+02  0.00000000000E+00 0. -1.
</event>
<event>
 8    1  0.6019723E-011  0.9118800E+02  0.7816164E-02  0.1184000E+00
        -11   -1    0    0    0    0  0.00000000000E+00  0.00000000000E+00  0.45593999997E+02  0.45594000000E+02  0.51100000000E-03 0. -1.
         11   -1    0    0    0    0 -0.00000000000E+00 -0.00000000000E+00 -0.45593999997E+02  0.45594000000E+02  0.51100000000E-03 0.  1.
         23    2    1    2    0    0  0.00000000000E+00 -0.22204460493E-15  0.00000000000E+00  0.91188000000E+02  0.91188000000E+02 0.  0.
    9900012    2    3    3    0    0 -0.26221941162E+02  0.12382211430E+01  0.34561533954E+02  0.47787273979E+02  0.20000013378E+02 0.  0.
        -12    1    3    3    0    0  0.26221941162E+02 -0.12382211430E+01 -0.34561533954E+02  0.43400726021E+02  0.00000000000E+00 0.  1.
         11    1    4    4    0    0 -0.11184557814E+02  0.78762681947E+01  0.23382579070E+02  0.27090126216E+02  0.51100000000E-03 0. -1.
        -11    1    4    4    0    0 -0.48855992817E+01 -0.47569381445E+01  0.62762864917E+01  0.92676487438E+01  0.51100000000E-03 0.  1.
         12    1    4    4    0    0 -0.10151784067E+02 -0.18811089073E+01  0.49026683926E+01  0.11429499019E+02  0.00000000000E+00 0. -1.
</event>
<event>
 8    1  0.6019723E-011  0.9118800E+02  0.7816164E-02  0.1184000E+00
        -11   -1    0    0    0    0  0.00000000000E+00  0.00000000000E+00  0.45593999997E+02  0.45594000000E+02  0.51100000000E-03 0. -1.
         11   -1    0    0    0    0 -0.00000000000E+00 -0.00000000000E+00 -0.45593999997E+02  0.45594000000E+02  0.51100000000E-03 0.  1.
         23    2    1    2    0    0 -0.35527136788E-14  0.00000000000E+00  0.00000000000E+00  0.91188000000E+02  0.91188000000E+02 0.  0.
    9900012    2    3    3    0    0 -0.21535269414E+02 -0.36019098203E+02 -0.11067067733E+02  0.47787271293E+02  0.20000001133E+02 0.  0.
         12    1    3    3    0    0  0.21535269414E+02  0.36019098203E+02  0.11067067733E+02  0.43400728707E+02  0.00000000000E+00 0. -1.
         11    1    4    4    0    0 -0.15406774726E+01 -0.78832830457E+01 -0.42230408214E+01  0.90749056576E+01  0.51100000000E-03 0. -1.
        -11    1    4    4    0    0 -0.59894412356E+01 -0.19424155380E+02 -0.87089216537E+01  0.22113718258E+02  0.51100000000E-03 0.  1.
        -12    1    4    4    0    0 -0.14005150706E+02 -0.87116597768E+01  0.18648947420E+01  0.16598647378E+02  0.00000000000E+00 0.  1.
</event>
<event>
 8    1  0.6019723E-011  0.9118800E+02  0.7816164E-02  0.1184000E+00
        -11   -1    0    0    0    0  0.00000000000E+00  0.00000000000E+00  0.45593999997E+02  0.45594000000E+02  0.51100000000E-03 0. -1.
         11   -1    0    0    0    0 -0.00000000000E+00 -0.00000000000E+00 -0.45593999997E+02  0.45594000000E+02  0.51100000000E-03 0.  1.
         23    2    1    2    0    0  0.00000000000E+00  0.35527136788E-14  0.00000000000E+00  0.91188000000E+02  0.91188000000E+02 0.  0.
    9900012    2    3    3    0    0 -0.14330069675E+02 -0.28851468105E+02  0.29083760652E+02  0.47787271407E+02  0.20000001654E+02 0.  0.
        -12    1    3    3    0    0  0.14330069675E+02  0.28851468105E+02 -0.29083760652E+02  0.43400728593E+02  0.00000000000E+00 0.  1.
         11    1    4    4    0    0 -0.20787941309E+01 -0.10677485512E+02  0.18491802668E+02  0.21454063673E+02  0.51100000000E-03 0. -1.
        -11    1    4    4    0    0 -0.34093007061E+01 -0.99508505718E+01  0.39051065072E+00  0.10525932606E+02  0.51100000000E-03 0.  1.
         12    1    4    4    0    0 -0.88419748379E+01 -0.82231320216E+01  0.10201447333E+02  0.15807275128E+02  0.00000000000E+00 0. -1.
</event>
